 Entering Gaussian System, Link 0=g09
 Initial command:
 /home/pcieplak/g09/g09/l1.exe "/scratch1/pcieplak/holo_11.0/Gau-26078.inp" -scrdir="/scratch1/pcieplak/holo_11.0/"
 Entering Link 1 = /home/pcieplak/g09/g09/l1.exe PID=     26079.
  
 Copyright (c) 1988,1990,1992,1993,1995,1998,2003,2009,2013,
            Gaussian, Inc.  All Rights Reserved.
  
 This is part of the Gaussian(R) 09 program.  It is based on
 the Gaussian(R) 03 system (copyright 2003, Gaussian, Inc.),
 the Gaussian(R) 98 system (copyright 1998, Gaussian, Inc.),
 the Gaussian(R) 94 system (copyright 1995, Gaussian, Inc.),
 the Gaussian 92(TM) system (copyright 1992, Gaussian, Inc.),
 the Gaussian 90(TM) system (copyright 1990, Gaussian, Inc.),
 the Gaussian 88(TM) system (copyright 1988, Gaussian, Inc.),
 the Gaussian 86(TM) system (copyright 1986, Carnegie Mellon
 University), and the Gaussian 82(TM) system (copyright 1983,
 Carnegie Mellon University). Gaussian is a federally registered
 trademark of Gaussian, Inc.
  
 This software contains proprietary and confidential information,
 including trade secrets, belonging to Gaussian, Inc.
  
 This software is provided under written license and may be
 used, copied, transmitted, or stored only in accord with that
 written license.
  
 The following legend is applicable only to US Government
 contracts under FAR:
  
                    RESTRICTED RIGHTS LEGEND
  
 Use, reproduction and disclosure by the US Government is
 subject to restrictions as set forth in subparagraphs (a)
 and (c) of the Commercial Computer Software - Restricted
 Rights clause in FAR 52.227-19.
  
 Gaussian, Inc.
 340 Quinnipiac St., Bldg. 40, Wallingford CT 06492
  
  
 ---------------------------------------------------------------
 Warning -- This program may not be used in any manner that
 competes with the business of Gaussian, Inc. or will provide
 assistance to any competitor of Gaussian, Inc.  The licensee
 of this program is prohibited from giving any competitor of
 Gaussian, Inc. access to this program.  By using this program,
 the user acknowledges that Gaussian, Inc. is engaged in the
 business of creating and licensing software in the field of
 computational chemistry and represents and warrants to the
 licensee that it is not a competitor of Gaussian, Inc. and that
 it will not use this program in any manner prohibited above.
 ---------------------------------------------------------------
  

 Cite this work as:
 Gaussian 09, Revision D.01,
 M. J. Frisch, G. W. Trucks, H. B. Schlegel, G. E. Scuseria, 
 M. A. Robb, J. R. Cheeseman, G. Scalmani, V. Barone, B. Mennucci, 
 G. A. Petersson, H. Nakatsuji, M. Caricato, X. Li, H. P. Hratchian, 
 A. F. Izmaylov, J. Bloino, G. Zheng, J. L. Sonnenberg, M. Hada, 
 M. Ehara, K. Toyota, R. Fukuda, J. Hasegawa, M. Ishida, T. Nakajima, 
 Y. Honda, O. Kitao, H. Nakai, T. Vreven, J. A. Montgomery, Jr., 
 J. E. Peralta, F. Ogliaro, M. Bearpark, J. J. Heyd, E. Brothers, 
 K. N. Kudin, V. N. Staroverov, T. Keith, R. Kobayashi, J. Normand, 
 K. Raghavachari, A. Rendell, J. C. Burant, S. S. Iyengar, J. Tomasi, 
 M. Cossi, N. Rega, J. M. Millam, M. Klene, J. E. Knox, J. B. Cross, 
 V. Bakken, C. Adamo, J. Jaramillo, R. Gomperts, R. E. Stratmann, 
 O. Yazyev, A. J. Austin, R. Cammi, C. Pomelli, J. W. Ochterski, 
 R. L. Martin, K. Morokuma, V. G. Zakrzewski, G. A. Voth, 
 P. Salvador, J. J. Dannenberg, S. Dapprich, A. D. Daniels, 
 O. Farkas, J. B. Foresman, J. V. Ortiz, J. Cioslowski, 
 and D. J. Fox, Gaussian, Inc., Wallingford CT, 2013.
 
 ******************************************
 Gaussian 09:  ES64L-G09RevD.01 24-Apr-2013
                16-Sep-2019 
 ******************************************
 %Nproc=12
 Will use up to   12 processors via shared memory.
 %chk=chk1mol
 %mem=32GB
 ----------------------------------------------------------------------
 #maxdisk=50GB #B3LYP/SVP Density=Current scf=(tight) #IOP(5/87=12)Pop=
 (MK,readradii) iop(6/33=2) iop(6/42=6)
 ----------------------------------------------------------------------
 1/30=1,38=1/1;
 2/12=2,17=6,18=5,40=1/2;
 3/5=18,7=101,11=2,16=1,25=1,30=1,74=-5/1,2,3;
 4//1;
 5/5=2,32=2,38=5,87=12/2;
 6/7=2,8=2,9=2,10=2,15=8,20=101,22=-1,28=1,33=2,42=6/1,2;
 99/5=1,9=1/99;
 ------------
 SOL molecule
 ------------
 Symbolic Z-matrix:
 Charge =  0 Multiplicity = 1
 C                     48.12     39.79     24.41 
 C                     48.57     38.74     25.41 
 O                     48.37     38.87     26.62 
 H                     47.23     40.293    24.788 
 H                     48.916    40.52     24.266 
 H                     47.889    39.311    23.459 
 N                     49.39     37.76     25.02 
 C                     50.22     36.94     25.88 
 C                     51.53     37.62     26.23 
 O                     52.45     37.83     25.44 
 C                     50.51     35.64     25.13 
 C                     51.48     34.62     25.71 
 O                     51.76     34.81     26.91 
 O                     51.92     33.69     25. 
 H                     49.37     37.62     24.02 
 H                     49.52     36.72     26.68 
 H                     50.91     35.95     24.17 
 H                     49.55     35.16     24.96 
 N                     51.66     38.02     27.5 
 C                     52.78     38.83     27.96 
 C                     54.1      38.13     28.21 
 O                     55.07     38.89     28.23 
 C                     52.21     39.5      29.21 
 C                     51.12     40.55     29.05 
 C                     51.7      41.85     28.48 
 C                     50.61     42.85     28.09 
 N                     51.07     44.11     27.49 
 H                     51.06     37.57     28.18 
 H                     53.04     39.65     27.29 
 H                     53.08     39.91     29.72 
 H                     51.82     38.72     29.85 
 H                     50.72     40.84     30.02 
 H                     50.28     40.21     28.45 
 H                     52.35     41.62     27.64 
 H                     52.21     42.38     29.28 
 H                     50.14     43.26     28.99 
 H                     49.93     42.4      27.37 
 H                     50.33     44.7      27.13 
 H                     51.65     44.64     28.12 
 H                     51.57     43.95     26.63 
 N                     54.18     36.81     28.44 
 C                     55.47     36.18     28.66 
 C                     55.73     35.1      27.62 
 O                     56.76     34.44     27.61 
 C                     55.34     35.68     30.09 
 C                     54.43     34.49     30.34 
 O                     54.37     34.06     31.51 
 O                     53.56     34.21     29.49 
 H                     53.4      36.18     28.33 
 H                     56.34     36.84     28.57 
 H                     55.       36.52     30.7 
 H                     56.35     35.43     30.42 
 N                     54.96     35.05     26.52 
 C                     55.24     34.2      25.38 
 C                     55.07     32.7      25.55 
 O                     55.63     31.87     24.83 
 H                     54.13     35.62     26.52 
 H                     56.19     34.46     24.92 
 H                     54.52     34.51     24.62 
 N                     54.23     32.38     26.54 
 C                     53.99     31.02     26.96 
 C                     52.94     30.29     26.14 
 O                     52.9      29.06     26.14 
 C                     53.8      30.92     28.47 
 C                     52.33     31.05     28.86 
 N                     51.84     30.38     29.9 
 O                     51.62     31.9      28.32 
 H                     53.69     33.14     26.94 
 H                     54.92     30.5      26.7 
 H                     54.4      31.7      28.93 
 H                     54.18     29.97     28.85 
 H                     52.4      29.58     30.16 
 H                     50.84     30.31     30.02 
 N                     52.16     30.98     25.31 
 C                     51.06     30.42     24.54 
 C                     49.63     30.71     24.97 
 O                     48.69     30.31     24.28 
 H                     52.28     31.98     25.36 
 H                     51.19     29.34     24.48 
 H                     51.09     30.85     23.54 
 N                     49.45     31.37     26.12 
 C                     48.23     31.26     26.89 
 C                     47.96     32.63     27.5 
 O                     48.91     33.3      27.89 
 C                     48.39     30.12     27.88 
 C                     48.75     28.77     27.31 
 C                     50.03     28.22     27.48 
 C                     47.81     28.03     26.58 
 C                     50.45     27.05     26.84 
 C                     48.17     26.84     25.94 
 C                     49.49     26.38     26.05 
 O                     49.79     25.13     25.59 
 H                     50.27     31.68     26.61 
 H                     47.42     31.05     26.19 
 H                     47.45     30.       28.42 
 H                     49.17     30.37     28.6 
 H                     50.81     28.69     28.07 
 H                     46.82     28.43     26.4 
 H                     51.43     26.61     26.96 
 H                     47.47     26.24     25.37 
 H                     49.17     24.89     24.9 
 N                     46.69     32.99     27.71 
 C                     46.39     34.26     28.33 
 C                     45.75     33.99     29.69 
 O                     44.89     33.11     29.8 
 C                     45.51     35.11     27.43 
 C                     46.38     35.47     26.22 
 C                     44.63     36.21     28.01 
 C                     45.53     36.25     25.22 
 H                     45.9      32.48     27.34 
 H                     47.34     34.76     28.52 
 H                     44.78     34.38     27.1 
 H                     46.69     34.57     25.69 
 H                     47.22     36.09     26.52 
 H                     43.97     36.66     27.28 
 H                     43.98     35.86     28.81 
 H                     45.36     36.95     28.36 
 H                     45.45     37.3      25.49 
 H                     46.1      36.07     24.31 
 H                     44.51     35.9      25.04 
 N                     46.09     34.76     30.73 
 C                     45.83     34.64     32.15 
 C                     45.2      35.93     32.66 
 O                     45.23     36.95     31.99 
 C                     47.04     34.13     32.93 
 O                     48.09     35.07     32.86 
 H                     46.67     35.54     30.47 
 H                     45.09     33.85     32.16 
 H                     47.45     33.25     32.42 
 H                     47.01     33.86     33.98 
 H                     48.41     35.15     31.96 
 N                     44.45     35.93     33.77 
 C                     43.55     37.       34.12 
 C                     44.19     38.38     34.22 
 O                     43.62     39.35     33.72 
 C                     42.86     36.65     35.44 
 H                     44.42     35.05     34.27 
 H                     42.82     37.03     33.3 
 H                     43.02     35.64     35.8 
 H                     43.06     37.4      36.21 
 H                     41.79     36.67     35.26 
 N                     45.37     38.44     34.83 
 C                     46.15     39.66     34.76 
 C                     46.5      40.13     33.35 
 O                     46.37     41.28     32.94 
 C                     47.38     39.42     35.64 
 H                     45.82     37.56     35.01 
 H                     45.54     40.44     35.21 
 H                     47.93     40.36     35.6 
 H                     47.19     39.34     36.71 
 H                     47.93     38.55     35.31 
 N                     46.78     39.27     32.37 
 C                     47.01     39.59     30.98 
 C                     45.81     40.18     30.25 
 O                     45.98     41.15     29.52 
 C                     47.69     38.44     30.24 
 C                     48.93     37.93     30.96 
 C                     49.45     36.63     30.36 
 O                     50.41     36.71     29.56 
 O                     48.91     35.51     30.54 
 H                     46.84     38.27     32.56 
 H                     47.74     40.39     31.05 
 H                     48.01     38.72     29.23 
 H                     46.92     37.69     30.06 
 H                     48.75     37.83     32.03 
 H                     49.6      38.78     30.81 
 N                     44.65     39.55     30.47 
 C                     43.33     39.92     30.03 
 H                     42.667    39.993    30.892 
 H                     43.372    40.884    29.523 
 H                     42.95     39.164    29.343 
 H                     44.74     38.72     31.04 
 Ca                    51.       34.22     29.32 
 O                     49.58     32.49     30.78 
 H                     49.17     31.65     30.98 
 H                     50.02     32.74     31.59 
 
 Stoichiometry    C54H83CaN15O23
 Framework group  C1[X(C54H83CaN15O23)]
 Deg. of freedom   522
 Full point group                 C1      NOp   1
 Largest Abelian subgroup         C1      NOp   1
 Largest concise Abelian subgroup C1      NOp   1
                         Standard orientation:                         
 ---------------------------------------------------------------------
 Center     Atomic      Atomic             Coordinates (Angstroms)
 Number     Number       Type             X           Y           Z
 ---------------------------------------------------------------------
      1          6           0        2.047880    2.937548    5.371042
      2          6           0        1.520367    2.344869    4.076646
      3          8           0        2.276231    2.016685    3.159060
      4          1           0        3.045516    2.545841    5.569235
      5          1           0        2.094976    4.022474    5.281767
      6          1           0        1.383420    2.668352    6.191547
      7          7           0        0.209897    2.374497    3.818403
      8          6           0       -0.413373    2.237538    2.516989
      9          6           0       -0.440349    3.548122    1.753679
     10          8           0       -1.130237    4.523525    2.049048
     11          6           0       -1.846094    1.756126    2.745360
     12          6           0       -2.815178    1.650355    1.576006
     13          8           0       -2.269263    1.708547    0.456591
     14          8           0       -4.040623    1.511647    1.780077
     15          1           0       -0.342293    2.491239    4.655934
     16          1           0        0.160014    1.411241    2.108505
     17          1           0       -2.273197    2.462147    3.450213
     18          1           0       -1.773198    0.788456    3.234441
     19          7           0        0.366800    3.621457    0.689286
     20          6           0        0.582622    4.856784   -0.051988
     21          6           0       -0.489592    5.286987   -1.031877
     22          8           0       -0.435265    6.479965   -1.336429
     23          6           0        1.937454    4.610097   -0.715220
     24          6           0        3.184201    4.555672    0.155905
     25          6           0        3.556970    5.956537    0.655826
     26          6           0        4.661512    5.920528    1.713602
     27          7           0        5.053757    7.215575    2.286486
     28          1           0        0.667353    2.742106    0.287653
     29          1           0        0.729215    5.733782    0.579111
     30          1           0        2.017728    5.391045   -1.469392
     31          1           0        1.873131    3.672852   -1.251442
     32          1           0        4.048046    4.243026   -0.428067
     33          1           0        3.097252    3.862521    0.988481
     34          1           0        2.666910    6.459170    1.024816
     35          1           0        4.043975    6.493382   -0.153879
     36          1           0        5.615708    5.652391    1.248187
     37          1           0        4.357087    5.296518    2.551002
     38          1           0        5.695635    7.153788    3.067175
     39          1           0        5.426025    7.840652    1.590141
     40          1           0        4.282548    7.661150    2.757548
     41          7           0       -1.375497    4.422693   -1.551366
     42          6           0       -2.395613    4.884216   -2.476438
     43          6           0       -3.788252    4.591113   -1.937691
     44          8           0       -4.801541    4.897591   -2.550811
     45          6           0       -2.028150    4.141744   -3.751391
     46          6           0       -2.298571    2.647999   -3.799319
     47          8           0       -2.036985    2.060018   -4.868549
     48          8           0       -2.442202    2.028724   -2.725229
     49          1           0       -1.476133    3.471934   -1.229917
     50          1           0       -2.412316    5.964046   -2.661607
     51          1           0       -0.965475    4.315239   -3.935571
     52          1           0       -2.578814    4.628239   -4.558604
     53          7           0       -3.933444    4.251128   -0.645898
     54          6           0       -5.216962    4.146374    0.019014
     55          6           0       -6.130757    2.997332   -0.371476
     56          8           0       -7.350935    3.012938   -0.193083
     57          1           0       -3.093150    4.031119   -0.136680
     58          1           0       -5.734008    5.102556    0.027928
     59          1           0       -4.971785    4.003690    1.073352
     60          7           0       -5.469173    1.962149   -0.899493
     61          6           0       -6.130464    0.799313   -1.441809
     62          6           0       -6.491133   -0.252588   -0.406810
     63          8           0       -7.356278   -1.092302   -0.653600
     64          6           0       -5.406911    0.259635   -2.671206
     65          6           0       -4.372048   -0.797059   -2.293906
     66          7           0       -4.120681   -1.822927   -3.103232
     67          8           0       -3.641559   -0.625665   -1.316557
     68          1           0       -4.457515    1.986237   -0.827597
     69          1           0       -7.106573    1.182164   -1.763578
     70          1           0       -4.943439    1.101886   -3.176981
     71          1           0       -6.112422   -0.178848   -3.379223
     72          1           0       -4.866770   -2.006481   -3.759631
     73          1           0       -3.597889   -2.613768   -2.756016
     74          7           0       -5.973529   -0.172153    0.817533
     75          6           0       -6.162787   -1.159029    1.869558
     76          6           0       -5.014934   -2.090449    2.228432
     77          8           0       -5.134869   -2.874842    3.171854
     78          1           0       -5.292371    0.562170    0.934546
     79          1           0       -7.035630   -1.764397    1.627534
     80          1           0       -6.330348   -0.630565    2.806814
     81          7           0       -3.915418   -2.041416    1.467406
     82          6           0       -3.007403   -3.161780    1.350383
     83          6           0       -1.599264   -2.588579    1.247990
     84          8           0       -1.428565   -1.551961    0.615705
     85          6           0       -3.454191   -4.019751    0.180098
     86          6           0       -4.876059   -4.524093    0.210589
     87          6           0       -5.856467   -4.005830   -0.649646
     88          6           0       -5.259334   -5.523727    1.114984
     89          6           0       -7.212086   -4.332778   -0.548146
     90          6           0       -6.598289   -5.906935    1.240089
     91          6           0       -7.562293   -5.287212    0.432166
     92          8           0       -8.830284   -5.793266    0.417727
     93          1           0       -3.890509   -1.357829    0.732091
     94          1           0       -3.062430   -3.725338    2.282893
     95          1           0       -2.804556   -4.894318    0.128064
     96          1           0       -3.345587   -3.455823   -0.746989
     97          1           0       -5.649440   -3.267803   -1.417667
     98          1           0       -4.541737   -5.930474    1.816491
     99          1           0       -7.981016   -3.946180   -1.202124
    100          1           0       -6.931132   -6.677716    1.925664
    101          1           0       -9.000682   -6.242442    1.246766
    102          7           0       -0.585422   -3.309834    1.736371
    103          6           0        0.770847   -2.826337    1.617776
    104          6           0        1.535717   -3.767638    0.689861
    105          8           0        1.398031   -4.989815    0.805737
    106          6           0        1.423145   -2.696556    2.983267
    107          6           0        0.673257   -1.564313    3.694810
    108          6           0        2.938834   -2.732582    3.132221
    109          6           0        1.213434   -1.436809    5.117080
    110          1           0       -0.714501   -4.130564    2.311558
    111          1           0        0.726768   -1.857127    1.120495
    112          1           0        1.123020   -3.628206    3.448727
    113          1           0       -0.380159   -1.816778    3.811329
    114          1           0        0.823349   -0.619522    3.180181
    115          1           0        3.267624   -2.746586    4.163095
    116          1           0        3.392705   -3.608701    2.672419
    117          1           0        3.255395   -1.798806    2.651750
    118          1           0        2.135741   -0.862244    5.149093
    119          1           0        0.368489   -0.943000    5.594175
    120          1           0        1.406409   -2.359603    5.670716
    121          7           0        2.394411   -3.248206   -0.194976
    122          6           0        3.098251   -3.831216   -1.318857
    123          6           0        4.589010   -3.546858   -1.185148
    124          8           0        4.998739   -2.703102   -0.403868
    125          6           0        2.464545   -3.473110   -2.661532
    126          8           0        2.565530   -2.083913   -2.887212
    127          1           0        2.535803   -2.259459   -0.073372
    128          1           0        2.917075   -4.885565   -1.153557
    129          1           0        1.382987   -3.645069   -2.604399
    130          1           0        2.770424   -3.907249   -3.607185
    131          1           0        2.041906   -1.600376   -2.246267
    132          7           0        5.489865   -4.333249   -1.789009
    133          6           0        6.888110   -4.352029   -1.439783
    134          6           0        7.596777   -3.005027   -1.525669
    135          8           0        8.359668   -2.662946   -0.621912
    136          6           0        7.602784   -5.373036   -2.327356
    137          1           0        5.102474   -5.046716   -2.394148
    138          1           0        6.909103   -4.673105   -0.389702
    139          1           0        6.958743   -6.004544   -2.928777
    140          1           0        8.394903   -4.906973   -2.919584
    141          1           0        8.088126   -6.087764   -1.670617
    142          7           0        7.310632   -2.254650   -2.585459
    143          6           0        7.753083   -0.874662   -2.625083
    144          6           0        7.259331    0.001495   -1.476145
    145          8           0        7.965581    0.758019   -0.815553
    146          6           0        7.349648   -0.346515   -4.004649
    147          1           0        6.526947   -2.552045   -3.139259
    148          1           0        8.838476   -0.898809   -2.559221
    149          1           0        7.723386    0.677042   -4.023416
    150          1           0        7.884450   -0.774707   -4.852021
    151          1           0        6.285910   -0.451591   -4.165023
    152          7           0        6.042485   -0.145599   -0.950740
    153          6           0        5.512072    0.541042    0.204503
    154          6           0        6.221303    0.231693    1.516865
    155          8           0        6.494827    1.156388    2.273716
    156          6           0        3.990058    0.436270    0.275176
    157          6           0        3.313114    0.829317   -1.029953
    158          6           0        1.830557    0.479505   -1.037374
    159          8           0        1.021712    1.400142   -0.780085
    160          8           0        1.386644   -0.686832   -1.182280
    161          1           0        5.378934   -0.804322   -1.357537
    162          1           0        5.742565    1.576933   -0.022660
    163          1           0        3.559687    1.076251    1.053704
    164          1           0        3.765499   -0.570793    0.626169
    165          1           0        3.828334    0.395117   -1.886294
    166          1           0        3.509108    1.904252   -1.029552
    167          7           0        6.469798   -1.065585    1.731857
    168          6           0        7.216617   -1.670925    2.803643
    169          1           0        8.010493   -2.291323    2.387941
    170          1           0        7.655060   -0.891894    3.427332
    171          1           0        6.551704   -2.288704    3.407087
    172          1           0        6.088601   -1.675578    1.021577
    173         20           0       -1.187922    0.235530   -1.385886
    174          8           0       -1.024501   -2.250705   -2.351717
    175          1           0       -1.324835   -3.143569   -2.513868
    176          1           0       -0.698291   -1.950962   -3.197850
 ---------------------------------------------------------------------
 Rotational constants (GHZ):      0.0246793      0.0148404      0.0119101
 Standard basis: SVP (5D, 7F)
 There are  1809 symmetry adapted cartesian basis functions of A   symmetry.
 There are  1717 symmetry adapted basis functions of A   symmetry.
  1717 basis functions,  2922 primitive gaussians,  1809 cartesian basis functions
   358 alpha electrons      358 beta electrons
       nuclear repulsion energy     21855.5060049338 Hartrees.
 NAtoms=  176 NActive=  176 NUniq=  176 SFac= 1.00D+00 NAtFMM=   60 NAOKFM=T Big=T
 Integral buffers will be    131072 words long.
 Raffenetti 2 integral format.
 Two-electron integral symmetry is turned on.
 One-electron integrals computed using PRISM.
 NBasis=  1717 RedAO= T EigKep=  2.70D-04  NBF=  1717
 NBsUse=  1717 1.00D-06 EigRej= -1.00D+00 NBFU=  1717
 ExpMin= 1.98D-02 ExpMax= 3.51D+04 ExpMxC= 5.28D+03 IAcc=3 IRadAn=         5 AccDes= 0.00D+00
 Harris functional with IExCor=  402 and IRadAn=       5 diagonalized for initial guess.
 HarFok:  IExCor=  402 AccDes= 0.00D+00 IRadAn=         5 IDoV= 1 UseB2=F ITyADJ=14
 ICtDFT=  3500011 ScaDFX=  1.000000  1.000000  1.000000  1.000000
 FoFCou: FMM=F IPFlag=           0 FMFlag=      100000 FMFlg1=        2001
         NFxFlg=           0 DoJE=T BraDBF=F KetDBF=T FulRan=T
         wScrn=  0.000000 ICntrl=     500 IOpCl=  0 I1Cent=   200000004 NGrid=           0
         NMat0=    1 NMatS0=      1 NMatT0=    0 NMatD0=    1 NMtDS0=    0 NMtDT0=    0
 Petite list used in FoFCou.
 Requested convergence on RMS density matrix=1.00D-08 within 128 cycles.
 Requested convergence on MAX density matrix=1.00D-06.
 Requested convergence on             energy=1.00D-06.
 No special actions if energy rises.
 EnCoef did     5 forward-backward iterations
 SCF Done:  E(RB3LYP) =  -5333.57214513     A.U. after   18 cycles
            NFock= 18  Conv=0.22D-08     -V/T= 2.0081

 **********************************************************************

            Population analysis using the SCF density.

 **********************************************************************

 Orbital symmetries:
 BldTbl:  Degeneracy threshold= 1.00D-02
       Occupied  (A) (A) (A) (A) (A) (A) (A) (A) (A) (A) (A) (A)
                 (A) (A) (A) (A) (A) (A) (A) (A) (A) (A) (A) (A)
                 (A) (A) (A) (A) (A) (A) (A) (A) (A) (A) (A) (A)
                 (A) (A) (A) (A) (A) (A) (A) (A) (A) (A) (A) (A)
                 (A) (A) (A) (A) (A) (A) (A) (A) (A) (A) (A) (A)
                 (A) (A) (A) (A) (A) (A) (A) (A) (A) (A) (A) (A)
                 (A) (A) (A) (A) (A) (A) (A) (A) (A) (A) (A) (A)
                 (A) (A) (A) (A) (A) (A) (A) (A) (A) (A) (A) (A)
                 (A) (A) (A) (A) (A) (A) (A) (A) (A) (A) (A) (A)
                 (A) (A) (A) (A) (A) (A) (A) (A) (A) (A) (A) (A)
                 (A) (A) (A) (A) (A) (A) (A) (A) (A) (A) (A) (A)
                 (A) (A) (A) (A) (A) (A) (A) (A) (A) (A) (A) (A)
                 (A) (A) (A) (A) (A) (A) (A) (A) (A) (A) (A) (A)
                 (A) (A) (A) (A) (A) (A) (A) (A) (A) (A) (A) (A)
                 (A) (A) (A) (A) (A) (A) (A) (A) (A) (A) (A) (A)
                 (A) (A) (A) (A) (A) (A) (A) (A) (A) (A) (A) (A)
                 (A) (A) (A) (A) (A) (A) (A) (A) (A) (A) (A) (A)
                 (A) (A) (A) (A) (A) (A) (A) (A) (A) (A) (A) (A)
                 (A) (A) (A) (A) (A) (A) (A) (A) (A) (A) (A) (A)
                 (A) (A) (A) (A) (A) (A) (A) (A) (A) (A) (A) (A)
                 (A) (A) (A) (A) (A) (A) (A) (A) (A) (A) (A) (A)
                 (A) (A) (A) (A) (A) (A) (A) (A) (A) (A) (A) (A)
                 (A) (A) (A) (A) (A) (A) (A) (A) (A) (A) (A) (A)
                 (A) (A) (A) (A) (A) (A) (A) (A) (A) (A) (A) (A)
                 (A) (A) (A) (A) (A) (A) (A) (A) (A) (A) (A) (A)
                 (A) (A) (A) (A) (A) (A) (A) (A) (A) (A) (A) (A)
                 (A) (A) (A) (A) (A) (A) (A) (A) (A) (A) (A) (A)
                 (A) (A) (A) (A) (A) (A) (A) (A) (A) (A) (A) (A)
                 (A) (A) (A) (A) (A) (A) (A) (A) (A) (A) (A) (A)
                 (A) (A) (A) (A) (A) (A) (A) (A) (A) (A)
       Virtual   (A) (A) (A) (A) (A) (A) (A) (A) (A) (A) (A) (A)
                 (A) (A) (A) (A) (A) (A) (A) (A) (A) (A) (A) (A)
                 (A) (A) (A) (A) (A) (A) (A) (A) (A) (A) (A) (A)
                 (A) (A) (A) (A) (A) (A) (A) (A) (A) (A) (A) (A)
                 (A) (A) (A) (A) (A) (A) (A) (A) (A) (A) (A) (A)
                 (A) (A) (A) (A) (A) (A) (A) (A) (A) (A) (A) (A)
                 (A) (A) (A) (A) (A) (A) (A) (A) (A) (A) (A) (A)
                 (A) (A) (A) (A) (A) (A) (A) (A) (A) (A) (A) (A)
                 (A) (A) (A) (A) (A) (A) (A) (A) (A) (A) (A) (A)
                 (A) (A) (A) (A) (A) (A) (A) (A) (A) (A) (A) (A)
                 (A) (A) (A) (A) (A) (A) (A) (A) (A) (A) (A) (A)
                 (A) (A) (A) (A) (A) (A) (A) (A) (A) (A) (A) (A)
                 (A) (A) (A) (A) (A) (A) (A) (A) (A) (A) (A) (A)
                 (A) (A) (A) (A) (A) (A) (A) (A) (A) (A) (A) (A)
                 (A) (A) (A) (A) (A) (A) (A) (A) (A) (A) (A) (A)
                 (A) (A) (A) (A) (A) (A) (A) (A) (A) (A) (A) (A)
                 (A) (A) (A) (A) (A) (A) (A) (A) (A) (A) (A) (A)
                 (A) (A) (A) (A) (A) (A) (A) (A) (A) (A) (A) (A)
                 (A) (A) (A) (A) (A) (A) (A) (A) (A) (A) (A) (A)
                 (A) (A) (A) (A) (A) (A) (A) (A) (A) (A) (A) (A)
                 (A) (A) (A) (A) (A) (A) (A) (A) (A) (A) (A) (A)
                 (A) (A) (A) (A) (A) (A) (A) (A) (A) (A) (A) (A)
                 (A) (A) (A) (A) (A) (A) (A) (A) (A) (A) (A) (A)
                 (A) (A) (A) (A) (A) (A) (A) (A) (A) (A) (A) (A)
                 (A) (A) (A) (A) (A) (A) (A) (A) (A) (A) (A) (A)
                 (A) (A) (A) (A) (A) (A) (A) (A) (A) (A) (A) (A)
                 (A) (A) (A) (A) (A) (A) (A) (A) (A) (A) (A) (A)
                 (A) (A) (A) (A) (A) (A) (A) (A) (A) (A) (A) (A)
                 (A) (A) (A) (A) (A) (A) (A) (A) (A) (A) (A) (A)
                 (A) (A) (A) (A) (A) (A) (A) (A) (A) (A) (A) (A)
                 (A) (A) (A) (A) (A) (A) (A) (A) (A) (A) (A) (A)
                 (A) (A) (A) (A) (A) (A) (A) (A) (A) (A) (A) (A)
                 (A) (A) (A) (A) (A) (A) (A) (A) (A) (A) (A) (A)
                 (A) (A) (A) (A) (A) (A) (A) (A) (A) (A) (A) (A)
                 (A) (A) (A) (A) (A) (A) (A) (A) (A) (A) (A) (A)
                 (A) (A) (A) (A) (A) (A) (A) (A) (A) (A) (A) (A)
                 (A) (A) (A) (A) (A) (A) (A) (A) (A) (A) (A) (A)
                 (A) (A) (A) (A) (A) (A) (A) (A) (A) (A) (A) (A)
                 (A) (A) (A) (A) (A) (A) (A) (A) (A) (A) (A) (A)
                 (A) (A) (A) (A) (A) (A) (A) (A) (A) (A) (A) (A)
                 (A) (A) (A) (A) (A) (A) (A) (A) (A) (A) (A) (A)
                 (A) (A) (A) (A) (A) (A) (A) (A) (A) (A) (A) (A)
                 (A) (A) (A) (A) (A) (A) (A) (A) (A) (A) (A) (A)
                 (A) (A) (A) (A) (A) (A) (A) (A) (A) (A) (A) (A)
                 (A) (A) (A) (A) (A) (A) (A) (A) (A) (A) (A) (A)
                 (A) (A) (A) (A) (A) (A) (A) (A) (A) (A) (A) (A)
                 (A) (A) (A) (A) (A) (A) (A) (A) (A) (A) (A) (A)
                 (A) (A) (A) (A) (A) (A) (A) (A) (A) (A) (A) (A)
                 (A) (A) (A) (A) (A) (A) (A) (A) (A) (A) (A) (A)
                 (A) (A) (A) (A) (A) (A) (A) (A) (A) (A) (A) (A)
                 (A) (A) (A) (A) (A) (A) (A) (A) (A) (A) (A) (A)
                 (A) (A) (A) (A) (A) (A) (A) (A) (A) (A) (A) (A)
                 (A) (A) (A) (A) (A) (A) (A) (A) (A) (A) (A) (A)
                 (A) (A) (A) (A) (A) (A) (A) (A) (A) (A) (A) (A)
                 (A) (A) (A) (A) (A) (A) (A) (A) (A) (A) (A) (A)
                 (A) (A) (A) (A) (A) (A) (A) (A) (A) (A) (A) (A)
                 (A) (A) (A) (A) (A) (A) (A) (A) (A) (A) (A) (A)
                 (A) (A) (A) (A) (A) (A) (A) (A) (A) (A) (A) (A)
                 (A) (A) (A) (A) (A) (A) (A) (A) (A) (A) (A) (A)
                 (A) (A) (A) (A) (A) (A) (A) (A) (A) (A) (A) (A)
                 (A) (A) (A) (A) (A) (A) (A) (A) (A) (A) (A) (A)
                 (A) (A) (A) (A) (A) (A) (A) (A) (A) (A) (A) (A)
                 (A) (A) (A) (A) (A) (A) (A) (A) (A) (A) (A) (A)
                 (A) (A) (A) (A) (A) (A) (A) (A) (A) (A) (A) (A)
                 (A) (A) (A) (A) (A) (A) (A) (A) (A) (A) (A) (A)
                 (A) (A) (A) (A) (A) (A) (A) (A) (A) (A) (A) (A)
                 (A) (A) (A) (A) (A) (A) (A) (A) (A) (A) (A) (A)
                 (A) (A) (A) (A) (A) (A) (A) (A) (A) (A) (A) (A)
                 (A) (A) (A) (A) (A) (A) (A) (A) (A) (A) (A) (A)
                 (A) (A) (A) (A) (A) (A) (A) (A) (A) (A) (A) (A)
                 (A) (A) (A) (A) (A) (A) (A) (A) (A) (A) (A) (A)
                 (A) (A) (A) (A) (A) (A) (A) (A) (A) (A) (A) (A)
                 (A) (A) (A) (A) (A) (A) (A) (A) (A) (A) (A) (A)
                 (A) (A) (A) (A) (A) (A) (A) (A) (A) (A) (A) (A)
                 (A) (A) (A) (A) (A) (A) (A) (A) (A) (A) (A) (A)
                 (A) (A) (A) (A) (A) (A) (A) (A) (A) (A) (A) (A)
                 (A) (A) (A) (A) (A) (A) (A) (A) (A) (A) (A) (A)
                 (A) (A) (A) (A) (A) (A) (A) (A) (A) (A) (A) (A)
                 (A) (A) (A) (A) (A) (A) (A) (A) (A) (A) (A) (A)
                 (A) (A) (A) (A) (A) (A) (A) (A) (A) (A) (A) (A)
                 (A) (A) (A) (A) (A) (A) (A) (A) (A) (A) (A) (A)
                 (A) (A) (A) (A) (A) (A) (A) (A) (A) (A) (A) (A)
                 (A) (A) (A) (A) (A) (A) (A) (A) (A) (A) (A) (A)
                 (A) (A) (A) (A) (A) (A) (A) (A) (A) (A) (A) (A)
                 (A) (A) (A) (A) (A) (A) (A) (A) (A) (A) (A) (A)
                 (A) (A) (A) (A) (A) (A) (A) (A) (A) (A) (A) (A)
                 (A) (A) (A) (A) (A) (A) (A) (A) (A) (A) (A) (A)
                 (A) (A) (A) (A) (A) (A) (A) (A) (A) (A) (A) (A)
                 (A) (A) (A) (A) (A) (A) (A) (A) (A) (A) (A) (A)
                 (A) (A) (A) (A) (A) (A) (A) (A) (A) (A) (A) (A)
                 (A) (A) (A) (A) (A) (A) (A) (A) (A) (A) (A) (A)
                 (A) (A) (A) (A) (A) (A) (A) (A) (A) (A) (A) (A)
                 (A) (A) (A) (A) (A) (A) (A) (A) (A) (A) (A) (A)
                 (A) (A) (A) (A) (A) (A) (A) (A) (A) (A) (A) (A)
                 (A) (A) (A) (A) (A) (A) (A) (A) (A) (A) (A) (A)
                 (A) (A) (A) (A) (A) (A) (A) (A) (A) (A) (A) (A)
                 (A) (A) (A) (A) (A) (A) (A) (A) (A) (A) (A) (A)
                 (A) (A) (A) (A) (A) (A) (A) (A) (A) (A) (A) (A)
                 (A) (A) (A) (A) (A) (A) (A) (A) (A) (A) (A) (A)
                 (A) (A) (A) (A) (A) (A) (A) (A) (A) (A) (A) (A)
                 (A) (A) (A) (A) (A) (A) (A) (A) (A) (A) (A) (A)
                 (A) (A) (A) (A) (A) (A) (A) (A) (A) (A) (A) (A)
                 (A) (A) (A) (A) (A) (A) (A) (A) (A) (A) (A) (A)
                 (A) (A) (A) (A) (A) (A) (A) (A) (A) (A) (A) (A)
                 (A) (A) (A) (A) (A) (A) (A) (A) (A) (A) (A) (A)
                 (A) (A) (A) (A) (A) (A) (A) (A) (A) (A) (A) (A)
                 (A) (A) (A) (A) (A) (A) (A) (A) (A) (A) (A) (A)
                 (A) (A) (A) (A) (A) (A) (A) (A) (A) (A) (A) (A)
                 (A) (A) (A) (A) (A) (A) (A) (A) (A) (A) (A) (A)
                 (A) (A) (A) (A) (A) (A) (A) (A) (A) (A) (A) (A)
                 (A) (A) (A) (A) (A) (A) (A) (A) (A) (A) (A) (A)
                 (A) (A) (A) (A) (A) (A) (A) (A) (A) (A) (A) (A)
                 (A) (A) (A) (A) (A) (A) (A) (A) (A) (A) (A) (A)
                 (A) (A) (A)
 The electronic state is 1-A.
 Alpha  occ. eigenvalues -- -145.39292 -19.20569 -19.14202 -19.14090 -19.12606
 Alpha  occ. eigenvalues --  -19.12401 -19.11946 -19.11881 -19.11306 -19.11303
 Alpha  occ. eigenvalues --  -19.10220 -19.09832 -19.08557 -19.08066 -19.07247
 Alpha  occ. eigenvalues --  -19.06934 -19.06176 -19.05934 -19.04861 -19.04806
 Alpha  occ. eigenvalues --  -19.04487 -19.04217 -19.04131 -19.01553 -15.45002
 Alpha  occ. eigenvalues --  -14.58146 -14.39636 -14.37631 -14.37553 -14.37482
 Alpha  occ. eigenvalues --  -14.36235 -14.35580 -14.34545 -14.33052 -14.32691
 Alpha  occ. eigenvalues --  -14.32358 -14.32096 -14.30160 -14.29642 -14.29567
 Alpha  occ. eigenvalues --  -12.58631 -12.58588 -12.58556 -10.34097 -10.32339
 Alpha  occ. eigenvalues --  -10.31286 -10.30616 -10.30499 -10.29902 -10.29085
 Alpha  occ. eigenvalues --  -10.29022 -10.27909 -10.26463 -10.26407 -10.26231
 Alpha  occ. eigenvalues --  -10.26153 -10.26148 -10.25906 -10.25520 -10.25011
 Alpha  occ. eigenvalues --  -10.25001 -10.24814 -10.23573 -10.23433 -10.23179
 Alpha  occ. eigenvalues --  -10.23053 -10.23029 -10.22918 -10.22669 -10.22401
 Alpha  occ. eigenvalues --  -10.22201 -10.22147 -10.22130 -10.22014 -10.21229
 Alpha  occ. eigenvalues --  -10.20804 -10.20619 -10.20158 -10.19925 -10.19864
 Alpha  occ. eigenvalues --  -10.19745 -10.19729 -10.19628 -10.19275 -10.18799
 Alpha  occ. eigenvalues --  -10.18650 -10.18611 -10.18501 -10.18067 -10.17870
 Alpha  occ. eigenvalues --  -10.17818 -10.17622 -10.17520 -10.17398 -10.16787
 Alpha  occ. eigenvalues --  -10.16341 -10.14226  -1.81841  -1.13622  -1.09685
 Alpha  occ. eigenvalues --   -1.09535  -1.09138  -1.08044  -1.07125  -1.06654
 Alpha  occ. eigenvalues --   -1.05475  -1.04942  -1.04342  -1.03091  -1.03084
 Alpha  occ. eigenvalues --   -1.03077  -1.02565  -1.01108  -1.01018  -0.99922
 Alpha  occ. eigenvalues --   -0.99833  -0.99617  -0.99166  -0.98289  -0.98064
 Alpha  occ. eigenvalues --   -0.97761  -0.96764  -0.96432  -0.96422  -0.94491
 Alpha  occ. eigenvalues --   -0.94376  -0.92999  -0.92500  -0.92014  -0.91226
 Alpha  occ. eigenvalues --   -0.90429  -0.90268  -0.89998  -0.89568  -0.89411
 Alpha  occ. eigenvalues --   -0.87962  -0.87836  -0.87528  -0.86324  -0.85516
 Alpha  occ. eigenvalues --   -0.83358  -0.82659  -0.81831  -0.80890  -0.80210
 Alpha  occ. eigenvalues --   -0.78691  -0.78098  -0.77934  -0.77487  -0.76234
 Alpha  occ. eigenvalues --   -0.75372  -0.74694  -0.73775  -0.73477  -0.73283
 Alpha  occ. eigenvalues --   -0.73237  -0.72718  -0.72628  -0.71126  -0.70889
 Alpha  occ. eigenvalues --   -0.69501  -0.69409  -0.68927  -0.68332  -0.67993
 Alpha  occ. eigenvalues --   -0.67605  -0.66570  -0.65449  -0.64952  -0.64694
 Alpha  occ. eigenvalues --   -0.64435  -0.62987  -0.62365  -0.62262  -0.61800
 Alpha  occ. eigenvalues --   -0.61202  -0.61102  -0.60653  -0.60278  -0.59723
 Alpha  occ. eigenvalues --   -0.59554  -0.59427  -0.59219  -0.59100  -0.57845
 Alpha  occ. eigenvalues --   -0.57496  -0.57318  -0.57294  -0.57163  -0.56462
 Alpha  occ. eigenvalues --   -0.56348  -0.56170  -0.56039  -0.55833  -0.55545
 Alpha  occ. eigenvalues --   -0.54971  -0.54612  -0.53785  -0.53714  -0.53346
 Alpha  occ. eigenvalues --   -0.52827  -0.52819  -0.52567  -0.52321  -0.52028
 Alpha  occ. eigenvalues --   -0.51296  -0.50839  -0.50527  -0.50433  -0.50004
 Alpha  occ. eigenvalues --   -0.49824  -0.49509  -0.49383  -0.49217  -0.48928
 Alpha  occ. eigenvalues --   -0.48758  -0.48693  -0.48264  -0.48140  -0.48004
 Alpha  occ. eigenvalues --   -0.47809  -0.47729  -0.47665  -0.47391  -0.47170
 Alpha  occ. eigenvalues --   -0.46583  -0.46559  -0.46454  -0.46199  -0.46005
 Alpha  occ. eigenvalues --   -0.45875  -0.45696  -0.45527  -0.45239  -0.45102
 Alpha  occ. eigenvalues --   -0.44810  -0.44667  -0.44462  -0.44378  -0.44293
 Alpha  occ. eigenvalues --   -0.43968  -0.43871  -0.43648  -0.43374  -0.43270
 Alpha  occ. eigenvalues --   -0.43107  -0.42996  -0.42841  -0.42720  -0.42661
 Alpha  occ. eigenvalues --   -0.42506  -0.42378  -0.42079  -0.41900  -0.41799
 Alpha  occ. eigenvalues --   -0.41760  -0.41658  -0.41303  -0.41274  -0.41074
 Alpha  occ. eigenvalues --   -0.40942  -0.40836  -0.40525  -0.40502  -0.40388
 Alpha  occ. eigenvalues --   -0.40291  -0.40153  -0.39752  -0.39560  -0.39476
 Alpha  occ. eigenvalues --   -0.39281  -0.39194  -0.39122  -0.38990  -0.38850
 Alpha  occ. eigenvalues --   -0.38752  -0.38580  -0.38453  -0.38415  -0.38320
 Alpha  occ. eigenvalues --   -0.38269  -0.38032  -0.37916  -0.37781  -0.37702
 Alpha  occ. eigenvalues --   -0.37528  -0.37439  -0.37226  -0.37150  -0.36927
 Alpha  occ. eigenvalues --   -0.36761  -0.36644  -0.36543  -0.36227  -0.35947
 Alpha  occ. eigenvalues --   -0.35892  -0.35790  -0.35446  -0.35284  -0.35212
 Alpha  occ. eigenvalues --   -0.34833  -0.34628  -0.34529  -0.34324  -0.33932
 Alpha  occ. eigenvalues --   -0.33845  -0.33459  -0.33387  -0.32930  -0.32853
 Alpha  occ. eigenvalues --   -0.32712  -0.32585  -0.32490  -0.32175  -0.31704
 Alpha  occ. eigenvalues --   -0.31481  -0.31068  -0.30970  -0.30875  -0.30454
 Alpha  occ. eigenvalues --   -0.30260  -0.30098  -0.29958  -0.29262  -0.29160
 Alpha  occ. eigenvalues --   -0.28273  -0.28177  -0.27806  -0.27477  -0.27227
 Alpha  occ. eigenvalues --   -0.26675  -0.26029  -0.25879  -0.25794  -0.25587
 Alpha  occ. eigenvalues --   -0.25557  -0.24468  -0.24307  -0.24151  -0.23899
 Alpha  occ. eigenvalues --   -0.23584  -0.23553  -0.23462  -0.23318  -0.22913
 Alpha  occ. eigenvalues --   -0.22658  -0.22422  -0.22166  -0.21753  -0.21608
 Alpha  occ. eigenvalues --   -0.20990  -0.20842  -0.20710  -0.20201  -0.19825
 Alpha  occ. eigenvalues --   -0.19387  -0.19048  -0.17711
 Alpha virt. eigenvalues --   -0.10536  -0.04261  -0.03873  -0.03539  -0.02386
 Alpha virt. eigenvalues --   -0.01038  -0.00939  -0.00794  -0.00529   0.00129
 Alpha virt. eigenvalues --    0.00285   0.00457   0.00937   0.01008   0.01452
 Alpha virt. eigenvalues --    0.01770   0.02237   0.02628   0.03139   0.03539
 Alpha virt. eigenvalues --    0.03670   0.03763   0.03991   0.04356   0.04537
 Alpha virt. eigenvalues --    0.04844   0.05012   0.05295   0.05401   0.05538
 Alpha virt. eigenvalues --    0.05861   0.06103   0.06230   0.06419   0.06458
 Alpha virt. eigenvalues --    0.06562   0.07008   0.07230   0.07644   0.07792
 Alpha virt. eigenvalues --    0.07862   0.07968   0.08146   0.08384   0.08602
 Alpha virt. eigenvalues --    0.08711   0.09040   0.09462   0.09649   0.09830
 Alpha virt. eigenvalues --    0.09940   0.10254   0.10441   0.10573   0.10663
 Alpha virt. eigenvalues --    0.11125   0.11166   0.11331   0.11436   0.11755
 Alpha virt. eigenvalues --    0.11974   0.12184   0.12288   0.12557   0.12676
 Alpha virt. eigenvalues --    0.12899   0.12922   0.13199   0.13255   0.13427
 Alpha virt. eigenvalues --    0.13537   0.13729   0.13943   0.14158   0.14336
 Alpha virt. eigenvalues --    0.14412   0.14477   0.14605   0.14799   0.14896
 Alpha virt. eigenvalues --    0.15116   0.15231   0.15427   0.15604   0.15815
 Alpha virt. eigenvalues --    0.16011   0.16257   0.16474   0.16501   0.16566
 Alpha virt. eigenvalues --    0.16999   0.17144   0.17278   0.17417   0.17592
 Alpha virt. eigenvalues --    0.17893   0.18020   0.18150   0.18433   0.18685
 Alpha virt. eigenvalues --    0.18785   0.18994   0.19179   0.19371   0.19469
 Alpha virt. eigenvalues --    0.19558   0.19938   0.20046   0.20143   0.20359
 Alpha virt. eigenvalues --    0.20513   0.20800   0.21059   0.21163   0.21588
 Alpha virt. eigenvalues --    0.21646   0.21831   0.22166   0.22291   0.22339
 Alpha virt. eigenvalues --    0.22680   0.22854   0.23123   0.23282   0.23463
 Alpha virt. eigenvalues --    0.23839   0.23873   0.23992   0.24153   0.24818
 Alpha virt. eigenvalues --    0.24906   0.25120   0.25166   0.25481   0.25710
 Alpha virt. eigenvalues --    0.25845   0.25981   0.26319   0.26514   0.26862
 Alpha virt. eigenvalues --    0.27171   0.27330   0.27402   0.27700   0.27829
 Alpha virt. eigenvalues --    0.28154   0.28354   0.28661   0.28853   0.29299
 Alpha virt. eigenvalues --    0.29420   0.29557   0.29916   0.30194   0.30343
 Alpha virt. eigenvalues --    0.30583   0.30822   0.31175   0.31329   0.31612
 Alpha virt. eigenvalues --    0.31799   0.31934   0.32220   0.32342   0.32419
 Alpha virt. eigenvalues --    0.32824   0.33073   0.33197   0.33494   0.33560
 Alpha virt. eigenvalues --    0.33802   0.34336   0.34417   0.34817   0.34934
 Alpha virt. eigenvalues --    0.35419   0.35700   0.35992   0.36217   0.36940
 Alpha virt. eigenvalues --    0.37207   0.37335   0.37533   0.37755   0.38003
 Alpha virt. eigenvalues --    0.38322   0.38548   0.38750   0.38984   0.39318
 Alpha virt. eigenvalues --    0.39408   0.39617   0.39889   0.40015   0.40680
 Alpha virt. eigenvalues --    0.40786   0.40942   0.41272   0.41495   0.41755
 Alpha virt. eigenvalues --    0.41967   0.42148   0.42416   0.42510   0.42877
 Alpha virt. eigenvalues --    0.43062   0.43112   0.43260   0.43656   0.43921
 Alpha virt. eigenvalues --    0.44153   0.44541   0.44801   0.44909   0.45165
 Alpha virt. eigenvalues --    0.45407   0.45418   0.45570   0.45697   0.46313
 Alpha virt. eigenvalues --    0.46432   0.46518   0.46721   0.46943   0.47085
 Alpha virt. eigenvalues --    0.47421   0.47556   0.47594   0.47679   0.48038
 Alpha virt. eigenvalues --    0.48170   0.48442   0.48632   0.48913   0.49031
 Alpha virt. eigenvalues --    0.49094   0.49315   0.49696   0.49786   0.50029
 Alpha virt. eigenvalues --    0.50138   0.50360   0.50662   0.50797   0.51001
 Alpha virt. eigenvalues --    0.51501   0.51751   0.51943   0.52016   0.52220
 Alpha virt. eigenvalues --    0.52374   0.52590   0.52905   0.52979   0.53207
 Alpha virt. eigenvalues --    0.53515   0.53887   0.53956   0.54141   0.54320
 Alpha virt. eigenvalues --    0.54421   0.54753   0.54829   0.55076   0.55211
 Alpha virt. eigenvalues --    0.55288   0.55551   0.55832   0.55971   0.56056
 Alpha virt. eigenvalues --    0.56241   0.56355   0.56636   0.56841   0.56879
 Alpha virt. eigenvalues --    0.57095   0.57233   0.57359   0.57416   0.57752
 Alpha virt. eigenvalues --    0.57900   0.57967   0.58057   0.58474   0.58605
 Alpha virt. eigenvalues --    0.58630   0.58815   0.59049   0.59237   0.59414
 Alpha virt. eigenvalues --    0.59538   0.59597   0.59977   0.60036   0.60245
 Alpha virt. eigenvalues --    0.60481   0.60768   0.60876   0.60987   0.61060
 Alpha virt. eigenvalues --    0.61195   0.61428   0.61487   0.61690   0.61819
 Alpha virt. eigenvalues --    0.61879   0.61953   0.62062   0.62099   0.62431
 Alpha virt. eigenvalues --    0.62696   0.62867   0.62914   0.62988   0.63101
 Alpha virt. eigenvalues --    0.63267   0.63301   0.63404   0.63524   0.63696
 Alpha virt. eigenvalues --    0.63795   0.63902   0.63982   0.64063   0.64247
 Alpha virt. eigenvalues --    0.64265   0.64326   0.64466   0.64508   0.64638
 Alpha virt. eigenvalues --    0.64789   0.64896   0.64964   0.64999   0.65257
 Alpha virt. eigenvalues --    0.65355   0.65428   0.65578   0.65709   0.65827
 Alpha virt. eigenvalues --    0.65927   0.66029   0.66032   0.66231   0.66283
 Alpha virt. eigenvalues --    0.66402   0.66526   0.66660   0.66890   0.66958
 Alpha virt. eigenvalues --    0.66979   0.67111   0.67205   0.67326   0.67576
 Alpha virt. eigenvalues --    0.67690   0.67708   0.67801   0.67833   0.68043
 Alpha virt. eigenvalues --    0.68303   0.68357   0.68468   0.68606   0.68648
 Alpha virt. eigenvalues --    0.68774   0.69097   0.69348   0.69393   0.69571
 Alpha virt. eigenvalues --    0.69702   0.69798   0.69865   0.69927   0.70072
 Alpha virt. eigenvalues --    0.70309   0.70435   0.70577   0.70760   0.70858
 Alpha virt. eigenvalues --    0.71022   0.71072   0.71340   0.71378   0.71508
 Alpha virt. eigenvalues --    0.71721   0.71778   0.71946   0.72003   0.72234
 Alpha virt. eigenvalues --    0.72296   0.72615   0.72789   0.73099   0.73163
 Alpha virt. eigenvalues --    0.73320   0.73483   0.73607   0.73809   0.74291
 Alpha virt. eigenvalues --    0.74400   0.74429   0.74594   0.74884   0.74930
 Alpha virt. eigenvalues --    0.75010   0.75115   0.75187   0.75391   0.75749
 Alpha virt. eigenvalues --    0.76029   0.76062   0.76201   0.76288   0.76374
 Alpha virt. eigenvalues --    0.76547   0.76637   0.76947   0.77229   0.77442
 Alpha virt. eigenvalues --    0.77708   0.77965   0.78172   0.78353   0.78855
 Alpha virt. eigenvalues --    0.78938   0.79119   0.79389   0.80153   0.80395
 Alpha virt. eigenvalues --    0.80809   0.80837   0.81209   0.81542   0.81719
 Alpha virt. eigenvalues --    0.81959   0.82048   0.82596   0.82707   0.82910
 Alpha virt. eigenvalues --    0.83058   0.83214   0.83760   0.83946   0.84096
 Alpha virt. eigenvalues --    0.84533   0.84876   0.84951   0.85376   0.85420
 Alpha virt. eigenvalues --    0.85608   0.86011   0.86085   0.86451   0.86760
 Alpha virt. eigenvalues --    0.86842   0.87253   0.87914   0.88109   0.88493
 Alpha virt. eigenvalues --    0.88926   0.89373   0.89578   0.90069   0.90097
 Alpha virt. eigenvalues --    0.90283   0.90819   0.91098   0.91163   0.91356
 Alpha virt. eigenvalues --    0.91956   0.92116   0.92472   0.92523   0.92923
 Alpha virt. eigenvalues --    0.93052   0.93505   0.93624   0.93998   0.94150
 Alpha virt. eigenvalues --    0.94368   0.94562   0.95023   0.95224   0.95417
 Alpha virt. eigenvalues --    0.95795   0.96267   0.96387   0.96609   0.96827
 Alpha virt. eigenvalues --    0.97276   0.97533   0.97883   0.98508   0.98784
 Alpha virt. eigenvalues --    0.98985   0.99103   0.99466   0.99724   1.00011
 Alpha virt. eigenvalues --    1.00420   1.00797   1.00916   1.01357   1.01591
 Alpha virt. eigenvalues --    1.01846   1.02145   1.02270   1.02843   1.03082
 Alpha virt. eigenvalues --    1.03323   1.03483   1.03918   1.04110   1.04479
 Alpha virt. eigenvalues --    1.04615   1.04860   1.04971   1.05336   1.05596
 Alpha virt. eigenvalues --    1.05988   1.06325   1.06557   1.06693   1.07106
 Alpha virt. eigenvalues --    1.07136   1.07689   1.07930   1.08340   1.08512
 Alpha virt. eigenvalues --    1.08646   1.08928   1.09345   1.09576   1.09910
 Alpha virt. eigenvalues --    1.10210   1.10429   1.10535   1.10941   1.11087
 Alpha virt. eigenvalues --    1.11503   1.11862   1.12040   1.12606   1.12619
 Alpha virt. eigenvalues --    1.12850   1.13232   1.13295   1.13849   1.13992
 Alpha virt. eigenvalues --    1.14364   1.14482   1.14791   1.15232   1.15462
 Alpha virt. eigenvalues --    1.15934   1.16064   1.16219   1.16618   1.16872
 Alpha virt. eigenvalues --    1.17147   1.17413   1.17822   1.18375   1.18846
 Alpha virt. eigenvalues --    1.19149   1.19185   1.19622   1.19826   1.20097
 Alpha virt. eigenvalues --    1.20233   1.20317   1.20789   1.20842   1.21209
 Alpha virt. eigenvalues --    1.21476   1.21974   1.22194   1.22246   1.22515
 Alpha virt. eigenvalues --    1.22754   1.23109   1.23248   1.23563   1.23903
 Alpha virt. eigenvalues --    1.24187   1.24515   1.24803   1.24949   1.25189
 Alpha virt. eigenvalues --    1.25266   1.25537   1.25745   1.26125   1.26310
 Alpha virt. eigenvalues --    1.26571   1.26706   1.26987   1.27070   1.27461
 Alpha virt. eigenvalues --    1.27755   1.28176   1.28325   1.28579   1.28781
 Alpha virt. eigenvalues --    1.29022   1.29187   1.29408   1.29732   1.30055
 Alpha virt. eigenvalues --    1.30137   1.30542   1.30963   1.31458   1.31557
 Alpha virt. eigenvalues --    1.31690   1.31941   1.32113   1.32813   1.32936
 Alpha virt. eigenvalues --    1.33336   1.33524   1.33783   1.34063   1.34320
 Alpha virt. eigenvalues --    1.34709   1.34807   1.35012   1.35048   1.35366
 Alpha virt. eigenvalues --    1.35587   1.35975   1.36286   1.36751   1.36849
 Alpha virt. eigenvalues --    1.37235   1.37325   1.37679   1.37842   1.38531
 Alpha virt. eigenvalues --    1.38800   1.39113   1.39313   1.39633   1.40015
 Alpha virt. eigenvalues --    1.40267   1.40289   1.40508   1.40829   1.41190
 Alpha virt. eigenvalues --    1.41270   1.41452   1.41796   1.41949   1.42660
 Alpha virt. eigenvalues --    1.42849   1.43373   1.43402   1.43750   1.44104
 Alpha virt. eigenvalues --    1.44575   1.44746   1.45007   1.45244   1.45634
 Alpha virt. eigenvalues --    1.45648   1.46011   1.46647   1.47315   1.47349
 Alpha virt. eigenvalues --    1.47446   1.47907   1.48046   1.48617   1.48953
 Alpha virt. eigenvalues --    1.49153   1.49270   1.49834   1.49996   1.50168
 Alpha virt. eigenvalues --    1.50332   1.50629   1.50790   1.51454   1.51727
 Alpha virt. eigenvalues --    1.51996   1.52045   1.52273   1.52815   1.52944
 Alpha virt. eigenvalues --    1.53288   1.53324   1.53550   1.53902   1.54028
 Alpha virt. eigenvalues --    1.54170   1.54348   1.54470   1.55136   1.55225
 Alpha virt. eigenvalues --    1.55592   1.55862   1.56378   1.56461   1.56951
 Alpha virt. eigenvalues --    1.57573   1.57957   1.58011   1.58325   1.58468
 Alpha virt. eigenvalues --    1.58827   1.59568   1.59953   1.60355   1.61120
 Alpha virt. eigenvalues --    1.61168   1.61341   1.61755   1.61897   1.62235
 Alpha virt. eigenvalues --    1.62407   1.62981   1.63234   1.63628   1.63695
 Alpha virt. eigenvalues --    1.63981   1.64087   1.64506   1.64813   1.65010
 Alpha virt. eigenvalues --    1.65351   1.65619   1.65639   1.66019   1.66129
 Alpha virt. eigenvalues --    1.66291   1.66685   1.66875   1.67266   1.67452
 Alpha virt. eigenvalues --    1.67639   1.68365   1.68548   1.68721   1.69000
 Alpha virt. eigenvalues --    1.69240   1.69408   1.70010   1.70340   1.70496
 Alpha virt. eigenvalues --    1.70637   1.70738   1.71012   1.71422   1.71668
 Alpha virt. eigenvalues --    1.71693   1.72247   1.72535   1.72930   1.73035
 Alpha virt. eigenvalues --    1.73298   1.73457   1.73506   1.73724   1.73949
 Alpha virt. eigenvalues --    1.74122   1.74282   1.74434   1.74846   1.75005
 Alpha virt. eigenvalues --    1.75346   1.75530   1.75655   1.75965   1.76055
 Alpha virt. eigenvalues --    1.76303   1.76324   1.76534   1.76673   1.76906
 Alpha virt. eigenvalues --    1.77063   1.77173   1.77566   1.77729   1.77768
 Alpha virt. eigenvalues --    1.77913   1.78027   1.78194   1.78350   1.78389
 Alpha virt. eigenvalues --    1.78575   1.78703   1.78872   1.79011   1.79298
 Alpha virt. eigenvalues --    1.79569   1.79788   1.80029   1.80433   1.80472
 Alpha virt. eigenvalues --    1.80666   1.80678   1.80865   1.80960   1.81203
 Alpha virt. eigenvalues --    1.81357   1.81496   1.81767   1.81913   1.82169
 Alpha virt. eigenvalues --    1.82197   1.82264   1.82541   1.82750   1.82915
 Alpha virt. eigenvalues --    1.83285   1.83335   1.83541   1.83652   1.83897
 Alpha virt. eigenvalues --    1.84120   1.84353   1.84401   1.84768   1.84923
 Alpha virt. eigenvalues --    1.85301   1.85549   1.85785   1.85937   1.86048
 Alpha virt. eigenvalues --    1.86540   1.86734   1.86874   1.87014   1.87191
 Alpha virt. eigenvalues --    1.87558   1.87785   1.88084   1.88374   1.88603
 Alpha virt. eigenvalues --    1.88609   1.88738   1.88906   1.89033   1.89366
 Alpha virt. eigenvalues --    1.89588   1.89919   1.90109   1.90167   1.90372
 Alpha virt. eigenvalues --    1.90510   1.90638   1.90733   1.90983   1.91044
 Alpha virt. eigenvalues --    1.91123   1.91529   1.91697   1.91961   1.92062
 Alpha virt. eigenvalues --    1.92207   1.92395   1.92469   1.92736   1.93028
 Alpha virt. eigenvalues --    1.93164   1.93397   1.93919   1.94051   1.94251
 Alpha virt. eigenvalues --    1.94365   1.94565   1.94669   1.94764   1.94932
 Alpha virt. eigenvalues --    1.95104   1.95291   1.95658   1.95692   1.96004
 Alpha virt. eigenvalues --    1.96368   1.96430   1.96768   1.96853   1.97175
 Alpha virt. eigenvalues --    1.97381   1.97621   1.98323   1.98548   1.98713
 Alpha virt. eigenvalues --    1.98937   1.99072   1.99167   1.99324   1.99562
 Alpha virt. eigenvalues --    1.99761   1.99961   2.00111   2.00314   2.00515
 Alpha virt. eigenvalues --    2.00535   2.01064   2.01438   2.01745   2.01874
 Alpha virt. eigenvalues --    2.02124   2.02531   2.02711   2.03067   2.03324
 Alpha virt. eigenvalues --    2.03564   2.03764   2.04129   2.04248   2.04376
 Alpha virt. eigenvalues --    2.04578   2.04801   2.04860   2.05235   2.05407
 Alpha virt. eigenvalues --    2.05638   2.06053   2.06084   2.06293   2.06537
 Alpha virt. eigenvalues --    2.06674   2.07079   2.07654   2.07745   2.07833
 Alpha virt. eigenvalues --    2.08000   2.08322   2.08361   2.08790   2.09227
 Alpha virt. eigenvalues --    2.09402   2.09793   2.10084   2.10302   2.10458
 Alpha virt. eigenvalues --    2.10927   2.11168   2.11489   2.12057   2.12605
 Alpha virt. eigenvalues --    2.12704   2.12927   2.13132   2.13564   2.13919
 Alpha virt. eigenvalues --    2.14269   2.14602   2.14844   2.15187   2.15518
 Alpha virt. eigenvalues --    2.15637   2.15894   2.16031   2.16229   2.16795
 Alpha virt. eigenvalues --    2.17283   2.17415   2.17502   2.17799   2.17851
 Alpha virt. eigenvalues --    2.18418   2.18655   2.18769   2.19052   2.19478
 Alpha virt. eigenvalues --    2.19621   2.19826   2.19882   2.20234   2.20562
 Alpha virt. eigenvalues --    2.20738   2.20822   2.21174   2.21308   2.21544
 Alpha virt. eigenvalues --    2.21937   2.22147   2.22320   2.22496   2.22834
 Alpha virt. eigenvalues --    2.23308   2.23588   2.23836   2.23912   2.24491
 Alpha virt. eigenvalues --    2.25208   2.25545   2.25744   2.26107   2.26253
 Alpha virt. eigenvalues --    2.26712   2.27241   2.27480   2.28641   2.28985
 Alpha virt. eigenvalues --    2.29136   2.29230   2.29583   2.30097   2.30363
 Alpha virt. eigenvalues --    2.30506   2.31481   2.31812   2.32280   2.32319
 Alpha virt. eigenvalues --    2.32953   2.33165   2.33237   2.33787   2.34162
 Alpha virt. eigenvalues --    2.34707   2.34945   2.35145   2.35259   2.35406
 Alpha virt. eigenvalues --    2.35707   2.35831   2.36341   2.36704   2.37150
 Alpha virt. eigenvalues --    2.37174   2.37271   2.37432   2.37795   2.37925
 Alpha virt. eigenvalues --    2.38712   2.38827   2.39342   2.39695   2.39888
 Alpha virt. eigenvalues --    2.40220   2.40585   2.40866   2.41057   2.41815
 Alpha virt. eigenvalues --    2.41898   2.42095   2.42282   2.42622   2.43418
 Alpha virt. eigenvalues --    2.43549   2.43727   2.44014   2.44562   2.45310
 Alpha virt. eigenvalues --    2.45340   2.45596   2.46131   2.46592   2.46753
 Alpha virt. eigenvalues --    2.47027   2.47403   2.47460   2.48053   2.48486
 Alpha virt. eigenvalues --    2.48568   2.48919   2.49181   2.49324   2.49613
 Alpha virt. eigenvalues --    2.50342   2.50518   2.50765   2.51249   2.51639
 Alpha virt. eigenvalues --    2.52034   2.52295   2.52514   2.52727   2.53160
 Alpha virt. eigenvalues --    2.53525   2.53910   2.54125   2.54645   2.55441
 Alpha virt. eigenvalues --    2.55896   2.56276   2.56606   2.57314   2.57585
 Alpha virt. eigenvalues --    2.58096   2.58388   2.58671   2.59046   2.59286
 Alpha virt. eigenvalues --    2.59597   2.59694   2.60181   2.60563   2.60804
 Alpha virt. eigenvalues --    2.60961   2.61203   2.61248   2.62192   2.62308
 Alpha virt. eigenvalues --    2.62714   2.62817   2.63436   2.63630   2.63928
 Alpha virt. eigenvalues --    2.64024   2.64209   2.64324   2.64616   2.64916
 Alpha virt. eigenvalues --    2.65283   2.65307   2.65413   2.65920   2.66546
 Alpha virt. eigenvalues --    2.66809   2.67045   2.67098   2.67428   2.67576
 Alpha virt. eigenvalues --    2.67695   2.68826   2.69318   2.69558   2.69743
 Alpha virt. eigenvalues --    2.69820   2.69991   2.70387   2.70531   2.70938
 Alpha virt. eigenvalues --    2.71084   2.71350   2.71804   2.72159   2.72306
 Alpha virt. eigenvalues --    2.72656   2.72767   2.73113   2.73558   2.73832
 Alpha virt. eigenvalues --    2.74003   2.74159   2.74302   2.74517   2.74615
 Alpha virt. eigenvalues --    2.74707   2.75051   2.75646   2.75717   2.76050
 Alpha virt. eigenvalues --    2.76305   2.76804   2.76930   2.76982   2.77286
 Alpha virt. eigenvalues --    2.77492   2.77685   2.78014   2.78233   2.78624
 Alpha virt. eigenvalues --    2.78890   2.79393   2.79935   2.80142   2.80209
 Alpha virt. eigenvalues --    2.80335   2.80856   2.81169   2.81200   2.81583
 Alpha virt. eigenvalues --    2.81763   2.82122   2.82398   2.82615   2.82920
 Alpha virt. eigenvalues --    2.83364   2.83520   2.83943   2.83999   2.84206
 Alpha virt. eigenvalues --    2.84684   2.85229   2.85291   2.85694   2.86208
 Alpha virt. eigenvalues --    2.86532   2.86884   2.86955   2.87452   2.87581
 Alpha virt. eigenvalues --    2.88164   2.88405   2.88703   2.89052   2.89320
 Alpha virt. eigenvalues --    2.89624   2.89753   2.89829   2.90014   2.90582
 Alpha virt. eigenvalues --    2.90786   2.91321   2.91705   2.92169   2.92400
 Alpha virt. eigenvalues --    2.92600   2.92848   2.92997   2.93219   2.93477
 Alpha virt. eigenvalues --    2.93795   2.93978   2.94132   2.94559   2.94857
 Alpha virt. eigenvalues --    2.95340   2.95491   2.95870   2.96441   2.96734
 Alpha virt. eigenvalues --    2.96867   2.97086   2.97330   2.97527   2.97806
 Alpha virt. eigenvalues --    2.98044   2.98231   2.99124   2.99408   2.99723
 Alpha virt. eigenvalues --    3.00300   3.00438   3.00750   3.01032   3.01450
 Alpha virt. eigenvalues --    3.01914   3.01956   3.02446   3.02800   3.03188
 Alpha virt. eigenvalues --    3.03544   3.04139   3.04259   3.04496   3.04676
 Alpha virt. eigenvalues --    3.04899   3.06073   3.06303   3.06839   3.07173
 Alpha virt. eigenvalues --    3.07358   3.07807   3.08094   3.08497   3.09346
 Alpha virt. eigenvalues --    3.09645   3.10567   3.11055   3.11228   3.11710
 Alpha virt. eigenvalues --    3.12075   3.12238   3.12639   3.12885   3.14500
 Alpha virt. eigenvalues --    3.14930   3.15203   3.15337   3.15654   3.15893
 Alpha virt. eigenvalues --    3.15977   3.16566   3.16979   3.17072   3.17213
 Alpha virt. eigenvalues --    3.18071   3.18257   3.18564   3.18654   3.19044
 Alpha virt. eigenvalues --    3.19406   3.19767   3.20261   3.20543   3.21006
 Alpha virt. eigenvalues --    3.21223   3.21968   3.22165   3.22321   3.22588
 Alpha virt. eigenvalues --    3.23197   3.24014   3.24328   3.24663   3.24844
 Alpha virt. eigenvalues --    3.25324   3.25723   3.25948   3.26884   3.27312
 Alpha virt. eigenvalues --    3.27632   3.27922   3.28541   3.28912   3.30949
 Alpha virt. eigenvalues --    3.31732   3.32408   3.32542   3.33242   3.34992
 Alpha virt. eigenvalues --    3.35356   3.37509   3.38571   3.39526   3.40389
 Alpha virt. eigenvalues --    3.41974   3.42008   3.44290   3.46471   3.49371
 Alpha virt. eigenvalues --    3.49878   3.52638   3.53076   3.54057   3.55535
 Alpha virt. eigenvalues --    3.57042   3.57525   3.57930   3.59915   3.60359
 Alpha virt. eigenvalues --    3.61037   3.61823   3.62333   3.62817   3.64315
 Alpha virt. eigenvalues --    3.65739   3.66214   3.66706   3.67079   3.67387
 Alpha virt. eigenvalues --    3.67940   3.68275   3.68545   3.69709   3.70056
 Alpha virt. eigenvalues --    3.70336   3.70647   3.71165   3.71536   3.71844
 Alpha virt. eigenvalues --    3.72345   3.72603   3.73098   3.74098   3.76400
 Alpha virt. eigenvalues --    3.78922   3.79739   3.81588   3.94091
          Condensed to atoms (all electrons):
 Mulliken charges:
               1
     1  C    0.058871
     2  C    0.024973
     3  O   -0.305533
     4  H    0.035853
     5  H    0.025451
     6  H    0.019005
     7  N   -0.141908
     8  C    0.154611
     9  C    0.072975
    10  O   -0.286788
    11  C    0.020936
    12  C    0.191470
    13  O   -0.480503
    14  O   -0.368207
    15  H    0.112050
    16  H    0.000644
    17  H    0.007104
    18  H    0.006986
    19  N   -0.152291
    20  C    0.144607
    21  C    0.095987
    22  O   -0.311511
    23  C    0.035511
    24  C    0.028674
    25  C   -0.022162
    26  C    0.020629
    27  N    0.078280
    28  H    0.147421
    29  H   -0.015432
    30  H   -0.008864
    31  H    0.008704
    32  H    0.017779
    33  H    0.040254
    34  H    0.034116
    35  H    0.008585
    36  H    0.069032
    37  H    0.084256
    38  H    0.188732
    39  H    0.188729
    40  H    0.178247
    41  N   -0.182088
    42  C    0.118540
    43  C    0.065192
    44  O   -0.279417
    45  C    0.082405
    46  C    0.108718
    47  O   -0.359583
    48  O   -0.484268
    49  H    0.140040
    50  H    0.037619
    51  H    0.005647
    52  H    0.011849
    53  N   -0.172738
    54  C    0.222318
    55  C    0.062541
    56  O   -0.284976
    57  H    0.129328
    58  H    0.010356
    59  H    0.021657
    60  N   -0.184231
    61  C    0.142128
    62  C    0.014033
    63  O   -0.305467
    64  C    0.146060
    65  C    0.036070
    66  N   -0.011962
    67  O   -0.368799
    68  H    0.151395
    69  H    0.030370
    70  H    0.085554
    71  H   -0.006629
    72  H    0.137751
    73  H    0.103869
    74  N   -0.154342
    75  C    0.242592
    76  C    0.026934
    77  O   -0.304510
    78  H    0.142534
    79  H    0.049184
    80  H    0.022505
    81  N   -0.160390
    82  C    0.116751
    83  C    0.143743
    84  O   -0.348854
    85  C    0.209312
    86  C    0.005796
    87  C   -0.016239
    88  C    0.001458
    89  C    0.016373
    90  C   -0.024220
    91  C    0.141750
    92  O   -0.207472
    93  H    0.155000
    94  H   -0.005024
    95  H   -0.011728
    96  H   -0.078479
    97  H   -0.078388
    98  H   -0.037396
    99  H   -0.015086
   100  H   -0.046834
   101  H    0.170447
   102  N   -0.120052
   103  C    0.140440
   104  C    0.058792
   105  O   -0.299446
   106  C   -0.133869
   107  C    0.004520
   108  C    0.086169
   109  C    0.024143
   110  H    0.132691
   111  H    0.014684
   112  H   -0.028519
   113  H    0.012574
   114  H    0.023784
   115  H    0.012283
   116  H    0.023627
   117  H    0.015643
   118  H    0.019643
   119  H   -0.000764
   120  H    0.006889
   121  N   -0.141487
   122  C    0.090559
   123  C    0.102636
   124  O   -0.284838
   125  C    0.280878
   126  O   -0.377386
   127  H    0.135140
   128  H    0.010578
   129  H   -0.042750
   130  H   -0.002742
   131  H    0.164363
   132  N   -0.128490
   133  C    0.076037
   134  C    0.051582
   135  O   -0.252103
   136  C    0.056854
   137  H    0.119728
   138  H    0.026324
   139  H    0.003940
   140  H    0.041248
   141  H    0.029234
   142  N   -0.122013
   143  C    0.114029
   144  C    0.071115
   145  O   -0.271213
   146  C    0.027546
   147  H    0.109309
   148  H    0.019468
   149  H    0.024175
   150  H    0.022316
   151  H    0.022883
   152  N   -0.155820
   153  C    0.134343
   154  C    0.079885
   155  O   -0.287504
   156  C   -0.058342
   157  C    0.105881
   158  C    0.192764
   159  O   -0.426897
   160  O   -0.432668
   161  H    0.116621
   162  H   -0.032486
   163  H    0.046638
   164  H    0.012028
   165  H    0.001347
   166  H   -0.016122
   167  N   -0.162739
   168  C    0.133195
   169  H    0.031268
   170  H    0.027558
   171  H    0.007547
   172  H    0.132371
   173  Ca   1.283009
   174  O   -0.263626
   175  H    0.191288
   176  H    0.184332
 Sum of Mulliken charges =   0.00000
 Mulliken charges with hydrogens summed into heavy atoms:
               1
     1  C    0.139180
     2  C    0.024973
     3  O   -0.305533
     7  N   -0.029858
     8  C    0.155255
     9  C    0.072975
    10  O   -0.286788
    11  C    0.035027
    12  C    0.191470
    13  O   -0.480503
    14  O   -0.368207
    19  N   -0.004870
    20  C    0.129175
    21  C    0.095987
    22  O   -0.311511
    23  C    0.035351
    24  C    0.086706
    25  C    0.020539
    26  C    0.173917
    27  N    0.633988
    41  N   -0.042048
    42  C    0.156159
    43  C    0.065192
    44  O   -0.279417
    45  C    0.099902
    46  C    0.108718
    47  O   -0.359583
    48  O   -0.484268
    53  N   -0.043410
    54  C    0.254331
    55  C    0.062541
    56  O   -0.284976
    60  N   -0.032836
    61  C    0.172498
    62  C    0.014033
    63  O   -0.305467
    64  C    0.224984
    65  C    0.036070
    66  N    0.229658
    67  O   -0.368799
    74  N   -0.011808
    75  C    0.314280
    76  C    0.026934
    77  O   -0.304510
    81  N   -0.005389
    82  C    0.111727
    83  C    0.143743
    84  O   -0.348854
    85  C    0.119106
    86  C    0.005796
    87  C   -0.094627
    88  C   -0.035938
    89  C    0.001287
    90  C   -0.071054
    91  C    0.141750
    92  O   -0.037024
   102  N    0.012639
   103  C    0.155123
   104  C    0.058792
   105  O   -0.299446
   106  C   -0.162389
   107  C    0.040878
   108  C    0.137722
   109  C    0.049911
   121  N   -0.006347
   122  C    0.101137
   123  C    0.102636
   124  O   -0.284838
   125  C    0.235385
   126  O   -0.213023
   132  N   -0.008762
   133  C    0.102361
   134  C    0.051582
   135  O   -0.252103
   136  C    0.131276
   142  N   -0.012704
   143  C    0.133497
   144  C    0.071115
   145  O   -0.271213
   146  C    0.096920
   152  N   -0.039199
   153  C    0.101857
   154  C    0.079885
   155  O   -0.287504
   156  C    0.000325
   157  C    0.091106
   158  C    0.192764
   159  O   -0.426897
   160  O   -0.432668
   167  N   -0.030368
   168  C    0.199568
   173  Ca   1.283009
   174  O    0.111994
 DipInt: DoE/N= T F RetVal/Mat= T F Init=T NMatP=  1 IDeriv=0 Min/MaxMlt=  0  4
 Entering OneElI...
 OneElI was handed  4286741430 working-precision words.
 Multipole integrals L=0 to 4 MinM= 0 MaxM= 0.
 Requested accuracy = 0.1000D-12
 ShPair: Thresh= 1.00D-13 NBox=     0 BxSize= 0.00D+00 RnKept= 2.55D+01
         NSMCal=               327645 NSMKep=              163384
 PrsmSu:  NPrtUS=   1 ThrOK=F IAlg=1 NPAlg=1 LenDen=           0.
 Prism:   IPart=     0 DynPar=F LinDyn=F Incr=         512.
 PRISM was handed  4276547586 working-precision words and163384 shell-pairs
 IPart=  0 NShTot=      163384 NBatch=         458 AvBLen=       356.7
 PrSmSu:  NxtVal=            513.
 Electronic moments (au):
       -716.00000000         12.39702156          1.05220093          2.30220271
     -53692.60934829     -28109.13216432     -12346.26804772        116.61888284
          0.66241176         88.04508367     -49317.12966199     -32578.86595336
     -11706.90077109      16826.36256651     108009.31604855      34174.06901003
     -15409.36698971      -9082.88075542      -1548.62218697     -45986.61014748
   -8117366.00219905   -2408031.58087948    -585904.62133928    -131998.63712335
     451430.22213761    -471657.00952668     -22776.72309435     -76122.87074717
      -3988.78980190   -2163583.29891858    -692741.88142794    -374324.72292196
    -119138.80936982     -15880.58544342      67149.77699983
 Electronic spatial extent (au):  <R**2>=          94148.0096
 DipInt: DoE/N= F T RetVal/Mat= T F Init=T NMatP=  1 IDeriv=0 Min/MaxMlt=  0  4
 Nuclear    moments (au):
        716.00000000          0.00000000          0.00000000          0.00000000
      53207.33729736      27812.77943207      11951.64493392          0.00000000
          0.00000000          0.00000000      50445.85417821      33907.41997181
      12025.54285236     -14846.64625070    -107770.58279797     -34228.32309937
      15824.84427469       9052.74429080       2290.96772011      46452.40065257
    7904149.98335003    2335350.32303363     542633.30595761     142996.78370416
    -455046.06858868     494586.83169430      34784.54173128      76521.53591953
       8505.98314905    2132139.18903829     658210.11639094     354951.96106518
     124824.87946093      19188.25013095     -64527.74821876
 Total      moments (au):
          0.00000000         12.39702156          1.05220093          2.30220271
       -485.27205092       -296.35273225       -394.62311380        116.61888285
          0.66241176         88.04508367       1128.72451622       1328.55401846
        318.64208127       1979.71631581        238.73325058        -54.25408934
        415.47728498        -30.13646461        742.34553315        465.79050509
    -213216.01884902     -72681.25784585     -43271.31538167      10998.14658081
      -3615.84645107      22929.82216762      12007.81863693        398.66517236
       4517.19334715     -31444.10988029     -34531.76503699     -19372.76185678
       5686.07009111       3307.66468753       2622.02878107
 Traceless Quadrup. (au):
        -93.18941860         95.72990007         -2.54048148        116.61888285
          0.66241176         88.04508367
 Charge=              0.0000 electrons
 Dipole moment (field-independent basis, Debye):
    X=             31.5101    Y=              2.6744    Z=              5.8516  Tot=             32.1602
 Quadrupole moment (field-independent basis, Debye-Ang):
   XX=           -652.7075   YY=           -398.6046   ZZ=           -530.7816
   XY=            156.8564   XZ=              0.8910   YZ=            118.4236
 Traceless Quadrupole moment (field-independent basis, Debye-Ang):
   XX=           -125.3430   YY=            128.7600   ZZ=             -3.4170
   XY=            156.8564   XZ=              0.8910   YZ=            118.4236
 Octapole moment (field-independent basis, Debye-Ang**2):
  XXX=            803.3826  YYY=            945.6135  ZZZ=            226.7971  XYY=           1409.0857
  XXY=            169.9211  XXZ=            -38.6160  XZZ=            295.7207  YZZ=            -21.4500
  YYZ=            528.3729  XYZ=            331.5317
 Hexadecapole moment (field-independent basis, Debye-Ang**3):
 XXXX=         -80307.3714 YYYY=         -27375.2451 ZZZZ=         -16298.0512 XXXY=           4142.4291
 XXXZ=          -1361.9011 YYYX=           8636.4700 YYYZ=           4522.7200 ZZZX=            150.1564
 ZZZY=           1701.3915 XXYY=         -11843.3588 XXZZ=         -13006.3177 YYZZ=          -7296.7106
 XXYZ=           2141.6465 YYXZ=           1245.8250 ZZXY=            987.5817
 N-N= 2.185550600493D+04 E-N=-5.619090275879D+04  KE= 5.290747469096D+03
 Leave Link  601 at Mon Sep 16 17:43:24 2019, MaxMem=  4294967296 cpu:        21.9
 FitSet:  NAtFit=   176 NAtPot=   176 NAtFrz=     0 MDM=   180 TotChg=   0.00000
 Merz-Kollman atomic radii used.
 Read replacement radii for each type of atom:
 Rad(20) =   1.700000000000D+00
 Atom Element Radius
    1     6    1.50
    2     6    1.50
    3     8    1.40
    4     1    1.20
    5     1    1.20
    6     1    1.20
    7     7    1.50
    8     6    1.50
    9     6    1.50
   10     8    1.40
   11     6    1.50
   12     6    1.50
   13     8    1.40
   14     8    1.40
   15     1    1.20
   16     1    1.20
   17     1    1.20
   18     1    1.20
   19     7    1.50
   20     6    1.50
   21     6    1.50
   22     8    1.40
   23     6    1.50
   24     6    1.50
   25     6    1.50
   26     6    1.50
   27     7    1.50
   28     1    1.20
   29     1    1.20
   30     1    1.20
   31     1    1.20
   32     1    1.20
   33     1    1.20
   34     1    1.20
   35     1    1.20
   36     1    1.20
   37     1    1.20
   38     1    1.20
   39     1    1.20
   40     1    1.20
   41     7    1.50
   42     6    1.50
   43     6    1.50
   44     8    1.40
   45     6    1.50
   46     6    1.50
   47     8    1.40
   48     8    1.40
   49     1    1.20
   50     1    1.20
   51     1    1.20
   52     1    1.20
   53     7    1.50
   54     6    1.50
   55     6    1.50
   56     8    1.40
   57     1    1.20
   58     1    1.20
   59     1    1.20
   60     7    1.50
   61     6    1.50
   62     6    1.50
   63     8    1.40
   64     6    1.50
   65     6    1.50
   66     7    1.50
   67     8    1.40
   68     1    1.20
   69     1    1.20
   70     1    1.20
   71     1    1.20
   72     1    1.20
   73     1    1.20
   74     7    1.50
   75     6    1.50
   76     6    1.50
   77     8    1.40
   78     1    1.20
   79     1    1.20
   80     1    1.20
   81     7    1.50
   82     6    1.50
   83     6    1.50
   84     8    1.40
   85     6    1.50
   86     6    1.50
   87     6    1.50
   88     6    1.50
   89     6    1.50
   90     6    1.50
   91     6    1.50
   92     8    1.40
   93     1    1.20
   94     1    1.20
   95     1    1.20
   96     1    1.20
   97     1    1.20
   98     1    1.20
   99     1    1.20
  100     1    1.20
  101     1    1.20
  102     7    1.50
  103     6    1.50
  104     6    1.50
  105     8    1.40
  106     6    1.50
  107     6    1.50
  108     6    1.50
  109     6    1.50
  110     1    1.20
  111     1    1.20
  112     1    1.20
  113     1    1.20
  114     1    1.20
  115     1    1.20
  116     1    1.20
  117     1    1.20
  118     1    1.20
  119     1    1.20
  120     1    1.20
  121     7    1.50
  122     6    1.50
  123     6    1.50
  124     8    1.40
  125     6    1.50
  126     8    1.40
  127     1    1.20
  128     1    1.20
  129     1    1.20
  130     1    1.20
  131     1    1.20
  132     7    1.50
  133     6    1.50
  134     6    1.50
  135     8    1.40
  136     6    1.50
  137     1    1.20
  138     1    1.20
  139     1    1.20
  140     1    1.20
  141     1    1.20
  142     7    1.50
  143     6    1.50
  144     6    1.50
  145     8    1.40
  146     6    1.50
  147     1    1.20
  148     1    1.20
  149     1    1.20
  150     1    1.20
  151     1    1.20
  152     7    1.50
  153     6    1.50
  154     6    1.50
  155     8    1.40
  156     6    1.50
  157     6    1.50
  158     6    1.50
  159     8    1.40
  160     8    1.40
  161     1    1.20
  162     1    1.20
  163     1    1.20
  164     1    1.20
  165     1    1.20
  166     1    1.20
  167     7    1.50
  168     6    1.50
  169     1    1.20
  170     1    1.20
  171     1    1.20
  172     1    1.20
  173    20    1.70
  174     8    1.40
  175     1    1.20
  176     1    1.20
 Generate VDW surfaces: Layer= 4 Dens= 6 Start= 1.400 Inc= 0.200

 **********************************************************************

            Electrostatic Properties Using The SCF Density

 **********************************************************************

       Atomic Center    1 is at   2.047880  2.937548  5.371042
       Atomic Center    2 is at   1.520367  2.344869  4.076646
       Atomic Center    3 is at   2.276231  2.016685  3.159060
[...]
 **** Fit       0.001732
 **** Fit      -0.024437
 **** Fit      -0.024054
 **** Fit      -0.022393
 **** Fit      -0.019606
 **** Fit      -0.015790
 **** Fit      -0.011027
 **** Fit      -0.005435
 **** Fit       0.000767
 **** Fit       0.007169
 **** Fit       0.013107
 **** Fit       0.017704
 **** Fit       0.020088
 **** Fit      -0.027356
 **** Fit      -0.026636
 **** Fit      -0.024677
 **** Fit      -0.021583
 **** Fit      -0.017419
 **** Fit      -0.012236
 **** Fit      -0.006106
 **** Fit       0.000810
 **** Fit       0.008159
 **** Fit       0.015286
 **** Fit       0.021231
 **** Fit      -0.030992
 **** Fit      -0.029914
 **** Fit      -0.027642
 **** Fit      -0.024252
 **** Fit      -0.019795
 **** Fit      -0.014306
 **** Fit      -0.007831
 **** Fit      -0.000480
 **** Fit       0.007469
 **** Fit       0.015436
 **** Fit      -0.030774
 **** Fit      -0.035684
 **** Fit      -0.034162
 **** Fit      -0.031421
 **** Fit      -0.027541
 **** Fit      -0.022590
 **** Fit      -0.016613
 **** Fit      -0.009658
 **** Fit      -0.001822
 **** Fit       0.006644
 **** Fit       0.015189
 **** Fit      -0.035907
 **** Fit      -0.039873
 **** Fit      -0.036380
 **** Fit      -0.031685
 **** Fit      -0.025917
 **** Fit      -0.019167
 **** Fit      -0.011512
 **** Fit      -0.003072
 **** Fit       0.005877
 **** Fit      -0.030564
 **** Fit      -0.022882
 **** Fit      -0.014516
 **** Fit      -0.005620
 **** Fit       0.003507
 **** Fit      -0.015753
 **** Fit      -0.005958
 **** Fit       0.003417
 **** Fit       0.014924
 **** Fit       0.014150
 **** Fit       0.014458
 **** Fit       0.014696
 **** Fit       0.013166
 **** Fit       0.012456
 **** Fit       0.011228
 **** Fit       0.009393
 **** Fit       0.007116
 **** Fit       0.004728
 **** Fit       0.002707
 **** Fit       0.010862
 **** Fit       0.009219
 **** Fit       0.007185
 **** Fit       0.005072
 **** Fit       0.003496
 **** Fit       0.008115
 **** Fit       0.006187
 **** Fit       0.004610
 **** Fit       0.004086
 **** Fit       0.006896
 **** Fit       0.005234
 **** Fit       0.004497
 **** Fit       0.000527
 **** Fit       0.002410
 **** Fit      -0.000179
 **** Fit      -0.001721
 **** Fit      -0.000633
 **** Fit       0.002396
 **** Fit       0.000733
 **** Fit       0.000921
 **** Fit       0.004096
 **** Fit       0.003685
 **** Fit       0.002582
 **** Fit       0.002985
 **** Fit       0.006840
 **** Fit       0.001971
 **** Fit       0.003305
 **** Fit       0.004115
 **** Fit       0.006840
 **** Fit       0.003513
 **** Fit      -0.005498
 **** Fit      -0.008484
 **** Fit      -0.005031
 **** Fit      -0.001228
 **** Fit       0.013062
 **** Fit      -0.001548
 **** Fit       0.012184
 **** Fit       0.024412
 **** Fit       0.013517
 **** Fit       0.024630
 **** Fit       0.003728
 **** Fit       0.015400
 **** Fit       0.006365
 **** Fit       0.016166
 **** Fit       0.011529
 **** Fit       0.018919
 **** Fit       0.008096
 **** Fit       0.014836
 **** Fit       0.019566
 **** Fit       0.013048
 **** Fit       0.016781
 **** Fit       0.014081
 **** Fit       0.013742
 **** Fit       0.013866
 **** Fit       0.012459
 **** Fit       0.010996
 **** Fit       0.012013
 **** Fit       0.010082
 **** Fit       0.008155
 **** Fit       0.011119
 **** Fit       0.008638
 **** Fit       0.006309
 **** Fit       0.004052
 **** Fit       0.000858
 **** Fit       0.009571
 **** Fit       0.006388
 **** Fit       0.003022
 **** Fit       0.006740
 **** Fit       0.016954
 **** Fit       0.020382
 **** Fit       0.016890
 **** Fit       0.019049
 **** Fit       0.016004
 **** Fit       0.016930
 **** Fit       0.017017
 **** Fit       0.015817
 **** Fit       0.014131
 **** Fit       0.012809
 **** Fit       0.010537
 **** Fit      -0.012765
 **** Fit       0.002251
 **** Fit       0.002239
 **** Fit       0.001233
 **** Fit       0.002283
 **** Fit       0.003146
 **** Fit       0.002941
 **** Fit       0.002177
 **** Fit      -0.000255
 **** Fit       0.000792
 **** Fit       0.003391
 **** Fit       0.002782
 **** Fit      -0.001265
 **** Fit       0.000569
 **** Fit       0.003654
 **** Fit       0.003047
 **** Fit       0.002491
 **** Fit      -0.005206
 **** Fit      -0.003364
 **** Fit      -0.000969
 **** Fit       0.003875
 **** Fit       0.003223
 **** Fit       0.002619
 **** Fit       0.002073
 **** Fit      -0.009652
 **** Fit      -0.007267
 **** Fit      -0.004388
 **** Fit       0.004564
 **** Fit       0.003855
 **** Fit       0.003200
 **** Fit       0.002574
 **** Fit       0.001976
 **** Fit       0.001433
 **** Fit      -0.013694
 **** Fit      -0.009852
 **** Fit      -0.005969
 **** Fit       0.004737
 **** Fit       0.003976
 **** Fit       0.003270
 **** Fit       0.002581
 **** Fit       0.001893
 **** Fit       0.001220
 **** Fit       0.000598
 **** Fit      -0.001129
 **** Fit      -0.012480
 **** Fit      -0.007720
 **** Fit       0.004827
 **** Fit       0.004035
 **** Fit       0.003291
 **** Fit       0.002554
 **** Fit       0.001798
 **** Fit       0.001022
 **** Fit       0.000249
 **** Fit      -0.000480
 **** Fit      -0.002603
 **** Fit      -0.012542
 **** Fit       0.005055
 **** Fit       0.004211
 **** Fit       0.003409
 **** Fit       0.002614
 **** Fit       0.001792
 **** Fit       0.000923
 **** Fit       0.000014
 **** Fit      -0.000905
 **** Fit      -0.001790
 **** Fit      -0.004368
 **** Fit      -0.005308
 **** Fit       0.005283
 **** Fit       0.004391
 **** Fit       0.003524
 **** Fit      -0.003372
 **** Fit      -0.006468
 **** Fit      -0.007628
 **** Fit       0.005779
 **** Fit       0.004809
 **** Fit       0.003823
 **** Fit      -0.010424
 **** Fit      -0.011896
 **** Fit       0.006898
 **** Fit       0.005879
 **** Fit       0.004716
 **** Fit      -0.013801
 **** Fit      -0.015519
 **** Fit      -0.017529
 **** Fit       0.008079
 **** Fit       0.007256
 **** Fit       0.006039
 **** Fit      -0.019871
 **** Fit      -0.022125
 **** Fit      -0.025008
 **** Fit      -0.028852
 **** Fit       0.008366
 **** Fit       0.008797
 **** Fit       0.008652
 **** Fit       0.007785
 **** Fit       0.006192
 **** Fit      -0.025412
 **** Fit      -0.028010
 **** Fit      -0.031437
 **** Fit      -0.035949
 **** Fit       0.008348
 **** Fit      -0.032386
 **** Fit      -0.035404
 **** Fit       0.001670
 **** Fit       0.000706
 **** Fit      -0.000275
 **** Fit      -0.001252
 **** Fit      -0.003859
 **** Fit       0.002458
 **** Fit       0.001450
 **** Fit       0.000407
 **** Fit      -0.000653
 **** Fit      -0.001722
 **** Fit      -0.002792
 **** Fit      -0.005843
 **** Fit      -0.007100
 **** Fit       0.003770
 **** Fit       0.002663
 **** Fit       0.001481
 **** Fit       0.000260
 **** Fit      -0.000970
 **** Fit      -0.002192
 **** Fit      -0.003404
 **** Fit      -0.004616
 **** Fit      -0.008313
 **** Fit      -0.009725
 **** Fit      -0.011241
 **** Fit       0.004197
 **** Fit       0.002885
 **** Fit       0.001454
 **** Fit      -0.000025
 **** Fit      -0.001495
 **** Fit      -0.002923
 **** Fit      -0.004301
 **** Fit      -0.005639
 **** Fit      -0.006964
 **** Fit      -0.011498
 **** Fit      -0.013047
 **** Fit      -0.014758
 **** Fit       0.005100
 **** Fit       0.003525
 **** Fit       0.001716
 **** Fit      -0.000190
 **** Fit      -0.002080
 **** Fit      -0.003882
 **** Fit      -0.005562
 **** Fit      -0.007125
 **** Fit      -0.008601
 **** Fit      -0.010038
 **** Fit      -0.015731
 **** Fit      -0.017434
 **** Fit      -0.019374
 **** Fit      -0.021668
 **** Fit       0.005511
 **** Fit       0.003304
 **** Fit       0.000703
 **** Fit      -0.001996
 **** Fit      -0.004586
 **** Fit      -0.006952
 **** Fit      -0.009053
 **** Fit      -0.010908
 **** Fit      -0.012577
 **** Fit      -0.014150
 **** Fit      -0.021527
 **** Fit      -0.023306
 **** Fit      -0.025433
 **** Fit      -0.028086
 **** Fit      -0.004319
 **** Fit      -0.008105
 **** Fit      -0.011405
 **** Fit      -0.014153
 **** Fit      -0.016395
 **** Fit      -0.018257
 **** Fit      -0.019907
 **** Fit       0.000662
 **** Fit       0.000904
 **** Fit      -0.000139
 **** Fit      -0.000685
 **** Fit       0.000169
 **** Fit       0.001315
 **** Fit       0.001528
 **** Fit       0.000882
 **** Fit      -0.000044
 **** Fit      -0.001209
 **** Fit      -0.002323
 **** Fit      -0.002746
 **** Fit      -0.002052
 **** Fit      -0.000567
 **** Fit       0.002069
 **** Fit       0.001576
 **** Fit       0.000579
 **** Fit      -0.000240
 **** Fit      -0.001312
 **** Fit      -0.002677
 **** Fit      -0.004192
 **** Fit      -0.005445
 **** Fit      -0.005881
 **** Fit      -0.005193
 **** Fit      -0.003576
 **** Fit       0.001849
 **** Fit       0.001249
 **** Fit      -0.000023
 **** Fit      -0.000818
 **** Fit      -0.001846
 **** Fit      -0.003222
 **** Fit      -0.005000
 **** Fit      -0.007080
 **** Fit      -0.009095
 **** Fit      -0.010435
 **** Fit      -0.010525
 **** Fit      -0.009223
 **** Fit       0.001316
 **** Fit       0.000658
 **** Fit      -0.000948
 **** Fit      -0.001771
 **** Fit      -0.002819
 **** Fit      -0.004238
 **** Fit      -0.006169
 **** Fit      -0.008693
 **** Fit      -0.011717
 **** Fit      -0.014820
 **** Fit      -0.013797
 **** Fit       0.000507
 **** Fit      -0.000222
 **** Fit      -0.002226
 **** Fit      -0.003091
 **** Fit      -0.004168
 **** Fit      -0.005612
 **** Fit      -0.007601
 **** Fit      -0.010325
 **** Fit      -0.013923
 **** Fit      -0.001445
 **** Fit      -0.003894
 **** Fit      -0.004878
 **** Fit      -0.006097
 **** Fit      -0.007734
 **** Fit      -0.010019
 **** Fit      -0.013243
 **** Fit      -0.017740
 **** Fit      -0.002993
 **** Fit      -0.006004
 **** Fit      -0.007124
 **** Fit      -0.008496
 **** Fit      -0.010325
 **** Fit      -0.012877
 **** Fit      -0.016523
 **** Fit      -0.008624
 **** Fit      -0.009930
 **** Fit      -0.011523
 **** Fit      -0.013638
 **** Fit      -0.016590
 **** Fit      -0.020843
 **** Fit      -0.013440
 **** Fit      -0.015402
 **** Fit      -0.018043
 **** Fit      -0.021782
 **** Fit      -0.020204
 **** Fit      -0.023577
 **** Fit      -0.028433
 **** Fit       0.004223
 **** Fit       0.003788
 **** Fit       0.003053
 **** Fit       0.003418
 **** Fit       0.004757
 **** Fit       0.005301
 **** Fit       0.004737
 **** Fit       0.002204
 **** Fit       0.003798
 **** Fit       0.005420
 **** Fit       0.006281
 **** Fit       0.006281
 **** Fit       0.005775
 **** Fit       0.005044
 **** Fit       0.004245
 **** Fit       0.002246
 **** Fit       0.004399
 **** Fit       0.006281
 **** Fit       0.007332
 **** Fit       0.007489
 **** Fit       0.007142
 **** Fit       0.006579
 **** Fit       0.005912
 **** Fit       0.005199
 **** Fit       0.004493
 **** Fit       0.000930
 **** Fit       0.003676
 **** Fit       0.008660
 **** Fit       0.008060
 **** Fit       0.007419
 **** Fit       0.006756
 **** Fit       0.006065
 **** Fit       0.005359
 **** Fit       0.004675
 **** Fit       0.000326
 **** Fit       0.008359
 **** Fit       0.007658
 **** Fit       0.006979
 **** Fit       0.006279
 **** Fit       0.005560
 **** Fit       0.004853
 **** Fit       0.008428
 **** Fit       0.007774
 **** Fit       0.007124
 **** Fit       0.006438
 **** Fit       0.005712
 **** Fit       0.004980
 **** Fit       0.008812
 **** Fit       0.008189
 **** Fit       0.007574
 **** Fit       0.006906
 **** Fit       0.006160
 **** Fit       0.005359
 **** Fit       0.008551
 **** Fit       0.007996
 **** Fit       0.007388
 **** Fit       0.006665
 **** Fit       0.005825
 **** Fit       0.008546
 **** Fit       0.008034
 **** Fit       0.007408
 **** Fit       0.006593
 **** Fit       0.008833
 **** Fit       0.008412
 **** Fit       0.007845
 **** Fit       0.008725
 **** Fit       0.008440
 **** Fit      -0.002509
 **** Fit       0.014126
 **** Fit       0.010366
 **** Fit       0.004884
 **** Fit      -0.002405
 **** Fit       0.012517
 **** Fit       0.005654
 **** Fit      -0.002908
 **** Fit       0.019197
 **** Fit       0.008493
 **** Fit      -0.002009
 **** Fit       0.020504
 **** Fit       0.028594
 **** Fit       0.026523
 **** Fit       0.024449
 **** Fit       0.033541
 **** Fit       0.032634
 **** Fit       0.031464
 **** Fit       0.030226
 **** Fit       0.037953
 **** Fit       0.036920
 **** Fit       0.036188
 **** Fit       0.035483
 **** Fit       0.034774
 **** Fit       0.034199
 **** Fit       0.041482
 **** Fit       0.039884
 **** Fit       0.038970
 **** Fit       0.038353
 **** Fit       0.037897
 **** Fit       0.037632
 **** Fit       0.045826
 **** Fit       0.043122
 **** Fit       0.041667
 **** Fit       0.040865
 **** Fit       0.040421
 **** Fit       0.040235
 **** Fit       0.040333
 **** Fit       0.046239
 **** Fit       0.044134
 **** Fit       0.042984
 **** Fit       0.042396
 **** Fit       0.042168
 **** Fit       0.042225
 **** Fit       0.047806
 **** Fit       0.045584
 **** Fit       0.044339
 **** Fit       0.043739
 **** Fit       0.043569
 **** Fit       0.043719
 **** Fit       0.048056
 **** Fit       0.046311
 **** Fit       0.045202
 **** Fit       0.044678
 **** Fit       0.044599
 **** Fit       0.044866
 **** Fit       0.045418
 **** Fit       0.046479
 **** Fit       0.045771
 **** Fit       0.045335
 **** Fit       0.045336
 **** Fit       0.045769
 **** Fit       0.046671
 **** Fit       0.045419
 **** Fit       0.045620
 **** Fit       0.045781
 **** Fit       0.046478
 **** Fit       0.045900
 **** Fit       0.016589
 **** Fit       0.017994
 **** Fit       0.014100
 **** Fit       0.014200
 **** Fit       0.010887
 **** Fit       0.044877
 **** Fit       0.041671
 **** Fit       0.015852
 **** Fit       0.015290
 **** Fit       0.014178
 **** Fit       0.010903
 **** Fit       0.005132
 **** Fit       0.001485
 **** Fit       0.038763
 **** Fit       0.041994
 **** Fit       0.043102
 **** Fit       0.042494
 **** Fit       0.040619
 **** Fit       0.037764
 **** Fit       0.033864
 **** Fit       0.028703
 **** Fit       0.022810
 **** Fit       0.021859
 **** Fit       0.018840
 **** Fit       0.016299
 **** Fit       0.012796
 **** Fit       0.008058
 **** Fit       0.004013
 **** Fit       0.003605
 **** Fit       0.007577
 **** Fit       0.014184
 **** Fit       0.021686
 **** Fit       0.028726
 **** Fit       0.034050
 **** Fit       0.037070
 **** Fit       0.037879
 **** Fit       0.036862
 **** Fit       0.034380
 **** Fit       0.030641
 **** Fit       0.026086
 **** Fit       0.023427
 **** Fit       0.019519
 **** Fit       0.015575
 **** Fit       0.011973
 **** Fit       0.011467
 **** Fit       0.015534
 **** Fit       0.022132
 **** Fit       0.028361
 **** Fit       0.032195
 **** Fit       0.033038
 **** Fit       0.031277
 **** Fit       0.027672
 **** Fit       0.023722
 **** Fit       0.019245
 **** Fit       0.018020
 **** Fit       0.022722
 **** Fit       0.027668
 **** Fit       0.027680
 **** Fit       0.023347
 -----------------------------------------------------------------
 Leave Link  602 at Mon Sep 16 17:43:37 2019, MaxMem=  4294967296 cpu:       154.9

 Test job not archived.
 1\1\GINC-N009\SP\RB3LYP\SVP\C54H83Ca1N15O23\PCIEPLAK\16-Sep-2019\0\\#m
 axdisk=50GB #B3LYP/SVP Density=Current scf=(tight) #IOP(5/87=12)Pop=(M
 K,readradii) iop(6/33=2) iop(6/42=6)\\SOL molecule\\0,1\C,0,48.12,39.7
 9,24.41\C,0,48.57,38.74,25.41\O,0,48.37,38.87,26.62\H,0,47.23,40.293,2
 4.788\H,0,48.916,40.52,24.266\H,0,47.889,39.311,23.459\N,0,49.39,37.76
 ,25.02\C,0,50.22,36.94,25.88\C,0,51.53,37.62,26.23\O,0,52.45,37.83,25.
 44\C,0,50.51,35.64,25.13\C,0,51.48,34.62,25.71\O,0,51.76,34.81,26.91\O
 ,0,51.92,33.69,25.\H,0,49.37,37.62,24.02\H,0,49.52,36.72,26.68\H,0,50.
 91,35.95,24.17\H,0,49.55,35.16,24.96\N,0,51.66,38.02,27.5\C,0,52.78,38
 .83,27.96\C,0,54.1,38.13,28.21\O,0,55.07,38.89,28.23\C,0,52.21,39.5,29
 .21\C,0,51.12,40.55,29.05\C,0,51.7,41.85,28.48\C,0,50.61,42.85,28.09\N
 ,0,51.07,44.11,27.49\H,0,51.06,37.57,28.18\H,0,53.04,39.65,27.29\H,0,5
 3.08,39.91,29.72\H,0,51.82,38.72,29.85\H,0,50.72,40.84,30.02\H,0,50.28
 ,40.21,28.45\H,0,52.35,41.62,27.64\H,0,52.21,42.38,29.28\H,0,50.14,43.
 26,28.99\H,0,49.93,42.4,27.37\H,0,50.33,44.7,27.13\H,0,51.65,44.64,28.
 12\H,0,51.57,43.95,26.63\N,0,54.18,36.81,28.44\C,0,55.47,36.18,28.66\C
 ,0,55.73,35.1,27.62\O,0,56.76,34.44,27.61\C,0,55.34,35.68,30.09\C,0,54
 .43,34.49,30.34\O,0,54.37,34.06,31.51\O,0,53.56,34.21,29.49\H,0,53.4,3
 6.18,28.33\H,0,56.34,36.84,28.57\H,0,55.,36.52,30.7\H,0,56.35,35.43,30
 .42\N,0,54.96,35.05,26.52\C,0,55.24,34.2,25.38\C,0,55.07,32.7,25.55\O,
 0,55.63,31.87,24.83\H,0,54.13,35.62,26.52\H,0,56.19,34.46,24.92\H,0,54
 .52,34.51,24.62\N,0,54.23,32.38,26.54\C,0,53.99,31.02,26.96\C,0,52.94,
 30.29,26.14\O,0,52.9,29.06,26.14\C,0,53.8,30.92,28.47\C,0,52.33,31.05,
 28.86\N,0,51.84,30.38,29.9\O,0,51.62,31.9,28.32\H,0,53.69,33.14,26.94\
 H,0,54.92,30.5,26.7\H,0,54.4,31.7,28.93\H,0,54.18,29.97,28.85\H,0,52.4
 ,29.58,30.16\H,0,50.84,30.31,30.02\N,0,52.16,30.98,25.31\C,0,51.06,30.
 42,24.54\C,0,49.63,30.71,24.97\O,0,48.69,30.31,24.28\H,0,52.28,31.98,2
 5.36\H,0,51.19,29.34,24.48\H,0,51.09,30.85,23.54\N,0,49.45,31.37,26.12
 \C,0,48.23,31.26,26.89\C,0,47.96,32.63,27.5\O,0,48.91,33.3,27.89\C,0,4
 8.39,30.12,27.88\C,0,48.75,28.77,27.31\C,0,50.03,28.22,27.48\C,0,47.81
 ,28.03,26.58\C,0,50.45,27.05,26.84\C,0,48.17,26.84,25.94\C,0,49.49,26.
 38,26.05\O,0,49.79,25.13,25.59\H,0,50.27,31.68,26.61\H,0,47.42,31.05,2
 6.19\H,0,47.45,30.,28.42\H,0,49.17,30.37,28.6\H,0,50.81,28.69,28.07\H,
 0,46.82,28.43,26.4\H,0,51.43,26.61,26.96\H,0,47.47,26.24,25.37\H,0,49.
 17,24.89,24.9\N,0,46.69,32.99,27.71\C,0,46.39,34.26,28.33\C,0,45.75,33
 .99,29.69\O,0,44.89,33.11,29.8\C,0,45.51,35.11,27.43\C,0,46.38,35.47,2
 6.22\C,0,44.63,36.21,28.01\C,0,45.53,36.25,25.22\H,0,45.9,32.48,27.34\
 H,0,47.34,34.76,28.52\H,0,44.78,34.38,27.1\H,0,46.69,34.57,25.69\H,0,4
 7.22,36.09,26.52\H,0,43.97,36.66,27.28\H,0,43.98,35.86,28.81\H,0,45.36
 ,36.95,28.36\H,0,45.45,37.3,25.49\H,0,46.1,36.07,24.31\H,0,44.51,35.9,
 25.04\N,0,46.09,34.76,30.73\C,0,45.83,34.64,32.15\C,0,45.2,35.93,32.66
 \O,0,45.23,36.95,31.99\C,0,47.04,34.13,32.93\O,0,48.09,35.07,32.86\H,0
 ,46.67,35.54,30.47\H,0,45.09,33.85,32.16\H,0,47.45,33.25,32.42\H,0,47.
 01,33.86,33.98\H,0,48.41,35.15,31.96\N,0,44.45,35.93,33.77\C,0,43.55,3
 7.,34.12\C,0,44.19,38.38,34.22\O,0,43.62,39.35,33.72\C,0,42.86,36.65,3
 5.44\H,0,44.42,35.05,34.27\H,0,42.82,37.03,33.3\H,0,43.02,35.64,35.8\H
 ,0,43.06,37.4,36.21\H,0,41.79,36.67,35.26\N,0,45.37,38.44,34.83\C,0,46
 .15,39.66,34.76\C,0,46.5,40.13,33.35\O,0,46.37,41.28,32.94\C,0,47.38,3
 9.42,35.64\H,0,45.82,37.56,35.01\H,0,45.54,40.44,35.21\H,0,47.93,40.36
 ,35.6\H,0,47.19,39.34,36.71\H,0,47.93,38.55,35.31\N,0,46.78,39.27,32.3
 7\C,0,47.01,39.59,30.98\C,0,45.81,40.18,30.25\O,0,45.98,41.15,29.52\C,
 0,47.69,38.44,30.24\C,0,48.93,37.93,30.96\C,0,49.45,36.63,30.36\O,0,50
 .41,36.71,29.56\O,0,48.91,35.51,30.54\H,0,46.84,38.27,32.56\H,0,47.74,
 40.39,31.05\H,0,48.01,38.72,29.23\H,0,46.92,37.69,30.06\H,0,48.75,37.8
 3,32.03\H,0,49.6,38.78,30.81\N,0,44.65,39.55,30.47\C,0,43.33,39.92,30.
 03\H,0,42.667,39.993,30.892\H,0,43.372,40.884,29.523\H,0,42.95,39.164,
 29.343\H,0,44.74,38.72,31.04\Ca,0,51.,34.22,29.32\O,0,49.58,32.49,30.7
 8\H,0,49.17,31.65,30.98\H,0,50.02,32.74,31.59\\Version=ES64L-G09RevD.0
 1\State=1-A\HF=-5333.5721451\RMSD=2.190e-09\Dipole=-6.7351217,10.11896
 95,3.5125489\Quadrupole=-121.4041098,129.177609,-7.7734992,87.1277352,
 13.103506,-82.3027529\PG=C01 [X(C54H83Ca1N15O23)]\\@


 SCIENCE AND PEACE WILL TRIUMPH OVER IGNORANCE AND WAR

                          -- PASTEUR
 Job cpu time:       0 days 15 hours 43 minutes 38.3 seconds.
 File lengths (MBytes):  RWF=   1513 Int=      0 D2E=      0 Chk=    103 Scr=      1
 Normal termination of Gaussian 09 at Mon Sep 16 17:43:38 2019.
