 Entering Gaussian System, Link 0=g09
 Initial command:
 /home/pcieplak/g09/g09/l1.exe "/scratch1/pcieplak/holo_18.0/Gau-15824.inp" -scrdir="/scratch1/pcieplak/holo_18.0/"
 Entering Link 1 = /home/pcieplak/g09/g09/l1.exe PID=     15825.
  
 Copyright (c) 1988,1990,1992,1993,1995,1998,2003,2009,2013,
            Gaussian, Inc.  All Rights Reserved.
  
 This is part of the Gaussian(R) 09 program.  It is based on
 the Gaussian(R) 03 system (copyright 2003, Gaussian, Inc.),
 the Gaussian(R) 98 system (copyright 1998, Gaussian, Inc.),
 the Gaussian(R) 94 system (copyright 1995, Gaussian, Inc.),
 the Gaussian 92(TM) system (copyright 1992, Gaussian, Inc.),
 the Gaussian 90(TM) system (copyright 1990, Gaussian, Inc.),
 the Gaussian 88(TM) system (copyright 1988, Gaussian, Inc.),
 the Gaussian 86(TM) system (copyright 1986, Carnegie Mellon
 University), and the Gaussian 82(TM) system (copyright 1983,
 Carnegie Mellon University). Gaussian is a federally registered
 trademark of Gaussian, Inc.
  
 This software contains proprietary and confidential information,
 including trade secrets, belonging to Gaussian, Inc.
  
 This software is provided under written license and may be
 used, copied, transmitted, or stored only in accord with that
 written license.
  
 The following legend is applicable only to US Government
 contracts under FAR:
  
                    RESTRICTED RIGHTS LEGEND
  
 Use, reproduction and disclosure by the US Government is
 subject to restrictions as set forth in subparagraphs (a)
 and (c) of the Commercial Computer Software - Restricted
 Rights clause in FAR 52.227-19.
  
 Gaussian, Inc.
 340 Quinnipiac St., Bldg. 40, Wallingford CT 06492
  
  
 ---------------------------------------------------------------
 Warning -- This program may not be used in any manner that
 competes with the business of Gaussian, Inc. or will provide
 assistance to any competitor of Gaussian, Inc.  The licensee
 of this program is prohibited from giving any competitor of
 Gaussian, Inc. access to this program.  By using this program,
 the user acknowledges that Gaussian, Inc. is engaged in the
 business of creating and licensing software in the field of
 computational chemistry and represents and warrants to the
 licensee that it is not a competitor of Gaussian, Inc. and that
 it will not use this program in any manner prohibited above.
 ---------------------------------------------------------------
  

 Cite this work as:
 Gaussian 09, Revision D.01,
 M. J. Frisch, G. W. Trucks, H. B. Schlegel, G. E. Scuseria, 
 M. A. Robb, J. R. Cheeseman, G. Scalmani, V. Barone, B. Mennucci, 
 G. A. Petersson, H. Nakatsuji, M. Caricato, X. Li, H. P. Hratchian, 
 A. F. Izmaylov, J. Bloino, G. Zheng, J. L. Sonnenberg, M. Hada, 
 M. Ehara, K. Toyota, R. Fukuda, J. Hasegawa, M. Ishida, T. Nakajima, 
 Y. Honda, O. Kitao, H. Nakai, T. Vreven, J. A. Montgomery, Jr., 
 J. E. Peralta, F. Ogliaro, M. Bearpark, J. J. Heyd, E. Brothers, 
 K. N. Kudin, V. N. Staroverov, T. Keith, R. Kobayashi, J. Normand, 
 K. Raghavachari, A. Rendell, J. C. Burant, S. S. Iyengar, J. Tomasi, 
 M. Cossi, N. Rega, J. M. Millam, M. Klene, J. E. Knox, J. B. Cross, 
 V. Bakken, C. Adamo, J. Jaramillo, R. Gomperts, R. E. Stratmann, 
 O. Yazyev, A. J. Austin, R. Cammi, C. Pomelli, J. W. Ochterski, 
 R. L. Martin, K. Morokuma, V. G. Zakrzewski, G. A. Voth, 
 P. Salvador, J. J. Dannenberg, S. Dapprich, A. D. Daniels, 
 O. Farkas, J. B. Foresman, J. V. Ortiz, J. Cioslowski, 
 and D. J. Fox, Gaussian, Inc., Wallingford CT, 2013.
 
 ******************************************
 Gaussian 09:  ES64L-G09RevD.01 24-Apr-2013
                16-Sep-2019 
 ******************************************
 %Nproc=12
 Will use up to   12 processors via shared memory.
 %chk=chk1mol
 %mem=32GB
 ----------------------------------------------------------------------
 #maxdisk=50GB #B3LYP/SVP Density=Current scf=(tight) #IOP(5/87=12)Pop=
 (MK,readradii) iop(6/33=2) iop(6/42=6)
 ----------------------------------------------------------------------
 1/30=1,38=1/1;
 2/12=2,17=6,18=5,40=1/2;
 3/5=18,7=101,11=2,16=1,25=1,30=1,74=-5/1,2,3;
 4//1;
 5/5=2,32=2,38=5,87=12/2;
 6/7=2,8=2,9=2,10=2,15=8,20=101,22=-1,28=1,33=2,42=6/1,2;
 99/5=1,9=1/99;
 ------------
 SOL molecule
 ------------
 Symbolic Z-matrix:
 Charge =  0 Multiplicity = 1
 C                     91.16     59.49     103.71 
 C                     92.35     59.92     102.87 
 O                     93.15     59.1      102.41 
 H                     90.297    59.335    103.063 
 H                     91.397    58.561    104.228 
 H                     90.931    60.266    104.441 
 N                     92.64     61.22     102.83 
 C                     93.77     61.83     102.17 
 C                     95.       61.7      103.06 
 O                     95.17     62.34     104.1 
 C                     93.49     63.3      101.86 
 C                     94.53     64.03     101.03 
 O                     94.12     65.01     100.37 
 O                     95.67     63.55     100.9 
 H                     92.03     61.8      103.39 
 H                     93.98     61.27     101.26 
 H                     93.25     63.94     102.71 
 H                     92.53     63.27     101.33 
 N                     95.98     60.96     102.54 
 C                     97.17     60.52     103.24 
 C                     98.16     61.65     103.47 
 O                     99.15     61.42     104.15 
 C                     97.85     59.35     102.52 
 C                     97.08     58.08     102.84 
 C                     97.81     56.85     102.3 
 C                     99.04     56.47     103.12 
 N                     99.63     55.16     102.81 
 H                     95.87     60.78     101.55 
 H                     96.99     60.23     104.27 
 H                     98.85     59.16     102.92 
 H                     97.94     59.58     101.46 
 H                     96.1      58.24     102.41 
 H                     96.9      58.01     103.91 
 H                     98.18     57.08     101.3 
 H                     97.07     56.05     102.19 
 H                     98.68     56.49     104.15 
 H                     99.8      57.23     102.94 
 H                     100.47    54.88     103.31 
 H                     99.07     54.35     103.05 
 H                     99.96     55.26     101.86 
 N                     98.07     62.87     102.92 
 C                     98.81     64.02     103.38 
 C                     97.9      65.22     103.54 
 O                     98.37     66.25     104.02 
 C                     99.88     64.3      102.32 
 C                     99.51     64.55     100.86 
 O                     100.39    64.79     100. 
 O                     98.34     64.3      100.49 
 H                     97.43     62.95     102.15 
 H                     99.3      63.83     104.33 
 H                     100.51    63.42     102.26 
 H                     100.58    65.08     102.61 
 N                     96.61     65.09     103.21 
 C                     95.68     66.2      103.1 
 C                     95.93     67.14     101.94 
 O                     95.72     68.33     102.16 
 H                     96.32     64.24     102.75 
 H                     95.69     66.75     104.04 
 H                     94.66     65.82     103.06 
 N                     96.59     66.79     100.83 
 C                     96.95     67.8      99.87 
 C                     95.79     68.3      99.02 
 O                     95.96     69.19     98.2 
 C                     98.18     67.44     99.04 
 C                     97.93     66.42     97.94 
 N                     98.85     66.35     96.98 
 O                     96.96     65.67     98.07 
 H                     96.86     65.81     100.81 
 H                     97.35     68.68     100.38 
 H                     99.1      67.15     99.55 
 H                     98.44     68.39     98.57 
 H                     99.63     66.98     97. 
 H                     98.94     65.58     96.32 
 N                     94.58     67.8      99.27 
 C                     93.41     68.03     98.45 
 C                     93.1      67.03     97.35 
 O                     92.08     67.18     96.68 
 H                     94.55     67.04     99.94 
 H                     93.6      68.95     97.9 
 H                     92.54     68.07     99.12 
 N                     93.96     66.04     97.13 
 C                     93.78     65.02     96.11 
 C                     93.94     63.58     96.55 
 O                     94.49     63.26     97.6 
 C                     94.68     65.29     94.91 
 C                     94.61     66.71     94.41 
 C                     95.56     67.63     94.86 
 C                     93.59     67.1      93.54 
 C                     95.52     68.98     94.47 
 C                     93.54     68.45     93.16 
 C                     94.49     69.39     93.61 
 O                     94.28     70.71     93.34 
 H                     94.6      65.86     97.89 
 H                     92.73     65.09     95.82 
 H                     94.37     64.7      94.04 
 H                     95.71     65.05     95.17 
 H                     96.33     67.19     95.46 
 H                     92.81     66.42     93.23 
 H                     96.32     69.62     94.82 
 H                     92.72     68.86     92.59 
 H                     93.64     70.88     92.65 
 N                     93.47     62.71     95.65 
 C                     93.6      61.27     95.79 
 C                     94.11     60.7      94.48 
 O                     93.44     61.02     93.5 
 C                     92.34     60.59     96.32 
 C                     92.19     60.81     97.83 
 C                     92.26     59.1      96. 
 C                     93.17     60.08     98.74 
 H                     93.02     63.11     94.84 
 H                     94.38     61.06     96.52 
 H                     91.52     61.12     95.84 
 H                     91.15     60.6      98.08 
 H                     92.34     61.88     97.94 
 H                     91.43     58.64     96.54 
 H                     92.11     58.97     94.93 
 H                     93.19     58.59     96.24 
 H                     94.2      60.38     98.52 
 H                     93.01     60.25     99.81 
 H                     93.04     59.01     98.59 
 N                     95.14     59.85     94.45 
 C                     95.63     59.1      93.31 
 C                     95.11     57.68     93.38 
 O                     94.31     57.41     94.27 
 C                     97.15     59.02     93.46 
 O                     97.68     58.5      94.66 
 H                     95.5      59.62     95.37 
 H                     95.4      59.5      92.32 
 H                     97.46     60.06     93.4 
 H                     97.57     58.45     92.63 
 H                     98.62     58.71     94.66 
 N                     95.54     56.71     92.57 
 C                     95.19     55.31     92.75 
 C                     95.93     54.68     93.92 
 O                     95.39     53.81     94.6 
 C                     95.43     54.61     91.41 
 H                     95.91     56.89     91.65 
 H                     94.15     55.11     92.99 
 H                     94.97     53.63     91.54 
 H                     94.91     55.2      90.66 
 H                     96.51     54.57     91.22 
 N                     97.16     55.07     94.25 
 C                     97.87     54.6      95.42 
 C                     97.15     54.9      96.73 
 O                     96.91     53.95     97.48 
 C                     99.29     55.13     95.51 
 H                     97.6      55.85     93.78 
 H                     98.09     53.53     95.49 
 H                     99.3      56.22     95.46 
 H                     99.81     54.73     96.39 
 H                     99.75     54.88     94.56 
 N                     96.76     56.15     96.99 
 C                     96.05     56.47     98.2 
 C                     94.67     55.82     98.21 
 O                     94.22     55.25     99.2 
 C                     95.88     57.99     98.31 
 C                     97.19     58.76     98.24 
 C                     96.82     60.21     98.52 
 O                     96.56     60.58     99.68 
 O                     96.8      61.03     97.57 
 H                     97.05     56.86     96.33 
 H                     96.53     56.06     99.09 
 H                     95.45     58.16     99.3 
 H                     95.26     58.32     97.48 
 H                     97.63     58.66     97.25 
 H                     97.9      58.51     99.04 
 N                     94.05     55.68     97.04 
 C                     92.75     55.05     96.94 
 H                     92.036    55.756    96.516 
 H                     92.819    54.174    96.296 
 H                     92.415    54.747    97.932 
 H                     94.37     56.06     96.16 
 Ca                    96.98     63.22     98.71 
 O                     99.3      61.9      98.69 
 H                     100.1     61.69     99.17 
 H                     99.33     61.35     97.91 
 
 Stoichiometry    C54H83CaN15O23
 Framework group  C1[X(C54H83CaN15O23)]
 Deg. of freedom   522
 Full point group                 C1      NOp   1
 Largest Abelian subgroup         C1      NOp   1
 Largest concise Abelian subgroup C1      NOp   1
                         Standard orientation:                         
 ---------------------------------------------------------------------
 Center     Atomic      Atomic             Coordinates (Angstroms)
 Number     Number       Type             X           Y           Z
 ---------------------------------------------------------------------
      1          6           0       -0.850847   -4.205688    5.985111
      2          6           0       -0.652011   -3.637100    4.590919
      3          8           0       -1.567539   -3.612914    3.763136
      4          1           0       -1.152001   -3.407010    6.662476
      5          1           0       -1.626113   -4.971064    5.958734
      6          1           0        0.083255   -4.645859    6.335369
      7          7           0        0.595393   -3.372109    4.204315
      8          6           0        1.013536   -2.913544    2.900676
      9          6           0        1.094733   -4.104143    1.953163
     10          8           0        1.969224   -4.971513    2.008252
     11          6           0        2.364725   -2.204210    2.981500
     12          6           0        2.858219   -1.534572    1.712071
     13          8           0        3.649636   -0.578338    1.864966
     14          8           0        2.350162   -1.829808    0.615890
     15          1           0        1.301093   -3.596765    4.892514
     16          1           0        0.244942   -2.250308    2.506744
     17          1           0        3.196386   -2.784588    3.383000
     18          1           0        2.214426   -1.459697    3.773024
     19          7           0        0.240273   -4.053127    0.930570
     20          6           0       -0.025343   -5.128173   -0.004001
     21          6           0        1.117038   -5.342208   -0.983314
     22          8           0        1.051945   -6.295934   -1.745921
     23          6           0       -1.342910   -4.911040   -0.756710
     24          6           0       -2.487799   -5.302664    0.162016
     25          6           0       -3.819723   -5.281204   -0.588263
     26          6           0       -3.998051   -6.465018   -1.535091
     27          7           0       -5.349610   -6.639970   -2.085528
     28          1           0       -0.176643   -3.140589    0.796198
     29          1           0       -0.051368   -6.110989    0.455124
     30          1           0       -1.438198   -5.596316   -1.603714
     31          1           0       -1.381562   -3.890245   -1.132321
     32          1           0       -2.429157   -4.601718    0.984291
     33          1           0       -2.290754   -6.271260    0.615001
     34          1           0       -3.846282   -4.391199   -1.218330
     35          1           0       -4.615122   -5.168625    0.156295
     36          1           0       -3.721900   -7.327087   -0.925600
     37          1           0       -3.312941   -6.321236   -2.370286
     38          1           0       -5.506010   -7.397149   -2.745997
     39          1           0       -6.070328   -6.904928   -1.423966
     40          1           0       -5.489490   -5.816528   -2.654541
     41          7           0        2.165081   -4.517871   -1.128490
     42          6           0        3.385797   -4.875510   -1.809405
     43          6           0        4.596892   -4.500773   -0.980839
     44          8           0        5.708790   -4.833224   -1.387484
     45          6           0        3.386279   -4.104447   -3.133173
     46          6           0        3.273006   -2.582327   -3.169513
     47          8           0        3.285720   -1.956910   -4.255925
     48          8           0        2.950829   -1.982959   -2.118199
     49          1           0        2.059321   -3.608584   -0.715075
     50          1           0        3.430642   -5.938840   -2.023923
     51          1           0        2.512600   -4.422887   -3.690112
     52          1           0        4.206947   -4.379304   -3.791549
     53          7           0        4.402003   -3.878629    0.187431
     54          6           0        5.459648   -3.267283    0.972761
     55          6           0        6.083033   -2.029138    0.364414
     56          8           0        7.292530   -1.899592    0.534512
     57          1           0        3.467773   -3.570671    0.412323
     58          1           0        6.223834   -4.019603    1.163114
     59          1           0        5.091209   -3.046905    1.973804
     60          7           0        5.464503   -1.249744   -0.530106
     61          6           0        6.203879   -0.211478   -1.198407
     62          6           0        6.490470    1.009855   -0.335671
     63          8           0        7.149781    1.939794   -0.776035
     64          6           0        5.639100    0.151761   -2.569713
     65          6           0        4.382305    1.007416   -2.534770
     66          7           0        4.069579    1.642914   -3.662265
     67          8           0        3.696588    0.968745   -1.510760
     68          1           0        4.507165   -1.532986   -0.722405
     69          1           0        7.178437   -0.588484   -1.518724
     70          1           0        5.474706   -0.638455   -3.303970
     71          1           0        6.441795    0.744597   -3.011558
     72          1           0        4.677691    1.563911   -4.455775
     73          1           0        3.160079    2.055210   -3.860814
     74          7           0        6.078860    0.981692    0.931761
     75          6           0        6.111232    2.114309    1.831945
     76          6           0        4.874393    2.990664    1.923221
     77          8           0        4.864692    3.924279    2.723263
     78          1           0        5.507323    0.185113    1.189066
     79          1           0        6.865839    2.793565    1.439287
     80          1           0        6.323076    1.729515    2.839147
     81          7           0        3.852555    2.734618    1.111809
     82          6           0        2.614770    3.496815    1.099802
     83          6           0        1.325775    2.705016    1.165714
     84          8           0        1.268644    1.501705    0.928696
     85          6           0        2.572744    4.441755   -0.095281
     86          6           0        3.826740    5.260936   -0.261817
     87          6           0        4.820075    4.802660   -1.130534
     88          6           0        4.000464    6.437807    0.469070
     89          6           0        6.032996    5.494592   -1.292566
     90          6           0        5.215939    7.123059    0.319239
     91          6           0        6.228658    6.669475   -0.550969
     92          8           0        7.443635    7.287553   -0.516172
     93          1           0        3.858932    1.811219    0.703282
     94          1           0        2.621282    4.064457    2.032133
     95          1           0        1.789861    5.199297    0.024404
     96          1           0        2.394274    3.867612   -1.003360
     97          1           0        4.533860    3.933146   -1.685985
     98          1           0        3.272562    6.776162    1.191963
     99          1           0        6.731777    5.104126   -2.021498
    100          1           0        5.480932    7.970833    0.932802
    101          1           0        7.444783    8.143172   -0.088955
    102          7           0        0.265651    3.467603    1.452766
    103          6           0       -1.096848    2.964237    1.470682
    104          6           0       -1.976374    3.918992    0.685841
    105          8           0       -1.900884    5.088886    1.056448
    106          6           0       -1.613574    2.645453    2.871493
    107          6           0       -1.027514    1.325589    3.386753
    108          6           0       -3.135677    2.616377    2.977588
    109          6           0       -1.520557    0.042238    2.730005
    110          1           0        0.458399    4.438658    1.648977
    111          1           0       -1.128259    2.024491    0.921781
    112          1           0       -1.210137    3.437249    3.499185
    113          1           0       -1.159664    1.320103    4.468744
    114          1           0        0.035193    1.433761    3.190660
    115          1           0       -3.440805    2.225133    3.950175
    116          1           0       -3.523428    3.626097    2.857530
    117          1           0       -3.579807    2.024268    2.180873
    118          1           0       -1.293702    0.043462    1.658634
    119          1           0       -1.091087   -0.875391    3.145831
    120          1           0       -2.593293   -0.033879    2.896568
    121          7           0       -2.817404    3.472829   -0.251125
    122          6           0       -3.829388    4.231784   -0.959698
    123          6           0       -5.183532    3.971962   -0.334809
    124          8           0       -5.218706    3.290120    0.684433
    125          6           0       -3.884500    3.667268   -2.380115
    126          8           0       -4.098393    2.282159   -2.544502
    127          1           0       -2.817470    2.462841   -0.345072
    128          1           0       -3.683007    5.312402   -1.021647
    129          1           0       -2.894206    3.884625   -2.771745
    130          1           0       -4.645108    4.197349   -2.955172
    131          1           0       -3.903801    2.080634   -3.466034
    132          7           0       -6.327010    4.386842   -0.884568
    133          6           0       -7.636331    3.983532   -0.396800
    134          6           0       -7.966217    2.544633   -0.763058
    135          8           0       -8.637057    1.848967   -0.003503
    136          6           0       -8.646667    5.007869   -0.919444
    137          1           0       -6.382353    5.190337   -1.490400
    138          1           0       -7.761249    3.989740    0.681883
    139          1           0       -9.560162    4.779175   -0.369784
    140          1           0       -8.254340    5.986088   -0.654551
    141          1           0       -8.742448    4.887949   -2.005973
    142          7           0       -7.518757    1.999491   -1.892880
    143          6           0       -7.693280    0.606131   -2.242150
    144          6           0       -7.073448   -0.355938   -1.234811
    145          8           0       -7.807464   -1.215844   -0.740461
    146          6           0       -7.170966    0.267483   -3.627035
    147          1           0       -6.882545    2.504422   -2.495523
    148          1           0       -8.715236    0.230986   -2.356485
    149          1           0       -6.126895    0.567261   -3.730716
    150          1           0       -7.347163   -0.787682   -3.872760
    151          1           0       -7.651315    0.974134   -4.295248
    152          7           0       -5.794245   -0.201683   -0.885462
    153          6           0       -5.179720   -1.068251    0.085114
    154          6           0       -5.794126   -0.861904    1.466029
    155          8           0       -6.098805   -1.800980    2.195965
    156          6           0       -3.677812   -0.769137    0.163874
    157          6           0       -2.961188   -0.872572   -1.173904
    158          6           0       -1.483410   -0.695429   -0.853606
    159          8           0       -0.837004   -1.623589   -0.333241
    160          8           0       -0.922111    0.390300   -1.138977
    161          1           0       -5.271184    0.504452   -1.387040
    162          1           0       -5.362769   -2.124438   -0.118754
    163          1           0       -3.265448   -1.539950    0.819392
    164          1           0       -3.556211    0.249548    0.524005
    165          1           0       -3.305801   -0.088006   -1.844276
    166          1           0       -3.013486   -1.868458   -1.634420
    167          7           0       -6.211692    0.364342    1.774022
    168          6           0       -6.834531    0.656862    3.048150
    169          1           0       -6.247744    1.409319    3.574930
    170          1           0       -7.842635    1.034937    2.881840
    171          1           0       -6.881027   -0.252129    3.647877
    172          1           0       -6.062875    1.190705    1.211725
    173         20           0        1.479191   -0.209595   -1.183394
    174          8           0        0.172803   -1.119535   -3.325953
    175          1           0        0.079710   -1.830925   -3.958217
    176          1           0       -0.552411   -0.527449   -3.513836
 ---------------------------------------------------------------------
 Rotational constants (GHZ):      0.0232950      0.0152374      0.0114579
 Standard basis: SVP (5D, 7F)
 There are  1809 symmetry adapted cartesian basis functions of A   symmetry.
 There are  1717 symmetry adapted basis functions of A   symmetry.
  1717 basis functions,  2922 primitive gaussians,  1809 cartesian basis functions
   358 alpha electrons      358 beta electrons
       nuclear repulsion energy     21724.1562746304 Hartrees.
 NAtoms=  176 NActive=  176 NUniq=  176 SFac= 1.00D+00 NAtFMM=   60 NAOKFM=T Big=T
 Integral buffers will be    131072 words long.
 Raffenetti 2 integral format.
 Two-electron integral symmetry is turned on.
 One-electron integrals computed using PRISM.
 NBasis=  1717 RedAO= T EigKep=  2.68D-04  NBF=  1717
 NBsUse=  1717 1.00D-06 EigRej= -1.00D+00 NBFU=  1717
 ExpMin= 1.98D-02 ExpMax= 3.51D+04 ExpMxC= 5.28D+03 IAcc=3 IRadAn=         5 AccDes= 0.00D+00
 Harris functional with IExCor=  402 and IRadAn=       5 diagonalized for initial guess.
 HarFok:  IExCor=  402 AccDes= 0.00D+00 IRadAn=         5 IDoV= 1 UseB2=F ITyADJ=14
 ICtDFT=  3500011 ScaDFX=  1.000000  1.000000  1.000000  1.000000
 FoFCou: FMM=F IPFlag=           0 FMFlag=      100000 FMFlg1=        2001
         NFxFlg=           0 DoJE=T BraDBF=F KetDBF=T FulRan=T
         wScrn=  0.000000 ICntrl=     500 IOpCl=  0 I1Cent=   200000004 NGrid=           0
         NMat0=    1 NMatS0=      1 NMatT0=    0 NMatD0=    1 NMtDS0=    0 NMtDT0=    0
 Petite list used in FoFCou.
 Requested convergence on RMS density matrix=1.00D-08 within 128 cycles.
 Requested convergence on MAX density matrix=1.00D-06.
 Requested convergence on             energy=1.00D-06.
 No special actions if energy rises.
 EnCoef did     4 forward-backward iterations
 EnCoef did     6 forward-backward iterations
 SCF Done:  E(RB3LYP) =  -5333.56271712     A.U. after   20 cycles
            NFock= 20  Conv=0.44D-08     -V/T= 2.0081

 **********************************************************************

            Population analysis using the SCF density.

 **********************************************************************

 Orbital symmetries:
 BldTbl:  Degeneracy threshold= 1.00D-02
       Occupied  (A) (A) (A) (A) (A) (A) (A) (A) (A) (A) (A) (A)
                 (A) (A) (A) (A) (A) (A) (A) (A) (A) (A) (A) (A)
                 (A) (A) (A) (A) (A) (A) (A) (A) (A) (A) (A) (A)
                 (A) (A) (A) (A) (A) (A) (A) (A) (A) (A) (A) (A)
                 (A) (A) (A) (A) (A) (A) (A) (A) (A) (A) (A) (A)
                 (A) (A) (A) (A) (A) (A) (A) (A) (A) (A) (A) (A)
                 (A) (A) (A) (A) (A) (A) (A) (A) (A) (A) (A) (A)
                 (A) (A) (A) (A) (A) (A) (A) (A) (A) (A) (A) (A)
                 (A) (A) (A) (A) (A) (A) (A) (A) (A) (A) (A) (A)
                 (A) (A) (A) (A) (A) (A) (A) (A) (A) (A) (A) (A)
                 (A) (A) (A) (A) (A) (A) (A) (A) (A) (A) (A) (A)
                 (A) (A) (A) (A) (A) (A) (A) (A) (A) (A) (A) (A)
                 (A) (A) (A) (A) (A) (A) (A) (A) (A) (A) (A) (A)
                 (A) (A) (A) (A) (A) (A) (A) (A) (A) (A) (A) (A)
                 (A) (A) (A) (A) (A) (A) (A) (A) (A) (A) (A) (A)
                 (A) (A) (A) (A) (A) (A) (A) (A) (A) (A) (A) (A)
                 (A) (A) (A) (A) (A) (A) (A) (A) (A) (A) (A) (A)
                 (A) (A) (A) (A) (A) (A) (A) (A) (A) (A) (A) (A)
                 (A) (A) (A) (A) (A) (A) (A) (A) (A) (A) (A) (A)
                 (A) (A) (A) (A) (A) (A) (A) (A) (A) (A) (A) (A)
                 (A) (A) (A) (A) (A) (A) (A) (A) (A) (A) (A) (A)
                 (A) (A) (A) (A) (A) (A) (A) (A) (A) (A) (A) (A)
                 (A) (A) (A) (A) (A) (A) (A) (A) (A) (A) (A) (A)
                 (A) (A) (A) (A) (A) (A) (A) (A) (A) (A) (A) (A)
                 (A) (A) (A) (A) (A) (A) (A) (A) (A) (A) (A) (A)
                 (A) (A) (A) (A) (A) (A) (A) (A) (A) (A) (A) (A)
                 (A) (A) (A) (A) (A) (A) (A) (A) (A) (A) (A) (A)
                 (A) (A) (A) (A) (A) (A) (A) (A) (A) (A) (A) (A)
                 (A) (A) (A) (A) (A) (A) (A) (A) (A) (A) (A) (A)
                 (A) (A) (A) (A) (A) (A) (A) (A) (A) (A)
       Virtual   (A) (A) (A) (A) (A) (A) (A) (A) (A) (A) (A) (A)
                 (A) (A) (A) (A) (A) (A) (A) (A) (A) (A) (A) (A)
                 (A) (A) (A) (A) (A) (A) (A) (A) (A) (A) (A) (A)
                 (A) (A) (A) (A) (A) (A) (A) (A) (A) (A) (A) (A)
                 (A) (A) (A) (A) (A) (A) (A) (A) (A) (A) (A) (A)
                 (A) (A) (A) (A) (A) (A) (A) (A) (A) (A) (A) (A)
                 (A) (A) (A) (A) (A) (A) (A) (A) (A) (A) (A) (A)
                 (A) (A) (A) (A) (A) (A) (A) (A) (A) (A) (A) (A)
                 (A) (A) (A) (A) (A) (A) (A) (A) (A) (A) (A) (A)
                 (A) (A) (A) (A) (A) (A) (A) (A) (A) (A) (A) (A)
                 (A) (A) (A) (A) (A) (A) (A) (A) (A) (A) (A) (A)
                 (A) (A) (A) (A) (A) (A) (A) (A) (A) (A) (A) (A)
                 (A) (A) (A) (A) (A) (A) (A) (A) (A) (A) (A) (A)
                 (A) (A) (A) (A) (A) (A) (A) (A) (A) (A) (A) (A)
                 (A) (A) (A) (A) (A) (A) (A) (A) (A) (A) (A) (A)
                 (A) (A) (A) (A) (A) (A) (A) (A) (A) (A) (A) (A)
                 (A) (A) (A) (A) (A) (A) (A) (A) (A) (A) (A) (A)
                 (A) (A) (A) (A) (A) (A) (A) (A) (A) (A) (A) (A)
                 (A) (A) (A) (A) (A) (A) (A) (A) (A) (A) (A) (A)
                 (A) (A) (A) (A) (A) (A) (A) (A) (A) (A) (A) (A)
                 (A) (A) (A) (A) (A) (A) (A) (A) (A) (A) (A) (A)
                 (A) (A) (A) (A) (A) (A) (A) (A) (A) (A) (A) (A)
                 (A) (A) (A) (A) (A) (A) (A) (A) (A) (A) (A) (A)
                 (A) (A) (A) (A) (A) (A) (A) (A) (A) (A) (A) (A)
                 (A) (A) (A) (A) (A) (A) (A) (A) (A) (A) (A) (A)
                 (A) (A) (A) (A) (A) (A) (A) (A) (A) (A) (A) (A)
                 (A) (A) (A) (A) (A) (A) (A) (A) (A) (A) (A) (A)
                 (A) (A) (A) (A) (A) (A) (A) (A) (A) (A) (A) (A)
                 (A) (A) (A) (A) (A) (A) (A) (A) (A) (A) (A) (A)
                 (A) (A) (A) (A) (A) (A) (A) (A) (A) (A) (A) (A)
                 (A) (A) (A) (A) (A) (A) (A) (A) (A) (A) (A) (A)
                 (A) (A) (A) (A) (A) (A) (A) (A) (A) (A) (A) (A)
                 (A) (A) (A) (A) (A) (A) (A) (A) (A) (A) (A) (A)
                 (A) (A) (A) (A) (A) (A) (A) (A) (A) (A) (A) (A)
                 (A) (A) (A) (A) (A) (A) (A) (A) (A) (A) (A) (A)
                 (A) (A) (A) (A) (A) (A) (A) (A) (A) (A) (A) (A)
                 (A) (A) (A) (A) (A) (A) (A) (A) (A) (A) (A) (A)
                 (A) (A) (A) (A) (A) (A) (A) (A) (A) (A) (A) (A)
                 (A) (A) (A) (A) (A) (A) (A) (A) (A) (A) (A) (A)
                 (A) (A) (A) (A) (A) (A) (A) (A) (A) (A) (A) (A)
                 (A) (A) (A) (A) (A) (A) (A) (A) (A) (A) (A) (A)
                 (A) (A) (A) (A) (A) (A) (A) (A) (A) (A) (A) (A)
                 (A) (A) (A) (A) (A) (A) (A) (A) (A) (A) (A) (A)
                 (A) (A) (A) (A) (A) (A) (A) (A) (A) (A) (A) (A)
                 (A) (A) (A) (A) (A) (A) (A) (A) (A) (A) (A) (A)
                 (A) (A) (A) (A) (A) (A) (A) (A) (A) (A) (A) (A)
                 (A) (A) (A) (A) (A) (A) (A) (A) (A) (A) (A) (A)
                 (A) (A) (A) (A) (A) (A) (A) (A) (A) (A) (A) (A)
                 (A) (A) (A) (A) (A) (A) (A) (A) (A) (A) (A) (A)
                 (A) (A) (A) (A) (A) (A) (A) (A) (A) (A) (A) (A)
                 (A) (A) (A) (A) (A) (A) (A) (A) (A) (A) (A) (A)
                 (A) (A) (A) (A) (A) (A) (A) (A) (A) (A) (A) (A)
                 (A) (A) (A) (A) (A) (A) (A) (A) (A) (A) (A) (A)
                 (A) (A) (A) (A) (A) (A) (A) (A) (A) (A) (A) (A)
                 (A) (A) (A) (A) (A) (A) (A) (A) (A) (A) (A) (A)
                 (A) (A) (A) (A) (A) (A) (A) (A) (A) (A) (A) (A)
                 (A) (A) (A) (A) (A) (A) (A) (A) (A) (A) (A) (A)
                 (A) (A) (A) (A) (A) (A) (A) (A) (A) (A) (A) (A)
                 (A) (A) (A) (A) (A) (A) (A) (A) (A) (A) (A) (A)
                 (A) (A) (A) (A) (A) (A) (A) (A) (A) (A) (A) (A)
                 (A) (A) (A) (A) (A) (A) (A) (A) (A) (A) (A) (A)
                 (A) (A) (A) (A) (A) (A) (A) (A) (A) (A) (A) (A)
                 (A) (A) (A) (A) (A) (A) (A) (A) (A) (A) (A) (A)
                 (A) (A) (A) (A) (A) (A) (A) (A) (A) (A) (A) (A)
                 (A) (A) (A) (A) (A) (A) (A) (A) (A) (A) (A) (A)
                 (A) (A) (A) (A) (A) (A) (A) (A) (A) (A) (A) (A)
                 (A) (A) (A) (A) (A) (A) (A) (A) (A) (A) (A) (A)
                 (A) (A) (A) (A) (A) (A) (A) (A) (A) (A) (A) (A)
                 (A) (A) (A) (A) (A) (A) (A) (A) (A) (A) (A) (A)
                 (A) (A) (A) (A) (A) (A) (A) (A) (A) (A) (A) (A)
                 (A) (A) (A) (A) (A) (A) (A) (A) (A) (A) (A) (A)
                 (A) (A) (A) (A) (A) (A) (A) (A) (A) (A) (A) (A)
                 (A) (A) (A) (A) (A) (A) (A) (A) (A) (A) (A) (A)
                 (A) (A) (A) (A) (A) (A) (A) (A) (A) (A) (A) (A)
                 (A) (A) (A) (A) (A) (A) (A) (A) (A) (A) (A) (A)
                 (A) (A) (A) (A) (A) (A) (A) (A) (A) (A) (A) (A)
                 (A) (A) (A) (A) (A) (A) (A) (A) (A) (A) (A) (A)
                 (A) (A) (A) (A) (A) (A) (A) (A) (A) (A) (A) (A)
                 (A) (A) (A) (A) (A) (A) (A) (A) (A) (A) (A) (A)
                 (A) (A) (A) (A) (A) (A) (A) (A) (A) (A) (A) (A)
                 (A) (A) (A) (A) (A) (A) (A) (A) (A) (A) (A) (A)
                 (A) (A) (A) (A) (A) (A) (A) (A) (A) (A) (A) (A)
                 (A) (A) (A) (A) (A) (A) (A) (A) (A) (A) (A) (A)
                 (A) (A) (A) (A) (A) (A) (A) (A) (A) (A) (A) (A)
                 (A) (A) (A) (A) (A) (A) (A) (A) (A) (A) (A) (A)
                 (A) (A) (A) (A) (A) (A) (A) (A) (A) (A) (A) (A)
                 (A) (A) (A) (A) (A) (A) (A) (A) (A) (A) (A) (A)
                 (A) (A) (A) (A) (A) (A) (A) (A) (A) (A) (A) (A)
                 (A) (A) (A) (A) (A) (A) (A) (A) (A) (A) (A) (A)
                 (A) (A) (A) (A) (A) (A) (A) (A) (A) (A) (A) (A)
                 (A) (A) (A) (A) (A) (A) (A) (A) (A) (A) (A) (A)
                 (A) (A) (A) (A) (A) (A) (A) (A) (A) (A) (A) (A)
                 (A) (A) (A) (A) (A) (A) (A) (A) (A) (A) (A) (A)
                 (A) (A) (A) (A) (A) (A) (A) (A) (A) (A) (A) (A)
                 (A) (A) (A) (A) (A) (A) (A) (A) (A) (A) (A) (A)
                 (A) (A) (A) (A) (A) (A) (A) (A) (A) (A) (A) (A)
                 (A) (A) (A) (A) (A) (A) (A) (A) (A) (A) (A) (A)
                 (A) (A) (A) (A) (A) (A) (A) (A) (A) (A) (A) (A)
                 (A) (A) (A) (A) (A) (A) (A) (A) (A) (A) (A) (A)
                 (A) (A) (A) (A) (A) (A) (A) (A) (A) (A) (A) (A)
                 (A) (A) (A) (A) (A) (A) (A) (A) (A) (A) (A) (A)
                 (A) (A) (A) (A) (A) (A) (A) (A) (A) (A) (A) (A)
                 (A) (A) (A) (A) (A) (A) (A) (A) (A) (A) (A) (A)
                 (A) (A) (A) (A) (A) (A) (A) (A) (A) (A) (A) (A)
                 (A) (A) (A) (A) (A) (A) (A) (A) (A) (A) (A) (A)
                 (A) (A) (A) (A) (A) (A) (A) (A) (A) (A) (A) (A)
                 (A) (A) (A) (A) (A) (A) (A) (A) (A) (A) (A) (A)
                 (A) (A) (A) (A) (A) (A) (A) (A) (A) (A) (A) (A)
                 (A) (A) (A) (A) (A) (A) (A) (A) (A) (A) (A) (A)
                 (A) (A) (A) (A) (A) (A) (A) (A) (A) (A) (A) (A)
                 (A) (A) (A) (A) (A) (A) (A) (A) (A) (A) (A) (A)
                 (A) (A) (A) (A) (A) (A) (A) (A) (A) (A) (A) (A)
                 (A) (A) (A) (A) (A) (A) (A) (A) (A) (A) (A) (A)
                 (A) (A) (A)
 The electronic state is 1-A.
 Alpha  occ. eigenvalues -- -145.36414 -19.21067 -19.17110 -19.14234 -19.13687
 Alpha  occ. eigenvalues --  -19.11995 -19.11890 -19.11355 -19.10645 -19.10420
 Alpha  occ. eigenvalues --  -19.09493 -19.08902 -19.07443 -19.07204 -19.06327
 Alpha  occ. eigenvalues --  -19.05221 -19.05188 -19.05176 -19.04695 -19.03240
 Alpha  occ. eigenvalues --  -19.03078 -19.02809 -19.02752 -19.01184 -15.42214
 Alpha  occ. eigenvalues --  -14.58950 -14.40586 -14.39105 -14.38271 -14.37089
 Alpha  occ. eigenvalues --  -14.36946 -14.36296 -14.33731 -14.33287 -14.31634
 Alpha  occ. eigenvalues --  -14.31517 -14.29871 -14.29653 -14.29069 -14.28987
 Alpha  occ. eigenvalues --  -12.55838 -12.55804 -12.55738 -10.34498 -10.32840
 Alpha  occ. eigenvalues --  -10.30920 -10.30020 -10.29792 -10.29423 -10.29314
 Alpha  occ. eigenvalues --  -10.29090 -10.28898 -10.28265 -10.26914 -10.26543
 Alpha  occ. eigenvalues --  -10.26418 -10.26337 -10.25761 -10.24584 -10.24039
 Alpha  occ. eigenvalues --  -10.23925 -10.23760 -10.23512 -10.23284 -10.23242
 Alpha  occ. eigenvalues --  -10.23230 -10.22854 -10.22794 -10.22083 -10.21862
 Alpha  occ. eigenvalues --  -10.21808 -10.21775 -10.21761 -10.21545 -10.20582
 Alpha  occ. eigenvalues --  -10.20508 -10.20124 -10.19803 -10.19515 -10.19281
 Alpha  occ. eigenvalues --  -10.18441 -10.18349 -10.18274 -10.18190 -10.18161
 Alpha  occ. eigenvalues --  -10.17430 -10.17174 -10.17144 -10.16653 -10.16547
 Alpha  occ. eigenvalues --  -10.16456 -10.16449 -10.16410 -10.16175 -10.15567
 Alpha  occ. eigenvalues --  -10.15372 -10.13405  -1.79202  -1.13965  -1.09089
 Alpha  occ. eigenvalues --   -1.07813  -1.07164  -1.06880  -1.06574  -1.05587
 Alpha  occ. eigenvalues --   -1.04299  -1.04165  -1.03608  -1.03491  -1.03413
 Alpha  occ. eigenvalues --   -1.03169  -1.02384  -1.00684  -1.00530  -0.99583
 Alpha  occ. eigenvalues --   -0.99038  -0.98646  -0.98560  -0.97977  -0.97220
 Alpha  occ. eigenvalues --   -0.97072  -0.96691  -0.95939  -0.95090  -0.94916
 Alpha  occ. eigenvalues --   -0.93773  -0.93728  -0.93136  -0.91965  -0.90104
 Alpha  occ. eigenvalues --   -0.89421  -0.89200  -0.88995  -0.88813  -0.88276
 Alpha  occ. eigenvalues --   -0.87588  -0.87066  -0.86237  -0.85740  -0.84960
 Alpha  occ. eigenvalues --   -0.83691  -0.82655  -0.81943  -0.81141  -0.80745
 Alpha  occ. eigenvalues --   -0.80319  -0.79602  -0.77211  -0.76563  -0.75161
 Alpha  occ. eigenvalues --   -0.75031  -0.74185  -0.74020  -0.73472  -0.72440
 Alpha  occ. eigenvalues --   -0.71866  -0.71303  -0.71127  -0.70682  -0.70350
 Alpha  occ. eigenvalues --   -0.69917  -0.69482  -0.68607  -0.68185  -0.67634
 Alpha  occ. eigenvalues --   -0.67467  -0.66935  -0.65590  -0.64823  -0.63754
 Alpha  occ. eigenvalues --   -0.63668  -0.63531  -0.63022  -0.62587  -0.62268
 Alpha  occ. eigenvalues --   -0.61960  -0.61310  -0.60889  -0.60774  -0.60010
 Alpha  occ. eigenvalues --   -0.59893  -0.59467  -0.59133  -0.57844  -0.57446
 Alpha  occ. eigenvalues --   -0.57297  -0.57116  -0.56693  -0.56211  -0.55920
 Alpha  occ. eigenvalues --   -0.55743  -0.55229  -0.55030  -0.54912  -0.54753
 Alpha  occ. eigenvalues --   -0.54292  -0.54133  -0.53848  -0.53668  -0.53040
 Alpha  occ. eigenvalues --   -0.52855  -0.52613  -0.52285  -0.52058  -0.51924
 Alpha  occ. eigenvalues --   -0.51571  -0.51078  -0.50750  -0.50482  -0.50093
 Alpha  occ. eigenvalues --   -0.49858  -0.49617  -0.49173  -0.49001  -0.48911
 Alpha  occ. eigenvalues --   -0.48307  -0.48031  -0.47913  -0.47821  -0.47503
 Alpha  occ. eigenvalues --   -0.47162  -0.47056  -0.46982  -0.46763  -0.46681
 Alpha  occ. eigenvalues --   -0.46210  -0.46122  -0.45979  -0.45820  -0.45638
 Alpha  occ. eigenvalues --   -0.45423  -0.45166  -0.44853  -0.44679  -0.44557
 Alpha  occ. eigenvalues --   -0.44491  -0.44319  -0.44225  -0.43964  -0.43899
 Alpha  occ. eigenvalues --   -0.43592  -0.43485  -0.43379  -0.43162  -0.43085
 Alpha  occ. eigenvalues --   -0.42804  -0.42796  -0.42736  -0.42505  -0.42310
 Alpha  occ. eigenvalues --   -0.42184  -0.42053  -0.41651  -0.41411  -0.41383
 Alpha  occ. eigenvalues --   -0.41271  -0.41093  -0.40815  -0.40651  -0.40456
 Alpha  occ. eigenvalues --   -0.40273  -0.40150  -0.39961  -0.39909  -0.39816
 Alpha  occ. eigenvalues --   -0.39578  -0.39554  -0.39446  -0.39306  -0.39039
 Alpha  occ. eigenvalues --   -0.38775  -0.38745  -0.38628  -0.38492  -0.38459
 Alpha  occ. eigenvalues --   -0.38258  -0.38221  -0.38023  -0.37937  -0.37731
 Alpha  occ. eigenvalues --   -0.37487  -0.37404  -0.37317  -0.37168  -0.36846
 Alpha  occ. eigenvalues --   -0.36808  -0.36754  -0.36614  -0.36482  -0.36213
 Alpha  occ. eigenvalues --   -0.35966  -0.35855  -0.35675  -0.35494  -0.35374
 Alpha  occ. eigenvalues --   -0.35336  -0.34907  -0.34803  -0.34616  -0.34605
 Alpha  occ. eigenvalues --   -0.34407  -0.34250  -0.34164  -0.33932  -0.33839
 Alpha  occ. eigenvalues --   -0.33230  -0.32798  -0.32530  -0.32230  -0.32167
 Alpha  occ. eigenvalues --   -0.32107  -0.31852  -0.31642  -0.31550  -0.31408
 Alpha  occ. eigenvalues --   -0.30751  -0.30589  -0.30256  -0.30184  -0.29888
 Alpha  occ. eigenvalues --   -0.29807  -0.29605  -0.29500  -0.28586  -0.28395
 Alpha  occ. eigenvalues --   -0.27878  -0.27404  -0.27351  -0.27287  -0.26950
 Alpha  occ. eigenvalues --   -0.26610  -0.25690  -0.25608  -0.25550  -0.24985
 Alpha  occ. eigenvalues --   -0.24473  -0.23861  -0.23569  -0.23464  -0.23358
 Alpha  occ. eigenvalues --   -0.23222  -0.22648  -0.22527  -0.22249  -0.22103
 Alpha  occ. eigenvalues --   -0.21720  -0.21354  -0.21045  -0.20542  -0.20431
 Alpha  occ. eigenvalues --   -0.20005  -0.19946  -0.19735  -0.19249  -0.18528
 Alpha  occ. eigenvalues --   -0.18419  -0.17860  -0.17021
 Alpha virt. eigenvalues --   -0.11105  -0.05194  -0.04433  -0.03986  -0.03007
 Alpha virt. eigenvalues --   -0.01835  -0.01650  -0.00369  -0.00152   0.00096
 Alpha virt. eigenvalues --    0.00707   0.00784   0.01245   0.01379   0.01588
 Alpha virt. eigenvalues --    0.02432   0.02702   0.03021   0.03164   0.03298
 Alpha virt. eigenvalues --    0.03461   0.03562   0.04314   0.04579   0.04839
 Alpha virt. eigenvalues --    0.05074   0.05291   0.05540   0.05783   0.05889
 Alpha virt. eigenvalues --    0.06308   0.06501   0.06700   0.06803   0.06948
 Alpha virt. eigenvalues --    0.07189   0.07267   0.07507   0.07753   0.08021
 Alpha virt. eigenvalues --    0.08198   0.08244   0.08599   0.08780   0.08853
 Alpha virt. eigenvalues --    0.08938   0.09044   0.09315   0.09638   0.09787
 Alpha virt. eigenvalues --    0.09957   0.10174   0.10269   0.10423   0.10474
 Alpha virt. eigenvalues --    0.10865   0.10959   0.11380   0.11538   0.11895
 Alpha virt. eigenvalues --    0.12020   0.12097   0.12448   0.12616   0.12714
 Alpha virt. eigenvalues --    0.13015   0.13178   0.13233   0.13465   0.13775
 Alpha virt. eigenvalues --    0.13920   0.14170   0.14236   0.14356   0.14388
 Alpha virt. eigenvalues --    0.14660   0.14940   0.15116   0.15312   0.15671
 Alpha virt. eigenvalues --    0.15795   0.15871   0.16219   0.16290   0.16348
 Alpha virt. eigenvalues --    0.16565   0.16774   0.16960   0.17070   0.17189
 Alpha virt. eigenvalues --    0.17369   0.17505   0.17570   0.17789   0.17840
 Alpha virt. eigenvalues --    0.17922   0.18161   0.18266   0.18445   0.18545
 Alpha virt. eigenvalues --    0.18710   0.18822   0.19106   0.19355   0.19700
 Alpha virt. eigenvalues --    0.19779   0.19913   0.20340   0.20427   0.20692
 Alpha virt. eigenvalues --    0.20960   0.21015   0.21347   0.21468   0.21763
 Alpha virt. eigenvalues --    0.21941   0.22163   0.22382   0.22937   0.23072
 Alpha virt. eigenvalues --    0.23210   0.23366   0.23590   0.23805   0.23963
 Alpha virt. eigenvalues --    0.24096   0.24363   0.24634   0.24793   0.24964
 Alpha virt. eigenvalues --    0.24993   0.25347   0.25606   0.25948   0.26060
 Alpha virt. eigenvalues --    0.26293   0.26510   0.26622   0.26973   0.27304
 Alpha virt. eigenvalues --    0.27340   0.27537   0.27665   0.27927   0.28322
 Alpha virt. eigenvalues --    0.28573   0.29036   0.29305   0.29486   0.29760
 Alpha virt. eigenvalues --    0.29913   0.30035   0.30152   0.30411   0.30674
 Alpha virt. eigenvalues --    0.30848   0.30994   0.31093   0.31245   0.31677
 Alpha virt. eigenvalues --    0.31754   0.32099   0.32266   0.32660   0.32828
 Alpha virt. eigenvalues --    0.33195   0.33287   0.33402   0.34112   0.34266
 Alpha virt. eigenvalues --    0.34622   0.35109   0.35313   0.35488   0.35553
 Alpha virt. eigenvalues --    0.35735   0.35819   0.36095   0.36474   0.36919
 Alpha virt. eigenvalues --    0.37165   0.37478   0.37751   0.38194   0.38324
 Alpha virt. eigenvalues --    0.38421   0.38662   0.38796   0.38997   0.39532
 Alpha virt. eigenvalues --    0.39862   0.40086   0.40272   0.40741   0.40936
 Alpha virt. eigenvalues --    0.41501   0.41746   0.41821   0.42029   0.42340
 Alpha virt. eigenvalues --    0.42375   0.42718   0.42810   0.43128   0.43403
 Alpha virt. eigenvalues --    0.43553   0.43585   0.44078   0.44669   0.44737
 Alpha virt. eigenvalues --    0.44883   0.45353   0.45403   0.45606   0.45648
 Alpha virt. eigenvalues --    0.45776   0.46208   0.46349   0.46553   0.46795
 Alpha virt. eigenvalues --    0.47009   0.47059   0.47142   0.47420   0.47610
 Alpha virt. eigenvalues --    0.47898   0.47959   0.48115   0.48311   0.48657
 Alpha virt. eigenvalues --    0.48757   0.48957   0.49069   0.49378   0.49542
 Alpha virt. eigenvalues --    0.49844   0.50047   0.50196   0.50224   0.50496
 Alpha virt. eigenvalues --    0.50735   0.50960   0.51523   0.51573   0.51626
 Alpha virt. eigenvalues --    0.51711   0.52103   0.52201   0.52387   0.52491
 Alpha virt. eigenvalues --    0.52983   0.53058   0.53415   0.53622   0.54024
 Alpha virt. eigenvalues --    0.54157   0.54391   0.54555   0.54617   0.54967
 Alpha virt. eigenvalues --    0.55036   0.55110   0.55213   0.55312   0.55444
 Alpha virt. eigenvalues --    0.55616   0.55790   0.55994   0.56107   0.56149
 Alpha virt. eigenvalues --    0.56452   0.56515   0.56580   0.57049   0.57247
 Alpha virt. eigenvalues --    0.57312   0.57464   0.57550   0.57787   0.57943
 Alpha virt. eigenvalues --    0.58077   0.58192   0.58410   0.58735   0.58811
 Alpha virt. eigenvalues --    0.58970   0.59106   0.59297   0.59494   0.59552
 Alpha virt. eigenvalues --    0.59797   0.59958   0.60157   0.60344   0.60468
 Alpha virt. eigenvalues --    0.60581   0.60665   0.60895   0.61058   0.61185
 Alpha virt. eigenvalues --    0.61281   0.61442   0.61599   0.61647   0.61664
 Alpha virt. eigenvalues --    0.62087   0.62271   0.62425   0.62580   0.62694
 Alpha virt. eigenvalues --    0.62799   0.63040   0.63205   0.63337   0.63490
 Alpha virt. eigenvalues --    0.63559   0.63652   0.63843   0.63998   0.64024
 Alpha virt. eigenvalues --    0.64106   0.64198   0.64451   0.64487   0.64605
 Alpha virt. eigenvalues --    0.64708   0.64874   0.65046   0.65094   0.65222
 Alpha virt. eigenvalues --    0.65361   0.65519   0.65595   0.65716   0.65850
 Alpha virt. eigenvalues --    0.65987   0.66126   0.66196   0.66397   0.66483
 Alpha virt. eigenvalues --    0.66701   0.66917   0.66985   0.67087   0.67340
 Alpha virt. eigenvalues --    0.67392   0.67451   0.67548   0.67626   0.67676
 Alpha virt. eigenvalues --    0.67807   0.67928   0.68068   0.68150   0.68173
 Alpha virt. eigenvalues --    0.68266   0.68486   0.68540   0.68608   0.68735
 Alpha virt. eigenvalues --    0.68952   0.68985   0.69166   0.69256   0.69440
 Alpha virt. eigenvalues --    0.69693   0.69823   0.69876   0.70037   0.70225
 Alpha virt. eigenvalues --    0.70320   0.70402   0.70642   0.70790   0.70817
 Alpha virt. eigenvalues --    0.70959   0.71101   0.71172   0.71365   0.71415
 Alpha virt. eigenvalues --    0.71653   0.71814   0.71848   0.72000   0.72067
 Alpha virt. eigenvalues --    0.72272   0.72455   0.72490   0.72681   0.72842
 Alpha virt. eigenvalues --    0.72934   0.73181   0.73425   0.73561   0.73640
 Alpha virt. eigenvalues --    0.73874   0.74116   0.74297   0.74368   0.74563
 Alpha virt. eigenvalues --    0.74831   0.75060   0.75210   0.75260   0.75409
 Alpha virt. eigenvalues --    0.75555   0.75910   0.76224   0.76285   0.76652
 Alpha virt. eigenvalues --    0.76995   0.77153   0.77259   0.77438   0.77639
 Alpha virt. eigenvalues --    0.77903   0.78031   0.78137   0.78470   0.78621
 Alpha virt. eigenvalues --    0.78955   0.79044   0.79376   0.79836   0.79987
 Alpha virt. eigenvalues --    0.80207   0.80395   0.80567   0.80990   0.81032
 Alpha virt. eigenvalues --    0.81169   0.81582   0.81717   0.82157   0.82275
 Alpha virt. eigenvalues --    0.82489   0.82829   0.83000   0.83250   0.83508
 Alpha virt. eigenvalues --    0.83820   0.83867   0.84328   0.84444   0.84627
 Alpha virt. eigenvalues --    0.84958   0.85217   0.85492   0.85762   0.86161
 Alpha virt. eigenvalues --    0.86498   0.86708   0.86962   0.87514   0.87844
 Alpha virt. eigenvalues --    0.88092   0.88354   0.88679   0.88893   0.89480
 Alpha virt. eigenvalues --    0.89803   0.89900   0.90494   0.90579   0.91006
 Alpha virt. eigenvalues --    0.91174   0.91366   0.91651   0.92050   0.92169
 Alpha virt. eigenvalues --    0.92486   0.92760   0.92915   0.93250   0.93595
 Alpha virt. eigenvalues --    0.93985   0.94176   0.94338   0.94838   0.95129
 Alpha virt. eigenvalues --    0.95373   0.95653   0.95927   0.96312   0.96494
 Alpha virt. eigenvalues --    0.96655   0.96737   0.97152   0.97338   0.97573
 Alpha virt. eigenvalues --    0.98506   0.98736   0.98755   0.98904   0.99101
 Alpha virt. eigenvalues --    0.99187   0.99511   0.99678   1.00184   1.00483
 Alpha virt. eigenvalues --    1.00647   1.00683   1.00866   1.01417   1.01615
 Alpha virt. eigenvalues --    1.02239   1.02476   1.02946   1.03227   1.03666
 Alpha virt. eigenvalues --    1.04012   1.04322   1.04612   1.04903   1.05244
 Alpha virt. eigenvalues --    1.05451   1.05631   1.06253   1.06652   1.06777
 Alpha virt. eigenvalues --    1.07024   1.07273   1.07742   1.07936   1.08246
 Alpha virt. eigenvalues --    1.08537   1.08767   1.08989   1.09353   1.09496
 Alpha virt. eigenvalues --    1.09690   1.09847   1.10278   1.10469   1.10994
 Alpha virt. eigenvalues --    1.11172   1.11455   1.11490   1.12387   1.12532
 Alpha virt. eigenvalues --    1.12748   1.13175   1.13389   1.13601   1.13824
 Alpha virt. eigenvalues --    1.14402   1.14619   1.14719   1.15232   1.15299
 Alpha virt. eigenvalues --    1.15369   1.15847   1.15999   1.16126   1.16292
 Alpha virt. eigenvalues --    1.16622   1.16825   1.17083   1.17531   1.17675
 Alpha virt. eigenvalues --    1.17727   1.18187   1.18417   1.18670   1.18882
 Alpha virt. eigenvalues --    1.19131   1.19709   1.19891   1.20121   1.20565
 Alpha virt. eigenvalues --    1.20879   1.21221   1.21307   1.21596   1.21871
 Alpha virt. eigenvalues --    1.22243   1.22410   1.22610   1.22744   1.22877
 Alpha virt. eigenvalues --    1.23008   1.23184   1.23453   1.23620   1.24151
 Alpha virt. eigenvalues --    1.24203   1.24421   1.24529   1.24682   1.25062
 Alpha virt. eigenvalues --    1.25404   1.25494   1.25966   1.26276   1.26740
 Alpha virt. eigenvalues --    1.26843   1.27113   1.27356   1.27573   1.27965
 Alpha virt. eigenvalues --    1.28075   1.28116   1.28329   1.28522   1.28741
 Alpha virt. eigenvalues --    1.28980   1.29132   1.29416   1.29578   1.30029
 Alpha virt. eigenvalues --    1.30247   1.30428   1.30824   1.31129   1.31317
 Alpha virt. eigenvalues --    1.31592   1.31974   1.32040   1.32317   1.32732
 Alpha virt. eigenvalues --    1.33031   1.33224   1.33344   1.33446   1.33706
 Alpha virt. eigenvalues --    1.34250   1.34856   1.35163   1.35782   1.35982
 Alpha virt. eigenvalues --    1.36129   1.36625   1.36816   1.36857   1.37078
 Alpha virt. eigenvalues --    1.37708   1.37802   1.38278   1.38436   1.38643
 Alpha virt. eigenvalues --    1.39132   1.39428   1.39512   1.39767   1.39861
 Alpha virt. eigenvalues --    1.40213   1.40236   1.40724   1.40842   1.41267
 Alpha virt. eigenvalues --    1.41450   1.41653   1.41976   1.42067   1.42356
 Alpha virt. eigenvalues --    1.42690   1.42718   1.43008   1.43404   1.43645
 Alpha virt. eigenvalues --    1.43856   1.44341   1.44768   1.45135   1.45453
 Alpha virt. eigenvalues --    1.45631   1.46088   1.46406   1.46484   1.46945
 Alpha virt. eigenvalues --    1.47047   1.47469   1.47638   1.47868   1.48222
 Alpha virt. eigenvalues --    1.48535   1.48784   1.49436   1.49723   1.50065
 Alpha virt. eigenvalues --    1.50254   1.50569   1.50866   1.51177   1.51630
 Alpha virt. eigenvalues --    1.51883   1.52202   1.52574   1.52819   1.53230
 Alpha virt. eigenvalues --    1.53423   1.53807   1.54217   1.54339   1.54721
 Alpha virt. eigenvalues --    1.54863   1.55126   1.55633   1.56142   1.56913
 Alpha virt. eigenvalues --    1.57106   1.57270   1.57442   1.58081   1.58371
 Alpha virt. eigenvalues --    1.58645   1.59003   1.59284   1.60201   1.60498
 Alpha virt. eigenvalues --    1.60761   1.61143   1.61342   1.61765   1.61852
 Alpha virt. eigenvalues --    1.62566   1.62840   1.62919   1.63141   1.63287
 Alpha virt. eigenvalues --    1.63615   1.64072   1.64186   1.64325   1.64636
 Alpha virt. eigenvalues --    1.64861   1.64939   1.65284   1.65504   1.66108
 Alpha virt. eigenvalues --    1.66215   1.66354   1.66566   1.66813   1.67098
 Alpha virt. eigenvalues --    1.67261   1.67953   1.68097   1.68452   1.68823
 Alpha virt. eigenvalues --    1.68873   1.69143   1.69354   1.69826   1.69968
 Alpha virt. eigenvalues --    1.70388   1.70519   1.70808   1.70857   1.71020
 Alpha virt. eigenvalues --    1.71346   1.71481   1.71544   1.71895   1.71984
 Alpha virt. eigenvalues --    1.72081   1.72445   1.72758   1.73046   1.73495
 Alpha virt. eigenvalues --    1.73543   1.73795   1.73973   1.74276   1.74513
 Alpha virt. eigenvalues --    1.74794   1.74896   1.75146   1.75511   1.75532
 Alpha virt. eigenvalues --    1.76031   1.76163   1.76360   1.76505   1.76620
 Alpha virt. eigenvalues --    1.76768   1.76844   1.77197   1.77357   1.77463
 Alpha virt. eigenvalues --    1.77654   1.77761   1.77907   1.78250   1.78294
 Alpha virt. eigenvalues --    1.78447   1.78652   1.78742   1.78880   1.79061
 Alpha virt. eigenvalues --    1.79099   1.79352   1.79431   1.79514   1.79865
 Alpha virt. eigenvalues --    1.79883   1.79973   1.80135   1.80397   1.80495
 Alpha virt. eigenvalues --    1.80803   1.80993   1.81147   1.81219   1.81351
 Alpha virt. eigenvalues --    1.81703   1.81825   1.81894   1.82058   1.82247
 Alpha virt. eigenvalues --    1.82566   1.82810   1.83054   1.83107   1.83405
 Alpha virt. eigenvalues --    1.83691   1.83826   1.84229   1.84354   1.84575
 Alpha virt. eigenvalues --    1.84664   1.84856   1.85163   1.85328   1.85527
 Alpha virt. eigenvalues --    1.85619   1.85639   1.85839   1.86123   1.86597
 Alpha virt. eigenvalues --    1.86683   1.87142   1.87358   1.87430   1.87471
 Alpha virt. eigenvalues --    1.87631   1.87864   1.87968   1.88173   1.88504
 Alpha virt. eigenvalues --    1.88643   1.88724   1.88887   1.89112   1.89232
 Alpha virt. eigenvalues --    1.89541   1.89641   1.89865   1.90122   1.90427
 Alpha virt. eigenvalues --    1.90641   1.90929   1.91045   1.91177   1.91334
 Alpha virt. eigenvalues --    1.91396   1.91719   1.92094   1.92125   1.92315
 Alpha virt. eigenvalues --    1.92560   1.92816   1.92966   1.93196   1.93282
 Alpha virt. eigenvalues --    1.93559   1.93645   1.93822   1.94084   1.94255
 Alpha virt. eigenvalues --    1.94831   1.94853   1.95429   1.95644   1.95880
 Alpha virt. eigenvalues --    1.96065   1.96254   1.96295   1.96535   1.96719
 Alpha virt. eigenvalues --    1.96871   1.97014   1.97022   1.97219   1.97446
 Alpha virt. eigenvalues --    1.97809   1.98013   1.98216   1.98453   1.98545
 Alpha virt. eigenvalues --    1.98780   1.98970   1.99202   1.99354   1.99675
 Alpha virt. eigenvalues --    1.99737   2.00102   2.00311   2.00780   2.01001
 Alpha virt. eigenvalues --    2.01142   2.01388   2.01721   2.01939   2.02333
 Alpha virt. eigenvalues --    2.02733   2.02847   2.03053   2.03300   2.03753
 Alpha virt. eigenvalues --    2.03957   2.04364   2.04522   2.04865   2.05126
 Alpha virt. eigenvalues --    2.05457   2.05482   2.05820   2.05973   2.06382
 Alpha virt. eigenvalues --    2.06626   2.06666   2.06954   2.07157   2.07275
 Alpha virt. eigenvalues --    2.07469   2.07733   2.08050   2.08471   2.08719
 Alpha virt. eigenvalues --    2.08913   2.09127   2.09428   2.09631   2.09756
 Alpha virt. eigenvalues --    2.10081   2.10360   2.10564   2.10890   2.11291
 Alpha virt. eigenvalues --    2.11912   2.12233   2.12304   2.13233   2.13584
 Alpha virt. eigenvalues --    2.13795   2.13984   2.14250   2.14428   2.14618
 Alpha virt. eigenvalues --    2.14873   2.15300   2.15679   2.15891   2.15989
 Alpha virt. eigenvalues --    2.16221   2.16277   2.16849   2.17206   2.17404
 Alpha virt. eigenvalues --    2.17586   2.17698   2.17961   2.18207   2.18334
 Alpha virt. eigenvalues --    2.18452   2.18646   2.19081   2.19122   2.19623
 Alpha virt. eigenvalues --    2.19737   2.20542   2.20571   2.20732   2.21158
 Alpha virt. eigenvalues --    2.21491   2.21565   2.21809   2.22361   2.22556
 Alpha virt. eigenvalues --    2.22890   2.22988   2.23355   2.23715   2.23895
 Alpha virt. eigenvalues --    2.24192   2.24464   2.24922   2.25071   2.25611
 Alpha virt. eigenvalues --    2.25765   2.25910   2.26421   2.26678   2.27066
 Alpha virt. eigenvalues --    2.27215   2.27580   2.28077   2.28176   2.29164
 Alpha virt. eigenvalues --    2.30004   2.30313   2.31188   2.31229   2.31331
 Alpha virt. eigenvalues --    2.31397   2.31717   2.31762   2.32057   2.32425
 Alpha virt. eigenvalues --    2.32588   2.32768   2.33015   2.33129   2.34104
 Alpha virt. eigenvalues --    2.34242   2.34751   2.34891   2.35446   2.35652
 Alpha virt. eigenvalues --    2.36125   2.36240   2.36414   2.36762   2.37325
 Alpha virt. eigenvalues --    2.37872   2.37937   2.38257   2.38302   2.38633
 Alpha virt. eigenvalues --    2.38902   2.39398   2.39882   2.40083   2.40155
 Alpha virt. eigenvalues --    2.40546   2.40936   2.41207   2.41505   2.42016
 Alpha virt. eigenvalues --    2.42350   2.43038   2.43260   2.43640   2.43861
 Alpha virt. eigenvalues --    2.43944   2.44256   2.45256   2.45513   2.45666
 Alpha virt. eigenvalues --    2.45789   2.46254   2.46355   2.46783   2.47051
 Alpha virt. eigenvalues --    2.47443   2.47739   2.48179   2.48261   2.48596
 Alpha virt. eigenvalues --    2.48824   2.49118   2.49705   2.49911   2.50061
 Alpha virt. eigenvalues --    2.50358   2.50524   2.51680   2.52071   2.52087
 Alpha virt. eigenvalues --    2.52515   2.52721   2.53002   2.53579   2.53764
 Alpha virt. eigenvalues --    2.54416   2.54580   2.54982   2.55286   2.55835
 Alpha virt. eigenvalues --    2.56109   2.56326   2.56909   2.57184   2.57332
 Alpha virt. eigenvalues --    2.57354   2.57804   2.58208   2.58731   2.58971
 Alpha virt. eigenvalues --    2.59289   2.59410   2.60003   2.60392   2.60643
 Alpha virt. eigenvalues --    2.60733   2.61362   2.61574   2.61921   2.62351
 Alpha virt. eigenvalues --    2.62830   2.63261   2.63539   2.63811   2.64055
 Alpha virt. eigenvalues --    2.64228   2.64394   2.64550   2.64796   2.65350
 Alpha virt. eigenvalues --    2.65807   2.65956   2.66170   2.66430   2.66558
 Alpha virt. eigenvalues --    2.67009   2.67063   2.67231   2.67524   2.67633
 Alpha virt. eigenvalues --    2.68379   2.68553   2.69341   2.69783   2.69901
 Alpha virt. eigenvalues --    2.70057   2.70338   2.70549   2.70907   2.71178
 Alpha virt. eigenvalues --    2.71350   2.71862   2.72154   2.72301   2.72888
 Alpha virt. eigenvalues --    2.73140   2.73263   2.73621   2.73959   2.74320
 Alpha virt. eigenvalues --    2.74684   2.74876   2.75226   2.75442   2.75602
 Alpha virt. eigenvalues --    2.75850   2.76021   2.76104   2.76532   2.76606
 Alpha virt. eigenvalues --    2.76738   2.76788   2.76892   2.77380   2.77602
 Alpha virt. eigenvalues --    2.77934   2.78204   2.78217   2.78367   2.78757
 Alpha virt. eigenvalues --    2.79506   2.79733   2.80080   2.80235   2.80632
 Alpha virt. eigenvalues --    2.80962   2.81113   2.81421   2.81661   2.81882
 Alpha virt. eigenvalues --    2.81979   2.82653   2.82845   2.83042   2.83516
 Alpha virt. eigenvalues --    2.83970   2.84229   2.84440   2.84466   2.85011
 Alpha virt. eigenvalues --    2.85298   2.85535   2.85798   2.86167   2.86245
 Alpha virt. eigenvalues --    2.86429   2.87205   2.87457   2.87743   2.88312
 Alpha virt. eigenvalues --    2.88602   2.88668   2.89031   2.89102   2.89405
 Alpha virt. eigenvalues --    2.89560   2.89953   2.90112   2.90389   2.90651
 Alpha virt. eigenvalues --    2.91170   2.91324   2.91585   2.91780   2.92088
 Alpha virt. eigenvalues --    2.92315   2.92718   2.92942   2.93432   2.94069
 Alpha virt. eigenvalues --    2.94144   2.94608   2.94926   2.95055   2.95216
 Alpha virt. eigenvalues --    2.95549   2.95866   2.95996   2.96032   2.96480
 Alpha virt. eigenvalues --    2.96896   2.97152   2.97409   2.97822   2.98196
 Alpha virt. eigenvalues --    2.98330   2.98809   2.99284   2.99453   2.99940
 Alpha virt. eigenvalues --    3.00371   3.00834   3.00896   3.01533   3.02248
 Alpha virt. eigenvalues --    3.02467   3.02796   3.02962   3.03360   3.03580
 Alpha virt. eigenvalues --    3.03655   3.04078   3.04288   3.04407   3.05614
 Alpha virt. eigenvalues --    3.05820   3.06007   3.06293   3.07575   3.08129
 Alpha virt. eigenvalues --    3.08587   3.08930   3.09367   3.09619   3.09841
 Alpha virt. eigenvalues --    3.10523   3.10780   3.11175   3.11624   3.11864
 Alpha virt. eigenvalues --    3.12063   3.12393   3.12916   3.13212   3.13673
 Alpha virt. eigenvalues --    3.13988   3.14187   3.15162   3.15301   3.15931
 Alpha virt. eigenvalues --    3.16278   3.16418   3.16928   3.17178   3.17858
 Alpha virt. eigenvalues --    3.17970   3.18357   3.19182   3.19407   3.20366
 Alpha virt. eigenvalues --    3.20433   3.20529   3.21342   3.21531   3.21791
 Alpha virt. eigenvalues --    3.22635   3.23043   3.23111   3.23442   3.23748
 Alpha virt. eigenvalues --    3.24098   3.24590   3.24700   3.24801   3.24967
 Alpha virt. eigenvalues --    3.25728   3.26008   3.26466   3.26786   3.28287
 Alpha virt. eigenvalues --    3.29041   3.29172   3.30408   3.30548   3.30656
 Alpha virt. eigenvalues --    3.31322   3.31515   3.32385   3.34334   3.34698
 Alpha virt. eigenvalues --    3.35373   3.36755   3.36825   3.38279   3.40397
 Alpha virt. eigenvalues --    3.42152   3.45960   3.49109   3.50705   3.51589
 Alpha virt. eigenvalues --    3.51758   3.52484   3.53280   3.53782   3.55962
 Alpha virt. eigenvalues --    3.56577   3.57449   3.58953   3.59793   3.60943
 Alpha virt. eigenvalues --    3.62993   3.63715   3.64282   3.65297   3.65539
 Alpha virt. eigenvalues --    3.65742   3.66021   3.66632   3.66940   3.68056
 Alpha virt. eigenvalues --    3.68589   3.69131   3.69865   3.70225   3.70777
 Alpha virt. eigenvalues --    3.70913   3.71593   3.71840   3.72445   3.72708
 Alpha virt. eigenvalues --    3.73223   3.74142   3.74345   3.74841   3.75406
 Alpha virt. eigenvalues --    3.75805   3.81107   3.82180   3.84125
          Condensed to atoms (all electrons):
 Mulliken charges:
               1
     1  C    0.062990
     2  C    0.019714
     3  O   -0.312059
     4  H    0.038556
     5  H    0.032818
     6  H    0.008130
     7  N   -0.119309
     8  C    0.126106
     9  C    0.057426
    10  O   -0.289191
    11  C    0.069967
    12  C    0.130572
    13  O   -0.365733
    14  O   -0.470743
    15  H    0.115066
    16  H   -0.002637
    17  H    0.009247
    18  H    0.003579
    19  N   -0.144439
    20  C    0.166707
    21  C    0.036697
    22  O   -0.323433
    23  C   -0.000460
    24  C    0.022169
    25  C    0.002870
    26  C    0.000962
    27  N    0.084546
    28  H    0.157416
    29  H    0.001512
    30  H   -0.024686
    31  H    0.014210
    32  H    0.048925
    33  H    0.002075
    34  H    0.008677
    35  H    0.050060
    36  H    0.073603
    37  H    0.083548
    38  H    0.180137
    39  H    0.196377
    40  H    0.195017
    41  N   -0.154167
    42  C    0.183011
    43  C    0.045962
    44  O   -0.285438
    45  C    0.075296
    46  C    0.102012
    47  O   -0.393369
    48  O   -0.491145
    49  H    0.154853
    50  H    0.012485
    51  H   -0.013635
    52  H    0.007749
    53  N   -0.164461
    54  C    0.263525
    55  C   -0.001050
    56  O   -0.298686
    57  H    0.152946
    58  H    0.016566
    59  H    0.007767
    60  N   -0.174109
    61  C    0.199816
    62  C    0.017941
    63  O   -0.285921
    64  C    0.016291
    65  C    0.115570
    66  N   -0.025130
    67  O   -0.384100
    68  H    0.166016
    69  H    0.026921
    70  H    0.067570
    71  H    0.015534
    72  H    0.134085
    73  H    0.118713
    74  N   -0.164370
    75  C    0.237227
    76  C    0.023284
    77  O   -0.303838
    78  H    0.157463
    79  H    0.044290
    80  H    0.034201
    81  N   -0.133989
    82  C    0.097167
    83  C    0.127869
    84  O   -0.321992
    85  C    0.151849
    86  C   -0.037951
    87  C    0.029434
    88  C    0.017599
    89  C   -0.011472
    90  C   -0.030600
    91  C    0.182050
    92  O   -0.204385
    93  H    0.153246
    94  H    0.011025
    95  H   -0.015156
    96  H   -0.044309
    97  H   -0.065097
    98  H   -0.041103
    99  H   -0.021666
   100  H   -0.054120
   101  H    0.170240
   102  N   -0.132795
   103  C    0.172064
   104  C    0.019808
   105  O   -0.295160
   106  C   -0.090202
   107  C    0.033999
   108  C    0.099199
   109  C   -0.017433
   110  H    0.132854
   111  H   -0.011508
   112  H   -0.020508
   113  H   -0.010209
   114  H    0.001324
   115  H    0.011169
   116  H    0.009659
   117  H   -0.003700
   118  H    0.037783
   119  H    0.031558
   120  H    0.004758
   121  N   -0.103163
   122  C    0.123187
   123  C    0.078231
   124  O   -0.249929
   125  C    0.190477
   126  O   -0.303963
   127  H    0.145576
   128  H    0.048218
   129  H    0.022110
   130  H   -0.013324
   131  H    0.199051
   132  N   -0.135802
   133  C    0.074222
   134  C    0.052232
   135  O   -0.247960
   136  C    0.036714
   137  H    0.117196
   138  H    0.029059
   139  H    0.053048
   140  H    0.034162
   141  H    0.014339
   142  N   -0.105099
   143  C    0.104125
   144  C    0.034564
   145  O   -0.260388
   146  C    0.040516
   147  H    0.096327
   148  H    0.013391
   149  H   -0.033044
   150  H    0.034853
   151  H    0.010049
   152  N   -0.148823
   153  C    0.170874
   154  C    0.073263
   155  O   -0.273346
   156  C   -0.069933
   157  C    0.155672
   158  C    0.101006
   159  O   -0.369793
   160  O   -0.472712
   161  H    0.124005
   162  H   -0.034378
   163  H    0.060581
   164  H    0.007667
   165  H   -0.050539
   166  H   -0.026753
   167  N   -0.175050
   168  C    0.113464
   169  H    0.013631
   170  H    0.024626
   171  H    0.040888
   172  H    0.129217
   173  Ca   1.294227
   174  O   -0.266975
   175  H    0.185738
   176  H    0.158506
 Sum of Mulliken charges =   0.00000
 Mulliken charges with hydrogens summed into heavy atoms:
               1
     1  C    0.142494
     2  C    0.019714
     3  O   -0.312059
     7  N   -0.004243
     8  C    0.123468
     9  C    0.057426
    10  O   -0.289191
    11  C    0.082792
    12  C    0.130572
    13  O   -0.365733
    14  O   -0.470743
    19  N    0.012977
    20  C    0.168219
    21  C    0.036697
    22  O   -0.323433
    23  C   -0.010937
    24  C    0.073169
    25  C    0.061607
    26  C    0.158113
    27  N    0.656076
    41  N    0.000686
    42  C    0.195497
    43  C    0.045962
    44  O   -0.285438
    45  C    0.069410
    46  C    0.102012
    47  O   -0.393369
    48  O   -0.491145
    53  N   -0.011515
    54  C    0.287858
    55  C   -0.001050
    56  O   -0.298686
    60  N   -0.008093
    61  C    0.226737
    62  C    0.017941
    63  O   -0.285921
    64  C    0.099394
    65  C    0.115570
    66  N    0.227668
    67  O   -0.384100
    74  N   -0.006907
    75  C    0.315717
    76  C    0.023284
    77  O   -0.303838
    81  N    0.019257
    82  C    0.108191
    83  C    0.127869
    84  O   -0.321992
    85  C    0.092384
    86  C   -0.037951
    87  C   -0.035663
    88  C   -0.023504
    89  C   -0.033138
    90  C   -0.084720
    91  C    0.182050
    92  O   -0.034145
   102  N    0.000060
   103  C    0.160557
   104  C    0.019808
   105  O   -0.295160
   106  C   -0.110710
   107  C    0.025114
   108  C    0.116327
   109  C    0.056666
   121  N    0.042413
   122  C    0.171405
   123  C    0.078231
   124  O   -0.249929
   125  C    0.199264
   126  O   -0.104912
   132  N   -0.018606
   133  C    0.103281
   134  C    0.052232
   135  O   -0.247960
   136  C    0.138263
   142  N   -0.008772
   143  C    0.117516
   144  C    0.034564
   145  O   -0.260388
   146  C    0.052374
   152  N   -0.024818
   153  C    0.136496
   154  C    0.073263
   155  O   -0.273346
   156  C   -0.001685
   157  C    0.078380
   158  C    0.101006
   159  O   -0.369793
   160  O   -0.472712
   167  N   -0.045833
   168  C    0.192609
   173  Ca   1.294227
   174  O    0.077269
 DipInt: DoE/N= T F RetVal/Mat= T F Init=T NMatP=  1 IDeriv=0 Min/MaxMlt=  0  4
 Entering OneElI...
 OneElI was handed  4286741430 working-precision words.
 Multipole integrals L=0 to 4 MinM= 0 MaxM= 0.
 Requested accuracy = 0.1000D-12
 ShPair: Thresh= 1.00D-13 NBox=     0 BxSize= 0.00D+00 RnKept= 2.55D+01
         NSMCal=               327645 NSMKep=              161138
 PrsmSu:  NPrtUS=   1 ThrOK=F IAlg=1 NPAlg=1 LenDen=           0.
 Prism:   IPart=     0 DynPar=F LinDyn=F Incr=         512.
 PRISM was handed  4276627164 working-precision words and161138 shell-pairs
 IPart=  0 NShTot=      161138 NBatch=         453 AvBLen=       355.7
 PrSmSu:  NxtVal=            513.
 Electronic moments (au):
       -716.00000000        -15.34421295         -0.81729827         -6.87654306
     -53307.35377078     -31633.66188439     -11027.17162996         85.07947064
         78.23206162          0.66531823     108642.80693254      -5206.25065202
     -16125.08192104     -38878.96650452    -104370.06379443      41595.44721200
       4320.12664283      22113.39936889       5200.72185319      -8607.94706825
   -7739183.52025638   -3074972.33666312    -525052.57793615     202452.77169422
    -256389.85913214    -725601.03925767     -90457.94430005      70319.12435922
     131428.92250920   -2288979.62356886    -577364.21053640    -389282.98611945
      31257.81187662     -47647.01625140      17973.50492386
 Electronic spatial extent (au):  <R**2>=          95968.1873
 DipInt: DoE/N= F T RetVal/Mat= T F Init=T NMatP=  1 IDeriv=0 Min/MaxMlt=  0  4
 Nuclear    moments (au):
        716.00000000          0.00000000          0.00000000          0.00000000
      52836.29099465      31311.79935905      10652.70222747          0.00000000
          0.00000000          0.00000000    -110281.53983126       4429.04006555
      16034.62670175      36913.22603408     104226.39295642     -42409.50552211
      -4659.02971119     -22229.09778391      -5709.24977925       8104.00604516
    7531409.05894503    2986574.72476521     490406.80529524    -196890.85106867
     265086.88827142     747349.25295851      95266.18366234     -68491.67275377
    -133300.26263574    2255658.19904713     543334.88886703     366818.72938250
     -28570.94979811      56230.40574583     -16599.02907969
 Total      moments (au):
          0.00000000        -15.34421295         -0.81729827         -6.87654306
       -471.06277612       -321.86252534       -374.46940249         85.07947064
         78.23206162          0.66531823      -1638.73289871       -777.21058648
        -90.45521929      -1965.74047044       -143.67083801       -814.05831011
       -338.90306835       -115.69841503       -508.52792607       -503.94102309
    -207774.46131135     -88397.61189791     -34645.77264091       5561.92062555
       8697.02913928      21748.21370084       4808.23936229       1827.45160546
      -1871.34012654     -33321.42452173     -34029.32166938     -22464.25673696
       2686.86207850       8583.38949443       1374.47584417
 Traceless Quadrup. (au):
        -81.93120814         67.26904265         14.66216550         85.07947064
         78.23206162          0.66531823
 Charge=              0.0000 electrons
 Dipole moment (field-independent basis, Debye):
    X=            -39.0011    Y=             -2.0774    Z=            -17.4784  Tot=             42.7890
 Quadrupole moment (field-independent basis, Debye-Ang):
   XX=           -633.5955   YY=           -432.9161   ZZ=           -503.6741
   XY=            114.4348   XZ=            105.2248   YZ=              0.8949
 Traceless Quadrupole moment (field-independent basis, Debye-Ang):
   XX=           -110.2003   YY=             90.4792   ZZ=             19.7211
   XY=            114.4348   XZ=            105.2248   YZ=              0.8949
 Octapole moment (field-independent basis, Debye-Ang**2):
  XXX=          -1166.3869  YYY=           -553.1885  ZZZ=            -64.3825  XYY=          -1399.1382
  XXY=           -102.2594  XXZ=           -579.4153  XZZ=           -241.2181  YZZ=            -82.3497
  YYZ=           -361.9506  XYZ=           -358.6858
 Hexadecapole moment (field-independent basis, Debye-Ang**3):
 XXXX=         -78257.8201 YYYY=         -33294.7772 ZZZZ=         -13049.2584 XXXY=           2094.8859
 XXXZ=           3275.7180 YYYX=           8191.4196 YYYZ=           1811.0134 ZZZX=            688.3059
 ZZZY=           -704.8364 XXYY=         -12550.4455 XXZZ=         -12817.0735 YYZZ=          -8461.1157
 XXYZ=           1012.0010 YYXZ=           3232.9159 ZZXY=            517.6935
 N-N= 2.172415627463D+04 E-N=-5.593153971491D+04  KE= 5.290535672413D+03
 Leave Link  601 at Mon Sep 16 19:09:09 2019, MaxMem=  4294967296 cpu:        22.0
 FitSet:  NAtFit=   176 NAtPot=   176 NAtFrz=     0 MDM=   180 TotChg=   0.00000
 Merz-Kollman atomic radii used.
 Read replacement radii for each type of atom:
 Rad(20) =   1.700000000000D+00
 Atom Element Radius
    1     6    1.50
    2     6    1.50
    3     8    1.40
    4     1    1.20
    5     1    1.20
    6     1    1.20
    7     7    1.50
    8     6    1.50
    9     6    1.50
   10     8    1.40
   11     6    1.50
   12     6    1.50
   13     8    1.40
   14     8    1.40
   15     1    1.20
   16     1    1.20
   17     1    1.20
   18     1    1.20
   19     7    1.50
   20     6    1.50
   21     6    1.50
   22     8    1.40
   23     6    1.50
   24     6    1.50
   25     6    1.50
   26     6    1.50
   27     7    1.50
   28     1    1.20
   29     1    1.20
   30     1    1.20
   31     1    1.20
   32     1    1.20
   33     1    1.20
   34     1    1.20
   35     1    1.20
   36     1    1.20
   37     1    1.20
   38     1    1.20
   39     1    1.20
   40     1    1.20
   41     7    1.50
   42     6    1.50
   43     6    1.50
   44     8    1.40
   45     6    1.50
   46     6    1.50
   47     8    1.40
   48     8    1.40
   49     1    1.20
   50     1    1.20
   51     1    1.20
   52     1    1.20
   53     7    1.50
   54     6    1.50
   55     6    1.50
   56     8    1.40
   57     1    1.20
   58     1    1.20
   59     1    1.20
   60     7    1.50
   61     6    1.50
   62     6    1.50
   63     8    1.40
   64     6    1.50
   65     6    1.50
   66     7    1.50
   67     8    1.40
   68     1    1.20
   69     1    1.20
   70     1    1.20
   71     1    1.20
   72     1    1.20
   73     1    1.20
   74     7    1.50
   75     6    1.50
   76     6    1.50
   77     8    1.40
   78     1    1.20
   79     1    1.20
   80     1    1.20
   81     7    1.50
   82     6    1.50
   83     6    1.50
   84     8    1.40
   85     6    1.50
   86     6    1.50
   87     6    1.50
   88     6    1.50
   89     6    1.50
   90     6    1.50
   91     6    1.50
   92     8    1.40
   93     1    1.20
   94     1    1.20
   95     1    1.20
   96     1    1.20
   97     1    1.20
   98     1    1.20
   99     1    1.20
  100     1    1.20
  101     1    1.20
  102     7    1.50
  103     6    1.50
  104     6    1.50
  105     8    1.40
  106     6    1.50
  107     6    1.50
  108     6    1.50
  109     6    1.50
  110     1    1.20
  111     1    1.20
  112     1    1.20
  113     1    1.20
  114     1    1.20
  115     1    1.20
  116     1    1.20
  117     1    1.20
  118     1    1.20
  119     1    1.20
  120     1    1.20
  121     7    1.50
  122     6    1.50
  123     6    1.50
  124     8    1.40
  125     6    1.50
  126     8    1.40
  127     1    1.20
  128     1    1.20
  129     1    1.20
  130     1    1.20
  131     1    1.20
  132     7    1.50
  133     6    1.50
  134     6    1.50
  135     8    1.40
  136     6    1.50
  137     1    1.20
  138     1    1.20
  139     1    1.20
  140     1    1.20
  141     1    1.20
  142     7    1.50
  143     6    1.50
  144     6    1.50
  145     8    1.40
  146     6    1.50
  147     1    1.20
  148     1    1.20
  149     1    1.20
  150     1    1.20
  151     1    1.20
  152     7    1.50
  153     6    1.50
  154     6    1.50
  155     8    1.40
  156     6    1.50
  157     6    1.50
  158     6    1.50
  159     8    1.40
  160     8    1.40
  161     1    1.20
  162     1    1.20
  163     1    1.20
  164     1    1.20
  165     1    1.20
  166     1    1.20
  167     7    1.50
  168     6    1.50
  169     1    1.20
  170     1    1.20
  171     1    1.20
  172     1    1.20
  173    20    1.70
  174     8    1.40
  175     1    1.20
  176     1    1.20
 Generate VDW surfaces: Layer= 4 Dens= 6 Start= 1.400 Inc= 0.200

 **********************************************************************

            Electrostatic Properties Using The SCF Density

 **********************************************************************

       Atomic Center    1 is at  -0.850847 -4.205688  5.985111
       Atomic Center    2 is at  -0.652011 -3.637100  4.590919
[...]
 **** Fit      -0.031988
 **** Fit      -0.030457
 **** Fit      -0.028447
 **** Fit      -0.026126
 **** Fit      -0.023664
 **** Fit      -0.021247
 **** Fit      -0.019084
 **** Fit      -0.017406
 **** Fit      -0.016471
 **** Fit      -0.016554
 **** Fit      -0.017937
 **** Fit      -0.020874
 **** Fit      -0.025498
 **** Fit      -0.031692
 **** Fit      -0.035836
 **** Fit      -0.034568
 **** Fit      -0.032551
 **** Fit      -0.029951
 **** Fit      -0.026928
 **** Fit      -0.023645
 **** Fit      -0.020268
 **** Fit      -0.016983
 **** Fit      -0.014007
 **** Fit      -0.011585
 **** Fit      -0.009987
 **** Fit      -0.009505
 **** Fit      -0.010454
 **** Fit      -0.013116
 **** Fit      -0.017541
 **** Fit      -0.023347
 **** Fit      -0.040991
 **** Fit      -0.039748
 **** Fit      -0.037510
 **** Fit      -0.034456
 **** Fit      -0.030775
 **** Fit      -0.026650
 **** Fit      -0.022248
 **** Fit      -0.017736
 **** Fit      -0.013299
 **** Fit      -0.009156
 **** Fit      -0.005557
 **** Fit      -0.002764
 **** Fit      -0.034784
 **** Fit      -0.029322
 **** Fit      -0.023529
 **** Fit      -0.017583
 **** Fit      -0.011661
 **** Fit      -0.005971
 **** Fit      -0.000756
 **** Fit      -0.026969
 **** Fit      -0.019264
 **** Fit      -0.011647
 **** Fit      -0.004291
 **** Fit       0.002588
 **** Fit      -0.011157
 **** Fit      -0.001686
 **** Fit       0.006991
 **** Fit      -0.004433
 **** Fit       0.052754
 **** Fit       0.054130
 **** Fit       0.053249
 **** Fit       0.053831
 **** Fit       0.054336
 **** Fit       0.054599
 **** Fit       0.054776
 **** Fit       0.055448
 **** Fit       0.056601
 **** Fit       0.055890
 **** Fit       0.058168
 **** Fit       0.020546
 **** Fit       0.023924
 **** Fit       0.021518
 **** Fit       0.029921
 **** Fit       0.026409
 **** Fit       0.034899
 **** Fit       0.030877
 **** Fit       0.030144
 **** Fit       0.035217
 **** Fit       0.034277
 **** Fit       0.039316
 **** Fit       0.038996
 **** Fit       0.041455
 **** Fit       0.007095
 **** Fit       0.024490
 **** Fit       0.045691
 **** Fit       0.053515
 **** Fit       0.067703
 **** Fit       0.061433
 **** Fit       0.062930
 **** Fit       0.058302
 **** Fit       0.056297
 **** Fit       0.063579
 **** Fit       0.059560
 **** Fit       0.060188
 **** Fit       0.058791
 **** Fit       0.067395
 **** Fit       0.054738
 **** Fit       0.060961
 **** Fit       0.068048
 **** Fit       0.056148
 **** Fit       0.061125
 **** Fit       0.066078
 **** Fit       0.069069
 **** Fit       0.068476
 **** Fit       0.064212
 **** Fit       0.057860
 **** Fit       0.051793
 **** Fit       0.054892
 **** Fit       0.058323
 **** Fit       0.061677
 **** Fit       0.063038
 **** Fit       0.061301
 **** Fit       0.057328
 **** Fit       0.053524
 **** Fit       0.055067
 **** Fit       0.057446
 **** Fit       0.058593
 **** Fit       0.057153
 **** Fit       0.054946
 **** Fit       0.056063
 **** Fit       0.055027
 **** Fit       0.056019
 **** Fit       0.055411
 **** Fit       0.055216
 **** Fit      -0.006824
 **** Fit      -0.007324
 **** Fit      -0.006061
 **** Fit      -0.005716
 **** Fit      -0.006411
 **** Fit      -0.007551
 **** Fit      -0.008137
 **** Fit      -0.007863
 **** Fit      -0.004725
 **** Fit      -0.004770
 **** Fit      -0.005267
 **** Fit      -0.006124
 **** Fit      -0.007187
 **** Fit      -0.009216
 **** Fit      -0.008388
 **** Fit      -0.003780
 **** Fit      -0.003967
 **** Fit      -0.004407
 **** Fit      -0.005098
 **** Fit      -0.005991
 **** Fit      -0.007002
 **** Fit      -0.010129
 **** Fit      -0.003105
 **** Fit      -0.003413
 **** Fit      -0.003916
 **** Fit      -0.004627
 **** Fit      -0.005523
 **** Fit      -0.006545
 **** Fit      -0.007622
 **** Fit      -0.012986
 **** Fit      -0.011057
 **** Fit      -0.002533
 **** Fit      -0.002838
 **** Fit      -0.003297
 **** Fit      -0.003932
 **** Fit      -0.004742
 **** Fit      -0.005700
 **** Fit      -0.006757
 **** Fit      -0.007860
 **** Fit      -0.014304
 **** Fit      -0.011787
 **** Fit      -0.002224
 **** Fit      -0.002630
 **** Fit      -0.003210
 **** Fit      -0.003973
 **** Fit      -0.004911
 **** Fit      -0.005995
 **** Fit      -0.007177
 **** Fit      -0.008409
 **** Fit      -0.015762
 **** Fit      -0.012542
 **** Fit      -0.001665
 **** Fit      -0.002019
 **** Fit      -0.002553
 **** Fit      -0.007768
 **** Fit      -0.009136
 **** Fit      -0.010542
 **** Fit      -0.020947
 **** Fit      -0.016921
 **** Fit      -0.001050
 **** Fit      -0.001196
 **** Fit      -0.001587
 **** Fit      -0.010908
 **** Fit      -0.012535
 **** Fit      -0.022693
 **** Fit      -0.000527
 **** Fit      -0.000679
 **** Fit      -0.013123
 **** Fit      -0.014979
 **** Fit      -0.000032
 **** Fit       0.000150
 **** Fit      -0.017015
 **** Fit      -0.019349
 **** Fit      -0.000623
 **** Fit       0.000844
 **** Fit       0.001077
 **** Fit      -0.019854
 **** Fit      -0.022477
 **** Fit      -0.025903
 **** Fit      -0.023375
 **** Fit      -0.026172
 **** Fit      -0.029936
 **** Fit      -0.027827
 **** Fit      -0.030655
 **** Fit      -0.034556
 **** Fit      -0.033893
 **** Fit      -0.036939
 **** Fit      -0.040489
 **** Fit      -0.005225
 **** Fit      -0.005453
 **** Fit      -0.004424
 **** Fit      -0.004228
 **** Fit      -0.006457
 **** Fit      -0.005570
 **** Fit      -0.004425
 **** Fit      -0.003756
 **** Fit      -0.003408
 **** Fit      -0.003417
 **** Fit      -0.003853
 **** Fit      -0.007012
 **** Fit      -0.005449
 **** Fit      -0.004235
 **** Fit      -0.003649
 **** Fit      -0.003295
 **** Fit      -0.002962
 **** Fit      -0.002737
 **** Fit      -0.002754
 **** Fit      -0.003063
 **** Fit      -0.008870
 **** Fit      -0.007188
 **** Fit      -0.003106
 **** Fit      -0.002747
 **** Fit      -0.002380
 **** Fit      -0.002188
 **** Fit      -0.002258
 **** Fit      -0.009450
 **** Fit      -0.003292
 **** Fit      -0.002738
 **** Fit      -0.002181
 **** Fit      -0.001815
 **** Fit      -0.001738
 **** Fit      -0.001958
 **** Fit      -0.003870
 **** Fit      -0.002997
 **** Fit      -0.002183
 **** Fit      -0.001597
 **** Fit      -0.001336
 **** Fit      -0.001426
 **** Fit      -0.004247
 **** Fit      -0.002973
 **** Fit      -0.001906
 **** Fit      -0.001201
 **** Fit      -0.000952
 **** Fit      -0.004602
 **** Fit      -0.002942
 **** Fit      -0.001604
 **** Fit      -0.000789
 **** Fit      -0.004582
 **** Fit      -0.002447
 **** Fit      -0.000920
 **** Fit      -0.002802
 **** Fit      -0.002688
 **** Fit      -0.003388
 **** Fit      -0.004319
 **** Fit      -0.005427
 **** Fit      -0.006671
 **** Fit      -0.002009
 **** Fit      -0.002706
 **** Fit      -0.003638
 **** Fit      -0.004731
 **** Fit      -0.005942
 **** Fit      -0.007259
 **** Fit      -0.008690
 **** Fit      -0.000948
 **** Fit      -0.001353
 **** Fit      -0.002127
 **** Fit      -0.003149
 **** Fit      -0.004309
 **** Fit      -0.005538
 **** Fit      -0.006815
 **** Fit      -0.008159
 **** Fit      -0.009608
 **** Fit      -0.011206
 **** Fit      -0.000130
 **** Fit      -0.000424
 **** Fit      -0.001295
 **** Fit      -0.002536
 **** Fit      -0.003947
 **** Fit      -0.005387
 **** Fit      -0.006797
 **** Fit      -0.008181
 **** Fit      -0.009588
 **** Fit      -0.011089
 **** Fit      -0.012768
 **** Fit      -0.014709
 **** Fit       0.000708
 **** Fit      -0.000297
 **** Fit      -0.001908
 **** Fit      -0.003771
 **** Fit      -0.005628
 **** Fit      -0.007343
 **** Fit      -0.008891
 **** Fit      -0.010318
 **** Fit      -0.011717
 **** Fit      -0.013193
 **** Fit      -0.014859
 **** Fit      -0.016832
 **** Fit       0.000463
 **** Fit      -0.002017
 **** Fit      -0.004757
 **** Fit      -0.007335
 **** Fit      -0.009546
 **** Fit      -0.011360
 **** Fit      -0.012866
 **** Fit      -0.014208
 **** Fit      -0.015545
 **** Fit      -0.017029
 **** Fit      -0.018804
 **** Fit      -0.021017
 **** Fit      -0.015436
 **** Fit      -0.017119
 **** Fit      -0.018368
 **** Fit      -0.019476
 **** Fit      -0.020696
 **** Fit      -0.022240
 **** Fit      -0.024288
 **** Fit      -0.027018
 **** Fit      -0.026889
 **** Fit      -0.028224
 **** Fit      -0.030334
 **** Fit      -0.038075
 **** Fit      -0.009442
 **** Fit      -0.010332
 **** Fit      -0.008682
 **** Fit      -0.008030
 **** Fit      -0.008804
 **** Fit      -0.010352
 **** Fit      -0.011252
 **** Fit      -0.011457
 **** Fit      -0.008433
 **** Fit      -0.009855
 **** Fit      -0.011501
 **** Fit      -0.012972
 **** Fit      -0.013631
 **** Fit      -0.013048
 **** Fit      -0.012798
 **** Fit      -0.008349
 **** Fit      -0.009662
 **** Fit      -0.011219
 **** Fit      -0.012983
 **** Fit      -0.014762
 **** Fit      -0.016182
 **** Fit      -0.016797
 **** Fit      -0.016328
 **** Fit      -0.014860
 **** Fit      -0.014327
 **** Fit      -0.009206
 **** Fit      -0.010612
 **** Fit      -0.012267
 **** Fit      -0.014202
 **** Fit      -0.016340
 **** Fit      -0.018446
 **** Fit      -0.020141
 **** Fit      -0.020997
 **** Fit      -0.020713
 **** Fit      -0.019277
 **** Fit      -0.016992
 **** Fit      -0.009800
 **** Fit      -0.011247
 **** Fit      -0.012940
 **** Fit      -0.014973
 **** Fit      -0.017376
 **** Fit      -0.020058
 **** Fit      -0.022764
 **** Fit      -0.025071
 **** Fit      -0.026484
 **** Fit      -0.026597
 **** Fit      -0.025273
 **** Fit      -0.022725
 **** Fit      -0.019446
 **** Fit      -0.012259
 **** Fit      -0.013978
 **** Fit      -0.016057
 **** Fit      -0.018595
 **** Fit      -0.021619
 **** Fit      -0.025027
 **** Fit      -0.028530
 **** Fit      -0.030390
 **** Fit      -0.026426
 **** Fit      -0.013860
 **** Fit      -0.015758
 **** Fit      -0.018083
 **** Fit      -0.021003
 **** Fit      -0.024635
 **** Fit      -0.018053
 **** Fit      -0.020621
 **** Fit      -0.023918
 **** Fit      -0.028161
 **** Fit      -0.022517
 **** Fit      -0.025888
 **** Fit      -0.029096
 **** Fit       0.034907
 **** Fit       0.031625
 **** Fit       0.041173
 **** Fit       0.038406
 **** Fit       0.034714
 **** Fit       0.045714
 **** Fit       0.042527
 **** Fit       0.039265
 **** Fit       0.045570
 **** Fit       0.043297
 **** Fit       0.046893
 **** Fit       0.046605
 **** Fit       0.055793
 **** Fit       0.041758
 **** Fit       0.031574
 **** Fit       0.035824
 **** Fit       0.013964
 **** Fit       0.023322
 **** Fit       0.030051
 **** Fit       0.005116
 **** Fit       0.016196
 **** Fit       0.024691
 **** Fit       0.031807
 **** Fit       0.001040
 **** Fit       0.012574
 **** Fit       0.021990
 **** Fit       0.029975
 **** Fit      -0.009741
 **** Fit       0.001546
 **** Fit       0.012775
 **** Fit       0.022617
 **** Fit       0.031017
 **** Fit       0.004821
 **** Fit       0.014823
 **** Fit       0.024760
 **** Fit       0.032870
 **** Fit       0.038203
 **** Fit       0.018386
 **** Fit       0.046863
 **** Fit       0.041993
 **** Fit       0.015757
 **** Fit       0.005254
 **** Fit       0.054100
 **** Fit       0.051923
 **** Fit       0.048344
 **** Fit       0.042899
 **** Fit       0.035520
 **** Fit       0.026558
 **** Fit       0.016726
 **** Fit       0.007017
 **** Fit       0.057971
 **** Fit       0.056114
 **** Fit       0.054039
 **** Fit       0.050954
 **** Fit       0.046296
 **** Fit       0.039852
 **** Fit       0.031814
 **** Fit       0.022730
 **** Fit       0.013385
 **** Fit       0.057470
 **** Fit       0.055395
 **** Fit       0.052930
 **** Fit       0.049412
 **** Fit       0.044394
 **** Fit       0.037774
 **** Fit       0.029819
 **** Fit       0.021062
 **** Fit       0.012099
 **** Fit       0.057409
 **** Fit       0.055340
 **** Fit       0.053166
 **** Fit       0.050408
 **** Fit       0.046582
 **** Fit       0.041389
 **** Fit       0.034822
 **** Fit       0.027149
 **** Fit       0.018762
 **** Fit       0.009927
 **** Fit       0.053692
 **** Fit       0.051875
 **** Fit       0.049506
 **** Fit       0.046227
 **** Fit       0.041684
 **** Fit       0.035732
 **** Fit       0.028499
 **** Fit       0.020261
 **** Fit       0.011178
 **** Fit       0.000994
 **** Fit       0.049403
 **** Fit       0.048947
 **** Fit       0.047422
 **** Fit       0.044860
 **** Fit       0.041047
 **** Fit       0.035790
 **** Fit       0.029103
 **** Fit       0.021176
 **** Fit       0.012159
 **** Fit       0.001961
 **** Fit      -0.009593
 **** Fit      -0.000744
 **** Fit       0.037438
 **** Fit       0.041674
 **** Fit       0.043348
 **** Fit       0.042949
 **** Fit       0.040799
 **** Fit       0.036908
 **** Fit       0.031225
 **** Fit       0.023884
 **** Fit       0.015190
 **** Fit       0.005505
 **** Fit      -0.004382
 **** Fit       0.000269
 **** Fit       0.004867
 **** Fit       0.014231
 **** Fit       0.024212
 **** Fit       0.032009
 **** Fit       0.036251
 **** Fit       0.036806
 **** Fit       0.034063
 **** Fit       0.028352
 **** Fit       0.020253
 **** Fit       0.011005
 **** Fit       0.003041
 **** Fit       0.012067
 **** Fit       0.018008
 **** Fit       0.026833
 **** Fit       0.029792
 **** Fit       0.025153
 **** Fit       0.016420
 **** Fit       0.021682
 **** Fit       0.042449
 **** Fit       0.040311
 **** Fit       0.045068
 **** Fit       0.044386
 **** Fit       0.045243
 **** Fit       0.047997
 **** Fit       0.052647
 **** Fit       0.042725
 **** Fit       0.044157
 **** Fit       0.046085
 **** Fit       0.049206
 **** Fit       0.053719
 **** Fit       0.059316
 **** Fit       0.065533
 **** Fit       0.062502
 **** Fit       0.060192
 **** Fit       0.058888
 **** Fit       0.058370
 **** Fit       0.058272
 **** Fit       0.040932
 **** Fit       0.044187
 **** Fit       0.047715
 **** Fit       0.051944
 **** Fit       0.056766
 **** Fit       0.061454
 **** Fit       0.064716
 **** Fit       0.065555
 **** Fit       0.064332
 **** Fit       0.062334
 **** Fit       0.060588
 **** Fit       0.059486
 **** Fit       0.059004
 **** Fit       0.037545
 **** Fit       0.042315
 **** Fit       0.046747
 **** Fit       0.051288
 **** Fit       0.055752
 **** Fit       0.059392
 **** Fit       0.061349
 **** Fit       0.061475
 **** Fit       0.060518
 **** Fit       0.059386
 **** Fit       0.058591
 **** Fit       0.058300
 **** Fit       0.034175
 **** Fit       0.040044
 **** Fit       0.045096
 **** Fit       0.049699
 **** Fit       0.053648
 **** Fit       0.056388
 **** Fit       0.057593
 **** Fit       0.057591
 **** Fit       0.057076
 **** Fit       0.056595
 **** Fit       0.039183
 **** Fit       0.044551
 **** Fit       0.048942
 **** Fit       0.052038
 **** Fit       0.053616
 **** Fit       0.053987
 **** Fit       0.053764
 **** Fit       0.040355
 **** Fit       0.045497
 **** Fit       0.048718
 **** Fit       0.049941
 **** Fit       0.049725
 **** Fit       0.042270
 **** Fit       0.045175
 -----------------------------------------------------------------
 Leave Link  602 at Mon Sep 16 19:09:22 2019, MaxMem=  4294967296 cpu:       155.9

 Test job not archived.
 1\1\GINC-N003\SP\RB3LYP\SVP\C54H83Ca1N15O23\PCIEPLAK\16-Sep-2019\0\\#m
 axdisk=50GB #B3LYP/SVP Density=Current scf=(tight) #IOP(5/87=12)Pop=(M
 K,readradii) iop(6/33=2) iop(6/42=6)\\SOL molecule\\0,1\C,0,91.16,59.4
 9,103.71\C,0,92.35,59.92,102.87\O,0,93.15,59.1,102.41\H,0,90.297,59.33
 5,103.063\H,0,91.397,58.561,104.228\H,0,90.931,60.266,104.441\N,0,92.6
 4,61.22,102.83\C,0,93.77,61.83,102.17\C,0,95.,61.7,103.06\O,0,95.17,62
 .34,104.1\C,0,93.49,63.3,101.86\C,0,94.53,64.03,101.03\O,0,94.12,65.01
 ,100.37\O,0,95.67,63.55,100.9\H,0,92.03,61.8,103.39\H,0,93.98,61.27,10
 1.26\H,0,93.25,63.94,102.71\H,0,92.53,63.27,101.33\N,0,95.98,60.96,102
 .54\C,0,97.17,60.52,103.24\C,0,98.16,61.65,103.47\O,0,99.15,61.42,104.
 15\C,0,97.85,59.35,102.52\C,0,97.08,58.08,102.84\C,0,97.81,56.85,102.3
 \C,0,99.04,56.47,103.12\N,0,99.63,55.16,102.81\H,0,95.87,60.78,101.55\
 H,0,96.99,60.23,104.27\H,0,98.85,59.16,102.92\H,0,97.94,59.58,101.46\H
 ,0,96.1,58.24,102.41\H,0,96.9,58.01,103.91\H,0,98.18,57.08,101.3\H,0,9
 7.07,56.05,102.19\H,0,98.68,56.49,104.15\H,0,99.8,57.23,102.94\H,0,100
 .47,54.88,103.31\H,0,99.07,54.35,103.05\H,0,99.96,55.26,101.86\N,0,98.
 07,62.87,102.92\C,0,98.81,64.02,103.38\C,0,97.9,65.22,103.54\O,0,98.37
 ,66.25,104.02\C,0,99.88,64.3,102.32\C,0,99.51,64.55,100.86\O,0,100.39,
 64.79,100.\O,0,98.34,64.3,100.49\H,0,97.43,62.95,102.15\H,0,99.3,63.83
 ,104.33\H,0,100.51,63.42,102.26\H,0,100.58,65.08,102.61\N,0,96.61,65.0
 9,103.21\C,0,95.68,66.2,103.1\C,0,95.93,67.14,101.94\O,0,95.72,68.33,1
 02.16\H,0,96.32,64.24,102.75\H,0,95.69,66.75,104.04\H,0,94.66,65.82,10
 3.06\N,0,96.59,66.79,100.83\C,0,96.95,67.8,99.87\C,0,95.79,68.3,99.02\
 O,0,95.96,69.19,98.2\C,0,98.18,67.44,99.04\C,0,97.93,66.42,97.94\N,0,9
 8.85,66.35,96.98\O,0,96.96,65.67,98.07\H,0,96.86,65.81,100.81\H,0,97.3
 5,68.68,100.38\H,0,99.1,67.15,99.55\H,0,98.44,68.39,98.57\H,0,99.63,66
 .98,97.\H,0,98.94,65.58,96.32\N,0,94.58,67.8,99.27\C,0,93.41,68.03,98.
 45\C,0,93.1,67.03,97.35\O,0,92.08,67.18,96.68\H,0,94.55,67.04,99.94\H,
 0,93.6,68.95,97.9\H,0,92.54,68.07,99.12\N,0,93.96,66.04,97.13\C,0,93.7
 8,65.02,96.11\C,0,93.94,63.58,96.55\O,0,94.49,63.26,97.6\C,0,94.68,65.
 29,94.91\C,0,94.61,66.71,94.41\C,0,95.56,67.63,94.86\C,0,93.59,67.1,93
 .54\C,0,95.52,68.98,94.47\C,0,93.54,68.45,93.16\C,0,94.49,69.39,93.61\
 O,0,94.28,70.71,93.34\H,0,94.6,65.86,97.89\H,0,92.73,65.09,95.82\H,0,9
 4.37,64.7,94.04\H,0,95.71,65.05,95.17\H,0,96.33,67.19,95.46\H,0,92.81,
 66.42,93.23\H,0,96.32,69.62,94.82\H,0,92.72,68.86,92.59\H,0,93.64,70.8
 8,92.65\N,0,93.47,62.71,95.65\C,0,93.6,61.27,95.79\C,0,94.11,60.7,94.4
 8\O,0,93.44,61.02,93.5\C,0,92.34,60.59,96.32\C,0,92.19,60.81,97.83\C,0
 ,92.26,59.1,96.\C,0,93.17,60.08,98.74\H,0,93.02,63.11,94.84\H,0,94.38,
 61.06,96.52\H,0,91.52,61.12,95.84\H,0,91.15,60.6,98.08\H,0,92.34,61.88
 ,97.94\H,0,91.43,58.64,96.54\H,0,92.11,58.97,94.93\H,0,93.19,58.59,96.
 24\H,0,94.2,60.38,98.52\H,0,93.01,60.25,99.81\H,0,93.04,59.01,98.59\N,
 0,95.14,59.85,94.45\C,0,95.63,59.1,93.31\C,0,95.11,57.68,93.38\O,0,94.
 31,57.41,94.27\C,0,97.15,59.02,93.46\O,0,97.68,58.5,94.66\H,0,95.5,59.
 62,95.37\H,0,95.4,59.5,92.32\H,0,97.46,60.06,93.4\H,0,97.57,58.45,92.6
 3\H,0,98.62,58.71,94.66\N,0,95.54,56.71,92.57\C,0,95.19,55.31,92.75\C,
 0,95.93,54.68,93.92\O,0,95.39,53.81,94.6\C,0,95.43,54.61,91.41\H,0,95.
 91,56.89,91.65\H,0,94.15,55.11,92.99\H,0,94.97,53.63,91.54\H,0,94.91,5
 5.2,90.66\H,0,96.51,54.57,91.22\N,0,97.16,55.07,94.25\C,0,97.87,54.6,9
 5.42\C,0,97.15,54.9,96.73\O,0,96.91,53.95,97.48\C,0,99.29,55.13,95.51\
 H,0,97.6,55.85,93.78\H,0,98.09,53.53,95.49\H,0,99.3,56.22,95.46\H,0,99
 .81,54.73,96.39\H,0,99.75,54.88,94.56\N,0,96.76,56.15,96.99\C,0,96.05,
 56.47,98.2\C,0,94.67,55.82,98.21\O,0,94.22,55.25,99.2\C,0,95.88,57.99,
 98.31\C,0,97.19,58.76,98.24\C,0,96.82,60.21,98.52\O,0,96.56,60.58,99.6
 8\O,0,96.8,61.03,97.57\H,0,97.05,56.86,96.33\H,0,96.53,56.06,99.09\H,0
 ,95.45,58.16,99.3\H,0,95.26,58.32,97.48\H,0,97.63,58.66,97.25\H,0,97.9
 ,58.51,99.04\N,0,94.05,55.68,97.04\C,0,92.75,55.05,96.94\H,0,92.036,55
 .756,96.516\H,0,92.819,54.174,96.296\H,0,92.415,54.747,97.932\H,0,94.3
 7,56.06,96.16\Ca,0,96.98,63.22,98.71\O,0,99.3,61.9,98.69\H,0,100.1,61.
 69,99.17\H,0,99.33,61.35,97.91\\Version=ES64L-G09RevD.01\State=1-A\HF=
 -5333.5627171\RMSD=4.364e-09\Dipole=6.991064,-14.5514169,-4.7729427\Qu
 adrupole=20.6074604,-45.8177041,25.2102437,-97.7469042,-9.6608713,-88.
 6458958\PG=C01 [X(C54H83Ca1N15O23)]\\@


 IT IS BETTER TO THINK YOU ARE HALF DRY THAN TO KNOW YOU
 ARE ALL WET.  -- SNOOPY
 Job cpu time:       0 days 17 hours 40 minutes 45.4 seconds.
 File lengths (MBytes):  RWF=   1513 Int=      0 D2E=      0 Chk=    103 Scr=      1
 Normal termination of Gaussian 09 at Mon Sep 16 19:09:23 2019.
