 Entering Gaussian System, Link 0=g16
 Initial command:
 /home1/apps/gaussian/16rA.03/g16/l1.exe "/scratch/01990/pengzhi/4328667/Gau-409134.inp" -scrdir="/scratch/01990/pengzhi/4328667/"
 Entering Link 1 = /home1/apps/gaussian/16rA.03/g16/l1.exe PID=    409136.
  
 Copyright (c) 1988,1990,1992,1993,1995,1998,2003,2009,2016,
            Gaussian, Inc.  All Rights Reserved.
  
 This is part of the Gaussian(R) 16 program.  It is based on
 the Gaussian(R) 09 system (copyright 2009, Gaussian, Inc.),
 the Gaussian(R) 03 system (copyright 2003, Gaussian, Inc.),
 the Gaussian(R) 98 system (copyright 1998, Gaussian, Inc.),
 the Gaussian(R) 94 system (copyright 1995, Gaussian, Inc.),
 the Gaussian 92(TM) system (copyright 1992, Gaussian, Inc.),
 the Gaussian 90(TM) system (copyright 1990, Gaussian, Inc.),
 the Gaussian 88(TM) system (copyright 1988, Gaussian, Inc.),
 the Gaussian 86(TM) system (copyright 1986, Carnegie Mellon
 University), and the Gaussian 82(TM) system (copyright 1983,
 Carnegie Mellon University). Gaussian is a federally registered
 trademark of Gaussian, Inc.
  
 This software contains proprietary and confidential information,
 including trade secrets, belonging to Gaussian, Inc.
  
 This software is provided under written license and may be
 used, copied, transmitted, or stored only in accord with that
 written license.
  
 The following legend is applicable only to US Government
 contracts under FAR:
  
                    RESTRICTED RIGHTS LEGEND
  
 Use, reproduction and disclosure by the US Government is
 subject to restrictions as set forth in subparagraphs (a)
 and (c) of the Commercial Computer Software - Restricted
 Rights clause in FAR 52.227-19.
  
 Gaussian, Inc.
 340 Quinnipiac St., Bldg. 40, Wallingford CT 06492
  
  
 ---------------------------------------------------------------
 Warning -- This program may not be used in any manner that
 competes with the business of Gaussian, Inc. or will provide
 assistance to any competitor of Gaussian, Inc.  The licensee
 of this program is prohibited from giving any competitor of
 Gaussian, Inc. access to this program.  By using this program,
 the user acknowledges that Gaussian, Inc. is engaged in the
 business of creating and licensing software in the field of
 computational chemistry and represents and warrants to the
 licensee that it is not a competitor of Gaussian, Inc. and that
 it will not use this program in any manner prohibited above.
 ---------------------------------------------------------------
  

 Cite this work as:
 Gaussian 16, Revision A.03,
 M. J. Frisch, G. W. Trucks, H. B. Schlegel, G. E. Scuseria, 
 M. A. Robb, J. R. Cheeseman, G. Scalmani, V. Barone, 
 G. A. Petersson, H. Nakatsuji, X. Li, M. Caricato, A. V. Marenich, 
 J. Bloino, B. G. Janesko, R. Gomperts, B. Mennucci, H. P. Hratchian, 
 J. V. Ortiz, A. F. Izmaylov, J. L. Sonnenberg, D. Williams-Young, 
 F. Ding, F. Lipparini, F. Egidi, J. Goings, B. Peng, A. Petrone, 
 T. Henderson, D. Ranasinghe, V. G. Zakrzewski, J. Gao, N. Rega, 
 G. Zheng, W. Liang, M. Hada, M. Ehara, K. Toyota, R. Fukuda, 
 J. Hasegawa, M. Ishida, T. Nakajima, Y. Honda, O. Kitao, H. Nakai, 
 T. Vreven, K. Throssell, J. A. Montgomery, Jr., J. E. Peralta, 
 F. Ogliaro, M. J. Bearpark, J. J. Heyd, E. N. Brothers, K. N. Kudin, 
 V. N. Staroverov, T. A. Keith, R. Kobayashi, J. Normand, 
 K. Raghavachari, A. P. Rendell, J. C. Burant, S. S. Iyengar, 
 J. Tomasi, M. Cossi, J. M. Millam, M. Klene, C. Adamo, R. Cammi, 
 J. W. Ochterski, R. L. Martin, K. Morokuma, O. Farkas, 
 J. B. Foresman, and D. J. Fox, Gaussian, Inc., Wallingford CT, 2016.
 
 ******************************************
 Gaussian 16:  ES64L-G16RevA.03 25-Dec-2016
                14-Sep-2019 
 ******************************************
 %chk=holoCaM_loop3_67.0.chk
 %nprocshared=48
 Will use up to   48 processors via shared memory.
 %mem=10GB
 %nosave
 ----------------------------------------------------------------------
 #b3lyp/svp scf=(tight,noincore) Test #IOP(5/87=12) Density=Current Pop
 =(MK,readradii) iop(6/33=2) iop(6/42=6)
 ----------------------------------------------------------------------
 1/30=1,38=1,172=1/1;
 2/12=2,17=6,18=5,40=1/2;
 3/5=18,7=101,11=2,25=1,30=1,74=-5/1,2,3;
 4//1;
 5/5=4,32=2,38=5,87=12/2;
 6/7=2,8=2,9=2,10=2,15=8,20=101,22=-1,28=1,33=2,42=6/1,2;
 99/5=1,9=1/99;
 ------------------
 holoCaM_loop3_67.0
 ------------------
 Symbolic Z-matrix:
 Charge =  0 Multiplicity = 1
 C                     44.35     48.19     28.28 
 C                     45.44     47.16     28.55 
 O                     46.06     47.19     29.62 
 H                     43.478    47.965    28.894 
 H                     44.721    49.185    28.526 
 H                     44.07     48.156    27.227 
 N                     45.72     46.24     27.63 
 C                     46.75     45.23     27.69 
 C                     48.13     45.71     27.26 
 O                     48.74     45.06     26.41 
 C                     46.23     44.       26.94 
 C                     46.95     42.69     27.25 
 O                     47.49     42.46     28.35 
 O                     46.99     41.82     26.35 
 H                     45.14     46.15     26.8 
 H                     46.8      44.94     28.74 
 H                     46.15     44.19     25.87 
 H                     45.21     43.81     27.28 
 N                     48.58     46.79     27.89 
 C                     49.8      47.51     27.58 
 C                     51.01     46.64     27.9 
 O                     52.12     46.77     27.39 
 C                     49.94     48.86     28.28 
 C                     48.8      49.86     28.11 
 C                     48.99     51.12     28.95 
 C                     48.59     51.06     30.42 
 N                     47.25     51.62     30.68 
 H                     47.91     47.14     28.55 
 H                     49.86     47.59     26.49 
 H                     50.85     49.35     27.96 
 H                     50.04     48.71     29.36 
 H                     47.78     49.51     28.32 
 H                     48.72     50.17     27.07 
 H                     48.54     51.94     28.4 
 H                     50.05     51.39     28.91 
 H                     49.36     51.58     30.99 
 H                     48.66     50.02     30.75 
 H                     47.22     52.08     31.57 
 H                     47.       52.32     29.99 
 H                     46.55     50.89     30.77 
 N                     50.81     45.62     28.74 
 C                     51.77     44.62     29.15 
 C                     51.69     43.36     28.3 
 O                     52.6      42.54     28.43 
 C                     51.48     44.24     30.6 
 C                     50.07     43.67     30.63 
 O                     49.05     44.35     30.35 
 O                     49.92     42.47     30.95 
 H                     49.9      45.62     29.19 
 H                     52.79     45.       29.13 
 H                     51.54     45.13     31.23 
 H                     52.14     43.42     30.89 
 N                     50.65     43.11     27.5 
 C                     50.57     42.13     26.44 
 C                     50.5      40.69     26.92 
 O                     51.27     39.82     26.51 
 H                     49.9      43.79     27.52 
 H                     51.46     42.18     25.82 
 H                     49.71     42.37     25.81 
 N                     49.56     40.39     27.83 
 C                     49.31     39.02     28.23 
 C                     47.99     38.36     27.84 
 O                     47.65     37.25     28.24 
 C                     49.56     38.87     29.73 
 C                     48.47     39.35     30.68 
 N                     48.3      38.83     31.9 
 O                     47.61     40.13     30.28 
 H                     48.9      41.09     28.12 
 H                     50.09     38.43     27.76 
 H                     50.45     39.39     30.07 
 H                     49.62     37.8      29.91 
 H                     48.94     38.12     32.21 
 H                     47.5      39.08     32.47 
 N                     47.18     39.08     27.07 
 C                     45.93     38.54     26.59 
 C                     44.78     38.62     27.59 
 O                     43.69     38.1      27.38 
 H                     47.26     40.07     26.87 
 H                     45.96     37.48     26.36 
 H                     45.68     39.21     25.77 
 N                     44.9      39.44     28.64 
 C                     43.94     39.62     29.7 
 C                     43.81     41.07     30.13 
 O                     44.81     41.77     30.05 
 C                     44.26     38.82     30.96 
 C                     44.3      37.31     30.88 
 C                     45.5      36.63     31.09 
 C                     43.09     36.62     30.71 
 C                     45.49     35.24     31.18 
 C                     43.03     35.23     30.87 
 C                     44.25     34.56     31.09 
 O                     44.12     33.21     31.2 
 H                     45.83     39.83     28.7 
 H                     42.93     39.28     29.48 
 H                     43.45     38.95     31.67 
 H                     45.26     39.14     31.26 
 H                     46.5      37.06     31.07 
 H                     42.15     37.15     30.66 
 H                     46.39     34.69     31.41 
 H                     42.07     34.74     30.83 
 H                     43.17     33.09     31.3 
 N                     42.66     41.44     30.69 
 C                     42.25     42.64     31.4 
 C                     41.69     42.39     32.79 
 O                     40.84     41.53     32.97 
 C                     41.34     43.56     30.59 
 C                     42.12     44.22     29.46 
 C                     40.61     44.58     31.45 
 C                     41.15     44.87     28.47 
 H                     41.95     40.72     30.62 
 H                     43.1      43.3      31.61 
 H                     40.61     42.89     30.13 
 H                     42.57     43.42     28.87 
 H                     42.75     45.05     29.8 
 H                     39.97     43.98     32.1 
 H                     41.23     45.36     31.89 
 H                     39.95     45.14     30.79 
 H                     40.8      45.85     28.79 
 H                     41.63     45.22     27.56 
 H                     40.22     44.35     28.25 
 N                     42.13     43.12     33.82 
 C                     41.68     43.06     35.19 
 C                     41.22     44.43     35.67 
 O                     41.35     45.42     34.96 
 C                     42.81     42.44     36.01 
 O                     43.92     43.31     36.09 
 H                     42.94     43.68     33.6 
 H                     40.82     42.4      35.34 
 H                     43.08     41.48     35.58 
 H                     42.46     42.25     37.03 
 H                     44.19     43.53     35.2 
 N                     40.6      44.34     36.85 
 C                     40.01     45.47     37.53 
 C                     40.8      46.77     37.62 
 O                     40.37     47.85     37.22 
 C                     39.58     45.03     38.93 
 H                     40.46     43.42     37.27 
 H                     39.14     45.7      36.91 
 H                     39.08     45.88     39.38 
 H                     38.94     44.15     38.94 
 H                     40.5      44.89     39.51 
 N                     42.01     46.76     38.18 
 C                     42.87     47.93     38.2 
 C                     43.44     48.33     36.85 
 O                     43.83     49.49     36.72 
 C                     43.96     47.66     39.24 
 H                     42.56     45.95     38.43 
 H                     42.19     48.67     38.62 
 H                     44.71     48.44     39.36 
 H                     43.39     47.57     40.17 
 H                     44.56     46.77     39.09 
 N                     43.5      47.52     35.8 
 C                     43.87     47.9      34.45 
 C                     42.68     48.52     33.74 
 O                     42.88     49.6      33.17 
 C                     44.26     46.66     33.65 
 C                     45.56     45.96     34.04 
 C                     45.61     44.58     33.4 
 O                     44.91     43.65     33.86 
 O                     46.23     44.5      32.32 
 H                     43.13     46.58     35.82 
 H                     44.68     48.62     34.4 
 H                     44.35     46.9      32.59 
 H                     43.46     45.92     33.76 
 H                     45.58     45.77     35.12 
 H                     46.47     46.48     33.73 
 N                     41.45     48.07     34.02 
 C                     40.32     48.85     33.57 
 H                     39.5      48.743    34.28 
 H                     40.606    49.899    33.502 
 H                     40.       48.495    32.59 
 H                     41.33     47.13     34.38 
 Ca                    47.31     42.58     30.94 
 O                     45.77     41.39     32.72 
 H                     45.28     42.       33.26 
 H                     45.81     40.59     33.24 
 
 Stoichiometry    C54H83CaN15O23
 Framework group  C1[X(C54H83CaN15O23)]
 Deg. of freedom   522
 Full point group                 C1      NOp   1
 Largest Abelian subgroup         C1      NOp   1
 Largest concise Abelian subgroup C1      NOp   1
                         Standard orientation:                         
 ---------------------------------------------------------------------
 Center     Atomic      Atomic             Coordinates (Angstroms)
 Number     Number       Type             X           Y           Z
 ---------------------------------------------------------------------
      1          6           0        1.446858    3.892894    3.711504
      2          6           0        0.464532    3.524347    2.606466
      3          8           0        0.826922    3.568507    1.424551
      4          1           0        2.188557    3.101162    3.816614
      5          1           0        1.946416    4.827701    3.457024
      6          1           0        0.908645    4.012117    4.651971
      7          7           0       -0.777085    3.163444    2.921643
      8          6           0       -1.849849    2.838519    2.011588
      9          6           0       -2.610425    4.044779    1.476646
     10          8           0       -3.838841    4.052203    1.566299
     11          6           0       -2.718463    1.774026    2.688468
     12          6           0       -3.627601    0.978703    1.754911
     13          8           0       -3.344815    0.761329    0.560223
     14          8           0       -4.698909    0.532365    2.225637
     15          1           0       -1.040922    3.024603    3.893504
     16          1           0       -1.365888    2.338779    1.171861
     17          1           0       -3.253572    2.182195    3.545472
     18          1           0       -2.052070    1.011380    3.096378
     19          7           0       -1.862366    4.983946    0.907285
     20          6           0       -2.328389    6.273379    0.434966
     21          6           0       -3.256465    6.082698   -0.759067
     22          8           0       -4.112910    6.888057   -1.115440
     23          6           0       -1.219878    7.258402    0.070230
     24          6           0       -0.163049    7.549812    1.131688
     25          6           0        0.958414    8.447980    0.616990
     26          6           0        2.080133    7.795004   -0.182928
     27          7           0        3.279159    7.507482    0.627298
     28          1           0       -0.886577    4.752498    0.942901
     29          1           0       -3.012352    6.667439    1.193261
     30          1           0       -1.649821    8.205938   -0.226292
     31          1           0       -0.667375    6.890346   -0.800502
     32          1           0        0.332964    6.691654    1.605541
     33          1           0       -0.613422    8.048085    1.987836
     34          1           0        1.300112    9.043571    1.457177
     35          1           0        0.505379    9.214227   -0.019974
     36          1           0        2.310147    8.453023   -1.020964
     37          1           0        1.684037    6.887906   -0.647343
     38          1           0        4.114515    7.625685    0.086180
     39          1           0        3.357451    8.143842    1.413119
     40          1           0        3.317269    6.532068    0.906790
     41          7           0       -3.169879    4.916379   -1.405753
     42          6           0       -3.975984    4.468597   -2.519030
     43          6           0       -5.163509    3.628590   -2.071064
     44          8           0       -6.022647    3.379710   -2.918023
     45          6           0       -3.101650    3.614345   -3.433794
     46          6           0       -2.629099    2.428696   -2.606248
     47          8           0       -1.882477    2.548499   -1.601558
     48          8           0       -2.999677    1.282399   -2.943257
     49          1           0       -2.389144    4.334720   -1.118131
     50          1           0       -4.334424    5.299338   -3.124496
     51          1           0       -2.245858    4.201342   -3.773876
     52          1           0       -3.723103    3.195715   -4.227926
     53          7           0       -5.246098    3.118677   -0.839290
     54          6           0       -6.414473    2.565539   -0.191726
     55          6           0       -6.857627    1.219136   -0.739187
     56          8           0       -8.012522    1.006526   -1.111897
     57          1           0       -4.454649    3.292425   -0.232067
     58          1           0       -7.265438    3.224607   -0.334864
     59          1           0       -6.218425    2.501251    0.881369
     60          7           0       -5.931262    0.250692   -0.814456
     61          6           0       -6.289502   -1.107163   -1.171238
     62          6           0       -6.182841   -2.206265   -0.117342
     63          8           0       -6.350105   -3.396452   -0.368692
     64          6           0       -5.550532   -1.514575   -2.445184
     65          6           0       -4.090841   -1.930498   -2.313609
     66          7           0       -3.504837   -2.776046   -3.167628
     67          8           0       -3.452892   -1.615310   -1.312771
     68          1           0       -5.005520    0.412287   -0.458664
     69          1           0       -7.335011   -1.068914   -1.459070
     70          1           0       -5.532309   -0.733151   -3.198274
     71          1           0       -6.053265   -2.410242   -2.800065
     72          1           0       -4.042547   -3.120104   -3.943703
     73          1           0       -2.570581   -3.130296   -2.997124
     74          7           0       -5.840789   -1.813788    1.105917
     75          6           0       -5.763901   -2.754676    2.198308
     76          6           0       -4.458450   -3.542230    2.265068
     77          8           0       -4.285249   -4.460001    3.058980
     78          1           0       -5.470508   -0.907651    1.367274
     79          1           0       -6.506366   -3.545067    2.160517
     80          1           0       -5.784917   -2.107319    3.072543
     81          7           0       -3.405628   -3.097287    1.570163
     82          6           0       -2.110332   -3.723597    1.483308
     83          6           0       -0.972845   -2.718801    1.511724
     84          8           0       -1.183754   -1.619544    1.018214
     85          6           0       -1.917760   -4.562601    0.222756
     86          6           0       -2.816005   -5.757682   -0.007540
     87          6           0       -3.704933   -5.767634   -1.082811
     88          6           0       -2.645124   -6.886142    0.808840
     89          6           0       -4.402028   -6.936114   -1.381158
     90          6           0       -3.270448   -8.098972    0.493699
     91          6           0       -4.158384   -8.093390   -0.600485
     92          8           0       -4.755746   -9.295036   -0.825665
     93          1           0       -3.658749   -2.325593    0.969316
     94          1           0       -1.888509   -4.450851    2.261765
     95          1           0       -0.954397   -5.058516    0.278440
     96          1           0       -2.094071   -3.878663   -0.610037
     97          1           0       -4.025187   -4.906005   -1.666192
     98          1           0       -1.877233   -6.911865    1.568235
     99          1           0       -5.044356   -6.996190   -2.246725
    100          1           0       -3.042965   -8.973185    1.083024
    101          1           0       -4.242123   -9.899385   -0.279904
    102          7           0        0.210541   -3.148351    1.945409
    103          6           0        1.541844   -2.566082    1.917205
    104          6           0        2.595482   -3.433448    1.249580
    105          8           0        2.701305   -4.615578    1.542618
    106          6           0        2.021985   -2.049187    3.271045
    107          6           0        1.238942   -0.806212    3.674478
    108          6           0        3.524169   -1.816674    3.318802
    109          6           0        1.489233   -0.491499    5.151573
    110          1           0        0.157505   -4.076825    2.348550
    111          1           0        1.575401   -1.654536    1.308798
    112          1           0        1.758414   -2.840048    3.977069
    113          1           0        0.181147   -1.073450    3.658541
    114          1           0        1.567714    0.098188    3.149722
    115          1           0        3.957934   -2.808595    3.177243
    116          1           0        3.894806   -0.985642    2.720125
    117          1           0        3.767513   -1.509807    4.334389
    118          1           0        2.418985    0.047484    5.325811
    119          1           0        0.839791    0.286133    5.544655
    120          1           0        1.569243   -1.325917    5.845148
    121          7           0        3.412719   -2.895534    0.338443
    122          6           0        4.497792   -3.546337   -0.355871
    123          6           0        5.802481   -2.787041   -0.155486
    124          8           0        5.820382   -1.716146    0.439462
    125          6           0        4.068672   -3.709332   -1.812919
    126          8           0        3.993059   -2.459157   -2.466175
    127          1           0        3.139078   -1.968399    0.049233
    128          1           0        4.699249   -4.561438    0.000059
    129          1           0        3.123108   -4.242136   -1.850732
    130          1           0        4.805203   -4.320478   -2.344917
    131          1           0        3.399242   -1.899316   -1.968821
    132          7           0        6.842220   -3.496085   -0.603928
    133          6           0        8.213785   -3.053652   -0.501654
    134          6           0        8.553258   -1.615153   -0.872707
    135          8           0        9.121909   -0.837518   -0.109019
    136          6           0        9.099391   -4.013918   -1.296694
    137          1           0        6.683068   -4.435308   -0.971257
    138          1           0        8.416169   -3.133907    0.569234
    139          1           0       10.122366   -3.692597   -1.137710
    140          1           0        8.971922   -5.060101   -1.025858
    141          1           0        8.893572   -3.823787   -2.356831
    142          7           0        8.248407   -1.166922   -2.090883
    143          6           0        8.434185    0.219495   -2.481056
    144          6           0        7.482637    1.203848   -1.823024
    145          8           0        7.822299    2.386306   -1.791035
    146          6           0        8.358419    0.262893   -4.009119
    147          1           0        7.666594   -1.621837   -2.780554
    148          1           0        9.475554    0.368209   -2.198507
    149          1           0        8.454442    1.246996   -4.464772
    150          1           0        9.211591   -0.352544   -4.311168
    151          1           0        7.450642   -0.122910   -4.458226
    152          7           0        6.337618    0.857794   -1.247370
    153          6           0        5.483652    1.724988   -0.458373
    154          6           0        6.015479    1.827649    0.959802
    155          8           0        6.133887    2.969239    1.422460
    156          6           0        4.083935    1.124499   -0.358841
    157          6           0        3.244609    1.099290   -1.634379
    158          6           0        2.054871    0.169002   -1.445729
    159          8           0        2.219607   -1.071522   -1.467205
    160          8           0        0.985968    0.711401   -1.098671
    161          1           0        6.037226   -0.104241   -1.175574
    162          1           0        5.405900    2.736687   -0.842326
    163          1           0        3.490300    1.656552    0.385348
    164          1           0        4.183592    0.085033   -0.028267
    165          1           0        3.818651    0.658153   -2.458257
    166          1           0        2.837445    2.068667   -1.932915
    167          7           0        6.615406    0.762596    1.507112
    168          6           0        7.367965    0.955424    2.725419
    169          1           0        8.207184    0.260298    2.746857
    170          1           0        7.742912    1.977573    2.763481
    171          1           0        6.722519    0.771524    3.584724
    172          1           0        6.396203   -0.166516    1.166083
    173         20           0       -1.529781    0.060180   -1.162839
    174          8           0       -0.209594   -2.177829   -1.615079
    175          1           0        0.734143   -2.072729   -1.569100
    176          1           0       -0.337032   -2.955408   -2.154644
 ---------------------------------------------------------------------
 Rotational constants (GHZ):           0.0210529           0.0150363           0.0105005
 Standard basis: SVP (5D, 7F)
 There are  1809 symmetry adapted cartesian basis functions of A   symmetry.
 There are  1717 symmetry adapted basis functions of A   symmetry.
  1717 basis functions,  2922 primitive gaussians,  1809 cartesian basis functions
   358 alpha electrons      358 beta electrons
       nuclear repulsion energy     21277.0035569545 Hartrees.
 NAtoms=  176 NActive=  176 NUniq=  176 SFac= 1.00D+00 NAtFMM=   60 NAOKFM=T Big=T
 Integral buffers will be    131072 words long.
 Raffenetti 2 integral format.
 Two-electron integral symmetry is turned on.
 One-electron integrals computed using PRISM.
 NBasis=  1717 RedAO= T EigKep=  2.94D-04  NBF=  1717
 NBsUse=  1717 1.00D-06 EigRej= -1.00D+00 NBFU=  1717
 ExpMin= 1.98D-02 ExpMax= 3.51D+04 ExpMxC= 5.28D+03 IAcc=3 IRadAn=         5 AccDes= 0.00D+00
 Harris functional with IExCor=  402 and IRadAn=       5 diagonalized for initial guess.
 HarFok:  IExCor=  402 AccDes= 0.00D+00 IRadAn=         5 IDoV= 1 UseB2=F ITyADJ=14
 ICtDFT=  3500011 ScaDFX=  1.000000  1.000000  1.000000  1.000000
 FoFCou: FMM=F IPFlag=           0 FMFlag=      100000 FMFlg1=        2001
         NFxFlg=           0 DoJE=T BraDBF=F KetDBF=T FulRan=T
         wScrn=  0.000000 ICntrl=       500 IOpCl=  0 I1Cent=   200000004 NGrid=           0
         NMat0=    1 NMatS0=      1 NMatT0=    0 NMatD0=    1 NMtDS0=    0 NMtDT0=    0
 Petite list used in FoFCou.
 Requested convergence on RMS density matrix=1.00D-08 within 128 cycles.
 Requested convergence on MAX density matrix=1.00D-06.
 Requested convergence on             energy=1.00D-06.
 No special actions if energy rises.
 EnCoef did     4 forward-backward iterations
 SCF Done:  E(RB3LYP) =  -5333.60873073     A.U. after   19 cycles
            NFock= 19  Conv=0.23D-08     -V/T= 2.0081
 SCF density gives NOpUse=  1 NOpAll=  1.
 Hyperfine terms turned off by default for NAtoms > 100.

 **********************************************************************

            Population analysis using the SCF density.

 **********************************************************************

 Orbital symmetries:
 BldTbl:  Degeneracy threshold= 1.00D-02
       Occupied  (A) (A) (A) (A) (A) (A) (A) (A) (A) (A) (A) (A)
                 (A) (A) (A) (A) (A) (A) (A) (A) (A) (A) (A) (A)
                 (A) (A) (A) (A) (A) (A) (A) (A) (A) (A) (A) (A)
                 (A) (A) (A) (A) (A) (A) (A) (A) (A) (A) (A) (A)
                 (A) (A) (A) (A) (A) (A) (A) (A) (A) (A) (A) (A)
                 (A) (A) (A) (A) (A) (A) (A) (A) (A) (A) (A) (A)
                 (A) (A) (A) (A) (A) (A) (A) (A) (A) (A) (A) (A)
                 (A) (A) (A) (A) (A) (A) (A) (A) (A) (A) (A) (A)
                 (A) (A) (A) (A) (A) (A) (A) (A) (A) (A) (A) (A)
                 (A) (A) (A) (A) (A) (A) (A) (A) (A) (A) (A) (A)
                 (A) (A) (A) (A) (A) (A) (A) (A) (A) (A) (A) (A)
                 (A) (A) (A) (A) (A) (A) (A) (A) (A) (A) (A) (A)
                 (A) (A) (A) (A) (A) (A) (A) (A) (A) (A) (A) (A)
                 (A) (A) (A) (A) (A) (A) (A) (A) (A) (A) (A) (A)
                 (A) (A) (A) (A) (A) (A) (A) (A) (A) (A) (A) (A)
                 (A) (A) (A) (A) (A) (A) (A) (A) (A) (A) (A) (A)
                 (A) (A) (A) (A) (A) (A) (A) (A) (A) (A) (A) (A)
                 (A) (A) (A) (A) (A) (A) (A) (A) (A) (A) (A) (A)
                 (A) (A) (A) (A) (A) (A) (A) (A) (A) (A) (A) (A)
                 (A) (A) (A) (A) (A) (A) (A) (A) (A) (A) (A) (A)
                 (A) (A) (A) (A) (A) (A) (A) (A) (A) (A) (A) (A)
                 (A) (A) (A) (A) (A) (A) (A) (A) (A) (A) (A) (A)
                 (A) (A) (A) (A) (A) (A) (A) (A) (A) (A) (A) (A)
                 (A) (A) (A) (A) (A) (A) (A) (A) (A) (A) (A) (A)
                 (A) (A) (A) (A) (A) (A) (A) (A) (A) (A) (A) (A)
                 (A) (A) (A) (A) (A) (A) (A) (A) (A) (A) (A) (A)
                 (A) (A) (A) (A) (A) (A) (A) (A) (A) (A) (A) (A)
                 (A) (A) (A) (A) (A) (A) (A) (A) (A) (A) (A) (A)
                 (A) (A) (A) (A) (A) (A) (A) (A) (A) (A) (A) (A)
                 (A) (A) (A) (A) (A) (A) (A) (A) (A) (A)
       Virtual   (A) (A) (A) (A) (A) (A) (A) (A) (A) (A) (A) (A)
                 (A) (A) (A) (A) (A) (A) (A) (A) (A) (A) (A) (A)
                 (A) (A) (A) (A) (A) (A) (A) (A) (A) (A) (A) (A)
                 (A) (A) (A) (A) (A) (A) (A) (A) (A) (A) (A) (A)
                 (A) (A) (A) (A) (A) (A) (A) (A) (A) (A) (A) (A)
                 (A) (A) (A) (A) (A) (A) (A) (A) (A) (A) (A) (A)
                 (A) (A) (A) (A) (A) (A) (A) (A) (A) (A) (A) (A)
                 (A) (A) (A) (A) (A) (A) (A) (A) (A) (A) (A) (A)
                 (A) (A) (A) (A) (A) (A) (A) (A) (A) (A) (A) (A)
                 (A) (A) (A) (A) (A) (A) (A) (A) (A) (A) (A) (A)
                 (A) (A) (A) (A) (A) (A) (A) (A) (A) (A) (A) (A)
                 (A) (A) (A) (A) (A) (A) (A) (A) (A) (A) (A) (A)
                 (A) (A) (A) (A) (A) (A) (A) (A) (A) (A) (A) (A)
                 (A) (A) (A) (A) (A) (A) (A) (A) (A) (A) (A) (A)
                 (A) (A) (A) (A) (A) (A) (A) (A) (A) (A) (A) (A)
                 (A) (A) (A) (A) (A) (A) (A) (A) (A) (A) (A) (A)
                 (A) (A) (A) (A) (A) (A) (A) (A) (A) (A) (A) (A)
                 (A) (A) (A) (A) (A) (A) (A) (A) (A) (A) (A) (A)
                 (A) (A) (A) (A) (A) (A) (A) (A) (A) (A) (A) (A)
                 (A) (A) (A) (A) (A) (A) (A) (A) (A) (A) (A) (A)
                 (A) (A) (A) (A) (A) (A) (A) (A) (A) (A) (A) (A)
                 (A) (A) (A) (A) (A) (A) (A) (A) (A) (A) (A) (A)
                 (A) (A) (A) (A) (A) (A) (A) (A) (A) (A) (A) (A)
                 (A) (A) (A) (A) (A) (A) (A) (A) (A) (A) (A) (A)
                 (A) (A) (A) (A) (A) (A) (A) (A) (A) (A) (A) (A)
                 (A) (A) (A) (A) (A) (A) (A) (A) (A) (A) (A) (A)
                 (A) (A) (A) (A) (A) (A) (A) (A) (A) (A) (A) (A)
                 (A) (A) (A) (A) (A) (A) (A) (A) (A) (A) (A) (A)
                 (A) (A) (A) (A) (A) (A) (A) (A) (A) (A) (A) (A)
                 (A) (A) (A) (A) (A) (A) (A) (A) (A) (A) (A) (A)
                 (A) (A) (A) (A) (A) (A) (A) (A) (A) (A) (A) (A)
                 (A) (A) (A) (A) (A) (A) (A) (A) (A) (A) (A) (A)
                 (A) (A) (A) (A) (A) (A) (A) (A) (A) (A) (A) (A)
                 (A) (A) (A) (A) (A) (A) (A) (A) (A) (A) (A) (A)
                 (A) (A) (A) (A) (A) (A) (A) (A) (A) (A) (A) (A)
                 (A) (A) (A) (A) (A) (A) (A) (A) (A) (A) (A) (A)
                 (A) (A) (A) (A) (A) (A) (A) (A) (A) (A) (A) (A)
                 (A) (A) (A) (A) (A) (A) (A) (A) (A) (A) (A) (A)
                 (A) (A) (A) (A) (A) (A) (A) (A) (A) (A) (A) (A)
                 (A) (A) (A) (A) (A) (A) (A) (A) (A) (A) (A) (A)
                 (A) (A) (A) (A) (A) (A) (A) (A) (A) (A) (A) (A)
                 (A) (A) (A) (A) (A) (A) (A) (A) (A) (A) (A) (A)
                 (A) (A) (A) (A) (A) (A) (A) (A) (A) (A) (A) (A)
                 (A) (A) (A) (A) (A) (A) (A) (A) (A) (A) (A) (A)
                 (A) (A) (A) (A) (A) (A) (A) (A) (A) (A) (A) (A)
                 (A) (A) (A) (A) (A) (A) (A) (A) (A) (A) (A) (A)
                 (A) (A) (A) (A) (A) (A) (A) (A) (A) (A) (A) (A)
                 (A) (A) (A) (A) (A) (A) (A) (A) (A) (A) (A) (A)
                 (A) (A) (A) (A) (A) (A) (A) (A) (A) (A) (A) (A)
                 (A) (A) (A) (A) (A) (A) (A) (A) (A) (A) (A) (A)
                 (A) (A) (A) (A) (A) (A) (A) (A) (A) (A) (A) (A)
                 (A) (A) (A) (A) (A) (A) (A) (A) (A) (A) (A) (A)
                 (A) (A) (A) (A) (A) (A) (A) (A) (A) (A) (A) (A)
                 (A) (A) (A) (A) (A) (A) (A) (A) (A) (A) (A) (A)
                 (A) (A) (A) (A) (A) (A) (A) (A) (A) (A) (A) (A)
                 (A) (A) (A) (A) (A) (A) (A) (A) (A) (A) (A) (A)
                 (A) (A) (A) (A) (A) (A) (A) (A) (A) (A) (A) (A)
                 (A) (A) (A) (A) (A) (A) (A) (A) (A) (A) (A) (A)
                 (A) (A) (A) (A) (A) (A) (A) (A) (A) (A) (A) (A)
                 (A) (A) (A) (A) (A) (A) (A) (A) (A) (A) (A) (A)
                 (A) (A) (A) (A) (A) (A) (A) (A) (A) (A) (A) (A)
                 (A) (A) (A) (A) (A) (A) (A) (A) (A) (A) (A) (A)
                 (A) (A) (A) (A) (A) (A) (A) (A) (A) (A) (A) (A)
                 (A) (A) (A) (A) (A) (A) (A) (A) (A) (A) (A) (A)
                 (A) (A) (A) (A) (A) (A) (A) (A) (A) (A) (A) (A)
                 (A) (A) (A) (A) (A) (A) (A) (A) (A) (A) (A) (A)
                 (A) (A) (A) (A) (A) (A) (A) (A) (A) (A) (A) (A)
                 (A) (A) (A) (A) (A) (A) (A) (A) (A) (A) (A) (A)
                 (A) (A) (A) (A) (A) (A) (A) (A) (A) (A) (A) (A)
                 (A) (A) (A) (A) (A) (A) (A) (A) (A) (A) (A) (A)
                 (A) (A) (A) (A) (A) (A) (A) (A) (A) (A) (A) (A)
                 (A) (A) (A) (A) (A) (A) (A) (A) (A) (A) (A) (A)
                 (A) (A) (A) (A) (A) (A) (A) (A) (A) (A) (A) (A)
                 (A) (A) (A) (A) (A) (A) (A) (A) (A) (A) (A) (A)
                 (A) (A) (A) (A) (A) (A) (A) (A) (A) (A) (A) (A)
                 (A) (A) (A) (A) (A) (A) (A) (A) (A) (A) (A) (A)
                 (A) (A) (A) (A) (A) (A) (A) (A) (A) (A) (A) (A)
                 (A) (A) (A) (A) (A) (A) (A) (A) (A) (A) (A) (A)
                 (A) (A) (A) (A) (A) (A) (A) (A) (A) (A) (A) (A)
                 (A) (A) (A) (A) (A) (A) (A) (A) (A) (A) (A) (A)
                 (A) (A) (A) (A) (A) (A) (A) (A) (A) (A) (A) (A)
                 (A) (A) (A) (A) (A) (A) (A) (A) (A) (A) (A) (A)
                 (A) (A) (A) (A) (A) (A) (A) (A) (A) (A) (A) (A)
                 (A) (A) (A) (A) (A) (A) (A) (A) (A) (A) (A) (A)
                 (A) (A) (A) (A) (A) (A) (A) (A) (A) (A) (A) (A)
                 (A) (A) (A) (A) (A) (A) (A) (A) (A) (A) (A) (A)
                 (A) (A) (A) (A) (A) (A) (A) (A) (A) (A) (A) (A)
                 (A) (A) (A) (A) (A) (A) (A) (A) (A) (A) (A) (A)
                 (A) (A) (A) (A) (A) (A) (A) (A) (A) (A) (A) (A)
                 (A) (A) (A) (A) (A) (A) (A) (A) (A) (A) (A) (A)
                 (A) (A) (A) (A) (A) (A) (A) (A) (A) (A) (A) (A)
                 (A) (A) (A) (A) (A) (A) (A) (A) (A) (A) (A) (A)
                 (A) (A) (A) (A) (A) (A) (A) (A) (A) (A) (A) (A)
                 (A) (A) (A) (A) (A) (A) (A) (A) (A) (A) (A) (A)
                 (A) (A) (A) (A) (A) (A) (A) (A) (A) (A) (A) (A)
                 (A) (A) (A) (A) (A) (A) (A) (A) (A) (A) (A) (A)
                 (A) (A) (A) (A) (A) (A) (A) (A) (A) (A) (A) (A)
                 (A) (A) (A) (A) (A) (A) (A) (A) (A) (A) (A) (A)
                 (A) (A) (A) (A) (A) (A) (A) (A) (A) (A) (A) (A)
                 (A) (A) (A) (A) (A) (A) (A) (A) (A) (A) (A) (A)
                 (A) (A) (A) (A) (A) (A) (A) (A) (A) (A) (A) (A)
                 (A) (A) (A) (A) (A) (A) (A) (A) (A) (A) (A) (A)
                 (A) (A) (A) (A) (A) (A) (A) (A) (A) (A) (A) (A)
                 (A) (A) (A) (A) (A) (A) (A) (A) (A) (A) (A) (A)
                 (A) (A) (A) (A) (A) (A) (A) (A) (A) (A) (A) (A)
                 (A) (A) (A) (A) (A) (A) (A) (A) (A) (A) (A) (A)
                 (A) (A) (A) (A) (A) (A) (A) (A) (A) (A) (A) (A)
                 (A) (A) (A) (A) (A) (A) (A) (A) (A) (A) (A) (A)
                 (A) (A) (A) (A) (A) (A) (A) (A) (A) (A) (A) (A)
                 (A) (A) (A) (A) (A) (A) (A) (A) (A) (A) (A) (A)
                 (A) (A) (A) (A) (A) (A) (A) (A) (A) (A) (A) (A)
                 (A) (A) (A) (A) (A) (A) (A) (A) (A) (A) (A) (A)
                 (A) (A) (A) (A) (A) (A) (A) (A) (A) (A) (A) (A)
                 (A) (A) (A)
 The electronic state is 1-A.
 Alpha  occ. eigenvalues -- -145.36001 -19.14883 -19.14694 -19.14141 -19.12230
 Alpha  occ. eigenvalues --  -19.11422 -19.10702 -19.10693 -19.10591 -19.10335
 Alpha  occ. eigenvalues --  -19.10320 -19.09664 -19.08756 -19.08364 -19.08011
 Alpha  occ. eigenvalues --  -19.07390 -19.06238 -19.05572 -19.05420 -19.05236
 Alpha  occ. eigenvalues --  -19.04565 -19.04036 -19.03572 -19.03217 -15.41771
 Alpha  occ. eigenvalues --  -14.59233 -14.39948 -14.38164 -14.37299 -14.36851
 Alpha  occ. eigenvalues --  -14.36639 -14.36579 -14.35487 -14.35238 -14.33299
 Alpha  occ. eigenvalues --  -14.31930 -14.31152 -14.30139 -14.29760 -14.28719
 Alpha  occ. eigenvalues --  -12.55404 -12.55342 -12.55315 -10.35942 -10.32489
 Alpha  occ. eigenvalues --  -10.31400 -10.30569 -10.29542 -10.29080 -10.28791
 Alpha  occ. eigenvalues --  -10.28771 -10.28554 -10.28336 -10.27876 -10.26463
 Alpha  occ. eigenvalues --  -10.26408 -10.26383 -10.25635 -10.25389 -10.24869
 Alpha  occ. eigenvalues --  -10.24831 -10.24509 -10.24339 -10.24161 -10.24150
 Alpha  occ. eigenvalues --  -10.23968 -10.23811 -10.23652 -10.23222 -10.23144
 Alpha  occ. eigenvalues --  -10.23089 -10.23069 -10.22682 -10.22574 -10.22363
 Alpha  occ. eigenvalues --  -10.21902 -10.20427 -10.20416 -10.20399 -10.19834
 Alpha  occ. eigenvalues --  -10.19569 -10.19123 -10.18970 -10.18244 -10.18219
 Alpha  occ. eigenvalues --  -10.18181 -10.18121 -10.17730 -10.17681 -10.17668
 Alpha  occ. eigenvalues --  -10.17475 -10.17371 -10.17223 -10.17125 -10.17079
 Alpha  occ. eigenvalues --  -10.16801 -10.16373  -1.78685  -1.14356  -1.07489
 Alpha  occ. eigenvalues --   -1.06501  -1.06271  -1.06153  -1.05286  -1.04863
 Alpha  occ. eigenvalues --   -1.04523  -1.03865  -1.03645  -1.03544  -1.03525
 Alpha  occ. eigenvalues --   -1.03013  -1.02183  -1.01245  -1.00940  -1.00563
 Alpha  occ. eigenvalues --   -1.00448  -1.00087  -0.99287  -0.98866  -0.97956
 Alpha  occ. eigenvalues --   -0.97320  -0.97216  -0.96265  -0.94822  -0.94432
 Alpha  occ. eigenvalues --   -0.94113  -0.93946  -0.93257  -0.92426  -0.91884
 Alpha  occ. eigenvalues --   -0.90909  -0.90416  -0.90138  -0.89463  -0.88983
 Alpha  occ. eigenvalues --   -0.88726  -0.88377  -0.87208  -0.86453  -0.85530
 Alpha  occ. eigenvalues --   -0.83495  -0.83068  -0.82868  -0.82233  -0.79727
 Alpha  occ. eigenvalues --   -0.79619  -0.78115  -0.78098  -0.77471  -0.76863
 Alpha  occ. eigenvalues --   -0.75724  -0.75250  -0.74857  -0.74586  -0.74139
 Alpha  occ. eigenvalues --   -0.72833  -0.72828  -0.72443  -0.71983  -0.70593
 Alpha  occ. eigenvalues --   -0.70456  -0.69236  -0.69091  -0.68401  -0.68157
 Alpha  occ. eigenvalues --   -0.67124  -0.67108  -0.65939  -0.65420  -0.64887
 Alpha  occ. eigenvalues --   -0.64627  -0.64031  -0.63134  -0.62961  -0.62740
 Alpha  occ. eigenvalues --   -0.62372  -0.61781  -0.61599  -0.60362  -0.60271
 Alpha  occ. eigenvalues --   -0.60065  -0.59886  -0.58975  -0.58611  -0.57686
 Alpha  occ. eigenvalues --   -0.57401  -0.57033  -0.56982  -0.56648  -0.56077
 Alpha  occ. eigenvalues --   -0.55860  -0.55572  -0.55484  -0.55417  -0.55123
 Alpha  occ. eigenvalues --   -0.54762  -0.54210  -0.54131  -0.53804  -0.53273
 Alpha  occ. eigenvalues --   -0.53099  -0.52827  -0.52678  -0.52428  -0.52174
 Alpha  occ. eigenvalues --   -0.52152  -0.51395  -0.50941  -0.50790  -0.50222
 Alpha  occ. eigenvalues --   -0.49961  -0.49850  -0.49682  -0.49589  -0.49277
 Alpha  occ. eigenvalues --   -0.48862  -0.48650  -0.48421  -0.48008  -0.47976
 Alpha  occ. eigenvalues --   -0.47826  -0.47760  -0.47665  -0.47125  -0.47019
 Alpha  occ. eigenvalues --   -0.46937  -0.46555  -0.46119  -0.46041  -0.45848
 Alpha  occ. eigenvalues --   -0.45787  -0.45586  -0.45524  -0.45030  -0.44950
 Alpha  occ. eigenvalues --   -0.44743  -0.44553  -0.44401  -0.44341  -0.44034
 Alpha  occ. eigenvalues --   -0.43766  -0.43644  -0.43384  -0.43322  -0.43043
 Alpha  occ. eigenvalues --   -0.42965  -0.42852  -0.42793  -0.42631  -0.42469
 Alpha  occ. eigenvalues --   -0.42431  -0.42290  -0.42199  -0.42135  -0.41991
 Alpha  occ. eigenvalues --   -0.41898  -0.41880  -0.41631  -0.41542  -0.41470
 Alpha  occ. eigenvalues --   -0.41254  -0.41047  -0.40931  -0.40820  -0.40691
 Alpha  occ. eigenvalues --   -0.40621  -0.40476  -0.40262  -0.40254  -0.40118
 Alpha  occ. eigenvalues --   -0.39911  -0.39761  -0.39665  -0.39649  -0.39573
 Alpha  occ. eigenvalues --   -0.39192  -0.39109  -0.39015  -0.38701  -0.38667
 Alpha  occ. eigenvalues --   -0.38490  -0.38205  -0.38046  -0.37843  -0.37832
 Alpha  occ. eigenvalues --   -0.37666  -0.37546  -0.37233  -0.36995  -0.36869
 Alpha  occ. eigenvalues --   -0.36742  -0.36505  -0.36221  -0.36190  -0.35927
 Alpha  occ. eigenvalues --   -0.35718  -0.35590  -0.35272  -0.35094  -0.35001
 Alpha  occ. eigenvalues --   -0.34887  -0.34737  -0.34375  -0.34248  -0.34142
 Alpha  occ. eigenvalues --   -0.33722  -0.33550  -0.33491  -0.33299  -0.32971
 Alpha  occ. eigenvalues --   -0.32828  -0.32700  -0.32553  -0.32336  -0.32063
 Alpha  occ. eigenvalues --   -0.31626  -0.30883  -0.30637  -0.30465  -0.30258
 Alpha  occ. eigenvalues --   -0.29927  -0.29083  -0.28936  -0.28595  -0.28211
 Alpha  occ. eigenvalues --   -0.28111  -0.27593  -0.27508  -0.27206  -0.27062
 Alpha  occ. eigenvalues --   -0.26791  -0.26438  -0.25924  -0.25750  -0.25529
 Alpha  occ. eigenvalues --   -0.25092  -0.24753  -0.24697  -0.24464  -0.24284
 Alpha  occ. eigenvalues --   -0.24166  -0.24079  -0.23868  -0.23584  -0.23120
 Alpha  occ. eigenvalues --   -0.22983  -0.22653  -0.22611  -0.22085  -0.21919
 Alpha  occ. eigenvalues --   -0.21415  -0.21359  -0.19822  -0.19567  -0.19530
 Alpha  occ. eigenvalues --   -0.19454  -0.19323  -0.18672
 Alpha virt. eigenvalues --   -0.10674  -0.05743  -0.05422  -0.02282  -0.02123
 Alpha virt. eigenvalues --   -0.01297  -0.00837  -0.00290  -0.00261   0.00078
 Alpha virt. eigenvalues --    0.00555   0.00634   0.01116   0.01196   0.01286
 Alpha virt. eigenvalues --    0.01440   0.01797   0.02018   0.02722   0.02951
 Alpha virt. eigenvalues --    0.03060   0.03588   0.03694   0.03821   0.04119
 Alpha virt. eigenvalues --    0.04547   0.04747   0.04823   0.05463   0.05703
 Alpha virt. eigenvalues --    0.05795   0.06130   0.06314   0.06396   0.06432
 Alpha virt. eigenvalues --    0.06606   0.06719   0.06860   0.07015   0.07285
 Alpha virt. eigenvalues --    0.07642   0.07796   0.08144   0.08301   0.08590
 Alpha virt. eigenvalues --    0.08615   0.08970   0.09186   0.09425   0.09488
 Alpha virt. eigenvalues --    0.10121   0.10320   0.10342   0.10460   0.10549
 Alpha virt. eigenvalues --    0.10908   0.11129   0.11238   0.11458   0.11616
 Alpha virt. eigenvalues --    0.11836   0.12081   0.12185   0.12574   0.12597
 Alpha virt. eigenvalues --    0.12816   0.12845   0.12976   0.13099   0.13308
 Alpha virt. eigenvalues --    0.13359   0.13486   0.13795   0.13883   0.14042
 Alpha virt. eigenvalues --    0.14263   0.14405   0.14454   0.14745   0.14850
 Alpha virt. eigenvalues --    0.14967   0.15141   0.15216   0.15391   0.15520
 Alpha virt. eigenvalues --    0.15700   0.15954   0.16157   0.16391   0.16572
 Alpha virt. eigenvalues --    0.16793   0.16916   0.17115   0.17179   0.17443
 Alpha virt. eigenvalues --    0.17527   0.17748   0.17948   0.18065   0.18216
 Alpha virt. eigenvalues --    0.18326   0.18542   0.18580   0.18661   0.18866
 Alpha virt. eigenvalues --    0.19043   0.19186   0.19372   0.19651   0.19878
 Alpha virt. eigenvalues --    0.20156   0.20436   0.20562   0.20639   0.20774
 Alpha virt. eigenvalues --    0.20992   0.21588   0.21851   0.21997   0.22236
 Alpha virt. eigenvalues --    0.22569   0.22604   0.22971   0.23456   0.23520
 Alpha virt. eigenvalues --    0.23665   0.23999   0.24196   0.24371   0.24502
 Alpha virt. eigenvalues --    0.24579   0.24904   0.25097   0.25210   0.25512
 Alpha virt. eigenvalues --    0.25587   0.25741   0.26100   0.26207   0.26486
 Alpha virt. eigenvalues --    0.26669   0.26882   0.27065   0.27313   0.27447
 Alpha virt. eigenvalues --    0.27655   0.27872   0.28123   0.28303   0.28705
 Alpha virt. eigenvalues --    0.28878   0.29047   0.29282   0.29711   0.29856
 Alpha virt. eigenvalues --    0.30071   0.30242   0.30509   0.30791   0.30845
 Alpha virt. eigenvalues --    0.31156   0.31195   0.31678   0.31705   0.31846
 Alpha virt. eigenvalues --    0.32387   0.32803   0.33036   0.33081   0.33380
 Alpha virt. eigenvalues --    0.33739   0.33981   0.34131   0.34379   0.34712
 Alpha virt. eigenvalues --    0.34986   0.35441   0.35835   0.35945   0.36124
 Alpha virt. eigenvalues --    0.36235   0.36744   0.37093   0.37498   0.37968
 Alpha virt. eigenvalues --    0.38303   0.38547   0.38958   0.39187   0.39440
 Alpha virt. eigenvalues --    0.39753   0.39760   0.39922   0.40256   0.40306
 Alpha virt. eigenvalues --    0.40419   0.40746   0.41065   0.41228   0.41482
 Alpha virt. eigenvalues --    0.41693   0.41875   0.42025   0.42393   0.42466
 Alpha virt. eigenvalues --    0.42750   0.42875   0.42955   0.43205   0.43722
 Alpha virt. eigenvalues --    0.43771   0.43997   0.44333   0.44449   0.44640
 Alpha virt. eigenvalues --    0.44861   0.44960   0.45211   0.45342   0.45440
 Alpha virt. eigenvalues --    0.45898   0.45911   0.46142   0.46288   0.46602
 Alpha virt. eigenvalues --    0.46684   0.46797   0.46872   0.46958   0.47475
 Alpha virt. eigenvalues --    0.47589   0.47890   0.47991   0.48112   0.48274
 Alpha virt. eigenvalues --    0.48409   0.48711   0.48907   0.49071   0.49377
 Alpha virt. eigenvalues --    0.49830   0.50103   0.50264   0.50510   0.50700
 Alpha virt. eigenvalues --    0.50864   0.51023   0.51315   0.51398   0.51517
 Alpha virt. eigenvalues --    0.51641   0.51809   0.52109   0.52416   0.52520
 Alpha virt. eigenvalues --    0.52751   0.52882   0.53015   0.53164   0.53424
 Alpha virt. eigenvalues --    0.53729   0.53888   0.54077   0.54401   0.54441
 Alpha virt. eigenvalues --    0.54697   0.54966   0.55140   0.55380   0.55405
 Alpha virt. eigenvalues --    0.55579   0.55903   0.55929   0.56081   0.56336
 Alpha virt. eigenvalues --    0.56608   0.56777   0.57127   0.57204   0.57296
 Alpha virt. eigenvalues --    0.57342   0.57584   0.57805   0.58047   0.58189
 Alpha virt. eigenvalues --    0.58320   0.58397   0.58526   0.58679   0.58848
 Alpha virt. eigenvalues --    0.58927   0.59054   0.59256   0.59351   0.59398
 Alpha virt. eigenvalues --    0.59618   0.59813   0.59902   0.60043   0.60197
 Alpha virt. eigenvalues --    0.60318   0.60630   0.60725   0.60797   0.61007
 Alpha virt. eigenvalues --    0.61174   0.61381   0.61533   0.61751   0.61769
 Alpha virt. eigenvalues --    0.61998   0.62165   0.62262   0.62393   0.62459
 Alpha virt. eigenvalues --    0.62573   0.62677   0.62808   0.62965   0.63035
 Alpha virt. eigenvalues --    0.63100   0.63291   0.63483   0.63529   0.63626
 Alpha virt. eigenvalues --    0.63920   0.64061   0.64227   0.64397   0.64474
 Alpha virt. eigenvalues --    0.64550   0.64714   0.64734   0.64877   0.64988
 Alpha virt. eigenvalues --    0.65199   0.65229   0.65316   0.65428   0.65480
 Alpha virt. eigenvalues --    0.65730   0.65808   0.65859   0.66132   0.66176
 Alpha virt. eigenvalues --    0.66313   0.66395   0.66487   0.66638   0.66755
 Alpha virt. eigenvalues --    0.66918   0.67094   0.67147   0.67238   0.67278
 Alpha virt. eigenvalues --    0.67328   0.67542   0.67577   0.67606   0.67770
 Alpha virt. eigenvalues --    0.67966   0.68006   0.68013   0.68232   0.68325
 Alpha virt. eigenvalues --    0.68391   0.68494   0.68583   0.68645   0.68830
 Alpha virt. eigenvalues --    0.68905   0.69116   0.69185   0.69358   0.69473
 Alpha virt. eigenvalues --    0.69636   0.69817   0.69872   0.70013   0.70097
 Alpha virt. eigenvalues --    0.70325   0.70364   0.70429   0.70544   0.70641
 Alpha virt. eigenvalues --    0.70666   0.70921   0.71013   0.71339   0.71387
 Alpha virt. eigenvalues --    0.71474   0.71720   0.71816   0.71842   0.71942
 Alpha virt. eigenvalues --    0.72315   0.72455   0.72591   0.72775   0.72928
 Alpha virt. eigenvalues --    0.73181   0.73290   0.73297   0.73654   0.73871
 Alpha virt. eigenvalues --    0.73944   0.74183   0.74232   0.74528   0.74834
 Alpha virt. eigenvalues --    0.75003   0.75341   0.75472   0.75859   0.75945
 Alpha virt. eigenvalues --    0.76190   0.76210   0.76620   0.76779   0.76906
 Alpha virt. eigenvalues --    0.77138   0.77285   0.77598   0.77694   0.77976
 Alpha virt. eigenvalues --    0.78332   0.78532   0.78540   0.78959   0.79199
 Alpha virt. eigenvalues --    0.79625   0.79916   0.80230   0.80422   0.80574
 Alpha virt. eigenvalues --    0.80681   0.80856   0.81135   0.81423   0.81577
 Alpha virt. eigenvalues --    0.82079   0.82478   0.82810   0.83047   0.83353
 Alpha virt. eigenvalues --    0.83640   0.83992   0.84327   0.84598   0.84640
 Alpha virt. eigenvalues --    0.85375   0.85733   0.86037   0.86186   0.86728
 Alpha virt. eigenvalues --    0.86971   0.87248   0.87389   0.87903   0.88247
 Alpha virt. eigenvalues --    0.88513   0.88725   0.89373   0.89502   0.89657
 Alpha virt. eigenvalues --    0.90032   0.90311   0.90868   0.91218   0.91500
 Alpha virt. eigenvalues --    0.91772   0.91938   0.92266   0.92651   0.92770
 Alpha virt. eigenvalues --    0.93201   0.93229   0.93470   0.93868   0.94058
 Alpha virt. eigenvalues --    0.94501   0.94655   0.95292   0.95503   0.95814
 Alpha virt. eigenvalues --    0.96084   0.96183   0.96498   0.96733   0.97001
 Alpha virt. eigenvalues --    0.97495   0.97693   0.97781   0.97923   0.98295
 Alpha virt. eigenvalues --    0.98519   0.98612   0.99135   0.99474   0.99528
 Alpha virt. eigenvalues --    0.99852   1.00005   1.00665   1.00872   1.01016
 Alpha virt. eigenvalues --    1.01287   1.01608   1.02000   1.02033   1.02547
 Alpha virt. eigenvalues --    1.02905   1.03309   1.03437   1.03968   1.04165
 Alpha virt. eigenvalues --    1.04647   1.04948   1.05205   1.05625   1.05978
 Alpha virt. eigenvalues --    1.06234   1.06450   1.06715   1.07003   1.07283
 Alpha virt. eigenvalues --    1.07542   1.07946   1.08317   1.08533   1.08603
 Alpha virt. eigenvalues --    1.09082   1.09519   1.09627   1.09707   1.09877
 Alpha virt. eigenvalues --    1.10398   1.10622   1.10907   1.11057   1.11169
 Alpha virt. eigenvalues --    1.11347   1.11778   1.12154   1.12199   1.12483
 Alpha virt. eigenvalues --    1.13010   1.13128   1.13288   1.13626   1.13917
 Alpha virt. eigenvalues --    1.14205   1.14307   1.14584   1.14995   1.15555
 Alpha virt. eigenvalues --    1.15681   1.15750   1.15920   1.16605   1.16966
 Alpha virt. eigenvalues --    1.17025   1.17158   1.17558   1.17743   1.17979
 Alpha virt. eigenvalues --    1.18292   1.18537   1.18901   1.18948   1.19266
 Alpha virt. eigenvalues --    1.19363   1.19562   1.19740   1.19916   1.20283
 Alpha virt. eigenvalues --    1.20464   1.20720   1.21217   1.21425   1.21690
 Alpha virt. eigenvalues --    1.21887   1.22030   1.22251   1.22440   1.22491
 Alpha virt. eigenvalues --    1.22862   1.23167   1.23358   1.23460   1.23987
 Alpha virt. eigenvalues --    1.24337   1.24464   1.24987   1.25095   1.25397
 Alpha virt. eigenvalues --    1.25836   1.26068   1.26173   1.26357   1.26436
 Alpha virt. eigenvalues --    1.27367   1.27629   1.27921   1.28238   1.28381
 Alpha virt. eigenvalues --    1.28427   1.28762   1.29064   1.29269   1.29636
 Alpha virt. eigenvalues --    1.30133   1.30407   1.30451   1.30667   1.31176
 Alpha virt. eigenvalues --    1.31456   1.31675   1.32267   1.32431   1.32808
 Alpha virt. eigenvalues --    1.33050   1.33165   1.33777   1.33987   1.34441
 Alpha virt. eigenvalues --    1.34536   1.34865   1.35006   1.35564   1.35711
 Alpha virt. eigenvalues --    1.35730   1.36107   1.36270   1.36444   1.36933
 Alpha virt. eigenvalues --    1.37247   1.37481   1.37739   1.38080   1.38183
 Alpha virt. eigenvalues --    1.38473   1.38960   1.39033   1.39358   1.39604
 Alpha virt. eigenvalues --    1.39806   1.39879   1.39952   1.40324   1.40601
 Alpha virt. eigenvalues --    1.40867   1.41154   1.41352   1.41707   1.42100
 Alpha virt. eigenvalues --    1.42267   1.42729   1.42832   1.43138   1.43639
 Alpha virt. eigenvalues --    1.43850   1.44015   1.44413   1.44732   1.45201
 Alpha virt. eigenvalues --    1.45387   1.45714   1.45835   1.46389   1.46645
 Alpha virt. eigenvalues --    1.46700   1.46943   1.47241   1.47575   1.47731
 Alpha virt. eigenvalues --    1.47805   1.47956   1.48647   1.49086   1.49206
 Alpha virt. eigenvalues --    1.49477   1.49553   1.49939   1.50480   1.50847
 Alpha virt. eigenvalues --    1.51173   1.51398   1.51626   1.51918   1.52557
 Alpha virt. eigenvalues --    1.52895   1.53342   1.53613   1.53913   1.54257
 Alpha virt. eigenvalues --    1.54368   1.54723   1.54919   1.55152   1.55384
 Alpha virt. eigenvalues --    1.55701   1.55838   1.55861   1.56482   1.56729
 Alpha virt. eigenvalues --    1.57376   1.57682   1.57774   1.58798   1.59108
 Alpha virt. eigenvalues --    1.59219   1.59814   1.60328   1.60508   1.60905
 Alpha virt. eigenvalues --    1.61139   1.61328   1.61503   1.61781   1.61971
 Alpha virt. eigenvalues --    1.62386   1.62534   1.62914   1.63367   1.63721
 Alpha virt. eigenvalues --    1.63849   1.63990   1.64442   1.64662   1.65072
 Alpha virt. eigenvalues --    1.65152   1.65447   1.66259   1.66319   1.66389
 Alpha virt. eigenvalues --    1.66864   1.66985   1.67634   1.67900   1.67936
 Alpha virt. eigenvalues --    1.68591   1.68752   1.69002   1.69194   1.69401
 Alpha virt. eigenvalues --    1.69669   1.69883   1.69963   1.70392   1.70451
 Alpha virt. eigenvalues --    1.70586   1.70624   1.71043   1.71294   1.71341
 Alpha virt. eigenvalues --    1.71534   1.71724   1.71913   1.72011   1.72405
 Alpha virt. eigenvalues --    1.72454   1.72745   1.72988   1.73112   1.73229
 Alpha virt. eigenvalues --    1.73476   1.73885   1.74026   1.74239   1.74591
 Alpha virt. eigenvalues --    1.74777   1.74902   1.75241   1.75402   1.75631
 Alpha virt. eigenvalues --    1.75705   1.75885   1.76024   1.76221   1.76410
 Alpha virt. eigenvalues --    1.76601   1.76837   1.76905   1.77166   1.77428
 Alpha virt. eigenvalues --    1.77524   1.77827   1.78077   1.78163   1.78374
 Alpha virt. eigenvalues --    1.78573   1.78607   1.78763   1.79021   1.79129
 Alpha virt. eigenvalues --    1.79290   1.79404   1.79509   1.79818   1.80103
 Alpha virt. eigenvalues --    1.80188   1.80339   1.80828   1.80912   1.81046
 Alpha virt. eigenvalues --    1.81214   1.81294   1.81445   1.81625   1.81665
 Alpha virt. eigenvalues --    1.81733   1.82276   1.82330   1.82507   1.82703
 Alpha virt. eigenvalues --    1.82952   1.83201   1.83274   1.83457   1.83677
 Alpha virt. eigenvalues --    1.83808   1.83997   1.84067   1.84287   1.84378
 Alpha virt. eigenvalues --    1.84472   1.85052   1.85277   1.85456   1.85702
 Alpha virt. eigenvalues --    1.85749   1.85922   1.86166   1.86187   1.86317
 Alpha virt. eigenvalues --    1.86409   1.86830   1.86959   1.87146   1.87250
 Alpha virt. eigenvalues --    1.87417   1.87572   1.87765   1.87826   1.88139
 Alpha virt. eigenvalues --    1.88429   1.88638   1.88824   1.88974   1.89177
 Alpha virt. eigenvalues --    1.89325   1.89553   1.89854   1.90153   1.90302
 Alpha virt. eigenvalues --    1.90506   1.90829   1.90940   1.91116   1.91371
 Alpha virt. eigenvalues --    1.91474   1.91623   1.91896   1.92064   1.92258
 Alpha virt. eigenvalues --    1.92541   1.92706   1.92922   1.93216   1.93367
 Alpha virt. eigenvalues --    1.93590   1.93711   1.93939   1.94251   1.94336
 Alpha virt. eigenvalues --    1.94413   1.94610   1.94918   1.94982   1.95044
 Alpha virt. eigenvalues --    1.95369   1.95545   1.95807   1.96075   1.96185
 Alpha virt. eigenvalues --    1.96575   1.97061   1.97298   1.97577   1.97600
 Alpha virt. eigenvalues --    1.97698   1.97889   1.98080   1.98427   1.98548
 Alpha virt. eigenvalues --    1.98786   1.98910   1.99159   1.99406   1.99611
 Alpha virt. eigenvalues --    1.99822   2.00201   2.00477   2.00895   2.01295
 Alpha virt. eigenvalues --    2.01392   2.01774   2.01926   2.02232   2.02460
 Alpha virt. eigenvalues --    2.02615   2.02766   2.03105   2.03223   2.03416
 Alpha virt. eigenvalues --    2.03660   2.04372   2.04728   2.05000   2.05053
 Alpha virt. eigenvalues --    2.05316   2.05726   2.06024   2.06288   2.06605
 Alpha virt. eigenvalues --    2.06769   2.06939   2.07644   2.07924   2.07982
 Alpha virt. eigenvalues --    2.08300   2.08795   2.08897   2.09142   2.09246
 Alpha virt. eigenvalues --    2.09931   2.10038   2.10231   2.10371   2.10507
 Alpha virt. eigenvalues --    2.10605   2.11122   2.11355   2.11852   2.12106
 Alpha virt. eigenvalues --    2.12311   2.12414   2.12622   2.12878   2.13110
 Alpha virt. eigenvalues --    2.13290   2.13490   2.14043   2.14294   2.14503
 Alpha virt. eigenvalues --    2.15251   2.15443   2.15722   2.16301   2.16733
 Alpha virt. eigenvalues --    2.17071   2.17146   2.17344   2.17430   2.17766
 Alpha virt. eigenvalues --    2.18129   2.18508   2.18604   2.18975   2.19023
 Alpha virt. eigenvalues --    2.19071   2.19444   2.19875   2.20461   2.20755
 Alpha virt. eigenvalues --    2.20818   2.21309   2.21663   2.21913   2.22053
 Alpha virt. eigenvalues --    2.22389   2.22516   2.23381   2.23487   2.23655
 Alpha virt. eigenvalues --    2.24261   2.24628   2.25025   2.25179   2.25493
 Alpha virt. eigenvalues --    2.25604   2.25900   2.26001   2.26292   2.27064
 Alpha virt. eigenvalues --    2.27344   2.27412   2.27854   2.28069   2.28227
 Alpha virt. eigenvalues --    2.28551   2.29603   2.29620   2.29912   2.30442
 Alpha virt. eigenvalues --    2.30706   2.31115   2.31331   2.31506   2.32371
 Alpha virt. eigenvalues --    2.32456   2.32827   2.32902   2.33184   2.33609
 Alpha virt. eigenvalues --    2.33957   2.34237   2.34403   2.34750   2.34790
 Alpha virt. eigenvalues --    2.35046   2.35143   2.36202   2.36948   2.36960
 Alpha virt. eigenvalues --    2.37066   2.37377   2.37505   2.37710   2.38413
 Alpha virt. eigenvalues --    2.38753   2.38911   2.39401   2.39644   2.39948
 Alpha virt. eigenvalues --    2.40394   2.40871   2.41072   2.41187   2.41542
 Alpha virt. eigenvalues --    2.41745   2.42082   2.42257   2.42564   2.42981
 Alpha virt. eigenvalues --    2.43323   2.43802   2.44189   2.44413   2.44581
 Alpha virt. eigenvalues --    2.44754   2.45246   2.45395   2.45536   2.45835
 Alpha virt. eigenvalues --    2.46190   2.46590   2.46830   2.47597   2.47707
 Alpha virt. eigenvalues --    2.47917   2.48195   2.48362   2.48515   2.48972
 Alpha virt. eigenvalues --    2.49929   2.50005   2.50075   2.50508   2.50747
 Alpha virt. eigenvalues --    2.51347   2.52207   2.52589   2.52770   2.53102
 Alpha virt. eigenvalues --    2.53292   2.53437   2.54186   2.54287   2.54825
 Alpha virt. eigenvalues --    2.55157   2.55630   2.55807   2.56093   2.56273
 Alpha virt. eigenvalues --    2.56874   2.56997   2.57266   2.57432   2.57597
 Alpha virt. eigenvalues --    2.58116   2.58578   2.58692   2.58728   2.59242
 Alpha virt. eigenvalues --    2.59386   2.60182   2.60219   2.60478   2.60649
 Alpha virt. eigenvalues --    2.60980   2.61339   2.61631   2.61826   2.61878
 Alpha virt. eigenvalues --    2.62317   2.63184   2.63722   2.64178   2.64242
 Alpha virt. eigenvalues --    2.64251   2.64456   2.64621   2.65628   2.66012
 Alpha virt. eigenvalues --    2.66283   2.66370   2.66641   2.66869   2.67032
 Alpha virt. eigenvalues --    2.67584   2.67914   2.67986   2.68860   2.69319
 Alpha virt. eigenvalues --    2.69481   2.69851   2.70320   2.70338   2.70644
 Alpha virt. eigenvalues --    2.70798   2.71006   2.71193   2.71835   2.71986
 Alpha virt. eigenvalues --    2.72039   2.72199   2.72387   2.72751   2.73165
 Alpha virt. eigenvalues --    2.73568   2.73665   2.73974   2.74488   2.74799
 Alpha virt. eigenvalues --    2.75009   2.75132   2.75339   2.75629   2.75775
 Alpha virt. eigenvalues --    2.75883   2.76264   2.76717   2.77009   2.77228
 Alpha virt. eigenvalues --    2.77549   2.77674   2.78201   2.78332   2.78674
 Alpha virt. eigenvalues --    2.78813   2.79063   2.79504   2.79850   2.80035
 Alpha virt. eigenvalues --    2.80428   2.80580   2.80683   2.80941   2.81252
 Alpha virt. eigenvalues --    2.81379   2.81578   2.81899   2.82129   2.82306
 Alpha virt. eigenvalues --    2.82566   2.83214   2.83470   2.83595   2.84308
 Alpha virt. eigenvalues --    2.84580   2.84871   2.85183   2.85275   2.85367
 Alpha virt. eigenvalues --    2.85710   2.86207   2.86554   2.86984   2.87052
 Alpha virt. eigenvalues --    2.87258   2.87672   2.88147   2.88260   2.89043
 Alpha virt. eigenvalues --    2.89133   2.89201   2.89466   2.89909   2.90083
 Alpha virt. eigenvalues --    2.90449   2.90908   2.91569   2.91836   2.91959
 Alpha virt. eigenvalues --    2.92176   2.92960   2.93190   2.93384   2.93657
 Alpha virt. eigenvalues --    2.93956   2.94135   2.94304   2.94806   2.94898
 Alpha virt. eigenvalues --    2.95245   2.95723   2.95951   2.96306   2.96451
 Alpha virt. eigenvalues --    2.96485   2.96895   2.97414   2.97727   2.98234
 Alpha virt. eigenvalues --    2.98690   2.99022   2.99246   2.99352   2.99429
 Alpha virt. eigenvalues --    2.99592   3.00394   3.00751   3.00846   3.01393
 Alpha virt. eigenvalues --    3.01441   3.01948   3.02198   3.02711   3.03128
 Alpha virt. eigenvalues --    3.03181   3.03851   3.03979   3.04275   3.04937
 Alpha virt. eigenvalues --    3.05062   3.05127   3.05448   3.06033   3.06195
 Alpha virt. eigenvalues --    3.07558   3.07943   3.08089   3.08233   3.08697
 Alpha virt. eigenvalues --    3.09078   3.09830   3.10878   3.11129   3.11297
 Alpha virt. eigenvalues --    3.11596   3.11685   3.11763   3.11884   3.12930
 Alpha virt. eigenvalues --    3.13102   3.13618   3.14522   3.14674   3.15157
 Alpha virt. eigenvalues --    3.16019   3.16245   3.16589   3.16927   3.17063
 Alpha virt. eigenvalues --    3.17608   3.18014   3.18250   3.18322   3.18622
 Alpha virt. eigenvalues --    3.18645   3.18914   3.19520   3.19588   3.19761
 Alpha virt. eigenvalues --    3.20388   3.21370   3.21900   3.22600   3.22971
 Alpha virt. eigenvalues --    3.22996   3.23568   3.24278   3.25082   3.25295
 Alpha virt. eigenvalues --    3.25692   3.26128   3.26613   3.26828   3.27284
 Alpha virt. eigenvalues --    3.27482   3.28826   3.29101   3.29895   3.30217
 Alpha virt. eigenvalues --    3.31374   3.31477   3.31836   3.32591   3.33431
 Alpha virt. eigenvalues --    3.34963   3.35947   3.36693   3.37891   3.38170
 Alpha virt. eigenvalues --    3.40480   3.44633   3.46197   3.49232   3.50656
 Alpha virt. eigenvalues --    3.52841   3.54104   3.54320   3.55367   3.56140
 Alpha virt. eigenvalues --    3.56389   3.56397   3.56508   3.60241   3.60434
 Alpha virt. eigenvalues --    3.61154   3.61386   3.62411   3.63171   3.63967
 Alpha virt. eigenvalues --    3.64865   3.65569   3.66320   3.66574   3.67625
 Alpha virt. eigenvalues --    3.68074   3.68973   3.69026   3.69671   3.70137
 Alpha virt. eigenvalues --    3.70857   3.71168   3.71864   3.72280   3.72788
 Alpha virt. eigenvalues --    3.72931   3.73436   3.73682   3.74134   3.74954
 Alpha virt. eigenvalues --    3.75734   3.83320   3.86892   4.01108
          Condensed to atoms (all electrons):
 Mulliken charges:
               1
     1  C    0.090068
     2  C    0.014796
     3  O   -0.328273
     4  H    0.062976
     5  H   -0.011038
     6  H    0.008183
     7  N   -0.121345
     8  C    0.066309
     9  C    0.091140
    10  O   -0.266242
    11  C    0.084531
    12  C    0.154789
    13  O   -0.449538
    14  O   -0.381761
    15  H    0.124975
    16  H    0.044907
    17  H    0.001506
    18  H    0.011159
    19  N   -0.140988
    20  C    0.173021
    21  C    0.016516
    22  O   -0.276381
    23  C    0.041569
    24  C    0.042230
    25  C   -0.062645
    26  C    0.035670
    27  N    0.080762
    28  H    0.124658
    29  H    0.019982
    30  H    0.029539
    31  H   -0.008629
    32  H   -0.013671
    33  H    0.014807
    34  H    0.014978
    35  H    0.039648
    36  H    0.076859
    37  H    0.097034
    38  H    0.191286
    39  H    0.189010
    40  H    0.216907
    41  N   -0.146443
    42  C    0.080613
    43  C    0.070077
    44  O   -0.283631
    45  C    0.152908
    46  C    0.094031
    47  O   -0.457120
    48  O   -0.424445
    49  H    0.132234
    50  H    0.020408
    51  H   -0.002804
    52  H    0.025853
    53  N   -0.152373
    54  C    0.242668
    55  C    0.040029
    56  O   -0.287094
    57  H    0.143678
    58  H    0.001723
    59  H    0.039824
    60  N   -0.162259
    61  C    0.149761
    62  C    0.059259
    63  O   -0.287313
    64  C    0.093180
    65  C    0.066443
    66  N   -0.037833
    67  O   -0.372585
    68  H    0.144497
    69  H    0.028284
    70  H    0.057490
    71  H    0.011626
    72  H    0.127680
    73  H    0.117084
    74  N   -0.182602
    75  C    0.258662
    76  C   -0.011828
    77  O   -0.304071
    78  H    0.136642
    79  H    0.029991
    80  H    0.033818
    81  N   -0.126064
    82  C    0.122212
    83  C    0.116705
    84  O   -0.327359
    85  C    0.132685
    86  C    0.024509
    87  C   -0.012131
    88  C    0.020241
    89  C   -0.022438
    90  C   -0.063147
    91  C    0.159198
    92  O   -0.187008
    93  H    0.149735
    94  H   -0.014563
    95  H   -0.012968
    96  H   -0.046131
    97  H   -0.038355
    98  H   -0.039353
    99  H   -0.033364
   100  H   -0.042779
   101  H    0.164183
   102  N   -0.107234
   103  C    0.226562
   104  C    0.008023
   105  O   -0.287693
   106  C   -0.164102
   107  C    0.053827
   108  C    0.099331
   109  C    0.007760
   110  H    0.128560
   111  H   -0.013534
   112  H   -0.016162
   113  H    0.029053
   114  H    0.004854
   115  H    0.028305
   116  H    0.010892
   117  H   -0.010857
   118  H   -0.015211
   119  H   -0.015624
   120  H    0.012393
   121  N   -0.132826
   122  C    0.018437
   123  C    0.148070
   124  O   -0.281001
   125  C    0.282184
   126  O   -0.351792
   127  H    0.149290
   128  H    0.021170
   129  H   -0.003917
   130  H   -0.035112
   131  H    0.156057
   132  N   -0.124775
   133  C    0.106126
   134  C    0.050888
   135  O   -0.249886
   136  C    0.027245
   137  H    0.135175
   138  H    0.015513
   139  H    0.038649
   140  H    0.033891
   141  H    0.016244
   142  N   -0.167688
   143  C    0.097360
   144  C    0.101320
   145  O   -0.296890
   146  C    0.017075
   147  H    0.117730
   148  H    0.030230
   149  H    0.035599
   150  H    0.019096
   151  H    0.014619
   152  N   -0.111859
   153  C    0.182332
   154  C    0.061881
   155  O   -0.320517
   156  C   -0.080917
   157  C    0.133889
   158  C    0.167450
   159  O   -0.432723
   160  O   -0.415704
   161  H    0.114020
   162  H   -0.024941
   163  H    0.016531
   164  H   -0.003310
   165  H   -0.008955
   166  H   -0.003106
   167  N   -0.164256
   168  C    0.140881
   169  H    0.021931
   170  H    0.030534
   171  H    0.000054
   172  H    0.131213
   173  Ca   1.303142
   174  O   -0.296478
   175  H    0.160249
   176  H    0.162261
 Sum of Mulliken charges =  -0.00000
 Mulliken charges with hydrogens summed into heavy atoms:
               1
     1  C    0.150190
     2  C    0.014796
     3  O   -0.328273
     7  N    0.003630
     8  C    0.111216
     9  C    0.091140
    10  O   -0.266242
    11  C    0.097196
    12  C    0.154789
    13  O   -0.449538
    14  O   -0.381761
    19  N   -0.016331
    20  C    0.193003
    21  C    0.016516
    22  O   -0.276381
    23  C    0.062479
    24  C    0.043366
    25  C   -0.008020
    26  C    0.209563
    27  N    0.677966
    41  N   -0.014209
    42  C    0.101021
    43  C    0.070077
    44  O   -0.283631
    45  C    0.175958
    46  C    0.094031
    47  O   -0.457120
    48  O   -0.424445
    53  N   -0.008694
    54  C    0.284214
    55  C    0.040029
    56  O   -0.287094
    60  N   -0.017762
    61  C    0.178045
    62  C    0.059259
    63  O   -0.287313
    64  C    0.162297
    65  C    0.066443
    66  N    0.206931
    67  O   -0.372585
    74  N   -0.045960
    75  C    0.322471
    76  C   -0.011828
    77  O   -0.304071
    81  N    0.023671
    82  C    0.107649
    83  C    0.116705
    84  O   -0.327359
    85  C    0.073586
    86  C    0.024509
    87  C   -0.050486
    88  C   -0.019112
    89  C   -0.055801
    90  C   -0.105926
    91  C    0.159198
    92  O   -0.022825
   102  N    0.021326
   103  C    0.213028
   104  C    0.008023
   105  O   -0.287693
   106  C   -0.180264
   107  C    0.087735
   108  C    0.127671
   109  C   -0.010682
   121  N    0.016464
   122  C    0.039608
   123  C    0.148070
   124  O   -0.281001
   125  C    0.243155
   126  O   -0.195735
   132  N    0.010399
   133  C    0.121639
   134  C    0.050888
   135  O   -0.249886
   136  C    0.116029
   142  N   -0.049958
   143  C    0.127590
   144  C    0.101320
   145  O   -0.296890
   146  C    0.086388
   152  N    0.002161
   153  C    0.157391
   154  C    0.061881
   155  O   -0.320517
   156  C   -0.067696
   157  C    0.121828
   158  C    0.167450
   159  O   -0.432723
   160  O   -0.415704
   167  N   -0.033043
   168  C    0.193400
   173  Ca   1.303142
   174  O    0.026032
 DipInt: DoE/N= T F RetVal/Mat= T F Init=T NMatP=  1 IDeriv=0 Min/MaxMlt=  0  4
 Entering OneElI...
 OneElI was handed  1333951383 working-precision words.
 Multipole integrals L=0 to 4 MinM= 0 MaxM= 0.
 Requested accuracy = 0.1000D-12
 ShPair: Thresh= 1.00D-13 NBox=     0 BxSize= 0.00D+00 RnKept= 2.55D+01
         NSMCal=               327645 NSMKep=              152878
 PrmmSu-InSpLW:  IPartL=    0 NPrtUS=    1 NPrtUL=    1 DoSpLW=F IThBeg=    0 IThEnd=    0 NThAct=    1.
 PrsmSu:  NPrtUS=   1 ThrOK=F IAlg=1 NPAlg=1 LenDen=           0 ISkipM=0 DoSpLW=F IThBeg=    0 IThEnd=    0.
 Prism:   IPart=     0 DynPar=F LinDyn=F Incr=         512.
 PRISM was handed  1324172729 working-precision words and152878 shell-pairs
 IPart=  0 NShTot=      152878 NBatch=         351 AvBLen=       435.5
 PrsmSu-ThDecC:  IPartSL=    0    0 NPrtUSL=    1    1 IThBeg=    0 IThEnd=    0 CPU=   -1 GPU=   -1 NThAct=    1.
 PrSmSu:  NxtVal=            513.
 Electronic moments (au):
       -716.00000000         12.65612384          6.27842098          0.71861831
     -55326.59713941     -37408.12532357      -9834.44884920         35.05464846
        -15.69087583         53.15635786    -198126.70913704     -21239.15984506
     -10186.83074957      83642.79515192      54155.73221574      62095.26664934
      -6421.58571934      -2787.50768734      -4101.14717248     -16725.55890852
   -8790897.34938370   -5474568.64406490    -366393.53190159     403834.65808656
     472824.63313198    -832228.89117935    -132892.15606059     -18093.66334634
      22642.51607170   -1892930.98227170    -686309.14916206    -298812.16023634
        666.42589302    -112896.11780072      16446.64872823
 Electronic spatial extent (au):  <R**2>=         102569.1713
 DipInt: DoE/N= F T RetVal/Mat= T F Init=T NMatP=  1 IDeriv=0 Min/MaxMlt=  0  4
 Nuclear    moments (au):
        716.00000000         -0.00000000          0.00000000          0.00000000
      54784.21347489      37145.20719130       9433.66012352          0.00000000
         -0.00000000          0.00000000     199644.34135980      23528.44552135
      10148.10618609     -81948.09612439     -54744.42842978     -62185.59561407
       6635.74435067       2841.56475436       4352.69260715      16639.36141470
    8571676.87840978    5386571.30935261     332956.01178708    -411313.03681776
    -480019.28916976     847456.82167961     136832.82782711      18465.43684472
     -20741.75187886    1838967.22900766     648533.31922691     271730.88285353
       3867.66484970     112248.51144305     -15733.98724828
 Total      moments (au):
         -0.00000000         12.65612384          6.27842098          0.71861831
       -542.38366452       -262.91813227       -400.78872568         35.05464846
        -15.69087583         53.15635786       1517.63222276       2289.28567630
        -38.72456348       1694.69902753       -588.69621404        -90.32896473
        214.15863133         54.05706702        251.54543468        -86.19749381
    -219220.47097392     -87997.33471229     -33437.52011451      -7478.37873120
      -7194.65603778      15227.93050026       3940.67176652        371.77349837
       1900.76419284     -53963.75326404     -37775.82993514     -27081.27738280
       4534.09074272       -647.60635767        712.66147995
 Traceless Quadrup. (au):
       -140.35349036        139.11204189          1.24144847         35.05464846
        -15.69087583         53.15635786
 Charge=             -0.0000 electrons
 Dipole moment (field-independent basis, Debye):
    X=             32.1687    Y=             15.9582    Z=              1.8265  Tot=             35.9558
 Quadrupole moment (field-independent basis, Debye-Ang):
   XX=           -729.5246   YY=           -353.6339   ZZ=           -539.0746
   XY=             47.1497   XZ=            -21.1048   YZ=             71.4971
 Traceless Quadrupole moment (field-independent basis, Debye-Ang):
   XX=           -188.7803   YY=            187.1105   ZZ=              1.6698
   XY=             47.1497   XZ=            -21.1048   YZ=             71.4971
 Octapole moment (field-independent basis, Debye-Ang**2):
  XXX=           1080.1921  YYY=           1629.4253  ZZZ=            -27.5627  XYY=           1206.2215
  XXY=           -419.0113  XXZ=            -64.2927  XZZ=            152.4299  YZZ=             38.4757
  YYZ=            179.0403  XYZ=            -61.3521
 Hexadecapole moment (field-independent basis, Debye-Ang**3):
 XXXX=         -82568.9413 YYYY=         -33144.0159 ZZZZ=         -12594.1735 XXXY=          -2816.7160
 XXXZ=          -2709.8525 YYYX=           5735.5688 YYYZ=           1484.2459 ZZZX=            140.0277
 ZZZY=            715.9189 XXYY=         -20325.3371 XXZZ=         -14228.1890 YYZZ=         -10200.1077
 XXYZ=           1707.7560 YYXZ=           -243.9196 ZZXY=            268.4225
 N-N= 2.127700355695D+04 E-N=-5.503388058299D+04  KE= 5.290735020077D+03
 Leave Link  601 at Sat Sep 14 22:38:37 2019, MaxMem=  1342177280 cpu:              47.7 elap:               1.2
 FitSet:  NAtFit=   176 NAtPot=   176 NAtFrz=     0 MDM=   180 TotChg=   0.00000
 Merz-Kollman atomic radii used.
 Read replacement radii for each type of atom:
 Rad(20) =   1.700000000000D+00
 Atom Element Radius
    1     6    1.50
    2     6    1.50
    3     8    1.40
    4     1    1.20
    5     1    1.20
    6     1    1.20
    7     7    1.50
    8     6    1.50
    9     6    1.50
   10     8    1.40
   11     6    1.50
   12     6    1.50
   13     8    1.40
   14     8    1.40
   15     1    1.20
   16     1    1.20
   17     1    1.20
   18     1    1.20
   19     7    1.50
   20     6    1.50
   21     6    1.50
   22     8    1.40
   23     6    1.50
   24     6    1.50
   25     6    1.50
   26     6    1.50
   27     7    1.50
   28     1    1.20
   29     1    1.20
   30     1    1.20
   31     1    1.20
   32     1    1.20
   33     1    1.20
   34     1    1.20
   35     1    1.20
   36     1    1.20
   37     1    1.20
   38     1    1.20
   39     1    1.20
   40     1    1.20
   41     7    1.50
   42     6    1.50
   43     6    1.50
   44     8    1.40
   45     6    1.50
   46     6    1.50
   47     8    1.40
   48     8    1.40
   49     1    1.20
   50     1    1.20
   51     1    1.20
   52     1    1.20
   53     7    1.50
   54     6    1.50
   55     6    1.50
   56     8    1.40
   57     1    1.20
   58     1    1.20
   59     1    1.20
   60     7    1.50
   61     6    1.50
   62     6    1.50
   63     8    1.40
   64     6    1.50
   65     6    1.50
   66     7    1.50
   67     8    1.40
   68     1    1.20
   69     1    1.20
   70     1    1.20
   71     1    1.20
   72     1    1.20
   73     1    1.20
   74     7    1.50
   75     6    1.50
   76     6    1.50
   77     8    1.40
   78     1    1.20
   79     1    1.20
   80     1    1.20
   81     7    1.50
   82     6    1.50
   83     6    1.50
   84     8    1.40
   85     6    1.50
   86     6    1.50
   87     6    1.50
   88     6    1.50
   89     6    1.50
   90     6    1.50
   91     6    1.50
   92     8    1.40
   93     1    1.20
   94     1    1.20
   95     1    1.20
   96     1    1.20
   97     1    1.20
   98     1    1.20
   99     1    1.20
  100     1    1.20
  101     1    1.20
  102     7    1.50
  103     6    1.50
  104     6    1.50
  105     8    1.40
  106     6    1.50
  107     6    1.50
  108     6    1.50
  109     6    1.50
  110     1    1.20
  111     1    1.20
  112     1    1.20
  113     1    1.20
  114     1    1.20
  115     1    1.20
  116     1    1.20
  117     1    1.20
  118     1    1.20
  119     1    1.20
  120     1    1.20
  121     7    1.50
  122     6    1.50
  123     6    1.50
  124     8    1.40
  125     6    1.50
  126     8    1.40
  127     1    1.20
  128     1    1.20
  129     1    1.20
  130     1    1.20
  131     1    1.20
  132     7    1.50
  133     6    1.50
  134     6    1.50
  135     8    1.40
  136     6    1.50
  137     1    1.20
  138     1    1.20
  139     1    1.20
  140     1    1.20
  141     1    1.20
  142     7    1.50
  143     6    1.50
  144     6    1.50
  145     8    1.40
  146     6    1.50
  147     1    1.20
  148     1    1.20
  149     1    1.20
  150     1    1.20
  151     1    1.20
  152     7    1.50
  153     6    1.50
  154     6    1.50
  155     8    1.40
  156     6    1.50
  157     6    1.50
  158     6    1.50
  159     8    1.40
  160     8    1.40
  161     1    1.20
  162     1    1.20
  163     1    1.20
  164     1    1.20
  165     1    1.20
  166     1    1.20
  167     7    1.50
  168     6    1.50
  169     1    1.20
  170     1    1.20
  171     1    1.20
  172     1    1.20
  173    20    1.70
  174     8    1.40
[...]
 **** Fit       0.045117
 **** Fit       0.056851
 **** Fit       0.052228
 **** Fit       0.039629
 **** Fit      -0.002919
 **** Fit       0.013094
 **** Fit       0.028456
 **** Fit       0.042419
 **** Fit       0.053427
 **** Fit       0.059619
 **** Fit       0.059766
 **** Fit       0.054064
 **** Fit       0.044190
 **** Fit      -0.000074
 **** Fit       0.015530
 **** Fit       0.029593
 **** Fit       0.041478
 **** Fit       0.049905
 **** Fit       0.053609
 **** Fit       0.052121
 **** Fit       0.046141
 **** Fit       0.003791
 **** Fit       0.018175
 **** Fit       0.030161
 **** Fit       0.039137
 **** Fit       0.044196
 **** Fit       0.044824
 **** Fit       0.041365
 **** Fit       0.006317
 **** Fit       0.018560
 **** Fit       0.027905
 **** Fit       0.033933
 **** Fit       0.036262
 **** Fit       0.035024
 **** Fit       0.012230
 **** Fit       0.021049
 **** Fit       0.026376
 **** Fit       0.028120
 **** Fit       0.026707
 **** Fit       0.006653
 **** Fit       0.014903
 **** Fit       0.019610
 **** Fit       0.020902
 **** Fit       0.004249
 **** Fit       0.011191
 **** Fit       0.014397
 **** Fit       0.004385
 **** Fit       0.008846
 **** Fit       0.004189
 **** Fit       0.034095
 **** Fit       0.004923
 **** Fit       0.005046
 **** Fit       0.008002
 **** Fit       0.006539
 **** Fit       0.005815
 **** Fit       0.005783
 **** Fit       0.005912
 **** Fit      -0.009263
 **** Fit      -0.000173
 **** Fit       0.007322
 **** Fit       0.006892
 **** Fit       0.006141
 **** Fit       0.005677
 **** Fit       0.005332
 **** Fit       0.004705
 **** Fit       0.000110
 **** Fit      -0.001407
 **** Fit      -0.003588
 **** Fit      -0.005997
 **** Fit      -0.007415
 **** Fit      -0.006277
 **** Fit      -0.002304
 **** Fit       0.002622
 **** Fit       0.006151
 **** Fit       0.005438
 **** Fit       0.005588
 **** Fit       0.005123
 **** Fit       0.004431
 **** Fit       0.003364
 **** Fit       0.002046
 **** Fit       0.000660
 **** Fit      -0.000928
 **** Fit      -0.002396
 **** Fit      -0.002343
 **** Fit       0.000185
 **** Fit       0.003573
 **** Fit       0.003838
 **** Fit       0.004080
 **** Fit       0.003031
 **** Fit       0.001468
 **** Fit       0.000396
 **** Fit       0.001661
 **** Fit       0.002522
 **** Fit       0.037008
 **** Fit       0.032195
 **** Fit       0.041612
 **** Fit       0.040831
 **** Fit       0.034829
 **** Fit       0.023979
 **** Fit       0.040588
 **** Fit       0.042316
 **** Fit       0.040026
 **** Fit       0.033467
 **** Fit       0.023107
 **** Fit       0.009868
 **** Fit      -0.005302
 **** Fit       0.036898
 **** Fit       0.039299
 **** Fit       0.038540
 **** Fit       0.034272
 **** Fit       0.026639
 **** Fit       0.016168
 **** Fit       0.003551
 **** Fit      -0.010630
 **** Fit       0.029065
 **** Fit       0.032980
 **** Fit       0.034607
 **** Fit       0.033353
 **** Fit       0.029031
 **** Fit       0.021829
 **** Fit       0.012228
 **** Fit       0.000826
 **** Fit      -0.011737
 **** Fit       0.021684
 **** Fit       0.026005
 **** Fit       0.028622
 **** Fit       0.028900
 **** Fit       0.026508
 **** Fit       0.021465
 **** Fit       0.014106
 **** Fit       0.004998
 **** Fit      -0.005135
 **** Fit      -0.015270
 **** Fit       0.015313
 **** Fit       0.019408
 **** Fit       0.022407
 **** Fit       0.023667
 **** Fit       0.022770
 **** Fit       0.019598
 **** Fit       0.014346
 **** Fit       0.007488
 **** Fit      -0.000272
 **** Fit      -0.007978
 **** Fit      -0.014379
 **** Fit       0.011438
 **** Fit       0.014917
 **** Fit       0.017599
 **** Fit       0.018764
 **** Fit       0.017948
 **** Fit       0.015040
 **** Fit       0.010316
 **** Fit       0.004398
 **** Fit      -0.001790
 **** Fit      -0.007087
 **** Fit      -0.010335
 **** Fit       0.011302
 **** Fit       0.013539
 **** Fit       0.014542
 **** Fit       0.013789
 **** Fit       0.011183
 **** Fit       0.007100
 **** Fit       0.002338
 **** Fit      -0.002017
 **** Fit      -0.004869
 **** Fit       0.010432
 **** Fit       0.011001
 **** Fit       0.009854
 **** Fit       0.007071
 **** Fit       0.003422
 **** Fit       0.000114
 **** Fit      -0.001736
 **** Fit       0.007951
 **** Fit       0.007809
 **** Fit       0.005789
 **** Fit       0.002892
 **** Fit       0.004723
 **** Fit       0.005701
 **** Fit       0.005884
 **** Fit       0.006258
 **** Fit       0.005764
 **** Fit       0.005091
 **** Fit       0.005228
 **** Fit       0.005487
 **** Fit       0.005809
 **** Fit       0.006180
 **** Fit       0.005587
 **** Fit       0.005273
 **** Fit       0.005108
 **** Fit       0.004451
 **** Fit       0.004559
 **** Fit       0.004796
 **** Fit       0.005093
 **** Fit       0.005368
 **** Fit       0.005599
 **** Fit       0.005883
 **** Fit       0.005174
 **** Fit       0.004876
 **** Fit       0.004646
 **** Fit       0.004490
 **** Fit       0.003711
 **** Fit       0.003774
 **** Fit       0.003985
 **** Fit       0.004289
 **** Fit       0.004596
 **** Fit       0.004809
 **** Fit       0.004880
 **** Fit       0.004874
 **** Fit       0.004970
 **** Fit       0.005385
 **** Fit       0.005075
 **** Fit       0.004788
 **** Fit       0.004529
 **** Fit       0.004266
 **** Fit       0.004006
 **** Fit       0.003801
 **** Fit       0.002806
 **** Fit       0.002826
 **** Fit       0.003035
 **** Fit       0.003382
 **** Fit       0.003277
 **** Fit       0.003350
 **** Fit       0.004029
 **** Fit       0.005069
 **** Fit       0.004815
 **** Fit       0.004588
 **** Fit       0.002977
 **** Fit       0.001669
 **** Fit       0.001644
 **** Fit       0.001845
 **** Fit       0.002229
 **** Fit       0.000178
 **** Fit       0.000483
 **** Fit       0.001741
 **** Fit       0.004886
 **** Fit       0.004761
 **** Fit       0.004628
 **** Fit       0.000165
 **** Fit       0.000376
 **** Fit       0.000804
 **** Fit       0.004241
 **** Fit       0.004396
 **** Fit       0.004517
 **** Fit       0.004515
 **** Fit      -0.001694
 **** Fit      -0.001454
 **** Fit       0.003778
 **** Fit       0.004221
 **** Fit      -0.004028
 **** Fit      -0.003704
 **** Fit       0.002550
 **** Fit       0.003549
 **** Fit       0.004116
 **** Fit      -0.006941
 **** Fit      -0.006427
 **** Fit       0.003673
 **** Fit      -0.010556
 **** Fit      -0.009747
 **** Fit      -0.014999
 **** Fit      -0.013755
 **** Fit      -0.012780
 **** Fit      -0.020273
 **** Fit      -0.018395
 **** Fit      -0.017190
 **** Fit      -0.023645
 **** Fit      -0.022264
 **** Fit      -0.029441
 **** Fit      -0.028053
 **** Fit      -0.034420
 **** Fit       0.003311
 **** Fit       0.004527
 **** Fit       0.004201
 **** Fit       0.003830
 **** Fit       0.003502
 **** Fit       0.002362
 **** Fit       0.004340
 **** Fit       0.003954
 **** Fit       0.003478
 **** Fit       0.003000
 **** Fit       0.002608
 **** Fit       0.001121
 **** Fit       0.001009
 **** Fit       0.004495
 **** Fit       0.004226
 **** Fit       0.003743
 **** Fit       0.003116
 **** Fit       0.002457
 **** Fit       0.001868
 **** Fit       0.001412
 **** Fit      -0.000511
 **** Fit      -0.000639
 **** Fit      -0.000595
 **** Fit       0.004428
 **** Fit       0.004097
 **** Fit       0.003461
 **** Fit       0.002624
 **** Fit       0.001734
 **** Fit       0.000921
 **** Fit       0.000262
 **** Fit      -0.000215
 **** Fit      -0.002671
 **** Fit      -0.002761
 **** Fit      -0.002699
 **** Fit       0.004415
 **** Fit       0.004187
 **** Fit       0.003451
 **** Fit       0.002328
 **** Fit       0.001043
 **** Fit      -0.000177
 **** Fit      -0.001186
 **** Fit      -0.001926
 **** Fit      -0.002407
 **** Fit      -0.005547
 **** Fit      -0.005512
 **** Fit      -0.005364
 **** Fit       0.004187
 **** Fit       0.004232
 **** Fit       0.003486
 **** Fit       0.002034
 **** Fit       0.000200
 **** Fit      -0.001634
 **** Fit      -0.003185
 **** Fit      -0.004322
 **** Fit      -0.005041
 **** Fit      -0.005418
 **** Fit      -0.009411
 **** Fit      -0.009107
 **** Fit      -0.008754
 **** Fit       0.003888
 **** Fit       0.003680
 **** Fit       0.002155
 **** Fit      -0.000366
 **** Fit      -0.003224
 **** Fit      -0.005796
 **** Fit      -0.007723
 **** Fit      -0.008917
 **** Fit      -0.009477
 **** Fit      -0.009581
 **** Fit      -0.014656
 **** Fit      -0.013806
 **** Fit      -0.013040
 **** Fit      -0.015458
 **** Fit      -0.019948
 **** Fit      -0.018428
 **** Fit       0.004228
 **** Fit       0.004416
 **** Fit       0.004379
 **** Fit       0.004083
 **** Fit       0.003074
 **** Fit       0.003422
 **** Fit       0.003743
 **** Fit       0.003894
 **** Fit       0.003758
 **** Fit       0.003283
 **** Fit       0.002541
 **** Fit       0.001903
 **** Fit       0.002330
 **** Fit       0.002742
 **** Fit       0.003011
 **** Fit       0.003012
 **** Fit       0.002634
 **** Fit       0.001802
 **** Fit       0.000554
 **** Fit      -0.000861
 **** Fit       0.000401
 **** Fit       0.000891
 **** Fit       0.001364
 **** Fit       0.001707
 **** Fit       0.001813
 **** Fit       0.001561
 **** Fit       0.000822
 **** Fit      -0.000517
 **** Fit      -0.002476
 **** Fit      -0.001451
 **** Fit      -0.000871
 **** Fit      -0.000347
 **** Fit       0.000014
 **** Fit       0.000101
 **** Fit      -0.000223
 **** Fit      -0.001129
 **** Fit      -0.002820
 **** Fit      -0.005481
 **** Fit      -0.003746
 **** Fit      -0.003083
 **** Fit      -0.002532
 **** Fit      -0.002189
 **** Fit      -0.002162
 **** Fit      -0.002594
 **** Fit      -0.003689
 **** Fit      -0.005723
 **** Fit      -0.006541
 **** Fit      -0.005787
 **** Fit      -0.005233
 **** Fit      -0.004967
 **** Fit      -0.005097
 **** Fit      -0.005791
 **** Fit      -0.007302
 **** Fit      -0.009884
 **** Fit      -0.009034
 **** Fit      -0.008538
 **** Fit      -0.008481
 **** Fit      -0.009004
 **** Fit      -0.010356
 **** Fit      -0.012949
 **** Fit      -0.013861
 **** Fit      -0.012972
 **** Fit      -0.012665
 **** Fit      -0.013033
 **** Fit      -0.014295
 **** Fit      -0.016881
 **** Fit      -0.018563
 **** Fit      -0.017775
 **** Fit      -0.017841
 **** Fit      -0.018874
 **** Fit      -0.021221
 **** Fit      -0.023935
 **** Fit      -0.023571
 **** Fit      -0.024514
 **** Fit      -0.030561
 **** Fit       0.008491
 **** Fit       0.007639
 **** Fit       0.008146
 **** Fit       0.009044
 **** Fit       0.009373
 **** Fit       0.008700
 **** Fit       0.007871
 **** Fit       0.006827
 **** Fit       0.007090
 **** Fit       0.007649
 **** Fit       0.008495
 **** Fit       0.009474
 **** Fit       0.010193
 **** Fit       0.010278
 **** Fit       0.009707
 **** Fit       0.008782
 **** Fit       0.007880
 **** Fit       0.007221
 **** Fit       0.006866
 **** Fit       0.006520
 **** Fit       0.006978
 **** Fit       0.007660
 **** Fit       0.008599
 **** Fit       0.009688
 **** Fit       0.010661
 **** Fit       0.011215
 **** Fit       0.011194
 **** Fit       0.010650
 **** Fit       0.009758
 **** Fit       0.008737
 **** Fit       0.007813
 **** Fit       0.007092
 **** Fit       0.006569
 **** Fit       0.006229
 **** Fit       0.006065
 **** Fit       0.006679
 **** Fit       0.007500
 **** Fit       0.008648
 **** Fit       0.009973
 **** Fit       0.011185
 **** Fit       0.011984
 **** Fit       0.012204
 **** Fit       0.011869
 **** Fit       0.011128
 **** Fit       0.010097
 **** Fit       0.008917
 **** Fit       0.007856
 **** Fit       0.007050
 **** Fit       0.006457
 **** Fit       0.006009
 **** Fit       0.005679
 **** Fit       0.005956
 **** Fit       0.007133
 **** Fit       0.008728
 **** Fit       0.010450
 **** Fit       0.011921
 **** Fit       0.012826
 **** Fit       0.013047
 **** Fit       0.012684
 **** Fit       0.007070
 **** Fit       0.006397
 **** Fit       0.005924
 **** Fit       0.005546
 **** Fit       0.006131
 **** Fit       0.008366
 **** Fit       0.010609
 **** Fit       0.012404
 **** Fit       0.013439
 **** Fit       0.013678
 **** Fit       0.006071
 **** Fit       0.005662
 **** Fit       0.005380
 **** Fit       0.003165
 **** Fit       0.006430
 **** Fit       0.009627
 **** Fit       0.012120
 **** Fit       0.013537
 **** Fit       0.013929
 **** Fit       0.004901
 **** Fit       0.004872
 **** Fit       0.002945
 **** Fit       0.007477
 **** Fit       0.010893
 **** Fit       0.012881
 **** Fit       0.009871
 **** Fit      -0.009686
 **** Fit       0.003654
 **** Fit       0.001128
 **** Fit      -0.002030
 **** Fit      -0.005627
 **** Fit       0.005642
 **** Fit       0.004128
 **** Fit       0.001025
 **** Fit      -0.002839
 **** Fit       0.012047
 **** Fit       0.009231
 **** Fit       0.006709
 **** Fit       0.002933
 **** Fit      -0.001262
 **** Fit      -0.006914
 **** Fit       0.010427
 **** Fit       0.008707
 **** Fit       0.006135
 **** Fit      -0.000310
 **** Fit       0.001467
 **** Fit       0.004387
 **** Fit       0.003301
 **** Fit       0.002000
 **** Fit       0.004286
 **** Fit       0.007287
 **** Fit       0.007520
 **** Fit       0.004854
 **** Fit       0.004757
 **** Fit       0.006469
 **** Fit       0.009225
 **** Fit       0.011815
 **** Fit       0.009175
 **** Fit       0.009463
 **** Fit       0.011591
 **** Fit       0.014521
 **** Fit       0.015389
 **** Fit       0.013461
 **** Fit       0.016183
 **** Fit       0.015419
 **** Fit       0.017128
 **** Fit       0.017393
 **** Fit       0.018806
 **** Fit       0.020329
 **** Fit       0.019431
 **** Fit       0.019641
 **** Fit       0.020345
 **** Fit       0.021205
 **** Fit       0.022146
 **** Fit       0.025670
 **** Fit       0.023865
 **** Fit       0.023322
 **** Fit       0.023329
 **** Fit       0.023511
 **** Fit       0.023628
 **** Fit       0.029004
 **** Fit       0.026779
 **** Fit       0.025659
 **** Fit       0.024985
 **** Fit       0.024303
 **** Fit       0.023173
 **** Fit       0.008627
 **** Fit       0.032666
 **** Fit       0.029296
 **** Fit       0.027287
 **** Fit       0.025795
 **** Fit       0.024188
 **** Fit       0.021886
 **** Fit       0.018386
 **** Fit       0.013650
 **** Fit       0.012532
 **** Fit       0.030838
 **** Fit       0.028116
 **** Fit       0.025888
 **** Fit       0.023461
 **** Fit       0.020344
 **** Fit       0.016478
 **** Fit       0.016036
 **** Fit       0.013597
 **** Fit       0.032272
 **** Fit       0.028787
 **** Fit       0.025862
 **** Fit       0.022823
 **** Fit       0.019402
 **** Fit       0.019166
 **** Fit       0.017133
 **** Fit       0.017086
 **** Fit       0.022915
 **** Fit       0.029698
 **** Fit       0.026035
 **** Fit       0.022461
 **** Fit       0.022176
 **** Fit       0.021193
 **** Fit       0.024403
 **** Fit       0.029659
 **** Fit       0.025930
 **** Fit       0.025420
 -----------------------------------------------------------------
 Leave Link  602 at Sat Sep 14 22:38:39 2019, MaxMem=  1342177280 cpu:             111.7 elap:               2.4

 Test job not archived.
 1\1\GINC-C494-062\SP\RB3LYP\SVP\C54H83Ca1N15O23\PENGZHI\14-Sep-2019\0\
 \#b3lyp/svp scf=(tight,noincore) Test #IOP(5/87=12) Density=Current Po
 p=(MK,readradii) iop(6/33=2) iop(6/42=6)\\holoCaM_loop3_67.0\\0,1\C,0,
 44.35,48.19,28.28\C,0,45.44,47.16,28.55\O,0,46.06,47.19,29.62\H,0,43.4
 78,47.965,28.894\H,0,44.721,49.185,28.526\H,0,44.07,48.156,27.227\N,0,
 45.72,46.24,27.63\C,0,46.75,45.23,27.69\C,0,48.13,45.71,27.26\O,0,48.7
 4,45.06,26.41\C,0,46.23,44.,26.94\C,0,46.95,42.69,27.25\O,0,47.49,42.4
 6,28.35\O,0,46.99,41.82,26.35\H,0,45.14,46.15,26.8\H,0,46.8,44.94,28.7
 4\H,0,46.15,44.19,25.87\H,0,45.21,43.81,27.28\N,0,48.58,46.79,27.89\C,
 0,49.8,47.51,27.58\C,0,51.01,46.64,27.9\O,0,52.12,46.77,27.39\C,0,49.9
 4,48.86,28.28\C,0,48.8,49.86,28.11\C,0,48.99,51.12,28.95\C,0,48.59,51.
 06,30.42\N,0,47.25,51.62,30.68\H,0,47.91,47.14,28.55\H,0,49.86,47.59,2
 6.49\H,0,50.85,49.35,27.96\H,0,50.04,48.71,29.36\H,0,47.78,49.51,28.32
 \H,0,48.72,50.17,27.07\H,0,48.54,51.94,28.4\H,0,50.05,51.39,28.91\H,0,
 49.36,51.58,30.99\H,0,48.66,50.02,30.75\H,0,47.22,52.08,31.57\H,0,47.,
 52.32,29.99\H,0,46.55,50.89,30.77\N,0,50.81,45.62,28.74\C,0,51.77,44.6
 2,29.15\C,0,51.69,43.36,28.3\O,0,52.6,42.54,28.43\C,0,51.48,44.24,30.6
 \C,0,50.07,43.67,30.63\O,0,49.05,44.35,30.35\O,0,49.92,42.47,30.95\H,0
 ,49.9,45.62,29.19\H,0,52.79,45.,29.13\H,0,51.54,45.13,31.23\H,0,52.14,
 43.42,30.89\N,0,50.65,43.11,27.5\C,0,50.57,42.13,26.44\C,0,50.5,40.69,
 26.92\O,0,51.27,39.82,26.51\H,0,49.9,43.79,27.52\H,0,51.46,42.18,25.82
 \H,0,49.71,42.37,25.81\N,0,49.56,40.39,27.83\C,0,49.31,39.02,28.23\C,0
 ,47.99,38.36,27.84\O,0,47.65,37.25,28.24\C,0,49.56,38.87,29.73\C,0,48.
 47,39.35,30.68\N,0,48.3,38.83,31.9\O,0,47.61,40.13,30.28\H,0,48.9,41.0
 9,28.12\H,0,50.09,38.43,27.76\H,0,50.45,39.39,30.07\H,0,49.62,37.8,29.
 91\H,0,48.94,38.12,32.21\H,0,47.5,39.08,32.47\N,0,47.18,39.08,27.07\C,
 0,45.93,38.54,26.59\C,0,44.78,38.62,27.59\O,0,43.69,38.1,27.38\H,0,47.
 26,40.07,26.87\H,0,45.96,37.48,26.36\H,0,45.68,39.21,25.77\N,0,44.9,39
 .44,28.64\C,0,43.94,39.62,29.7\C,0,43.81,41.07,30.13\O,0,44.81,41.77,3
 0.05\C,0,44.26,38.82,30.96\C,0,44.3,37.31,30.88\C,0,45.5,36.63,31.09\C
 ,0,43.09,36.62,30.71\C,0,45.49,35.24,31.18\C,0,43.03,35.23,30.87\C,0,4
 4.25,34.56,31.09\O,0,44.12,33.21,31.2\H,0,45.83,39.83,28.7\H,0,42.93,3
 9.28,29.48\H,0,43.45,38.95,31.67\H,0,45.26,39.14,31.26\H,0,46.5,37.06,
 31.07\H,0,42.15,37.15,30.66\H,0,46.39,34.69,31.41\H,0,42.07,34.74,30.8
 3\H,0,43.17,33.09,31.3\N,0,42.66,41.44,30.69\C,0,42.25,42.64,31.4\C,0,
 41.69,42.39,32.79\O,0,40.84,41.53,32.97\C,0,41.34,43.56,30.59\C,0,42.1
 2,44.22,29.46\C,0,40.61,44.58,31.45\C,0,41.15,44.87,28.47\H,0,41.95,40
 .72,30.62\H,0,43.1,43.3,31.61\H,0,40.61,42.89,30.13\H,0,42.57,43.42,28
 .87\H,0,42.75,45.05,29.8\H,0,39.97,43.98,32.1\H,0,41.23,45.36,31.89\H,
 0,39.95,45.14,30.79\H,0,40.8,45.85,28.79\H,0,41.63,45.22,27.56\H,0,40.
 22,44.35,28.25\N,0,42.13,43.12,33.82\C,0,41.68,43.06,35.19\C,0,41.22,4
 4.43,35.67\O,0,41.35,45.42,34.96\C,0,42.81,42.44,36.01\O,0,43.92,43.31
 ,36.09\H,0,42.94,43.68,33.6\H,0,40.82,42.4,35.34\H,0,43.08,41.48,35.58
 \H,0,42.46,42.25,37.03\H,0,44.19,43.53,35.2\N,0,40.6,44.34,36.85\C,0,4
 0.01,45.47,37.53\C,0,40.8,46.77,37.62\O,0,40.37,47.85,37.22\C,0,39.58,
 45.03,38.93\H,0,40.46,43.42,37.27\H,0,39.14,45.7,36.91\H,0,39.08,45.88
 ,39.38\H,0,38.94,44.15,38.94\H,0,40.5,44.89,39.51\N,0,42.01,46.76,38.1
 8\C,0,42.87,47.93,38.2\C,0,43.44,48.33,36.85\O,0,43.83,49.49,36.72\C,0
 ,43.96,47.66,39.24\H,0,42.56,45.95,38.43\H,0,42.19,48.67,38.62\H,0,44.
 71,48.44,39.36\H,0,43.39,47.57,40.17\H,0,44.56,46.77,39.09\N,0,43.5,47
 .52,35.8\C,0,43.87,47.9,34.45\C,0,42.68,48.52,33.74\O,0,42.88,49.6,33.
 17\C,0,44.26,46.66,33.65\C,0,45.56,45.96,34.04\C,0,45.61,44.58,33.4\O,
 0,44.91,43.65,33.86\O,0,46.23,44.5,32.32\H,0,43.13,46.58,35.82\H,0,44.
 68,48.62,34.4\H,0,44.35,46.9,32.59\H,0,43.46,45.92,33.76\H,0,45.58,45.
 77,35.12\H,0,46.47,46.48,33.73\N,0,41.45,48.07,34.02\C,0,40.32,48.85,3
 3.57\H,0,39.5,48.743,34.28\H,0,40.606,49.899,33.502\H,0,40.,48.495,32.
 59\H,0,41.33,47.13,34.38\Ca,0,47.31,42.58,30.94\O,0,45.77,41.39,32.72\
 H,0,45.28,42.,33.26\H,0,45.81,40.59,33.24\\Version=ES64L-G16RevA.03\St
 ate=1-A\HF=-5333.6087307\RMSD=2.321e-09\Dipole=-4.1865086,12.1872125,5
 .835876\Quadrupole=-72.0549024,94.9574757,-22.9025733,75.5850723,37.54
 39341,-96.6317884\PG=C01 [X(C54H83Ca1N15O23)]\\@


 CHEMISTRY BEGAN BY SAYING IT WOULD CHANGE THE BASER
 METALS INTO GOLD.  BY NOT DOING THAT IT HAS DONE MUCH
 GREATER THINGS.  --  RALPH WALDO EMERSON
 Job cpu time:       0 days  8 hours 23 minutes 19.7 seconds.
 Elapsed time:       0 days  0 hours 10 minutes 36.5 seconds.
 File lengths (MBytes):  RWF=   1517 Int=      0 D2E=      0 Chk=    171 Scr=      1
 Normal termination of Gaussian 16 at Sat Sep 14 22:38:41 2019.
