 Entering Gaussian System, Link 0=g16
 Initial command:
 /home1/apps/gaussian/16rA.03/g16/l1.exe "/scratch/01990/pengzhi/4328829/Gau-48965.inp" -scrdir="/scratch/01990/pengzhi/4328829/"
 Entering Link 1 = /home1/apps/gaussian/16rA.03/g16/l1.exe PID=     48966.
  
 Copyright (c) 1988,1990,1992,1993,1995,1998,2003,2009,2016,
            Gaussian, Inc.  All Rights Reserved.
  
 This is part of the Gaussian(R) 16 program.  It is based on
 the Gaussian(R) 09 system (copyright 2009, Gaussian, Inc.),
 the Gaussian(R) 03 system (copyright 2003, Gaussian, Inc.),
 the Gaussian(R) 98 system (copyright 1998, Gaussian, Inc.),
 the Gaussian(R) 94 system (copyright 1995, Gaussian, Inc.),
 the Gaussian 92(TM) system (copyright 1992, Gaussian, Inc.),
 the Gaussian 90(TM) system (copyright 1990, Gaussian, Inc.),
 the Gaussian 88(TM) system (copyright 1988, Gaussian, Inc.),
 the Gaussian 86(TM) system (copyright 1986, Carnegie Mellon
 University), and the Gaussian 82(TM) system (copyright 1983,
 Carnegie Mellon University). Gaussian is a federally registered
 trademark of Gaussian, Inc.
  
 This software contains proprietary and confidential information,
 including trade secrets, belonging to Gaussian, Inc.
  
 This software is provided under written license and may be
 used, copied, transmitted, or stored only in accord with that
 written license.
  
 The following legend is applicable only to US Government
 contracts under FAR:
  
                    RESTRICTED RIGHTS LEGEND
  
 Use, reproduction and disclosure by the US Government is
 subject to restrictions as set forth in subparagraphs (a)
 and (c) of the Commercial Computer Software - Restricted
 Rights clause in FAR 52.227-19.
  
 Gaussian, Inc.
 340 Quinnipiac St., Bldg. 40, Wallingford CT 06492
  
  
 ---------------------------------------------------------------
 Warning -- This program may not be used in any manner that
 competes with the business of Gaussian, Inc. or will provide
 assistance to any competitor of Gaussian, Inc.  The licensee
 of this program is prohibited from giving any competitor of
 Gaussian, Inc. access to this program.  By using this program,
 the user acknowledges that Gaussian, Inc. is engaged in the
 business of creating and licensing software in the field of
 computational chemistry and represents and warrants to the
 licensee that it is not a competitor of Gaussian, Inc. and that
 it will not use this program in any manner prohibited above.
 ---------------------------------------------------------------
  

 Cite this work as:
 Gaussian 16, Revision A.03,
 M. J. Frisch, G. W. Trucks, H. B. Schlegel, G. E. Scuseria, 
 M. A. Robb, J. R. Cheeseman, G. Scalmani, V. Barone, 
 G. A. Petersson, H. Nakatsuji, X. Li, M. Caricato, A. V. Marenich, 
 J. Bloino, B. G. Janesko, R. Gomperts, B. Mennucci, H. P. Hratchian, 
 J. V. Ortiz, A. F. Izmaylov, J. L. Sonnenberg, D. Williams-Young, 
 F. Ding, F. Lipparini, F. Egidi, J. Goings, B. Peng, A. Petrone, 
 T. Henderson, D. Ranasinghe, V. G. Zakrzewski, J. Gao, N. Rega, 
 G. Zheng, W. Liang, M. Hada, M. Ehara, K. Toyota, R. Fukuda, 
 J. Hasegawa, M. Ishida, T. Nakajima, Y. Honda, O. Kitao, H. Nakai, 
 T. Vreven, K. Throssell, J. A. Montgomery, Jr., J. E. Peralta, 
 F. Ogliaro, M. J. Bearpark, J. J. Heyd, E. N. Brothers, K. N. Kudin, 
 V. N. Staroverov, T. A. Keith, R. Kobayashi, J. Normand, 
 K. Raghavachari, A. P. Rendell, J. C. Burant, S. S. Iyengar, 
 J. Tomasi, M. Cossi, J. M. Millam, M. Klene, C. Adamo, R. Cammi, 
 J. W. Ochterski, R. L. Martin, K. Morokuma, O. Farkas, 
 J. B. Foresman, and D. J. Fox, Gaussian, Inc., Wallingford CT, 2016.
 
 ******************************************
 Gaussian 16:  ES64L-G16RevA.03 25-Dec-2016
                14-Sep-2019 
 ******************************************
 %chk=holoCaM_loop3_90.0.chk
 %nprocshared=48
 Will use up to   48 processors via shared memory.
 %mem=10GB
 %nosave
 ----------------------------------------------------------------------
 #b3lyp/svp scf=(tight,noincore) Test #IOP(5/87=12) Density=Current Pop
 =(MK,readradii) iop(6/33=2) iop(6/42=6)
 ----------------------------------------------------------------------
 1/30=1,38=1,172=1/1;
 2/12=2,17=6,18=5,40=1/2;
 3/5=18,7=101,11=2,25=1,30=1,74=-5/1,2,3;
 4//1;
 5/5=4,32=2,38=5,87=12/2;
 6/7=2,8=2,9=2,10=2,15=8,20=101,22=-1,28=1,33=2,42=6/1,2;
 99/5=1,9=1/99;
 ------------------
 holoCaM_loop3_90.0
 ------------------
 Symbolic Z-matrix:
 Charge =  0 Multiplicity = 1
 C                     41.96     43.77     24.56 
 C                     42.04     43.43     26.04 
 O                     41.32     44.03     26.84 
 H                     41.643    44.806    24.442 
 H                     42.94     43.636    24.102 
 H                     41.239    43.113    24.074 
 N                     42.92     42.49     26.38 
 C                     43.38     42.22     27.73 
 C                     44.25     43.34     28.27 
 O                     45.11     43.78     27.5 
 C                     44.13     40.89     27.65 
 C                     44.73     40.39     28.96 
 O                     45.09     41.23     29.81 
 O                     44.83     39.17     29.2 
 H                     43.39     42.09     25.58 
 H                     42.54     42.03     28.41 
 H                     44.94     41.08     26.96 
 H                     43.41     40.16     27.27 
 N                     44.11     43.87     29.48 
 C                     44.92     44.92     30.06 
 C                     46.42     44.71     29.92 
 O                     47.16     45.54     29.38 
 C                     44.59     45.12     31.54 
 C                     45.42     46.19     32.24 
 C                     45.29     46.19     33.76 
 C                     46.22     47.13     34.53 
 N                     47.65     46.89     34.28 
 H                     43.49     43.27     30.01 
 H                     44.73     45.84     29.51 
 H                     44.76     44.22     32.13 
 H                     43.54     45.42     31.6 
 H                     45.3      47.17     31.77 
 H                     46.48     45.92     32.15 
 H                     45.45     45.18     34.12 
 H                     44.3      46.54     34.06 
 H                     46.07     47.01     35.61 
 H                     45.95     48.14     34.23 
 H                     48.       47.1      33.35 
 H                     48.07     47.55     34.91 
 H                     47.94     45.97     34.57 
 N                     46.88     43.55     30.4 
 C                     48.27     43.18     30.6 
 C                     48.76     42.13     29.61 
 O                     49.89     41.66     29.69 
 C                     48.39     42.87     32.09 
 C                     47.29     42.17     32.87 
 O                     47.08     42.56     34.04 
 O                     46.64     41.21     32.4 
 H                     46.24     42.86     30.76 
 H                     48.94     44.02     30.45 
 H                     48.62     43.78     32.65 
 H                     49.33     42.32     32.16 
 N                     47.84     41.69     28.75 
 C                     48.       40.62     27.79 
 C                     48.13     39.26     28.45 
 O                     48.69     38.38     27.79 
 H                     46.9      42.05     28.89 
 H                     48.82     40.8      27.09 
 H                     47.21     40.48     27.05 
 N                     47.84     39.08     29.74 
 C                     48.16     37.88     30.49 
 C                     47.47     36.6      30.03 
 O                     47.87     35.56     30.54 
 C                     48.09     38.22     31.98 
 C                     46.78     37.86     32.67 
 N                     46.79     37.07     33.74 
 O                     45.71     38.24     32.2 
 H                     47.18     39.76     30.07 
 H                     49.22     37.66     30.37 
 H                     48.35     39.26     32.18 
 H                     48.69     37.51     32.56 
 H                     47.66     36.69     34.08 
 H                     46.       37.01     34.36 
 N                     46.59     36.67     29.03 
 C                     45.72     35.55     28.73 
 C                     44.37     35.39     29.42 
 O                     43.76     34.33     29.33 
 H                     46.27     37.56     28.68 
 H                     46.31     34.65     28.89 
 H                     45.46     35.54     27.67 
 N                     43.78     36.48     29.93 
 C                     42.53     36.53     30.66 
 C                     41.92     37.91     30.48 
 O                     42.58     38.92     30.67 
 C                     42.69     36.29     32.16 
 C                     42.99     34.85     32.47 
 C                     44.23     34.59     33.07 
 C                     42.06     33.81     32.35 
 C                     44.59     33.28     33.4 
 C                     42.39     32.5      32.72 
 C                     43.66     32.23     33.26 
 O                     43.94     30.91     33.47 
 H                     44.27     37.35     29.82 
 H                     41.76     35.85     30.3 
 H                     41.71     36.47     32.61 
 H                     43.33     37.04     32.63 
 H                     44.97     35.37     33.15 
 H                     41.06     33.88     31.94 
 H                     45.54     32.95     33.78 
 H                     41.62     31.74     32.59 
 H                     43.19     30.36     33.26 
 N                     40.59     37.92     30.28 
 C                     39.86     39.17     30.37 
 C                     38.92     39.13     31.56 
 O                     38.21     38.14     31.75 
 C                     39.28     39.42     28.98 
 C                     40.36     39.93     28.03 
 C                     38.1      40.39     29.01 
 C                     39.86     40.17     26.61 
 H                     40.01     37.12     30.11 
 H                     40.53     40.       30.57 
 H                     38.86     38.49     28.59 
 H                     41.12     39.15     28.02 
 H                     40.74     40.88     28.41 
 H                     37.76     40.57     27.99 
 H                     37.22     40.08     29.57 
 H                     38.51     41.33     29.39 
 H                     40.69     40.14     25.91 
 H                     39.26     39.32     26.28 
 H                     39.42     41.16     26.52 
 N                     38.86     40.25     32.28 
 C                     38.07     40.55     33.45 
 C                     36.86     41.39     33.06 
 O                     36.91     42.11     32.06 
 C                     38.98     41.17     34.51 
 O                     39.43     42.43     34.09 
 H                     39.47     40.97     31.92 
 H                     37.67     39.65     33.93 
 H                     39.76     40.42     34.54 
 H                     38.44     41.28     35.46 
 H                     40.08     42.27     33.41 
 N                     35.89     41.56     33.96 
 C                     34.82     42.52     33.84 
 C                     35.33     43.95     33.78 
 O                     34.68     44.82     33.2 
 C                     33.8      42.29     34.95 
 H                     36.04     41.06     34.83 
 H                     34.33     42.28     32.9 
 H                     33.09     43.12     34.95 
 H                     33.19     41.4      34.75 
 H                     34.28     42.27     35.93 
 N                     36.52     44.19     34.34 
 C                     37.19     45.47     34.32 
 C                     37.86     45.75     32.98 
 O                     37.83     46.92     32.6 
 C                     38.2      45.63     35.46 
 H                     37.06     43.45     34.75 
 H                     36.47     46.29     34.38 
 H                     38.56     46.66     35.43 
 H                     37.67     45.4      36.39 
 H                     39.05     44.95     35.38 
 N                     38.2      44.72     32.21 
 C                     38.78     44.9      30.9 
 C                     37.78     44.93     29.75 
 O                     38.05     45.46     28.67 
 C                     39.77     43.77     30.64 
 C                     41.05     43.91     31.47 
 C                     41.71     42.56     31.74 
 O                     42.87     42.28     31.38 
 O                     41.11     41.7      32.42 
 H                     38.31     43.84     32.69 
 H                     39.43     45.78     30.88 
 H                     40.08     43.71     29.6 
 H                     39.26     42.86     30.94 
 H                     40.68     44.36     32.39 
 H                     41.68     44.59     30.92 
 N                     36.55     44.46     29.97 
 C                     35.48     44.44     28.99 
 H                     34.649    45.047    29.348 
 H                     35.844    44.845    28.046 
 H                     35.142    43.414    28.841 
 H                     36.36     43.8      30.71 
 Ca                    44.29     40.47     32.25 
 O                     44.53     42.37     34.08 
 H                     44.2      42.97     34.74 
 H                     45.48     42.52     34.07 
 
 Stoichiometry    C54H83CaN15O23
 Framework group  C1[X(C54H83CaN15O23)]
 Deg. of freedom   522
 Full point group                 C1      NOp   1
 Largest Abelian subgroup         C1      NOp   1
 Largest concise Abelian subgroup C1      NOp   1
                         Standard orientation:                         
 ---------------------------------------------------------------------
 Center     Atomic      Atomic             Coordinates (Angstroms)
 Number     Number       Type             X           Y           Z
 ---------------------------------------------------------------------
      1          6           0       -1.181497   -2.905480    6.380122
      2          6           0       -1.142758   -2.441744    4.932418
      3          8           0       -2.178281   -2.451052    4.264580
      4          1           0       -1.987425   -3.627745    6.508656
      5          1           0       -0.231102   -3.372472    6.638556
      6          1           0       -1.354809   -2.049536    7.032049
      7          7           0        0.046389   -2.060974    4.469231
      8          6           0        0.380935   -1.873684    3.069230
      9          6           0        0.419834   -3.188267    2.312092
     10          8           0        1.005051   -4.121116    2.871926
     11          6           0        1.733061   -1.159890    3.062040
     12          6           0        2.313711   -0.858427    1.684337
     13          8           0        2.036810   -1.625579    0.739612
     14          8           0        3.021740    0.149776    1.488832
     15          1           0        0.766529   -2.089172    5.177400
     16          1           0       -0.309967   -1.174634    2.581292
     17          1           0        2.400517   -1.844769    3.565771
     18          1           0        1.584896   -0.227402    3.613595
     19          7           0       -0.155501   -3.380579    1.130311
     20          6           0       -0.134229   -4.599106    0.349454
     21          6           0        1.242986   -5.226416    0.196277
     22          8           0        1.485070   -6.390037    0.536101
     23          6           0       -0.727301   -4.374950   -1.042422
     24          6           0       -0.717392   -5.602885   -1.945682
     25          6           0       -1.042251   -5.309182   -3.407019
     26          6           0       -0.889162   -6.469716   -4.392476
     27          7           0        0.461936   -7.051636   -4.422536
     28          1           0       -0.420971   -2.474263    0.765048
     29          1           0       -0.710466   -5.354413    0.880926
     30          1           0       -0.184169   -3.620060   -1.610004
     31          1           0       -1.768618   -4.069992   -0.905460
     32          1           0       -1.279443   -6.433237   -1.509430
     33          1           0        0.320286   -5.942719   -2.056751
     34          1           0       -0.415112   -4.490854   -3.742182
     35          1           0       -2.095118   -5.041876   -3.519353
     36          1           0       -1.102910   -6.130159   -5.413413
     37          1           0       -1.616076   -7.221716   -4.093996
     38          1           0        0.771448   -7.548886   -3.592810
     39          1           0        0.363489   -7.731602   -5.155239
     40          1           0        1.158218   -6.387155   -4.719615
     41          7           0        2.182805   -4.420844   -0.309089
     42          6           0        3.506735   -4.805831   -0.765152
     43          6           0        4.621905   -4.326734    0.156565
     44          8           0        5.801443   -4.509854   -0.125141
     45          6           0        3.560997   -4.386685   -2.232113
     46          6           0        2.915882   -3.108701   -2.741017
     47          8           0        2.363887   -3.152828   -3.862826
     48          8           0        2.962921   -2.032933   -2.104220
     49          1           0        1.973673   -3.453754   -0.499616
     50          1           0        3.629679   -5.883368   -0.793425
     51          1           0        3.179888   -5.187872   -2.870435
     52          1           0        4.627663   -4.404928   -2.462090
     53          7           0        4.219719   -3.604766    1.203755
     54          6           0        5.067795   -2.932175    2.163176
     55          6           0        5.816387   -1.759631    1.557492
     56          8           0        6.850588   -1.410827    2.134002
     57          1           0        3.225754   -3.395729    1.237487
     58          1           0        5.750375   -3.615359    2.675176
     59          1           0        4.594116   -2.512211    3.052309
     60          7           0        5.488998   -1.265404    0.362019
     61          6           0        6.295797   -0.313046   -0.377568
     62          6           0        6.481196    1.053868    0.273027
     63          8           0        7.302124    1.794419   -0.255519
     64          6           0        5.841207   -0.340699   -1.838110
     65          6           0        4.851060    0.747936   -2.233437
     66          7           0        5.133527    1.565263   -3.244026
     67          8           0        3.825610    0.917387   -1.577740
     68          1           0        4.527106   -1.443060    0.138184
     69          1           0        7.310735   -0.699335   -0.461714
     70          1           0        5.466121   -1.320228   -2.136494
     71          1           0        6.639608    0.028685   -2.491264
     72          1           0        6.011713    1.480882   -3.732462
     73          1           0        4.422389    2.120109   -3.689591
     74          7           0        5.856522    1.305784    1.424383
     75          6           0        5.783348    2.656028    1.946673
     76          6           0        4.651940    3.597551    1.549623
     77          8           0        4.731925    4.792899    1.811434
     78          1           0        5.160149    0.673244    1.787643
     79          1           0        6.736130    3.127814    1.715751
     80          1           0        5.724553    2.642627    3.036473
     81          7           0        3.500784    3.065727    1.115682
     82          6           0        2.333076    3.784612    0.649245
     83          6           0        1.107136    2.917118    0.880384
     84          8           0        1.081352    1.752529    0.513140
     85          6           0        2.381242    4.125570   -0.838917
     86          6           0        3.364010    5.224576   -1.132265
     87          6           0        4.446992    4.884920   -1.955056
     88          6           0        3.172143    6.565686   -0.777989
     89          6           0        5.406390    5.846388   -2.286316
     90          6           0        4.100954    7.548755   -1.142383
     91          6           0        5.222784    7.192926   -1.911983
     92          8           0        6.138392    8.186718   -2.109312
     93          1           0        3.452555    2.062883    1.082855
     94          1           0        2.113573    4.704171    1.188809
     95          1           0        1.407127    4.552736   -1.091762
     96          1           0        2.439413    3.231410   -1.463493
     97          1           0        4.627559    3.855420   -2.219489
     98          1           0        2.363715    6.967900   -0.179936
     99          1           0        6.318171    5.684199   -2.832348
    100          1           0        3.891844    8.569685   -0.823988
    101          1           0        5.843788    9.008933   -1.726859
    102          7           0        0.027529    3.573169    1.341951
    103          6           0       -1.266205    2.917618    1.339243
    104          6           0       -2.193926    3.618649    0.364980
    105          8           0       -2.274676    4.848999    0.369421
    106          6           0       -1.683726    2.803816    2.803390
    107          6           0       -0.928225    1.670600    3.491897
    108          6           0       -3.190671    2.609404    2.963138
    109          6           0       -1.269725    1.518985    4.969865
    110          1           0        0.003287    4.522586    1.663384
    111          1           0       -1.187839    1.900486    0.968971
    112          1           0       -1.473623    3.746228    3.314385
    113          1           0        0.124931    1.927605    3.387442
    114          1           0       -1.180875    0.730780    2.997725
    115          1           0       -3.424202    2.484111    4.020571
    116          1           0       -3.832743    3.412295    2.606474
    117          1           0       -3.413042    1.662325    2.463445
    118          1           0       -0.465353    1.006971    5.490082
    119          1           0       -1.260676    2.497065    5.454302
    120          1           0       -2.156775    0.903715    5.097871
    121          7           0       -2.951838    2.816207   -0.382051
    122          6           0       -3.936095    3.150395   -1.383329
    123          6           0       -5.337673    3.018427   -0.800263
    124          8           0       -5.542554    2.238983    0.133220
    125          6           0       -3.668049    2.312173   -2.632983
    126          8           0       -3.915962    0.956565   -2.373432
    127          1           0       -2.783795    1.839577   -0.186976
    128          1           0       -3.849868    4.186441   -1.729123
    129          1           0       -2.620237    2.539485   -2.782044
    130          1           0       -4.310910    2.642779   -3.459802
    131          1           0       -3.193429    0.650663   -1.830413
    132          7           0       -6.362355    3.515637   -1.494963
    133          6           0       -7.751268    3.249924   -1.209977
    134          6           0       -8.092725    1.773701   -1.322987
    135          8           0       -9.019061    1.296022   -0.667605
    136          6           0       -8.631205    4.140413   -2.080690
    137          1           0       -6.091986    3.986592   -2.351994
    138          1           0       -7.893593    3.567586   -0.180349
    139          1           0       -9.668499    3.813828   -1.978896
    140          1           0       -8.627393    5.176626   -1.719514
    141          1           0       -8.362358    4.052300   -3.134805
    142          7           0       -7.315730    1.034225   -2.120955
    143          6           0       -7.449164   -0.393572   -2.297848
    144          6           0       -6.853606   -1.177557   -1.134414
    145          8           0       -7.456578   -2.201100   -0.813500
    146          6           0       -6.861005   -0.885725   -3.623426
    147          1           0       -6.526585    1.434863   -2.594283
    148          1           0       -8.497913   -0.697623   -2.252277
    149          1           0       -7.114926   -1.943223   -3.716287
    150          1           0       -7.308954   -0.277728   -4.416131
    151          1           0       -5.777278   -0.770090   -3.682273
    152          7           0       -5.905036   -0.604281   -0.398909
    153          6           0       -5.334338   -1.252839    0.758060
    154          6           0       -6.015469   -0.926982    2.082174
    155          8           0       -5.923821   -1.673548    3.059128
    156          6           0       -3.865607   -0.859044    0.869210
    157          6           0       -2.998499   -1.521381   -0.206119
    158          6           0       -1.760169   -0.691809   -0.536799
    159          8           0       -0.595612   -1.115555   -0.403204
    160          8           0       -1.889952    0.444743   -1.040195
    161          1           0       -5.406754    0.148782   -0.847809
    162          1           0       -5.268162   -2.334219    0.604637
    163          1           0       -3.427621   -1.124976    1.827724
    164          1           0       -3.839475    0.216068    0.722067
    165          1           0       -3.679885   -1.569543   -1.054172
    166          1           0       -2.765120   -2.503084    0.172819
    167          7           0       -6.812710    0.142457    2.136089
    168          6           0       -7.549134    0.572107    3.310304
    169          1           0       -8.617353    0.549178    3.096866
    170          1           0       -7.331408   -0.098320    4.141435
    171          1           0       -7.253572    1.588165    3.573722
    172          1           0       -6.719208    0.905943    1.482142
    173         20           0        1.435805   -0.207123   -1.450817
    174          8           0        0.346542   -1.656371   -3.382056
    175          1           0       -0.345620   -1.890035   -3.991000
    176          1           0        1.054587   -2.279683   -3.569818
 ---------------------------------------------------------------------
 Rotational constants (GHZ):           0.0228003           0.0154199           0.0122319
 Standard basis: SVP (5D, 7F)
 There are  1809 symmetry adapted cartesian basis functions of A   symmetry.
 There are  1717 symmetry adapted basis functions of A   symmetry.
  1717 basis functions,  2922 primitive gaussians,  1809 cartesian basis functions
   358 alpha electrons      358 beta electrons
       nuclear repulsion energy     21877.0172027332 Hartrees.
 NAtoms=  176 NActive=  176 NUniq=  176 SFac= 1.00D+00 NAtFMM=   60 NAOKFM=T Big=T
 Integral buffers will be    131072 words long.
 Raffenetti 2 integral format.
 Two-electron integral symmetry is turned on.
 One-electron integrals computed using PRISM.
 NBasis=  1717 RedAO= T EigKep=  2.87D-04  NBF=  1717
 NBsUse=  1717 1.00D-06 EigRej= -1.00D+00 NBFU=  1717
 ExpMin= 1.98D-02 ExpMax= 3.51D+04 ExpMxC= 5.28D+03 IAcc=3 IRadAn=         5 AccDes= 0.00D+00
 Harris functional with IExCor=  402 and IRadAn=       5 diagonalized for initial guess.
 HarFok:  IExCor=  402 AccDes= 0.00D+00 IRadAn=         5 IDoV= 1 UseB2=F ITyADJ=14
 ICtDFT=  3500011 ScaDFX=  1.000000  1.000000  1.000000  1.000000
 FoFCou: FMM=F IPFlag=           0 FMFlag=      100000 FMFlg1=        2001
         NFxFlg=           0 DoJE=T BraDBF=F KetDBF=T FulRan=T
         wScrn=  0.000000 ICntrl=       500 IOpCl=  0 I1Cent=   200000004 NGrid=           0
         NMat0=    1 NMatS0=      1 NMatT0=    0 NMatD0=    1 NMtDS0=    0 NMtDT0=    0
 Petite list used in FoFCou.
 Requested convergence on RMS density matrix=1.00D-08 within 128 cycles.
 Requested convergence on MAX density matrix=1.00D-06.
 Requested convergence on             energy=1.00D-06.
 No special actions if energy rises.
 EnCoef did     1 forward-backward iterations
 EnCoef did     2 forward-backward iterations
 EnCoef did     2 forward-backward iterations
 SCF Done:  E(RB3LYP) =  -5333.59685828     A.U. after   20 cycles
            NFock= 20  Conv=0.56D-08     -V/T= 2.0081
 SCF density gives NOpUse=  1 NOpAll=  1.
 Hyperfine terms turned off by default for NAtoms > 100.

 **********************************************************************

            Population analysis using the SCF density.

 **********************************************************************

 Orbital symmetries:
 BldTbl:  Degeneracy threshold= 1.00D-02
       Occupied  (A) (A) (A) (A) (A) (A) (A) (A) (A) (A) (A) (A)
                 (A) (A) (A) (A) (A) (A) (A) (A) (A) (A) (A) (A)
                 (A) (A) (A) (A) (A) (A) (A) (A) (A) (A) (A) (A)
                 (A) (A) (A) (A) (A) (A) (A) (A) (A) (A) (A) (A)
                 (A) (A) (A) (A) (A) (A) (A) (A) (A) (A) (A) (A)
                 (A) (A) (A) (A) (A) (A) (A) (A) (A) (A) (A) (A)
                 (A) (A) (A) (A) (A) (A) (A) (A) (A) (A) (A) (A)
                 (A) (A) (A) (A) (A) (A) (A) (A) (A) (A) (A) (A)
                 (A) (A) (A) (A) (A) (A) (A) (A) (A) (A) (A) (A)
                 (A) (A) (A) (A) (A) (A) (A) (A) (A) (A) (A) (A)
                 (A) (A) (A) (A) (A) (A) (A) (A) (A) (A) (A) (A)
                 (A) (A) (A) (A) (A) (A) (A) (A) (A) (A) (A) (A)
                 (A) (A) (A) (A) (A) (A) (A) (A) (A) (A) (A) (A)
                 (A) (A) (A) (A) (A) (A) (A) (A) (A) (A) (A) (A)
                 (A) (A) (A) (A) (A) (A) (A) (A) (A) (A) (A) (A)
                 (A) (A) (A) (A) (A) (A) (A) (A) (A) (A) (A) (A)
                 (A) (A) (A) (A) (A) (A) (A) (A) (A) (A) (A) (A)
                 (A) (A) (A) (A) (A) (A) (A) (A) (A) (A) (A) (A)
                 (A) (A) (A) (A) (A) (A) (A) (A) (A) (A) (A) (A)
                 (A) (A) (A) (A) (A) (A) (A) (A) (A) (A) (A) (A)
                 (A) (A) (A) (A) (A) (A) (A) (A) (A) (A) (A) (A)
                 (A) (A) (A) (A) (A) (A) (A) (A) (A) (A) (A) (A)
                 (A) (A) (A) (A) (A) (A) (A) (A) (A) (A) (A) (A)
                 (A) (A) (A) (A) (A) (A) (A) (A) (A) (A) (A) (A)
                 (A) (A) (A) (A) (A) (A) (A) (A) (A) (A) (A) (A)
                 (A) (A) (A) (A) (A) (A) (A) (A) (A) (A) (A) (A)
                 (A) (A) (A) (A) (A) (A) (A) (A) (A) (A) (A) (A)
                 (A) (A) (A) (A) (A) (A) (A) (A) (A) (A) (A) (A)
                 (A) (A) (A) (A) (A) (A) (A) (A) (A) (A) (A) (A)
                 (A) (A) (A) (A) (A) (A) (A) (A) (A) (A)
       Virtual   (A) (A) (A) (A) (A) (A) (A) (A) (A) (A) (A) (A)
                 (A) (A) (A) (A) (A) (A) (A) (A) (A) (A) (A) (A)
                 (A) (A) (A) (A) (A) (A) (A) (A) (A) (A) (A) (A)
                 (A) (A) (A) (A) (A) (A) (A) (A) (A) (A) (A) (A)
                 (A) (A) (A) (A) (A) (A) (A) (A) (A) (A) (A) (A)
                 (A) (A) (A) (A) (A) (A) (A) (A) (A) (A) (A) (A)
                 (A) (A) (A) (A) (A) (A) (A) (A) (A) (A) (A) (A)
                 (A) (A) (A) (A) (A) (A) (A) (A) (A) (A) (A) (A)
                 (A) (A) (A) (A) (A) (A) (A) (A) (A) (A) (A) (A)
                 (A) (A) (A) (A) (A) (A) (A) (A) (A) (A) (A) (A)
                 (A) (A) (A) (A) (A) (A) (A) (A) (A) (A) (A) (A)
                 (A) (A) (A) (A) (A) (A) (A) (A) (A) (A) (A) (A)
                 (A) (A) (A) (A) (A) (A) (A) (A) (A) (A) (A) (A)
                 (A) (A) (A) (A) (A) (A) (A) (A) (A) (A) (A) (A)
                 (A) (A) (A) (A) (A) (A) (A) (A) (A) (A) (A) (A)
                 (A) (A) (A) (A) (A) (A) (A) (A) (A) (A) (A) (A)
                 (A) (A) (A) (A) (A) (A) (A) (A) (A) (A) (A) (A)
                 (A) (A) (A) (A) (A) (A) (A) (A) (A) (A) (A) (A)
                 (A) (A) (A) (A) (A) (A) (A) (A) (A) (A) (A) (A)
                 (A) (A) (A) (A) (A) (A) (A) (A) (A) (A) (A) (A)
                 (A) (A) (A) (A) (A) (A) (A) (A) (A) (A) (A) (A)
                 (A) (A) (A) (A) (A) (A) (A) (A) (A) (A) (A) (A)
                 (A) (A) (A) (A) (A) (A) (A) (A) (A) (A) (A) (A)
                 (A) (A) (A) (A) (A) (A) (A) (A) (A) (A) (A) (A)
                 (A) (A) (A) (A) (A) (A) (A) (A) (A) (A) (A) (A)
                 (A) (A) (A) (A) (A) (A) (A) (A) (A) (A) (A) (A)
                 (A) (A) (A) (A) (A) (A) (A) (A) (A) (A) (A) (A)
                 (A) (A) (A) (A) (A) (A) (A) (A) (A) (A) (A) (A)
                 (A) (A) (A) (A) (A) (A) (A) (A) (A) (A) (A) (A)
                 (A) (A) (A) (A) (A) (A) (A) (A) (A) (A) (A) (A)
                 (A) (A) (A) (A) (A) (A) (A) (A) (A) (A) (A) (A)
                 (A) (A) (A) (A) (A) (A) (A) (A) (A) (A) (A) (A)
                 (A) (A) (A) (A) (A) (A) (A) (A) (A) (A) (A) (A)
                 (A) (A) (A) (A) (A) (A) (A) (A) (A) (A) (A) (A)
                 (A) (A) (A) (A) (A) (A) (A) (A) (A) (A) (A) (A)
                 (A) (A) (A) (A) (A) (A) (A) (A) (A) (A) (A) (A)
                 (A) (A) (A) (A) (A) (A) (A) (A) (A) (A) (A) (A)
                 (A) (A) (A) (A) (A) (A) (A) (A) (A) (A) (A) (A)
                 (A) (A) (A) (A) (A) (A) (A) (A) (A) (A) (A) (A)
                 (A) (A) (A) (A) (A) (A) (A) (A) (A) (A) (A) (A)
                 (A) (A) (A) (A) (A) (A) (A) (A) (A) (A) (A) (A)
                 (A) (A) (A) (A) (A) (A) (A) (A) (A) (A) (A) (A)
                 (A) (A) (A) (A) (A) (A) (A) (A) (A) (A) (A) (A)
                 (A) (A) (A) (A) (A) (A) (A) (A) (A) (A) (A) (A)
                 (A) (A) (A) (A) (A) (A) (A) (A) (A) (A) (A) (A)
                 (A) (A) (A) (A) (A) (A) (A) (A) (A) (A) (A) (A)
                 (A) (A) (A) (A) (A) (A) (A) (A) (A) (A) (A) (A)
                 (A) (A) (A) (A) (A) (A) (A) (A) (A) (A) (A) (A)
                 (A) (A) (A) (A) (A) (A) (A) (A) (A) (A) (A) (A)
                 (A) (A) (A) (A) (A) (A) (A) (A) (A) (A) (A) (A)
                 (A) (A) (A) (A) (A) (A) (A) (A) (A) (A) (A) (A)
                 (A) (A) (A) (A) (A) (A) (A) (A) (A) (A) (A) (A)
                 (A) (A) (A) (A) (A) (A) (A) (A) (A) (A) (A) (A)
                 (A) (A) (A) (A) (A) (A) (A) (A) (A) (A) (A) (A)
                 (A) (A) (A) (A) (A) (A) (A) (A) (A) (A) (A) (A)
                 (A) (A) (A) (A) (A) (A) (A) (A) (A) (A) (A) (A)
                 (A) (A) (A) (A) (A) (A) (A) (A) (A) (A) (A) (A)
                 (A) (A) (A) (A) (A) (A) (A) (A) (A) (A) (A) (A)
                 (A) (A) (A) (A) (A) (A) (A) (A) (A) (A) (A) (A)
                 (A) (A) (A) (A) (A) (A) (A) (A) (A) (A) (A) (A)
                 (A) (A) (A) (A) (A) (A) (A) (A) (A) (A) (A) (A)
                 (A) (A) (A) (A) (A) (A) (A) (A) (A) (A) (A) (A)
                 (A) (A) (A) (A) (A) (A) (A) (A) (A) (A) (A) (A)
                 (A) (A) (A) (A) (A) (A) (A) (A) (A) (A) (A) (A)
                 (A) (A) (A) (A) (A) (A) (A) (A) (A) (A) (A) (A)
                 (A) (A) (A) (A) (A) (A) (A) (A) (A) (A) (A) (A)
                 (A) (A) (A) (A) (A) (A) (A) (A) (A) (A) (A) (A)
                 (A) (A) (A) (A) (A) (A) (A) (A) (A) (A) (A) (A)
                 (A) (A) (A) (A) (A) (A) (A) (A) (A) (A) (A) (A)
                 (A) (A) (A) (A) (A) (A) (A) (A) (A) (A) (A) (A)
                 (A) (A) (A) (A) (A) (A) (A) (A) (A) (A) (A) (A)
                 (A) (A) (A) (A) (A) (A) (A) (A) (A) (A) (A) (A)
                 (A) (A) (A) (A) (A) (A) (A) (A) (A) (A) (A) (A)
                 (A) (A) (A) (A) (A) (A) (A) (A) (A) (A) (A) (A)
                 (A) (A) (A) (A) (A) (A) (A) (A) (A) (A) (A) (A)
                 (A) (A) (A) (A) (A) (A) (A) (A) (A) (A) (A) (A)
                 (A) (A) (A) (A) (A) (A) (A) (A) (A) (A) (A) (A)
                 (A) (A) (A) (A) (A) (A) (A) (A) (A) (A) (A) (A)
                 (A) (A) (A) (A) (A) (A) (A) (A) (A) (A) (A) (A)
                 (A) (A) (A) (A) (A) (A) (A) (A) (A) (A) (A) (A)
                 (A) (A) (A) (A) (A) (A) (A) (A) (A) (A) (A) (A)
                 (A) (A) (A) (A) (A) (A) (A) (A) (A) (A) (A) (A)
                 (A) (A) (A) (A) (A) (A) (A) (A) (A) (A) (A) (A)
                 (A) (A) (A) (A) (A) (A) (A) (A) (A) (A) (A) (A)
                 (A) (A) (A) (A) (A) (A) (A) (A) (A) (A) (A) (A)
                 (A) (A) (A) (A) (A) (A) (A) (A) (A) (A) (A) (A)
                 (A) (A) (A) (A) (A) (A) (A) (A) (A) (A) (A) (A)
                 (A) (A) (A) (A) (A) (A) (A) (A) (A) (A) (A) (A)
                 (A) (A) (A) (A) (A) (A) (A) (A) (A) (A) (A) (A)
                 (A) (A) (A) (A) (A) (A) (A) (A) (A) (A) (A) (A)
                 (A) (A) (A) (A) (A) (A) (A) (A) (A) (A) (A) (A)
                 (A) (A) (A) (A) (A) (A) (A) (A) (A) (A) (A) (A)
                 (A) (A) (A) (A) (A) (A) (A) (A) (A) (A) (A) (A)
                 (A) (A) (A) (A) (A) (A) (A) (A) (A) (A) (A) (A)
                 (A) (A) (A) (A) (A) (A) (A) (A) (A) (A) (A) (A)
                 (A) (A) (A) (A) (A) (A) (A) (A) (A) (A) (A) (A)
                 (A) (A) (A) (A) (A) (A) (A) (A) (A) (A) (A) (A)
                 (A) (A) (A) (A) (A) (A) (A) (A) (A) (A) (A) (A)
                 (A) (A) (A) (A) (A) (A) (A) (A) (A) (A) (A) (A)
                 (A) (A) (A) (A) (A) (A) (A) (A) (A) (A) (A) (A)
                 (A) (A) (A) (A) (A) (A) (A) (A) (A) (A) (A) (A)
                 (A) (A) (A) (A) (A) (A) (A) (A) (A) (A) (A) (A)
                 (A) (A) (A) (A) (A) (A) (A) (A) (A) (A) (A) (A)
                 (A) (A) (A) (A) (A) (A) (A) (A) (A) (A) (A) (A)
                 (A) (A) (A) (A) (A) (A) (A) (A) (A) (A) (A) (A)
                 (A) (A) (A) (A) (A) (A) (A) (A) (A) (A) (A) (A)
                 (A) (A) (A) (A) (A) (A) (A) (A) (A) (A) (A) (A)
                 (A) (A) (A) (A) (A) (A) (A) (A) (A) (A) (A) (A)
                 (A) (A) (A) (A) (A) (A) (A) (A) (A) (A) (A) (A)
                 (A) (A) (A) (A) (A) (A) (A) (A) (A) (A) (A) (A)
                 (A) (A) (A) (A) (A) (A) (A) (A) (A) (A) (A) (A)
                 (A) (A) (A) (A) (A) (A) (A) (A) (A) (A) (A) (A)
                 (A) (A) (A) (A) (A) (A) (A) (A) (A) (A) (A) (A)
                 (A) (A) (A)
 The electronic state is 1-A.
 Alpha  occ. eigenvalues -- -145.40969 -19.16019 -19.15008 -19.13182 -19.13057
 Alpha  occ. eigenvalues --  -19.11932 -19.11898 -19.10854 -19.10709 -19.10669
 Alpha  occ. eigenvalues --  -19.10069 -19.09322 -19.09069 -19.08706 -19.07707
 Alpha  occ. eigenvalues --  -19.07317 -19.07231 -19.07049 -19.06742 -19.06442
 Alpha  occ. eigenvalues --  -19.06146 -19.05995 -19.05878 -19.04993 -15.46697
 Alpha  occ. eigenvalues --  -14.58259 -14.38664 -14.38074 -14.36388 -14.35618
 Alpha  occ. eigenvalues --  -14.34877 -14.34396 -14.33574 -14.33426 -14.33180
 Alpha  occ. eigenvalues --  -14.32714 -14.32545 -14.32211 -14.32190 -14.31034
 Alpha  occ. eigenvalues --  -12.60320 -12.60279 -12.60247 -10.35468 -10.31764
 Alpha  occ. eigenvalues --  -10.30186 -10.29874 -10.29779 -10.29624 -10.28309
 Alpha  occ. eigenvalues --  -10.27778 -10.27431 -10.27249 -10.26541 -10.26076
 Alpha  occ. eigenvalues --  -10.25946 -10.25868 -10.25749 -10.25738 -10.25413
 Alpha  occ. eigenvalues --  -10.25348 -10.25140 -10.24783 -10.24710 -10.24527
 Alpha  occ. eigenvalues --  -10.24283 -10.23957 -10.23319 -10.23211 -10.22815
 Alpha  occ. eigenvalues --  -10.22544 -10.22246 -10.21998 -10.21885 -10.21835
 Alpha  occ. eigenvalues --  -10.21029 -10.21023 -10.20930 -10.20893 -10.20168
 Alpha  occ. eigenvalues --  -10.19954 -10.19310 -10.19077 -10.19011 -10.18395
 Alpha  occ. eigenvalues --  -10.18375 -10.18357 -10.18265 -10.18173 -10.17916
 Alpha  occ. eigenvalues --  -10.17882 -10.17816 -10.17595 -10.17094 -10.16966
 Alpha  occ. eigenvalues --  -10.16330 -10.15981  -1.83498  -1.13783  -1.11099
 Alpha  occ. eigenvalues --   -1.10859  -1.10766  -1.06560  -1.05973  -1.05695
 Alpha  occ. eigenvalues --   -1.05373  -1.04879  -1.03900  -1.02744  -1.02399
 Alpha  occ. eigenvalues --   -1.02201  -1.01935  -1.01665  -1.01518  -1.00806
 Alpha  occ. eigenvalues --   -1.00501  -1.00350  -1.00089  -0.99371  -0.99050
 Alpha  occ. eigenvalues --   -0.99004  -0.97983  -0.95576  -0.95027  -0.94899
 Alpha  occ. eigenvalues --   -0.93539  -0.93288  -0.92348  -0.92266  -0.92196
 Alpha  occ. eigenvalues --   -0.91259  -0.90607  -0.90504  -0.90290  -0.89956
 Alpha  occ. eigenvalues --   -0.89646  -0.89189  -0.88750  -0.88581  -0.87015
 Alpha  occ. eigenvalues --   -0.83936  -0.82457  -0.81336  -0.80397  -0.79309
 Alpha  occ. eigenvalues --   -0.78716  -0.78292  -0.78100  -0.77416  -0.77193
 Alpha  occ. eigenvalues --   -0.76355  -0.75955  -0.73822  -0.73386  -0.73058
 Alpha  occ. eigenvalues --   -0.72673  -0.72080  -0.71844  -0.71760  -0.70581
 Alpha  occ. eigenvalues --   -0.70518  -0.68987  -0.68830  -0.68214  -0.67675
 Alpha  occ. eigenvalues --   -0.66790  -0.66540  -0.66399  -0.64962  -0.64858
 Alpha  occ. eigenvalues --   -0.64298  -0.63329  -0.62890  -0.62050  -0.61661
 Alpha  occ. eigenvalues --   -0.61659  -0.60983  -0.60730  -0.60594  -0.60025
 Alpha  occ. eigenvalues --   -0.59975  -0.58804  -0.58522  -0.57919  -0.57804
 Alpha  occ. eigenvalues --   -0.57466  -0.57320  -0.56694  -0.56673  -0.56597
 Alpha  occ. eigenvalues --   -0.56182  -0.55884  -0.55785  -0.55625  -0.55461
 Alpha  occ. eigenvalues --   -0.55056  -0.54707  -0.54520  -0.54327  -0.54243
 Alpha  occ. eigenvalues --   -0.53672  -0.53208  -0.52847  -0.52685  -0.52365
 Alpha  occ. eigenvalues --   -0.52231  -0.51398  -0.51155  -0.50588  -0.50321
 Alpha  occ. eigenvalues --   -0.49898  -0.49527  -0.49474  -0.49023  -0.48944
 Alpha  occ. eigenvalues --   -0.48814  -0.48492  -0.48388  -0.48363  -0.48098
 Alpha  occ. eigenvalues --   -0.47746  -0.47698  -0.47559  -0.47156  -0.46742
 Alpha  occ. eigenvalues --   -0.46707  -0.46486  -0.46288  -0.46271  -0.45964
 Alpha  occ. eigenvalues --   -0.45718  -0.45436  -0.45358  -0.45268  -0.45089
 Alpha  occ. eigenvalues --   -0.44841  -0.44740  -0.44641  -0.44580  -0.44305
 Alpha  occ. eigenvalues --   -0.43827  -0.43591  -0.43509  -0.43436  -0.43331
 Alpha  occ. eigenvalues --   -0.43039  -0.43033  -0.42886  -0.42784  -0.42576
 Alpha  occ. eigenvalues --   -0.42419  -0.42308  -0.42232  -0.41958  -0.41945
 Alpha  occ. eigenvalues --   -0.41826  -0.41613  -0.41508  -0.41459  -0.41176
 Alpha  occ. eigenvalues --   -0.41032  -0.40872  -0.40617  -0.40492  -0.40365
 Alpha  occ. eigenvalues --   -0.40308  -0.40277  -0.40102  -0.39890  -0.39850
 Alpha  occ. eigenvalues --   -0.39717  -0.39616  -0.39383  -0.39301  -0.39119
 Alpha  occ. eigenvalues --   -0.38983  -0.38803  -0.38680  -0.38636  -0.38377
 Alpha  occ. eigenvalues --   -0.38231  -0.38181  -0.38157  -0.37910  -0.37786
 Alpha  occ. eigenvalues --   -0.37620  -0.37173  -0.37139  -0.36875  -0.36800
 Alpha  occ. eigenvalues --   -0.36691  -0.36633  -0.36577  -0.36170  -0.36141
 Alpha  occ. eigenvalues --   -0.35899  -0.35749  -0.35601  -0.35343  -0.35273
 Alpha  occ. eigenvalues --   -0.35096  -0.34904  -0.34874  -0.34766  -0.34507
 Alpha  occ. eigenvalues --   -0.34349  -0.34149  -0.33807  -0.33283  -0.33254
 Alpha  occ. eigenvalues --   -0.33135  -0.32827  -0.32515  -0.32283  -0.32155
 Alpha  occ. eigenvalues --   -0.32104  -0.31502  -0.31238  -0.31150  -0.30043
 Alpha  occ. eigenvalues --   -0.29515  -0.29065  -0.28694  -0.28593  -0.28387
 Alpha  occ. eigenvalues --   -0.28212  -0.27794  -0.27665  -0.27614  -0.27052
 Alpha  occ. eigenvalues --   -0.26991  -0.26642  -0.26354  -0.26050  -0.25667
 Alpha  occ. eigenvalues --   -0.25603  -0.25266  -0.25173  -0.24992  -0.24792
 Alpha  occ. eigenvalues --   -0.24700  -0.24641  -0.24496  -0.24237  -0.23902
 Alpha  occ. eigenvalues --   -0.23401  -0.23190  -0.22695  -0.22413  -0.22246
 Alpha  occ. eigenvalues --   -0.22104  -0.21958  -0.21730  -0.21581  -0.21339
 Alpha  occ. eigenvalues --   -0.20950  -0.20668  -0.20631
 Alpha virt. eigenvalues --   -0.10133  -0.04618  -0.04325  -0.03312  -0.01471
 Alpha virt. eigenvalues --   -0.01168  -0.00967  -0.00656   0.00075   0.00946
 Alpha virt. eigenvalues --    0.01037   0.01256   0.01392   0.01619   0.01673
 Alpha virt. eigenvalues --    0.02003   0.02181   0.02273   0.02736   0.03230
 Alpha virt. eigenvalues --    0.03329   0.03499   0.03842   0.04136   0.04474
 Alpha virt. eigenvalues --    0.04698   0.04867   0.05042   0.05129   0.05304
 Alpha virt. eigenvalues --    0.05587   0.05839   0.05871   0.06006   0.06316
 Alpha virt. eigenvalues --    0.06633   0.06749   0.07037   0.07226   0.07347
 Alpha virt. eigenvalues --    0.07786   0.08317   0.08384   0.08478   0.08667
 Alpha virt. eigenvalues --    0.09246   0.09637   0.09817   0.09950   0.10021
 Alpha virt. eigenvalues --    0.10122   0.10372   0.10527   0.10849   0.11345
 Alpha virt. eigenvalues --    0.11441   0.11545   0.11662   0.11858   0.12031
 Alpha virt. eigenvalues --    0.12145   0.12271   0.12528   0.12681   0.12846
 Alpha virt. eigenvalues --    0.12897   0.13074   0.13137   0.13464   0.13537
 Alpha virt. eigenvalues --    0.13868   0.14024   0.14198   0.14501   0.14632
 Alpha virt. eigenvalues --    0.14742   0.15170   0.15203   0.15252   0.15396
 Alpha virt. eigenvalues --    0.15458   0.15743   0.15951   0.16021   0.16115
 Alpha virt. eigenvalues --    0.16249   0.16400   0.16503   0.16540   0.16593
 Alpha virt. eigenvalues --    0.16689   0.16826   0.16984   0.17344   0.17649
 Alpha virt. eigenvalues --    0.17746   0.17799   0.17816   0.18106   0.18273
 Alpha virt. eigenvalues --    0.18440   0.18581   0.18792   0.18991   0.19164
 Alpha virt. eigenvalues --    0.19531   0.19692   0.19918   0.20210   0.20361
 Alpha virt. eigenvalues --    0.20687   0.20829   0.20909   0.21312   0.21489
 Alpha virt. eigenvalues --    0.21697   0.22019   0.22134   0.22362   0.22553
 Alpha virt. eigenvalues --    0.22694   0.22744   0.23280   0.23461   0.23857
 Alpha virt. eigenvalues --    0.23983   0.24228   0.24484   0.24682   0.24849
 Alpha virt. eigenvalues --    0.24959   0.25254   0.25378   0.25893   0.26046
 Alpha virt. eigenvalues --    0.26210   0.26288   0.26539   0.26751   0.26886
 Alpha virt. eigenvalues --    0.27117   0.27369   0.27465   0.27570   0.27880
 Alpha virt. eigenvalues --    0.28077   0.28190   0.28418   0.28531   0.28655
 Alpha virt. eigenvalues --    0.29175   0.29415   0.29503   0.29661   0.29937
 Alpha virt. eigenvalues --    0.30000   0.30404   0.30696   0.30936   0.31008
 Alpha virt. eigenvalues --    0.31250   0.31408   0.31613   0.31837   0.32308
 Alpha virt. eigenvalues --    0.32494   0.32806   0.32843   0.33284   0.33403
 Alpha virt. eigenvalues --    0.33462   0.33829   0.34062   0.34295   0.34579
 Alpha virt. eigenvalues --    0.35226   0.35786   0.36110   0.36235   0.36643
 Alpha virt. eigenvalues --    0.36757   0.37040   0.37695   0.37945   0.38047
 Alpha virt. eigenvalues --    0.38314   0.38580   0.38949   0.39061   0.39232
 Alpha virt. eigenvalues --    0.39684   0.39976   0.40239   0.40415   0.40577
 Alpha virt. eigenvalues --    0.41283   0.41446   0.41667   0.41967   0.42356
 Alpha virt. eigenvalues --    0.42508   0.42807   0.43013   0.43035   0.43270
 Alpha virt. eigenvalues --    0.43402   0.43719   0.43833   0.43924   0.44315
 Alpha virt. eigenvalues --    0.44549   0.44761   0.44792   0.45189   0.45225
 Alpha virt. eigenvalues --    0.45382   0.45573   0.45719   0.45852   0.46131
 Alpha virt. eigenvalues --    0.46464   0.46533   0.46656   0.46877   0.47063
 Alpha virt. eigenvalues --    0.47074   0.47429   0.47683   0.47877   0.48180
 Alpha virt. eigenvalues --    0.48472   0.48774   0.48942   0.49233   0.49340
 Alpha virt. eigenvalues --    0.49478   0.49637   0.49653   0.49941   0.50138
 Alpha virt. eigenvalues --    0.50302   0.50442   0.50570   0.50788   0.51037
 Alpha virt. eigenvalues --    0.51257   0.51322   0.51582   0.51780   0.52066
 Alpha virt. eigenvalues --    0.52155   0.52267   0.52427   0.52824   0.52902
 Alpha virt. eigenvalues --    0.53031   0.53106   0.53231   0.53470   0.53569
 Alpha virt. eigenvalues --    0.53831   0.53932   0.54107   0.54292   0.54337
 Alpha virt. eigenvalues --    0.54541   0.54769   0.54843   0.55052   0.55225
 Alpha virt. eigenvalues --    0.55336   0.55412   0.55773   0.55893   0.55976
 Alpha virt. eigenvalues --    0.56113   0.56627   0.56850   0.56983   0.57204
 Alpha virt. eigenvalues --    0.57367   0.57687   0.57837   0.57996   0.58094
 Alpha virt. eigenvalues --    0.58376   0.58441   0.58537   0.58842   0.59141
 Alpha virt. eigenvalues --    0.59441   0.59557   0.59807   0.59940   0.60058
 Alpha virt. eigenvalues --    0.60160   0.60355   0.60567   0.60655   0.60978
 Alpha virt. eigenvalues --    0.61398   0.61462   0.61485   0.61598   0.61773
 Alpha virt. eigenvalues --    0.62006   0.62190   0.62242   0.62370   0.62538
 Alpha virt. eigenvalues --    0.62760   0.62928   0.62984   0.63092   0.63207
 Alpha virt. eigenvalues --    0.63272   0.63359   0.63503   0.63584   0.63755
 Alpha virt. eigenvalues --    0.63843   0.63953   0.64315   0.64375   0.64443
 Alpha virt. eigenvalues --    0.64589   0.64633   0.64776   0.65068   0.65134
 Alpha virt. eigenvalues --    0.65207   0.65402   0.65454   0.65502   0.65625
 Alpha virt. eigenvalues --    0.65658   0.65895   0.65976   0.66000   0.66079
 Alpha virt. eigenvalues --    0.66197   0.66336   0.66390   0.66546   0.66559
 Alpha virt. eigenvalues --    0.66585   0.66764   0.66913   0.66982   0.67103
 Alpha virt. eigenvalues --    0.67124   0.67189   0.67413   0.67614   0.67663
 Alpha virt. eigenvalues --    0.67670   0.67876   0.67987   0.68197   0.68361
 Alpha virt. eigenvalues --    0.68419   0.68478   0.68564   0.68722   0.68877
 Alpha virt. eigenvalues --    0.68965   0.69144   0.69205   0.69298   0.69365
 Alpha virt. eigenvalues --    0.69493   0.69640   0.69764   0.69839   0.69893
 Alpha virt. eigenvalues --    0.70056   0.70271   0.70383   0.70487   0.70635
 Alpha virt. eigenvalues --    0.70720   0.71003   0.71179   0.71265   0.71364
 Alpha virt. eigenvalues --    0.71532   0.71639   0.71964   0.72003   0.72081
 Alpha virt. eigenvalues --    0.72354   0.72602   0.72669   0.72765   0.73161
 Alpha virt. eigenvalues --    0.73345   0.73486   0.73566   0.73795   0.74011
 Alpha virt. eigenvalues --    0.74349   0.74529   0.74717   0.74894   0.74999
 Alpha virt. eigenvalues --    0.75391   0.75473   0.75765   0.75911   0.76250
 Alpha virt. eigenvalues --    0.76455   0.76685   0.76964   0.77168   0.77276
 Alpha virt. eigenvalues --    0.77633   0.77773   0.77944   0.78111   0.78373
 Alpha virt. eigenvalues --    0.78616   0.78977   0.79049   0.79354   0.79533
 Alpha virt. eigenvalues --    0.79635   0.80089   0.80218   0.80431   0.80462
 Alpha virt. eigenvalues --    0.80922   0.81218   0.81444   0.81852   0.81955
 Alpha virt. eigenvalues --    0.82103   0.82261   0.82456   0.82700   0.82901
 Alpha virt. eigenvalues --    0.83041   0.83279   0.83783   0.84143   0.84542
 Alpha virt. eigenvalues --    0.84677   0.85130   0.85296   0.85628   0.86011
 Alpha virt. eigenvalues --    0.86446   0.86645   0.87053   0.87278   0.87537
 Alpha virt. eigenvalues --    0.87700   0.88098   0.88191   0.88481   0.88917
 Alpha virt. eigenvalues --    0.88974   0.89202   0.89762   0.89965   0.90121
 Alpha virt. eigenvalues --    0.90340   0.90489   0.90858   0.91160   0.91355
 Alpha virt. eigenvalues --    0.91708   0.92017   0.92143   0.92590   0.92912
 Alpha virt. eigenvalues --    0.93187   0.93497   0.93781   0.93912   0.94466
 Alpha virt. eigenvalues --    0.94610   0.94721   0.94845   0.95215   0.95387
 Alpha virt. eigenvalues --    0.95649   0.95985   0.96147   0.96301   0.96309
 Alpha virt. eigenvalues --    0.96503   0.96955   0.97112   0.97673   0.97822
 Alpha virt. eigenvalues --    0.98482   0.98785   0.99161   0.99509   0.99780
 Alpha virt. eigenvalues --    0.99883   1.00118   1.00314   1.00766   1.01101
 Alpha virt. eigenvalues --    1.01348   1.01769   1.02211   1.02406   1.02876
 Alpha virt. eigenvalues --    1.03245   1.03712   1.03965   1.04071   1.04401
 Alpha virt. eigenvalues --    1.05102   1.05438   1.05556   1.05930   1.06038
 Alpha virt. eigenvalues --    1.06512   1.06840   1.06996   1.07330   1.07782
 Alpha virt. eigenvalues --    1.07980   1.08409   1.08510   1.08737   1.08937
 Alpha virt. eigenvalues --    1.09222   1.09408   1.09944   1.10253   1.10491
 Alpha virt. eigenvalues --    1.10653   1.10743   1.11188   1.11515   1.11765
 Alpha virt. eigenvalues --    1.12179   1.12660   1.12705   1.13088   1.13516
 Alpha virt. eigenvalues --    1.13680   1.13797   1.14490   1.14679   1.14748
 Alpha virt. eigenvalues --    1.15044   1.15324   1.15632   1.15745   1.15915
 Alpha virt. eigenvalues --    1.16495   1.16810   1.17154   1.17178   1.17386
 Alpha virt. eigenvalues --    1.17538   1.17936   1.18171   1.18552   1.18646
 Alpha virt. eigenvalues --    1.18910   1.19343   1.19463   1.19647   1.19843
 Alpha virt. eigenvalues --    1.20245   1.20630   1.20791   1.21177   1.21462
 Alpha virt. eigenvalues --    1.21630   1.22006   1.22437   1.22696   1.22816
 Alpha virt. eigenvalues --    1.23054   1.23256   1.23460   1.23850   1.23933
 Alpha virt. eigenvalues --    1.24155   1.24522   1.24655   1.24938   1.25231
 Alpha virt. eigenvalues --    1.25423   1.25544   1.25808   1.26386   1.26471
 Alpha virt. eigenvalues --    1.26581   1.27005   1.27223   1.27425   1.27754
 Alpha virt. eigenvalues --    1.28130   1.28211   1.28636   1.28972   1.29184
 Alpha virt. eigenvalues --    1.29463   1.29671   1.29861   1.30338   1.30611
 Alpha virt. eigenvalues --    1.31168   1.31542   1.31681   1.31923   1.32276
 Alpha virt. eigenvalues --    1.32334   1.32739   1.33385   1.33588   1.33718
 Alpha virt. eigenvalues --    1.33850   1.34121   1.34429   1.34831   1.34982
 Alpha virt. eigenvalues --    1.35598   1.35713   1.36005   1.36119   1.36213
 Alpha virt. eigenvalues --    1.36309   1.36685   1.37001   1.37299   1.37792
 Alpha virt. eigenvalues --    1.38036   1.38314   1.38595   1.38893   1.39300
 Alpha virt. eigenvalues --    1.39368   1.39591   1.39751   1.39902   1.40039
 Alpha virt. eigenvalues --    1.40501   1.40804   1.41099   1.41437   1.41530
 Alpha virt. eigenvalues --    1.41700   1.41994   1.42228   1.42464   1.42621
 Alpha virt. eigenvalues --    1.42748   1.42930   1.43240   1.43512   1.43750
 Alpha virt. eigenvalues --    1.44206   1.44372   1.44587   1.45174   1.45282
 Alpha virt. eigenvalues --    1.45597   1.45951   1.46242   1.46436   1.46521
 Alpha virt. eigenvalues --    1.47076   1.47583   1.47855   1.47915   1.48291
 Alpha virt. eigenvalues --    1.48492   1.49037   1.49787   1.49987   1.50131
 Alpha virt. eigenvalues --    1.50327   1.50585   1.51108   1.51273   1.51511
 Alpha virt. eigenvalues --    1.51699   1.51938   1.52196   1.52453   1.52745
 Alpha virt. eigenvalues --    1.52892   1.52933   1.53333   1.53931   1.54021
 Alpha virt. eigenvalues --    1.54277   1.54585   1.54705   1.54868   1.55083
 Alpha virt. eigenvalues --    1.55161   1.55619   1.55917   1.56150   1.56770
 Alpha virt. eigenvalues --    1.57086   1.57395   1.58167   1.58396   1.58915
 Alpha virt. eigenvalues --    1.59221   1.59904   1.60143   1.60232   1.60849
 Alpha virt. eigenvalues --    1.60950   1.61208   1.61605   1.61918   1.62057
 Alpha virt. eigenvalues --    1.62476   1.62692   1.63012   1.63276   1.63488
 Alpha virt. eigenvalues --    1.63710   1.63989   1.64239   1.64660   1.64890
 Alpha virt. eigenvalues --    1.65323   1.65594   1.65901   1.66083   1.66546
 Alpha virt. eigenvalues --    1.66733   1.67105   1.67429   1.67569   1.68030
 Alpha virt. eigenvalues --    1.68226   1.68404   1.68793   1.68819   1.69290
 Alpha virt. eigenvalues --    1.69696   1.69909   1.70287   1.70610   1.70795
 Alpha virt. eigenvalues --    1.71325   1.71433   1.71853   1.71956   1.72251
 Alpha virt. eigenvalues --    1.72379   1.72817   1.73122   1.73313   1.73720
 Alpha virt. eigenvalues --    1.73862   1.74103   1.74218   1.74396   1.74597
 Alpha virt. eigenvalues --    1.74868   1.75114   1.75407   1.75441   1.75709
 Alpha virt. eigenvalues --    1.75987   1.76115   1.76219   1.76305   1.76510
 Alpha virt. eigenvalues --    1.76596   1.77008   1.77197   1.77548   1.77600
 Alpha virt. eigenvalues --    1.77884   1.78048   1.78146   1.78199   1.78573
 Alpha virt. eigenvalues --    1.78668   1.78911   1.79062   1.79204   1.79432
 Alpha virt. eigenvalues --    1.79549   1.79725   1.79972   1.80021   1.80155
 Alpha virt. eigenvalues --    1.80291   1.80637   1.80674   1.80893   1.80942
 Alpha virt. eigenvalues --    1.81064   1.81297   1.81389   1.81534   1.81709
 Alpha virt. eigenvalues --    1.81773   1.82051   1.82113   1.82336   1.82573
 Alpha virt. eigenvalues --    1.82693   1.82999   1.83150   1.83341   1.83398
 Alpha virt. eigenvalues --    1.83504   1.83616   1.83784   1.83948   1.83972
 Alpha virt. eigenvalues --    1.84281   1.84456   1.84729   1.84772   1.84933
 Alpha virt. eigenvalues --    1.85126   1.85455   1.85943   1.86211   1.86383
 Alpha virt. eigenvalues --    1.86540   1.86680   1.86741   1.86829   1.87199
 Alpha virt. eigenvalues --    1.87306   1.87391   1.87723   1.87792   1.87978
 Alpha virt. eigenvalues --    1.88278   1.88557   1.88605   1.88861   1.89159
 Alpha virt. eigenvalues --    1.89199   1.89448   1.89499   1.89766   1.90015
 Alpha virt. eigenvalues --    1.90147   1.90371   1.90725   1.90858   1.91051
 Alpha virt. eigenvalues --    1.91529   1.91676   1.91741   1.91899   1.92057
 Alpha virt. eigenvalues --    1.92153   1.92183   1.92453   1.92647   1.92980
 Alpha virt. eigenvalues --    1.93142   1.93404   1.93584   1.93867   1.94036
 Alpha virt. eigenvalues --    1.94199   1.94396   1.94481   1.94931   1.95159
 Alpha virt. eigenvalues --    1.95283   1.95449   1.95564   1.95907   1.96046
 Alpha virt. eigenvalues --    1.96175   1.96261   1.96513   1.96926   1.97017
 Alpha virt. eigenvalues --    1.97332   1.97730   1.97925   1.98134   1.98342
 Alpha virt. eigenvalues --    1.98442   1.98757   1.99062   1.99280   1.99568
 Alpha virt. eigenvalues --    1.99764   1.99964   2.00129   2.00487   2.00688
 Alpha virt. eigenvalues --    2.00980   2.01462   2.01670   2.01709   2.02332
 Alpha virt. eigenvalues --    2.02416   2.02574   2.02675   2.03030   2.03252
 Alpha virt. eigenvalues --    2.03539   2.03836   2.04152   2.04369   2.04542
 Alpha virt. eigenvalues --    2.04605   2.04992   2.05232   2.05241   2.05655
 Alpha virt. eigenvalues --    2.05766   2.05967   2.06598   2.06778   2.07218
 Alpha virt. eigenvalues --    2.07583   2.07753   2.07989   2.08272   2.08696
 Alpha virt. eigenvalues --    2.08997   2.09422   2.09737   2.10073   2.10537
 Alpha virt. eigenvalues --    2.10545   2.10909   2.11069   2.11271   2.11480
 Alpha virt. eigenvalues --    2.11780   2.11809   2.12134   2.12316   2.12886
 Alpha virt. eigenvalues --    2.13320   2.13379   2.13506   2.13740   2.13918
 Alpha virt. eigenvalues --    2.13987   2.14485   2.14704   2.15170   2.15527
 Alpha virt. eigenvalues --    2.15842   2.15900   2.16334   2.16540   2.17067
 Alpha virt. eigenvalues --    2.17189   2.17558   2.17661   2.18092   2.18245
 Alpha virt. eigenvalues --    2.18581   2.18778   2.19129   2.19392   2.19546
 Alpha virt. eigenvalues --    2.19833   2.19895   2.20274   2.20748   2.21118
 Alpha virt. eigenvalues --    2.21210   2.21588   2.21883   2.22005   2.22160
 Alpha virt. eigenvalues --    2.22464   2.22915   2.23234   2.23810   2.23910
 Alpha virt. eigenvalues --    2.24271   2.24375   2.24603   2.24729   2.25072
 Alpha virt. eigenvalues --    2.25599   2.25839   2.26041   2.26609   2.26952
 Alpha virt. eigenvalues --    2.27168   2.27614   2.27651   2.28309   2.28557
 Alpha virt. eigenvalues --    2.28889   2.29098   2.29856   2.30026   2.30339
 Alpha virt. eigenvalues --    2.30554   2.30813   2.31438   2.31566   2.32198
 Alpha virt. eigenvalues --    2.33151   2.33284   2.33559   2.33915   2.34004
 Alpha virt. eigenvalues --    2.34436   2.34543   2.34763   2.35094   2.35431
 Alpha virt. eigenvalues --    2.35871   2.36327   2.36509   2.36699   2.37048
 Alpha virt. eigenvalues --    2.37375   2.37807   2.38161   2.38437   2.38566
 Alpha virt. eigenvalues --    2.38850   2.39117   2.39304   2.39376   2.39602
 Alpha virt. eigenvalues --    2.40097   2.40267   2.40484   2.40644   2.40861
 Alpha virt. eigenvalues --    2.41217   2.41616   2.42560   2.42876   2.43021
 Alpha virt. eigenvalues --    2.43179   2.43927   2.44198   2.44455   2.44534
 Alpha virt. eigenvalues --    2.44674   2.45104   2.45379   2.45420   2.45877
 Alpha virt. eigenvalues --    2.46138   2.46310   2.47031   2.47279   2.47836
 Alpha virt. eigenvalues --    2.48025   2.48395   2.48598   2.48755   2.49104
 Alpha virt. eigenvalues --    2.49584   2.50108   2.50133   2.51250   2.51382
 Alpha virt. eigenvalues --    2.51560   2.52431   2.52527   2.53157   2.53971
 Alpha virt. eigenvalues --    2.54026   2.55400   2.55753   2.55979   2.56470
 Alpha virt. eigenvalues --    2.56755   2.56990   2.57217   2.57338   2.57829
 Alpha virt. eigenvalues --    2.58295   2.58385   2.59037   2.59329   2.59395
 Alpha virt. eigenvalues --    2.59473   2.59902   2.60024   2.60525   2.60594
 Alpha virt. eigenvalues --    2.61110   2.61301   2.61624   2.61877   2.61965
 Alpha virt. eigenvalues --    2.62421   2.62822   2.62951   2.63277   2.63533
 Alpha virt. eigenvalues --    2.63673   2.64227   2.64509   2.64981   2.65428
 Alpha virt. eigenvalues --    2.65734   2.66032   2.66188   2.66335   2.66537
 Alpha virt. eigenvalues --    2.66782   2.67062   2.67384   2.67752   2.68006
 Alpha virt. eigenvalues --    2.68097   2.68455   2.68648   2.68710   2.69022
 Alpha virt. eigenvalues --    2.69432   2.69467   2.69775   2.70198   2.70884
 Alpha virt. eigenvalues --    2.71097   2.71434   2.71607   2.71856   2.72511
 Alpha virt. eigenvalues --    2.72599   2.72826   2.73087   2.73431   2.73484
 Alpha virt. eigenvalues --    2.73781   2.73965   2.74292   2.74552   2.74799
 Alpha virt. eigenvalues --    2.75078   2.75175   2.75530   2.75549   2.75751
 Alpha virt. eigenvalues --    2.76232   2.76495   2.77036   2.77187   2.77544
 Alpha virt. eigenvalues --    2.77763   2.77854   2.78005   2.79247   2.79512
 Alpha virt. eigenvalues --    2.79529   2.79714   2.79964   2.80021   2.80147
 Alpha virt. eigenvalues --    2.80710   2.81073   2.81337   2.81625   2.81916
 Alpha virt. eigenvalues --    2.82143   2.82441   2.82744   2.82918   2.83184
 Alpha virt. eigenvalues --    2.83554   2.83862   2.84153   2.84360   2.84879
 Alpha virt. eigenvalues --    2.85011   2.85160   2.86068   2.86695   2.86871
 Alpha virt. eigenvalues --    2.87212   2.87364   2.87672   2.87816   2.88194
 Alpha virt. eigenvalues --    2.88374   2.88464   2.88999   2.89265   2.89744
 Alpha virt. eigenvalues --    2.90124   2.90440   2.90708   2.91010   2.91421
 Alpha virt. eigenvalues --    2.91600   2.91813   2.91916   2.91986   2.92227
 Alpha virt. eigenvalues --    2.92410   2.92905   2.93161   2.93479   2.93924
 Alpha virt. eigenvalues --    2.94134   2.94217   2.94298   2.94522   2.95241
 Alpha virt. eigenvalues --    2.95343   2.95407   2.95694   2.96147   2.96420
 Alpha virt. eigenvalues --    2.97103   2.97276   2.97397   2.97871   2.98555
 Alpha virt. eigenvalues --    2.98636   2.99102   2.99295   2.99898   2.99943
 Alpha virt. eigenvalues --    3.00618   3.00973   3.01091   3.01390   3.01560
 Alpha virt. eigenvalues --    3.02037   3.02168   3.02434   3.02876   3.02971
 Alpha virt. eigenvalues --    3.03701   3.03847   3.04273   3.05006   3.05403
 Alpha virt. eigenvalues --    3.05620   3.05852   3.06351   3.07126   3.07824
 Alpha virt. eigenvalues --    3.08115   3.08236   3.08501   3.08953   3.10445
 Alpha virt. eigenvalues --    3.10530   3.10871   3.11338   3.11859   3.12420
 Alpha virt. eigenvalues --    3.12825   3.13086   3.13534   3.14048   3.14314
 Alpha virt. eigenvalues --    3.15382   3.15548   3.15684   3.16038   3.16125
 Alpha virt. eigenvalues --    3.16208   3.16761   3.17056   3.17477   3.17819
 Alpha virt. eigenvalues --    3.18151   3.18236   3.18317   3.18636   3.19046
 Alpha virt. eigenvalues --    3.19295   3.19462   3.20029   3.20340   3.20739
 Alpha virt. eigenvalues --    3.21405   3.21453   3.21679   3.22079   3.22531
 Alpha virt. eigenvalues --    3.22630   3.22820   3.22984   3.24271   3.24485
 Alpha virt. eigenvalues --    3.25370   3.25419   3.25582   3.26466   3.27343
 Alpha virt. eigenvalues --    3.27502   3.27644   3.28448   3.30806   3.32242
 Alpha virt. eigenvalues --    3.32781   3.33261   3.33320   3.35295   3.35469
 Alpha virt. eigenvalues --    3.36914   3.36950   3.38205   3.39378   3.39459
 Alpha virt. eigenvalues --    3.39942   3.40421   3.43758   3.47741   3.52671
 Alpha virt. eigenvalues --    3.53339   3.53990   3.55216   3.56637   3.57076
 Alpha virt. eigenvalues --    3.57543   3.57962   3.59424   3.59722   3.59954
 Alpha virt. eigenvalues --    3.60455   3.61365   3.61773   3.62426   3.63639
 Alpha virt. eigenvalues --    3.63936   3.64486   3.67215   3.67993   3.68490
 Alpha virt. eigenvalues --    3.68653   3.68723   3.69577   3.69751   3.69897
 Alpha virt. eigenvalues --    3.70058   3.70221   3.70320   3.70516   3.71136
 Alpha virt. eigenvalues --    3.71806   3.71999   3.72396   3.72641   3.73191
 Alpha virt. eigenvalues --    3.77983   3.81843   3.87045   3.97507
          Condensed to atoms (all electrons):
 Mulliken charges:
               1
     1  C    0.040913
     2  C    0.017351
     3  O   -0.278523
     4  H    0.041605
     5  H    0.009740
     6  H    0.033653
     7  N   -0.100833
     8  C    0.125481
     9  C    0.054931
    10  O   -0.317727
    11  C    0.060028
    12  C    0.115761
    13  O   -0.457096
    14  O   -0.364300
    15  H    0.115560
    16  H   -0.010030
    17  H    0.005291
    18  H    0.020792
    19  N   -0.102020
    20  C    0.200540
    21  C    0.034110
    22  O   -0.269774
    23  C    0.016837
    24  C   -0.008831
    25  C   -0.000509
    26  C    0.012596
    27  N    0.072582
    28  H    0.160802
    29  H    0.000034
    30  H   -0.013509
    31  H    0.018962
    32  H    0.020946
    33  H   -0.030501
    34  H    0.001999
    35  H    0.041182
    36  H    0.070126
    37  H    0.073916
    38  H    0.209329
    39  H    0.183588
    40  H    0.202264
    41  N   -0.205466
    42  C    0.148832
    43  C    0.060207
    44  O   -0.275097
    45  C    0.104487
    46  C    0.124568
    47  O   -0.405412
    48  O   -0.455503
    49  H    0.169614
    50  H    0.006013
    51  H   -0.073661
    52  H    0.024199
    53  N   -0.160615
    54  C    0.236010
    55  C   -0.015400
    56  O   -0.299030
    57  H    0.167343
    58  H    0.030717
    59  H    0.024601
    60  N   -0.150131
    61  C    0.180678
    62  C    0.055845
    63  O   -0.291575
    64  C    0.101880
    65  C    0.042830
    66  N   -0.024804
    67  O   -0.354890
    68  H    0.139490
    69  H    0.035370
    70  H    0.065071
    71  H   -0.018997
    72  H    0.135132
    73  H    0.133996
    74  N   -0.116696
    75  C    0.177956
    76  C    0.037794
    77  O   -0.292123
    78  H    0.144799
    79  H    0.037391
    80  H    0.030306
    81  N   -0.142556
    82  C    0.137772
    83  C    0.123035
    84  O   -0.331804
    85  C    0.164284
    86  C    0.038612
    87  C   -0.003577
    88  C    0.006290
    89  C   -0.003334
    90  C   -0.060544
    91  C    0.155459
    92  O   -0.192573
    93  H    0.140103
    94  H   -0.016133
    95  H   -0.012511
    96  H   -0.052258
    97  H   -0.058233
    98  H   -0.036502
    99  H   -0.034935
   100  H   -0.042109
   101  H    0.168880
   102  N   -0.132416
   103  C    0.128785
   104  C    0.052847
   105  O   -0.293617
   106  C   -0.107163
   107  C   -0.021337
   108  C    0.077749
   109  C    0.048516
   110  H    0.132544
   111  H    0.008293
   112  H   -0.025392
   113  H    0.009655
   114  H    0.027170
   115  H    0.003589
   116  H    0.020796
   117  H   -0.006280
   118  H   -0.016010
   119  H   -0.001268
   120  H    0.042788
   121  N   -0.120025
   122  C    0.056194
   123  C    0.096735
   124  O   -0.284555
   125  C    0.261219
   126  O   -0.336230
   127  H    0.139596
   128  H    0.006984
   129  H    0.008076
   130  H   -0.012734
   131  H    0.168120
   132  N   -0.136056
   133  C    0.103376
   134  C    0.071662
   135  O   -0.264686
   136  C    0.039914
   137  H    0.114683
   138  H    0.024694
   139  H    0.037707
   140  H    0.033924
   141  H    0.004837
   142  N   -0.130820
   143  C    0.085030
   144  C    0.041099
   145  O   -0.278973
   146  C    0.036087
   147  H    0.107673
   148  H    0.027818
   149  H    0.029610
   150  H    0.008751
   151  H    0.009389
   152  N   -0.135490
   153  C    0.133483
   154  C    0.084658
   155  O   -0.275385
   156  C   -0.106697
   157  C    0.065631
   158  C    0.213243
   159  O   -0.449798
   160  O   -0.423956
   161  H    0.131859
   162  H    0.003256
   163  H    0.053968
   164  H    0.026331
   165  H    0.000630
   166  H    0.023544
   167  N   -0.160406
   168  C    0.114342
   169  H    0.024785
   170  H    0.037409
   171  H    0.007009
   172  H    0.131824
   173  Ca   1.359590
   174  O   -0.315764
   175  H    0.168826
   176  H    0.158396
 Sum of Mulliken charges =  -0.00000
 Mulliken charges with hydrogens summed into heavy atoms:
               1
     1  C    0.125911
     2  C    0.017351
     3  O   -0.278523
     7  N    0.014726
     8  C    0.115451
     9  C    0.054931
    10  O   -0.317727
    11  C    0.086111
    12  C    0.115761
    13  O   -0.457096
    14  O   -0.364300
    19  N    0.058782
    20  C    0.200574
    21  C    0.034110
    22  O   -0.269774
    23  C    0.022289
    24  C   -0.018386
    25  C    0.042671
    26  C    0.156638
    27  N    0.667763
    41  N   -0.035851
    42  C    0.154845
    43  C    0.060207
    44  O   -0.275097
    45  C    0.055025
    46  C    0.124568
    47  O   -0.405412
    48  O   -0.455503
    53  N    0.006728
    54  C    0.291328
    55  C   -0.015400
    56  O   -0.299030
    60  N   -0.010641
    61  C    0.216048
    62  C    0.055845
    63  O   -0.291575
    64  C    0.147954
    65  C    0.042830
    66  N    0.244325
    67  O   -0.354890
    74  N    0.028104
    75  C    0.245653
    76  C    0.037794
    77  O   -0.292123
    81  N   -0.002453
    82  C    0.121639
    83  C    0.123035
    84  O   -0.331804
    85  C    0.099515
    86  C    0.038612
    87  C   -0.061810
    88  C   -0.030212
    89  C   -0.038269
    90  C   -0.102653
    91  C    0.155459
    92  O   -0.023693
   102  N    0.000129
   103  C    0.137078
   104  C    0.052847
   105  O   -0.293617
   106  C   -0.132555
   107  C    0.015489
   108  C    0.095855
   109  C    0.074027
   121  N    0.019571
   122  C    0.063178
   123  C    0.096735
   124  O   -0.284555
   125  C    0.256562
   126  O   -0.168110
   132  N   -0.021373
   133  C    0.128070
   134  C    0.071662
   135  O   -0.264686
   136  C    0.116383
   142  N   -0.023148
   143  C    0.112848
   144  C    0.041099
   145  O   -0.278973
   146  C    0.083837
   152  N   -0.003632
   153  C    0.136739
   154  C    0.084658
   155  O   -0.275385
   156  C   -0.026398
   157  C    0.089805
   158  C    0.213243
   159  O   -0.449798
   160  O   -0.423956
   167  N   -0.028582
   168  C    0.183546
   173  Ca   1.359590
   174  O    0.011458
 DipInt: DoE/N= T F RetVal/Mat= T F Init=T NMatP=  1 IDeriv=0 Min/MaxMlt=  0  4
 Entering OneElI...
 OneElI was handed  1333951383 working-precision words.
 Multipole integrals L=0 to 4 MinM= 0 MaxM= 0.
 Requested accuracy = 0.1000D-12
 ShPair: Thresh= 1.00D-13 NBox=     0 BxSize= 0.00D+00 RnKept= 2.55D+01
         NSMCal=               327645 NSMKep=              163174
 PrmmSu-InSpLW:  IPartL=    0 NPrtUS=    1 NPrtUL=    1 DoSpLW=F IThBeg=    0 IThEnd=    0 NThAct=    1.
 PrsmSu:  NPrtUS=   1 ThrOK=F IAlg=1 NPAlg=1 LenDen=           0 ISkipM=0 DoSpLW=F IThBeg=    0 IThEnd=    0.
 Prism:   IPart=     0 DynPar=F LinDyn=F Incr=         512.
 PRISM was handed  1323761057 working-precision words and163174 shell-pairs
 IPart=  0 NShTot=      163174 NBatch=         376 AvBLen=       434.0
 PrsmSu-ThDecC:  IPartSL=    0    0 NPrtUSL=    1    1 IThBeg=    0 IThEnd=    0 CPU=   -1 GPU=   -1 NThAct=    1.
 PrSmSu:  NxtVal=            513.
 Electronic moments (au):
       -716.00000000         -1.89418393         -3.61213658        -11.09906075
     -49789.33878171     -29790.26092582     -13891.54898241        -29.13032993
          8.44084308         91.78643643     134540.48057901     -24367.59290119
     -22611.35803081     -81884.41672426     -87538.86232510      32708.08521871
      15008.44902655      28868.64878721      45795.22009349       4709.63115663
   -7298849.25939732   -3197927.99766896    -779942.98521701     213134.10572072
    -351212.32841979    -645252.72791796     -59111.54133604     107723.12787976
     -27910.64682125   -1646556.63800390    -689695.24989993    -589534.04313782
     290135.82288693     146613.24020716     -40081.06837921
 Electronic spatial extent (au):  <R**2>=          93471.1487
 DipInt: DoE/N= F T RetVal/Mat= T F Init=T NMatP=  1 IDeriv=0 Min/MaxMlt=  0  4
 Nuclear    moments (au):
        716.00000000          0.00000000         -0.00000000          0.00000000
      49237.01397234      29465.91791034      13555.98129661          0.00000000
          0.00000000         -0.00000000    -134692.79169634      23099.95871785
      22091.51877642      81573.61802995      88077.15950100     -33332.00123606
     -14950.39828352     -29574.86453797     -47287.83826400      -4697.97669189
    7093438.09519876    3122573.09576017     739277.70343268    -221312.40384979
     350807.56215189     647077.36912734      77697.70617656    -107250.41018585
      34606.31892694    1597748.63051441     654527.44020535     574637.17713058
    -290451.76021568    -146370.01981586      38629.76585082
 Total      moments (au):
         -0.00000000         -1.89418393         -3.61213658        -11.09906075
       -552.32480938       -324.34301548       -335.56768580        -29.13032993
          8.44084308         91.78643643       -152.31111733      -1267.63418334
       -519.83925439       -310.79869432        538.29717590       -623.91601734
         58.05074303       -706.21575077      -1492.61817051         11.65446473
    -205411.16419856     -75354.90190879     -40665.28178433      -8178.29812907
       -404.76626790       1824.64120938      18586.16484052        472.71769390
       6695.67210568     -48808.00748948     -35167.80969457     -14896.86600724
       -315.93732876        243.22039130      -1451.30252839
 Traceless Quadrup. (au):
       -148.24630583         79.73548807         68.51081775        -29.13032993
          8.44084308         91.78643643
 Charge=             -0.0000 electrons
 Dipole moment (field-independent basis, Debye):
    X=             -4.8145    Y=             -9.1811    Z=            -28.2110  Tot=             30.0555
 Quadrupole moment (field-independent basis, Debye-Ang):
   XX=           -742.8958   YY=           -436.2525   ZZ=           -451.3500
   XY=            -39.1813   XZ=             11.3532   YZ=            123.4559
 Traceless Quadrupole moment (field-independent basis, Debye-Ang):
   XX=           -199.3964   YY=            107.2470   ZZ=             92.1494
   XY=            -39.1813   XZ=             11.3532   YZ=            123.4559
 Octapole moment (field-independent basis, Debye-Ang**2):
  XXX=           -108.4092  YYY=           -902.2532  ZZZ=           -370.0016  XYY=           -221.2145
  XXY=            383.1392  XXZ=           -444.0794  XZZ=             41.3183  YZZ=           -502.6572
  YYZ=          -1062.3881  XYZ=              8.2952
 Hexadecapole moment (field-independent basis, Debye-Ang**3):
 XXXX=         -77367.6942 YYYY=         -28382.2694 ZZZZ=         -15316.4951 XXXY=          -3080.3392
 XXXZ=           -152.4544 YYYX=            687.2474 YYYZ=           7000.4409 ZZZX=            178.0482
 ZZZY=           2521.9112 XXYY=         -18383.4360 XXZZ=         -13245.8835 YYZZ=          -5610.8741
 XXYZ=           -118.9971 YYXZ=             91.6085 ZZXY=           -546.6301
 N-N= 2.187701720273D+04 E-N=-5.623238047430D+04  KE= 5.290758503157D+03
 Leave Link  601 at Sat Sep 14 23:28:22 2019, MaxMem=  1342177280 cpu:              44.1 elap:               1.2
 FitSet:  NAtFit=   176 NAtPot=   176 NAtFrz=     0 MDM=   180 TotChg=   0.00000
 Merz-Kollman atomic radii used.
 Read replacement radii for each type of atom:
 Rad(20) =   1.700000000000D+00
 Atom Element Radius
    1     6    1.50
    2     6    1.50
    3     8    1.40
    4     1    1.20
    5     1    1.20
    6     1    1.20
    7     7    1.50
    8     6    1.50
    9     6    1.50
   10     8    1.40
   11     6    1.50
   12     6    1.50
   13     8    1.40
   14     8    1.40
   15     1    1.20
   16     1    1.20
   17     1    1.20
   18     1    1.20
   19     7    1.50
   20     6    1.50
   21     6    1.50
   22     8    1.40
   23     6    1.50
   24     6    1.50
   25     6    1.50
   26     6    1.50
   27     7    1.50
   28     1    1.20
   29     1    1.20
   30     1    1.20
   31     1    1.20
   32     1    1.20
   33     1    1.20
   34     1    1.20
   35     1    1.20
   36     1    1.20
   37     1    1.20
   38     1    1.20
   39     1    1.20
   40     1    1.20
   41     7    1.50
   42     6    1.50
   43     6    1.50
   44     8    1.40
   45     6    1.50
   46     6    1.50
   47     8    1.40
   48     8    1.40
   49     1    1.20
   50     1    1.20
   51     1    1.20
   52     1    1.20
   53     7    1.50
   54     6    1.50
   55     6    1.50
   56     8    1.40
   57     1    1.20
   58     1    1.20
   59     1    1.20
   60     7    1.50
   61     6    1.50
   62     6    1.50
   63     8    1.40
   64     6    1.50
   65     6    1.50
   66     7    1.50
   67     8    1.40
   68     1    1.20
   69     1    1.20
   70     1    1.20
   71     1    1.20
   72     1    1.20
   73     1    1.20
   74     7    1.50
   75     6    1.50
   76     6    1.50
   77     8    1.40
   78     1    1.20
   79     1    1.20
   80     1    1.20
   81     7    1.50
   82     6    1.50
   83     6    1.50
   84     8    1.40
   85     6    1.50
   86     6    1.50
   87     6    1.50
   88     6    1.50
   89     6    1.50
   90     6    1.50
   91     6    1.50
   92     8    1.40
   93     1    1.20
   94     1    1.20
   95     1    1.20
   96     1    1.20
   97     1    1.20
   98     1    1.20
   99     1    1.20
  100     1    1.20
  101     1    1.20
  102     7    1.50
  103     6    1.50
  104     6    1.50
  105     8    1.40
  106     6    1.50
  107     6    1.50
  108     6    1.50
  109     6    1.50
  110     1    1.20
  111     1    1.20
  112     1    1.20
  113     1    1.20
  114     1    1.20
  115     1    1.20
  116     1    1.20
  117     1    1.20
  118     1    1.20
  119     1    1.20
  120     1    1.20
  121     7    1.50
  122     6    1.50
  123     6    1.50
  124     8    1.40
  125     6    1.50
  126     8    1.40
  127     1    1.20
  128     1    1.20
  129     1    1.20
  130     1    1.20
  131     1    1.20
  132     7    1.50
  133     6    1.50
  134     6    1.50
  135     8    1.40
  136     6    1.50
  137     1    1.20
  138     1    1.20
  139     1    1.20
  140     1    1.20
  141     1    1.20
  142     7    1.50
  143     6    1.50
  144     6    1.50
  145     8    1.40
  146     6    1.50
  147     1    1.20
  148     1    1.20
  149     1    1.20
  150     1    1.20
  151     1    1.20
  152     7    1.50
  153     6    1.50
  154     6    1.50
  155     8    1.40
  156     6    1.50
  157     6    1.50
  158     6    1.50
  159     8    1.40
  160     8    1.40
  161     1    1.20
  162     1    1.20
  163     1    1.20
  164     1    1.20
  165     1    1.20
  166     1    1.20
  167     7    1.50
  168     6    1.50
  169     1    1.20
[...]
 **** Fit      -0.004468
 **** Fit      -0.017692
 **** Fit      -0.009600
 **** Fit      -0.002760
 **** Fit       0.003211
 **** Fit      -0.011316
 **** Fit      -0.003100
 **** Fit       0.003744
 **** Fit      -0.009935
 **** Fit      -0.000720
 **** Fit       0.006559
 **** Fit       0.000950
 **** Fit       0.002045
 **** Fit       0.009463
 **** Fit       0.009418
 **** Fit       0.016249
 **** Fit       0.010507
 **** Fit       0.016348
 **** Fit       0.022505
 **** Fit       0.028419
 **** Fit       0.018567
 **** Fit       0.024210
 **** Fit       0.029843
 **** Fit       0.020093
 **** Fit       0.024962
 **** Fit       0.030029
 **** Fit       0.034122
 **** Fit       0.023322
 **** Fit       0.027903
 **** Fit       0.031886
 **** Fit       0.034097
 **** Fit       0.034190
 **** Fit       0.025414
 **** Fit       0.027816
 **** Fit       0.030371
 **** Fit       0.029842
 **** Fit       0.021971
 **** Fit       0.025262
 **** Fit      -0.037720
 **** Fit      -0.035213
 **** Fit      -0.027118
 **** Fit      -0.024555
 **** Fit      -0.017420
 **** Fit      -0.014667
 **** Fit      -0.010585
 **** Fit      -0.007229
 **** Fit      -0.004007
 **** Fit      -0.004744
 **** Fit      -0.000951
 **** Fit       0.002944
 **** Fit       0.007280
 **** Fit      -0.049443
 **** Fit      -0.049388
 **** Fit      -0.052936
 **** Fit      -0.051413
 **** Fit      -0.054274
 **** Fit      -0.056090
 **** Fit      -0.057693
 **** Fit      -0.018396
 **** Fit      -0.018380
 **** Fit      -0.017089
 **** Fit      -0.016785
 **** Fit      -0.017358
 **** Fit      -0.019381
 **** Fit      -0.017342
 **** Fit      -0.016010
 **** Fit      -0.015385
 **** Fit      -0.015377
 **** Fit      -0.015883
 **** Fit      -0.016828
 **** Fit      -0.018165
 **** Fit      -0.023507
 **** Fit      -0.020341
 **** Fit      -0.017812
 **** Fit      -0.013972
 **** Fit      -0.014294
 **** Fit      -0.014943
 **** Fit      -0.015889
 **** Fit      -0.017128
 **** Fit      -0.018660
 **** Fit      -0.025183
 **** Fit      -0.021609
 **** Fit      -0.012816
 **** Fit      -0.013267
 **** Fit      -0.013910
 **** Fit      -0.014732
 **** Fit      -0.015746
 **** Fit      -0.016977
 **** Fit      -0.018445
 **** Fit      -0.020159
 **** Fit      -0.031752
 **** Fit      -0.026526
 **** Fit      -0.022401
 **** Fit      -0.012220
 **** Fit      -0.012901
 **** Fit      -0.013685
 **** Fit      -0.014585
 **** Fit      -0.015637
 **** Fit      -0.016886
 **** Fit      -0.018370
 **** Fit      -0.020113
 **** Fit      -0.022126
 **** Fit      -0.033743
 **** Fit      -0.027731
 **** Fit      -0.012054
 **** Fit      -0.012856
 **** Fit      -0.013700
 **** Fit      -0.014616
 **** Fit      -0.015654
 **** Fit      -0.020091
 **** Fit      -0.022118
 **** Fit      -0.024444
 **** Fit      -0.027130
 **** Fit      -0.035304
 **** Fit      -0.011656
 **** Fit      -0.012538
 **** Fit      -0.013406
 **** Fit      -0.014282
 **** Fit      -0.025982
 **** Fit      -0.028944
 **** Fit      -0.011459
 **** Fit      -0.012432
 **** Fit      -0.013343
 **** Fit      -0.030836
 **** Fit      -0.034624
 **** Fit      -0.011869
 **** Fit      -0.012951
 **** Fit      -0.031536
 **** Fit      -0.035265
 **** Fit      -0.039843
 **** Fit      -0.045783
 **** Fit      -0.012256
 **** Fit      -0.013578
 **** Fit      -0.037183
 **** Fit      -0.041935
 **** Fit      -0.048088
 **** Fit      -0.011208
 **** Fit      -0.012984
 **** Fit      -0.039370
 **** Fit      -0.044083
 **** Fit      -0.011858
 **** Fit      -0.014200
 **** Fit      -0.042036
 **** Fit      -0.046528
 **** Fit      -0.009092
 **** Fit      -0.011896
 **** Fit      -0.015199
 **** Fit      -0.046610
 **** Fit      -0.018253
 **** Fit      -0.015739
 **** Fit      -0.016907
 **** Fit      -0.018351
 **** Fit      -0.020110
 **** Fit      -0.014868
 **** Fit      -0.015820
 **** Fit      -0.016963
 **** Fit      -0.018349
 **** Fit      -0.020026
 **** Fit      -0.022039
 **** Fit      -0.024424
 **** Fit      -0.013653
 **** Fit      -0.014412
 **** Fit      -0.015247
 **** Fit      -0.016197
 **** Fit      -0.017304
 **** Fit      -0.018615
 **** Fit      -0.020179
 **** Fit      -0.022047
 **** Fit      -0.024271
 **** Fit      -0.026908
 **** Fit      -0.014141
 **** Fit      -0.014989
 **** Fit      -0.015886
 **** Fit      -0.016872
 **** Fit      -0.017991
 **** Fit      -0.019296
 **** Fit      -0.020842
 **** Fit      -0.022687
 **** Fit      -0.024892
 **** Fit      -0.027525
 **** Fit      -0.030677
 **** Fit      -0.014179
 **** Fit      -0.015147
 **** Fit      -0.016098
 **** Fit      -0.017060
 **** Fit      -0.018073
 **** Fit      -0.019188
 **** Fit      -0.020463
 **** Fit      -0.021958
 **** Fit      -0.023735
 **** Fit      -0.025858
 **** Fit      -0.028394
 **** Fit      -0.031425
 **** Fit      -0.014941
 **** Fit      -0.016156
 **** Fit      -0.017287
 **** Fit      -0.018351
 **** Fit      -0.019390
 **** Fit      -0.020463
 **** Fit      -0.021636
 **** Fit      -0.022980
 **** Fit      -0.024568
 **** Fit      -0.026468
 **** Fit      -0.028749
 **** Fit      -0.031480
 **** Fit      -0.034738
 **** Fit      -0.015695
 **** Fit      -0.017423
 **** Fit      -0.018961
 **** Fit      -0.020302
 **** Fit      -0.021488
 **** Fit      -0.022596
 **** Fit      -0.023721
 **** Fit      -0.024963
 **** Fit      -0.026422
 **** Fit      -0.028192
 **** Fit      -0.030359
 **** Fit      -0.033001
 **** Fit      -0.036184
 **** Fit      -0.039959
 **** Fit      -0.020118
 **** Fit      -0.022259
 **** Fit      -0.023979
 **** Fit      -0.025345
 **** Fit      -0.026489
 **** Fit      -0.027569
 **** Fit      -0.028746
 **** Fit      -0.030167
 **** Fit      -0.031965
 **** Fit      -0.034257
 **** Fit      -0.037133
 **** Fit      -0.040643
 **** Fit      -0.024430
 **** Fit      -0.027434
 **** Fit      -0.029624
 **** Fit      -0.031120
 **** Fit      -0.032162
 **** Fit      -0.033023
 **** Fit      -0.033957
 **** Fit      -0.035182
 **** Fit      -0.036880
 **** Fit      -0.039197
 **** Fit      -0.042233
 **** Fit      -0.045998
 **** Fit      -0.041057
 **** Fit      -0.041913
 **** Fit      -0.043492
 **** Fit      -0.045989
 **** Fit      -0.049479
 **** Fit      -0.023949
 **** Fit      -0.025744
 **** Fit      -0.022827
 **** Fit      -0.021491
 **** Fit      -0.022595
 **** Fit      -0.025288
 **** Fit      -0.027145
 **** Fit      -0.028037
 **** Fit      -0.024686
 **** Fit      -0.021879
 **** Fit      -0.020139
 **** Fit      -0.019570
 **** Fit      -0.020111
 **** Fit      -0.021631
 **** Fit      -0.023975
 **** Fit      -0.026883
 **** Fit      -0.029718
 **** Fit      -0.031332
 **** Fit      -0.030703
 **** Fit      -0.030892
 **** Fit      -0.027026
 **** Fit      -0.023645
 **** Fit      -0.021048
 **** Fit      -0.019452
 **** Fit      -0.021013
 **** Fit      -0.023094
 **** Fit      -0.025694
 **** Fit      -0.028765
 **** Fit      -0.032067
 **** Fit      -0.035042
 **** Fit      -0.036841
 **** Fit      -0.036694
 **** Fit      -0.034472
 **** Fit      -0.034363
 **** Fit      -0.029618
 **** Fit      -0.025550
 **** Fit      -0.019849
 **** Fit      -0.021654
 **** Fit      -0.023868
 **** Fit      -0.026554
 **** Fit      -0.029768
 **** Fit      -0.033480
 **** Fit      -0.037464
 **** Fit      -0.041195
 **** Fit      -0.043847
 **** Fit      -0.044548
 **** Fit      -0.042860
 **** Fit      -0.039133
 **** Fit      -0.038469
 **** Fit      -0.032473
 **** Fit      -0.027512
 **** Fit      -0.021633
 **** Fit      -0.023838
 **** Fit      -0.026471
 **** Fit      -0.029646
 **** Fit      -0.033470
 **** Fit      -0.037972
 **** Fit      -0.043000
 **** Fit      -0.048078
 **** Fit      -0.044899
 **** Fit      -0.043143
 **** Fit      -0.035707
 **** Fit      -0.026612
 **** Fit      -0.029673
 **** Fit      -0.033386
 **** Fit      -0.037911
 **** Fit      -0.043356
 **** Fit      -0.030626
 **** Fit      -0.034549
 **** Fit      -0.039430
 **** Fit      -0.045546
 **** Fit      -0.035746
 **** Fit      -0.040801
 **** Fit      -0.047282
 **** Fit      -0.046218
 **** Fit      -0.015620
 **** Fit      -0.016188
 **** Fit      -0.014364
 **** Fit      -0.013447
 **** Fit      -0.013429
 **** Fit      -0.016853
 **** Fit      -0.014698
 **** Fit      -0.013178
 **** Fit      -0.012268
 **** Fit      -0.011936
 **** Fit      -0.012133
 **** Fit      -0.012770
 **** Fit      -0.017351
 **** Fit      -0.014981
 **** Fit      -0.013218
 **** Fit      -0.011954
 **** Fit      -0.011143
 **** Fit      -0.010773
 **** Fit      -0.010825
 **** Fit      -0.011256
 **** Fit      -0.011991
 **** Fit      -0.015156
 **** Fit      -0.013294
 **** Fit      -0.011864
 **** Fit      -0.010799
 **** Fit      -0.010100
 **** Fit      -0.009776
 **** Fit      -0.009826
 **** Fit      -0.010225
 **** Fit      -0.010917
 **** Fit      -0.012110
 **** Fit      -0.010865
 **** Fit      -0.009913
 **** Fit      -0.009274
 **** Fit      -0.008966
 **** Fit      -0.009000
 **** Fit      -0.009367
 **** Fit      -0.010027
 **** Fit      -0.010909
 **** Fit      -0.010963
 **** Fit      -0.009812
 **** Fit      -0.008970
 **** Fit      -0.008451
 **** Fit      -0.008284
 **** Fit      -0.008487
 **** Fit      -0.009045
 **** Fit      -0.009903
 **** Fit      -0.010966
 **** Fit      -0.010062
 **** Fit      -0.009001
 **** Fit      -0.008241
 **** Fit      -0.007824
 **** Fit      -0.007800
 **** Fit      -0.008186
 **** Fit      -0.008956
 **** Fit      -0.010033
 **** Fit      -0.010471
 **** Fit      -0.009203
 **** Fit      -0.008198
 **** Fit      -0.007544
 **** Fit      -0.007331
 **** Fit      -0.007610
 **** Fit      -0.008372
 **** Fit      -0.009547
 **** Fit      -0.009280
 **** Fit      -0.007983
 **** Fit      -0.007168
 **** Fit      -0.006973
 **** Fit      -0.007458
 **** Fit      -0.008594
 **** Fit      -0.010252
 **** Fit      -0.011474
 **** Fit      -0.009211
 **** Fit      -0.007531
 **** Fit      -0.006683
 **** Fit      -0.006823
 **** Fit      -0.007967
 **** Fit      -0.009974
 **** Fit      -0.009060
 **** Fit      -0.006988
 **** Fit      -0.006331
 **** Fit      -0.007214
 **** Fit       0.025708
 **** Fit       0.033873
 **** Fit       0.039634
 **** Fit       0.037531
 **** Fit       0.044260
 **** Fit       0.042682
 **** Fit       0.048296
 **** Fit       0.047105
 **** Fit       0.045171
 **** Fit       0.042230
 **** Fit       0.052834
 **** Fit       0.051595
 **** Fit       0.050388
 **** Fit       0.048751
 **** Fit       0.046365
 **** Fit       0.043005
 **** Fit       0.038629
 **** Fit       0.033657
 **** Fit       0.054422
 **** Fit       0.052813
 **** Fit       0.051182
 **** Fit       0.049085
 **** Fit       0.046236
 **** Fit       0.042531
 **** Fit       0.038195
 **** Fit       0.055481
 **** Fit       0.053765
 **** Fit       0.051995
 **** Fit       0.049834
 **** Fit       0.046961
 **** Fit       0.043237
 **** Fit       0.027696
 **** Fit       0.052780
 **** Fit       0.052616
 **** Fit       0.051369
 **** Fit       0.049372
 **** Fit       0.046497
 **** Fit       0.028200
 **** Fit       0.037693
 **** Fit       0.044374
 **** Fit       0.047725
 **** Fit       0.048230
 **** Fit       0.046740
 **** Fit       0.043584
 **** Fit       0.037098
 **** Fit       0.041856
 **** Fit       0.042348
 **** Fit       0.033282
 **** Fit       0.028152
 **** Fit       0.024683
 **** Fit       0.023114
 **** Fit       0.039504
 **** Fit       0.035315
 **** Fit       0.031948
 **** Fit       0.029688
 **** Fit       0.028765
 **** Fit       0.020657
 **** Fit       0.029749
 **** Fit       0.040952
 **** Fit       0.040208
 **** Fit       0.038329
 **** Fit       0.036053
 **** Fit       0.033991
 **** Fit       0.032593
 **** Fit       0.032178
 **** Fit       0.020384
 **** Fit       0.027037
 **** Fit       0.031392
 **** Fit       0.033660
 **** Fit       0.034325
 **** Fit       0.034042
 **** Fit       0.033476
 **** Fit       0.033204
 **** Fit       0.033668
 **** Fit       0.021076
 **** Fit       0.025856
 **** Fit       0.028942
 **** Fit       0.030702
 **** Fit       0.031697
 **** Fit       0.032539
 **** Fit       0.033784
 **** Fit       0.018619
 **** Fit       0.023358
 **** Fit       0.026849
 **** Fit       0.029346
 **** Fit       0.031371
 **** Fit       0.033544
 **** Fit       0.019582
 **** Fit       0.023661
 **** Fit       0.027303
 **** Fit       0.030466
 **** Fit       0.033682
 **** Fit       0.024531
 **** Fit       0.026208
 **** Fit       0.029599
 **** Fit       0.033612
 **** Fit       0.032026
 **** Fit       0.033502
 **** Fit       0.033731
 **** Fit       0.039067
 **** Fit       0.026100
 **** Fit       0.031773
 **** Fit       0.037354
 **** Fit       0.043014
 **** Fit       0.027854
 **** Fit       0.032890
 **** Fit       0.038241
 **** Fit       0.043719
 **** Fit       0.049536
 **** Fit       0.028327
 **** Fit       0.027626
 **** Fit       0.028302
 **** Fit       0.030739
 **** Fit       0.034643
 **** Fit       0.039360
 **** Fit       0.044485
 **** Fit       0.049999
 **** Fit       0.032208
 **** Fit       0.032225
 **** Fit       0.033127
 **** Fit       0.035265
 **** Fit       0.038610
 **** Fit       0.042828
 **** Fit       0.047648
 **** Fit       0.053008
 **** Fit       0.058928
 **** Fit       0.034381
 **** Fit       0.034889
 **** Fit       0.035607
 **** Fit       0.036864
 **** Fit       0.038943
 **** Fit       0.041934
 **** Fit       0.045728
 **** Fit       0.050185
 **** Fit       0.055239
 **** Fit       0.060847
 **** Fit       0.036235
 **** Fit       0.037538
 **** Fit       0.039112
 **** Fit       0.041247
 **** Fit       0.044127
 **** Fit       0.047777
 **** Fit       0.052132
 **** Fit       0.057107
 **** Fit       0.062572
 **** Fit       0.068236
 **** Fit       0.036557
 **** Fit       0.038418
 **** Fit       0.040353
 **** Fit       0.042641
 **** Fit       0.045507
 **** Fit       0.049052
 **** Fit       0.053245
 **** Fit       0.057946
 **** Fit       0.062839
 **** Fit       0.067276
 **** Fit       0.070076
 **** Fit       0.054255
 **** Fit       0.034633
 **** Fit       0.036958
 **** Fit       0.039250
 **** Fit       0.041628
 **** Fit       0.044335
 **** Fit       0.047586
 **** Fit       0.051440
 **** Fit       0.055712
 **** Fit       0.059878
 **** Fit       0.062899
 **** Fit       0.063203
 **** Fit       0.059371
 **** Fit       0.051525
 **** Fit       0.042141
 **** Fit       0.038086
 **** Fit       0.036978
 **** Fit       0.038245
 **** Fit       0.040573
 **** Fit       0.043456
 **** Fit       0.046912
 **** Fit       0.050924
 **** Fit       0.054898
 **** Fit       0.057301
 **** Fit       0.055974
 **** Fit       0.050214
 **** Fit       0.042885
 **** Fit       0.043234
 **** Fit       0.042369
 **** Fit       0.045220
 **** Fit       0.049460
 **** Fit       0.051943
 **** Fit       0.048634
 **** Fit       0.046948
 -----------------------------------------------------------------
 Leave Link  602 at Sat Sep 14 23:28:25 2019, MaxMem=  1342177280 cpu:             130.3 elap:               2.8

 Test job not archived.
 1\1\GINC-C486-011\SP\RB3LYP\SVP\C54H83Ca1N15O23\PENGZHI\14-Sep-2019\0\
 \#b3lyp/svp scf=(tight,noincore) Test #IOP(5/87=12) Density=Current Po
 p=(MK,readradii) iop(6/33=2) iop(6/42=6)\\holoCaM_loop3_90.0\\0,1\C,0,
 41.96,43.77,24.56\C,0,42.04,43.43,26.04\O,0,41.32,44.03,26.84\H,0,41.6
 43,44.806,24.442\H,0,42.94,43.636,24.102\H,0,41.239,43.113,24.074\N,0,
 42.92,42.49,26.38\C,0,43.38,42.22,27.73\C,0,44.25,43.34,28.27\O,0,45.1
 1,43.78,27.5\C,0,44.13,40.89,27.65\C,0,44.73,40.39,28.96\O,0,45.09,41.
 23,29.81\O,0,44.83,39.17,29.2\H,0,43.39,42.09,25.58\H,0,42.54,42.03,28
 .41\H,0,44.94,41.08,26.96\H,0,43.41,40.16,27.27\N,0,44.11,43.87,29.48\
 C,0,44.92,44.92,30.06\C,0,46.42,44.71,29.92\O,0,47.16,45.54,29.38\C,0,
 44.59,45.12,31.54\C,0,45.42,46.19,32.24\C,0,45.29,46.19,33.76\C,0,46.2
 2,47.13,34.53\N,0,47.65,46.89,34.28\H,0,43.49,43.27,30.01\H,0,44.73,45
 .84,29.51\H,0,44.76,44.22,32.13\H,0,43.54,45.42,31.6\H,0,45.3,47.17,31
 .77\H,0,46.48,45.92,32.15\H,0,45.45,45.18,34.12\H,0,44.3,46.54,34.06\H
 ,0,46.07,47.01,35.61\H,0,45.95,48.14,34.23\H,0,48.,47.1,33.35\H,0,48.0
 7,47.55,34.91\H,0,47.94,45.97,34.57\N,0,46.88,43.55,30.4\C,0,48.27,43.
 18,30.6\C,0,48.76,42.13,29.61\O,0,49.89,41.66,29.69\C,0,48.39,42.87,32
 .09\C,0,47.29,42.17,32.87\O,0,47.08,42.56,34.04\O,0,46.64,41.21,32.4\H
 ,0,46.24,42.86,30.76\H,0,48.94,44.02,30.45\H,0,48.62,43.78,32.65\H,0,4
 9.33,42.32,32.16\N,0,47.84,41.69,28.75\C,0,48.,40.62,27.79\C,0,48.13,3
 9.26,28.45\O,0,48.69,38.38,27.79\H,0,46.9,42.05,28.89\H,0,48.82,40.8,2
 7.09\H,0,47.21,40.48,27.05\N,0,47.84,39.08,29.74\C,0,48.16,37.88,30.49
 \C,0,47.47,36.6,30.03\O,0,47.87,35.56,30.54\C,0,48.09,38.22,31.98\C,0,
 46.78,37.86,32.67\N,0,46.79,37.07,33.74\O,0,45.71,38.24,32.2\H,0,47.18
 ,39.76,30.07\H,0,49.22,37.66,30.37\H,0,48.35,39.26,32.18\H,0,48.69,37.
 51,32.56\H,0,47.66,36.69,34.08\H,0,46.,37.01,34.36\N,0,46.59,36.67,29.
 03\C,0,45.72,35.55,28.73\C,0,44.37,35.39,29.42\O,0,43.76,34.33,29.33\H
 ,0,46.27,37.56,28.68\H,0,46.31,34.65,28.89\H,0,45.46,35.54,27.67\N,0,4
 3.78,36.48,29.93\C,0,42.53,36.53,30.66\C,0,41.92,37.91,30.48\O,0,42.58
 ,38.92,30.67\C,0,42.69,36.29,32.16\C,0,42.99,34.85,32.47\C,0,44.23,34.
 59,33.07\C,0,42.06,33.81,32.35\C,0,44.59,33.28,33.4\C,0,42.39,32.5,32.
 72\C,0,43.66,32.23,33.26\O,0,43.94,30.91,33.47\H,0,44.27,37.35,29.82\H
 ,0,41.76,35.85,30.3\H,0,41.71,36.47,32.61\H,0,43.33,37.04,32.63\H,0,44
 .97,35.37,33.15\H,0,41.06,33.88,31.94\H,0,45.54,32.95,33.78\H,0,41.62,
 31.74,32.59\H,0,43.19,30.36,33.26\N,0,40.59,37.92,30.28\C,0,39.86,39.1
 7,30.37\C,0,38.92,39.13,31.56\O,0,38.21,38.14,31.75\C,0,39.28,39.42,28
 .98\C,0,40.36,39.93,28.03\C,0,38.1,40.39,29.01\C,0,39.86,40.17,26.61\H
 ,0,40.01,37.12,30.11\H,0,40.53,40.,30.57\H,0,38.86,38.49,28.59\H,0,41.
 12,39.15,28.02\H,0,40.74,40.88,28.41\H,0,37.76,40.57,27.99\H,0,37.22,4
 0.08,29.57\H,0,38.51,41.33,29.39\H,0,40.69,40.14,25.91\H,0,39.26,39.32
 ,26.28\H,0,39.42,41.16,26.52\N,0,38.86,40.25,32.28\C,0,38.07,40.55,33.
 45\C,0,36.86,41.39,33.06\O,0,36.91,42.11,32.06\C,0,38.98,41.17,34.51\O
 ,0,39.43,42.43,34.09\H,0,39.47,40.97,31.92\H,0,37.67,39.65,33.93\H,0,3
 9.76,40.42,34.54\H,0,38.44,41.28,35.46\H,0,40.08,42.27,33.41\N,0,35.89
 ,41.56,33.96\C,0,34.82,42.52,33.84\C,0,35.33,43.95,33.78\O,0,34.68,44.
 82,33.2\C,0,33.8,42.29,34.95\H,0,36.04,41.06,34.83\H,0,34.33,42.28,32.
 9\H,0,33.09,43.12,34.95\H,0,33.19,41.4,34.75\H,0,34.28,42.27,35.93\N,0
 ,36.52,44.19,34.34\C,0,37.19,45.47,34.32\C,0,37.86,45.75,32.98\O,0,37.
 83,46.92,32.6\C,0,38.2,45.63,35.46\H,0,37.06,43.45,34.75\H,0,36.47,46.
 29,34.38\H,0,38.56,46.66,35.43\H,0,37.67,45.4,36.39\H,0,39.05,44.95,35
 .38\N,0,38.2,44.72,32.21\C,0,38.78,44.9,30.9\C,0,37.78,44.93,29.75\O,0
 ,38.05,45.46,28.67\C,0,39.77,43.77,30.64\C,0,41.05,43.91,31.47\C,0,41.
 71,42.56,31.74\O,0,42.87,42.28,31.38\O,0,41.11,41.7,32.42\H,0,38.31,43
 .84,32.69\H,0,39.43,45.78,30.88\H,0,40.08,43.71,29.6\H,0,39.26,42.86,3
 0.94\H,0,40.68,44.36,32.39\H,0,41.68,44.59,30.92\N,0,36.55,44.46,29.97
 \C,0,35.48,44.44,28.99\H,0,34.649,45.047,29.348\H,0,35.844,44.845,28.0
 46\H,0,35.142,43.414,28.841\H,0,36.36,43.8,30.71\Ca,0,44.29,40.47,32.2
 5\O,0,44.53,42.37,34.08\H,0,44.2,42.97,34.74\H,0,45.48,42.52,34.07\\Ve
 rsion=ES64L-G16RevA.03\State=1-A\HF=-5333.5968583\RMSD=5.608e-09\Dipol
 e=2.5374344,4.5978964,10.5945924\Quadrupole=-35.8514564,-5.3909494,41.
 2424058,132.471773,56.5750446,60.0135701\PG=C01 [X(C54H83Ca1N15O23)]\\
 @


 WE LEARN WISDOM FROM FAILURE MUCH MORE THAN FROM SUCCESS.
 WE DISCOVER WHAT WILL DO BY FINDING OUT WHAT WILL NOT DO...
 AND HE WHO NEVER MADE A MISTAKE NEVER MADE A DISCOVERY
 Job cpu time:       0 days 10 hours 32 minutes 30.5 seconds.
 Elapsed time:       0 days  0 hours 13 minutes 19.1 seconds.
 File lengths (MBytes):  RWF=   1517 Int=      0 D2E=      0 Chk=    171 Scr=      1
 Normal termination of Gaussian 16 at Sat Sep 14 23:28:27 2019.
