 Entering Gaussian System, Link 0=g16
 Initial command:
 /home1/apps/gaussian/16rA.03/g16/l1.exe "/scratch/01990/pengzhi/4328693/Gau-217609.inp" -scrdir="/scratch/01990/pengzhi/4328693/"
 Entering Link 1 = /home1/apps/gaussian/16rA.03/g16/l1.exe PID=    217610.
  
 Copyright (c) 1988,1990,1992,1993,1995,1998,2003,2009,2016,
            Gaussian, Inc.  All Rights Reserved.
  
 This is part of the Gaussian(R) 16 program.  It is based on
 the Gaussian(R) 09 system (copyright 2009, Gaussian, Inc.),
 the Gaussian(R) 03 system (copyright 2003, Gaussian, Inc.),
 the Gaussian(R) 98 system (copyright 1998, Gaussian, Inc.),
 the Gaussian(R) 94 system (copyright 1995, Gaussian, Inc.),
 the Gaussian 92(TM) system (copyright 1992, Gaussian, Inc.),
 the Gaussian 90(TM) system (copyright 1990, Gaussian, Inc.),
 the Gaussian 88(TM) system (copyright 1988, Gaussian, Inc.),
 the Gaussian 86(TM) system (copyright 1986, Carnegie Mellon
 University), and the Gaussian 82(TM) system (copyright 1983,
 Carnegie Mellon University). Gaussian is a federally registered
 trademark of Gaussian, Inc.
  
 This software contains proprietary and confidential information,
 including trade secrets, belonging to Gaussian, Inc.
  
 This software is provided under written license and may be
 used, copied, transmitted, or stored only in accord with that
 written license.
  
 The following legend is applicable only to US Government
 contracts under FAR:
  
                    RESTRICTED RIGHTS LEGEND
  
 Use, reproduction and disclosure by the US Government is
 subject to restrictions as set forth in subparagraphs (a)
 and (c) of the Commercial Computer Software - Restricted
 Rights clause in FAR 52.227-19.
  
 Gaussian, Inc.
 340 Quinnipiac St., Bldg. 40, Wallingford CT 06492
  
  
 ---------------------------------------------------------------
 Warning -- This program may not be used in any manner that
 competes with the business of Gaussian, Inc. or will provide
 assistance to any competitor of Gaussian, Inc.  The licensee
 of this program is prohibited from giving any competitor of
 Gaussian, Inc. access to this program.  By using this program,
 the user acknowledges that Gaussian, Inc. is engaged in the
 business of creating and licensing software in the field of
 computational chemistry and represents and warrants to the
 licensee that it is not a competitor of Gaussian, Inc. and that
 it will not use this program in any manner prohibited above.
 ---------------------------------------------------------------
  

 Cite this work as:
 Gaussian 16, Revision A.03,
 M. J. Frisch, G. W. Trucks, H. B. Schlegel, G. E. Scuseria, 
 M. A. Robb, J. R. Cheeseman, G. Scalmani, V. Barone, 
 G. A. Petersson, H. Nakatsuji, X. Li, M. Caricato, A. V. Marenich, 
 J. Bloino, B. G. Janesko, R. Gomperts, B. Mennucci, H. P. Hratchian, 
 J. V. Ortiz, A. F. Izmaylov, J. L. Sonnenberg, D. Williams-Young, 
 F. Ding, F. Lipparini, F. Egidi, J. Goings, B. Peng, A. Petrone, 
 T. Henderson, D. Ranasinghe, V. G. Zakrzewski, J. Gao, N. Rega, 
 G. Zheng, W. Liang, M. Hada, M. Ehara, K. Toyota, R. Fukuda, 
 J. Hasegawa, M. Ishida, T. Nakajima, Y. Honda, O. Kitao, H. Nakai, 
 T. Vreven, K. Throssell, J. A. Montgomery, Jr., J. E. Peralta, 
 F. Ogliaro, M. J. Bearpark, J. J. Heyd, E. N. Brothers, K. N. Kudin, 
 V. N. Staroverov, T. A. Keith, R. Kobayashi, J. Normand, 
 K. Raghavachari, A. P. Rendell, J. C. Burant, S. S. Iyengar, 
 J. Tomasi, M. Cossi, J. M. Millam, M. Klene, C. Adamo, R. Cammi, 
 J. W. Ochterski, R. L. Martin, K. Morokuma, O. Farkas, 
 J. B. Foresman, and D. J. Fox, Gaussian, Inc., Wallingford CT, 2016.
 
 ******************************************
 Gaussian 16:  ES64L-G16RevA.03 25-Dec-2016
                14-Sep-2019 
 ******************************************
 %chk=holoCaM_loop3_77.0.chk
 %nprocshared=48
 Will use up to   48 processors via shared memory.
 %mem=10GB
 %nosave
 ----------------------------------------------------------------------
 #b3lyp/svp scf=(tight,noincore) Test #IOP(5/87=12) Density=Current Pop
 =(MK,readradii) iop(6/33=2) iop(6/42=6)
 ----------------------------------------------------------------------
 1/30=1,38=1,172=1/1;
 2/12=2,17=6,18=5,40=1/2;
 3/5=18,7=101,11=2,25=1,30=1,74=-5/1,2,3;
 4//1;
 5/5=4,32=2,38=5,87=12/2;
 6/7=2,8=2,9=2,10=2,15=8,20=101,22=-1,28=1,33=2,42=6/1,2;
 99/5=1,9=1/99;
 ------------------
 holoCaM_loop3_77.0
 ------------------
 Symbolic Z-matrix:
 Charge =  0 Multiplicity = 1
 C                     85.04     32.93     26.38 
 C                     86.54     32.81     26.57 
 O                     87.07     31.77     26.96 
 H                     84.582    33.264    27.311 
 H                     84.83     33.653    25.592 
 H                     84.63     31.959    26.102 
 N                     87.3      33.88     26.3 
 C                     88.67     34.       26.77 
 C                     88.67     34.44     28.22 
 O                     88.33     35.58     28.53 
 C                     89.38     34.93     25.79 
 C                     90.88     35.05     26.05 
 O                     91.62     35.82     25.41 
 O                     91.39     34.47     27.03 
 H                     86.8      34.71     26.03 
 H                     89.16     33.03     26.77 
 H                     88.84     35.88     25.86 
 H                     89.27     34.68     24.74 
 N                     89.11     33.56     29.12 
 C                     88.85     33.56     30.55 
 C                     89.86     34.41     31.29 
 O                     89.75     34.48     32.52 
 C                     88.68     32.17     31.16 
 C                     87.5      31.41     30.55 
 C                     86.13     32.02     30.82 
 C                     85.12     31.55     29.77 
 N                     83.77     32.04     30.08 
 H                     89.63     32.78     28.76 
 H                     87.93     34.06     30.85 
 H                     88.44     32.28     32.21 
 H                     89.57     31.55     31.04 
 H                     87.47     30.38     30.93 
 H                     87.69     31.43     29.48 
 H                     86.2      33.11     30.88 
 H                     85.89     31.6      31.8 
 H                     85.09     30.47     29.87 
 H                     85.5      31.9      28.81 
 H                     83.53     31.94     31.06 
 H                     83.69     33.05     30.05 
 H                     83.1      31.59     29.48 
 N                     90.85     35.05     30.66 
 C                     91.65     36.14     31.17 
 C                     91.67     37.37     30.27 
 O                     92.18     38.43     30.64 
 C                     93.08     35.65     31.4 
 C                     93.79     34.97     30.25 
 O                     93.57     35.38     29.09 
 O                     94.46     33.93     30.41 
 H                     90.93     34.78     29.69 
 H                     91.31     36.48     32.15 
 H                     93.01     34.94     32.23 
 H                     93.66     36.49     31.79 
 N                     91.14     37.22     29.06 
 C                     91.04     38.25     28.05 
 C                     92.38     38.54     27.4 
 O                     92.55     39.63     26.84 
 H                     90.63     36.41     28.73 
 H                     90.64     39.17     28.49 
 H                     90.32     37.97     27.29 
 N                     93.4      37.67     27.37 
 C                     94.69     38.04     26.83 
 C                     94.64     38.15     25.32 
 O                     95.52     38.86     24.83 
 C                     95.8      37.09     27.27 
 C                     95.9      35.75     26.56 
 N                     97.09     35.49     26. 
 O                     94.95     34.99     26.41 
 H                     93.26     36.8      27.86 
 H                     94.95     39.02     27.23 
 H                     95.62     36.8      28.31 
 H                     96.76     37.59     27.15 
 H                     97.72     36.27     25.88 
 H                     97.3      34.54     25.74 
 N                     93.69     37.55     24.6 
 C                     93.49     37.57     23.16 
 C                     93.41     36.16     22.6 
 O                     93.29     36.01     21.38 
 H                     93.16     36.85     25.1 
 H                     94.39     38.03     22.74 
 H                     92.5      37.99     22.98 
 N                     93.41     35.07     23.36 
 C                     93.52     33.71     22.85 
 C                     92.85     32.74     23.82 
 O                     93.01     32.84     25.03 
 C                     95.       33.4      22.66 
 C                     95.83     34.4      21.89 
 C                     96.54     35.36     22.62 
 C                     95.94     34.31     20.49 
 C                     97.4      36.25     21.98 
 C                     96.74     35.23     19.8 
 C                     97.46     36.15     20.58 
 O                     98.42     36.91     19.98 
 H                     93.37     35.25     24.35 
 H                     93.07     33.65     21.86 
 H                     95.1      32.45     22.12 
 H                     95.41     33.33     23.67 
 H                     96.59     35.34     23.7 
 H                     95.22     33.65     20.05 
 H                     98.03     36.89     22.58 
 H                     96.79     35.12     18.72 
 H                     98.44     36.73     19.04 
 N                     92.17     31.76     23.24 
 C                     91.39     30.71     23.87 
 C                     92.17     29.41     23.75 
 O                     92.53     29.01     22.65 
 C                     89.99     30.72     23.27 
 C                     89.15     31.91     23.7 
 C                     89.23     29.41     23.5 
 C                     87.73     31.98     23.14 
 H                     92.1      31.73     22.23 
 H                     91.25     30.87     24.94 
 H                     90.1      30.79     22.18 
 H                     89.7      32.72     23.23 
 H                     89.23     32.21     24.75 
 H                     89.77     28.67     22.91 
 H                     89.22     29.09     24.54 
 H                     88.27     29.44     22.98 
 H                     87.7      31.7      22.09 
 H                     87.09     31.29     23.67 
 H                     87.28     32.96     23.32 
 N                     92.36     28.73     24.89 
 C                     92.95     27.41     24.98 
 C                     91.97     26.27     25.24 
 O                     90.78     26.53     25.37 
 C                     93.83     27.43     26.23 
 O                     93.08     27.6      27.41 
 H                     92.01     29.12     25.75 
 H                     93.49     27.16     24.07 
 H                     94.55     28.25     26.26 
 H                     94.42     26.51     26.26 
 H                     92.85     28.53     27.44 
 N                     92.38     25.       25.27 
 C                     91.48     23.91     25.61 
 C                     90.75     24.07     26.94 
 O                     89.65     23.61     27.23 
 C                     92.2      22.56     25.66 
 H                     93.34     24.79     25.04 
 H                     90.76     23.81     24.8 
 H                     91.44     21.79     25.59 
 H                     92.74     22.49     24.72 
 H                     92.84     22.44     26.53 
 N                     91.51     24.65     27.87 
 C                     91.02     24.97     29.2 
 C                     89.93     26.03     29.26 
 O                     89.24     26.23     30.26 
 C                     92.17     25.27     30.15 
 H                     92.48     24.77     27.63 
 H                     90.59     24.06     29.62 
 H                     92.73     26.08     29.69 
 H                     91.79     25.64     31.11 
 H                     92.84     24.43     30.34 
 N                     89.86     26.81     28.18 
 C                     88.92     27.9      28.01 
 C                     87.74     27.7      27.08 
 O                     86.65     28.21     27.36 
 C                     89.71     29.15     27.64 
 C                     90.61     29.7      28.73 
 C                     91.57     30.79     28.26 
 O                     91.6      31.92     28.79 
 O                     92.33     30.44     27.33 
 H                     90.52     26.58     27.45 
 H                     88.37     28.16     28.92 
 H                     89.05     29.98     27.36 
 H                     90.39     28.92     26.81 
 H                     91.21     28.87     29.11 
 H                     90.08     30.03     29.63 
 N                     87.91     26.72     26.19 
 C                     86.86     26.14     25.38 
 H                     86.013    26.825    25.339 
 H                     87.234    25.964    24.371 
 H                     86.541    25.195    25.82 
 H                     88.87     26.5      26.01 
 Ca                    93.58     33.08     27.64 
 O                     94.32     31.05     29.23 
 H                     95.07     31.       29.82 
 H                     94.34     30.24     28.73 
 
 Stoichiometry    C54H83CaN15O23
 Framework group  C1[X(C54H83CaN15O23)]
 Deg. of freedom   522
 Full point group                 C1      NOp   1
 Largest Abelian subgroup         C1      NOp   1
 Largest concise Abelian subgroup C1      NOp   1
                         Standard orientation:                         
 ---------------------------------------------------------------------
 Center     Atomic      Atomic             Coordinates (Angstroms)
 Number     Number       Type             X           Y           Z
 ---------------------------------------------------------------------
      1          6           0        2.229048    3.633035    4.951372
      2          6           0        1.713845    2.903562    3.725430
      3          8           0        2.470790    2.428048    2.879545
      4          1           0        2.339736    4.693050    4.722903
      5          1           0        1.521940    3.510096    5.771529
      6          1           0        3.196269    3.221202    5.239645
      7          7           0        0.388389    2.780599    3.572304
      8          6           0       -0.218577    2.428346    2.299626
      9          6           0       -0.290449    3.657704    1.416668
     10          8           0       -1.067783    4.573560    1.677931
     11          6           0       -1.552585    1.764298    2.629569
     12          6           0       -2.261945    1.192314    1.404153
     13          8           0       -3.396618    0.682246    1.453640
     14          8           0       -1.770348    1.353882    0.268756
     15          1           0       -0.172923    3.231088    4.275005
     16          1           0        0.411140    1.728296    1.757052
     17          1           0       -2.127802    2.532223    3.157222
     18          1           0       -1.511908    0.964322    3.361336
     19          7           0        0.476287    3.665587    0.325772
     20          6           0        0.898166    4.823864   -0.444236
     21          6           0       -0.128536    5.185874   -1.495441
     22          8           0        0.123273    6.152129   -2.225402
     23          6           0        2.315786    4.726305   -1.004536
     24          6           0        3.366853    4.589090    0.099335
     25          6           0        3.496551    5.795497    1.021105
     26          6           0        4.125384    5.383339    2.354595
     27          7           0        4.359473    6.553567    3.211606
     28          1           0        0.849793    2.778348    0.039940
     29          1           0        0.932005    5.759015    0.113212
     30          1           0        2.551294    5.652674   -1.513040
     31          1           0        2.438451    3.881642   -1.684534
     32          1           0        4.359572    4.413666   -0.336481
     33          1           0        3.035749    3.733837    0.682698
     34          1           0        2.528489    6.289362    1.145815
     35          1           0        4.179003    6.434275    0.454869
     36          1           0        5.101503    4.986208    2.096179
     37          1           0        3.446589    4.651711    2.793295
     38          1           0        4.762987    7.335906    2.708494
     39          1           0        3.507865    7.028576    3.488247
     40          1           0        4.917850    6.286851    4.004372
     41          7           0       -1.257848    4.489458   -1.657486
     42          6           0       -2.450699    4.908968   -2.356998
     43          6           0       -3.725119    4.809440   -1.526789
     44          8           0       -4.794188    5.272621   -1.930715
     45          6           0       -2.603954    4.079811   -3.632502
     46          6           0       -2.571101    2.572485   -3.506453
     47          8           0       -3.080928    2.049779   -2.492079
     48          8           0       -1.925253    1.857599   -4.298866
     49          1           0       -1.266223    3.634736   -1.119359
     50          1           0       -2.386680    5.942760   -2.701636
     51          1           0       -1.775830    4.389835   -4.277480
     52          1           0       -3.507784    4.420687   -4.143377
     53          7           0       -3.621021    4.167496   -0.367232
     54          6           0       -4.691898    3.964825    0.583108
     55          6           0       -5.674572    2.907955    0.114518
     56          8           0       -6.819941    2.906510    0.582201
     57          1           0       -2.761274    3.844941    0.059257
     58          1           0       -5.223095    4.906939    0.757038
     59          1           0       -4.294075    3.687532    1.552255
     60          7           0       -5.371898    1.944913   -0.768170
     61          6           0       -6.378641    1.029248   -1.258707
     62          6           0       -6.777067    0.030962   -0.191289
     63          8           0       -7.888858   -0.474949   -0.354309
     64          6           0       -5.944849    0.316162   -2.536022
     65          6           0       -4.973453   -0.844361   -2.397186
     66          7           0       -5.391295   -2.002838   -2.926941
     67          8           0       -3.924812   -0.778527   -1.765824
     68          1           0       -4.446557    1.979019   -1.167144
     69          1           0       -7.261420    1.613033   -1.519278
     70          1           0       -5.389245    1.023529   -3.159749
     71          1           0       -6.829293   -0.063879   -3.045264
     72          1           0       -6.374467   -2.078874   -3.144406
     73          1           0       -4.711576   -2.727596   -3.090979
     74          7           0       -5.990412   -0.237091    0.852848
     75          6           0       -6.229277   -1.144849    1.963217
     76          6           0       -5.085344   -2.132718    2.116949
     77          8           0       -5.163971   -3.003414    2.989306
     78          1           0       -5.039339    0.091222    0.760272
     79          1           0       -7.116910   -1.723909    1.689730
     80          1           0       -6.198046   -0.549363    2.876081
     81          7           0       -3.971860   -2.080831    1.393652
     82          6           0       -2.944446   -3.113394    1.387615
     83          6           0       -1.595337   -2.496031    1.027798
     84          8           0       -1.492893   -1.676506    0.123595
     85          6           0       -3.366900   -4.187740    0.392672
     86          6           0       -4.769639   -4.735796    0.509960
     87          6           0       -5.762246   -4.169382   -0.297819
     88          6           0       -5.040555   -5.832012    1.349671
     89          6           0       -7.054372   -4.690483   -0.310677
     90          6           0       -6.343152   -6.342805    1.419178
     91          6           0       -7.294549   -5.764157    0.562902
     92          8           0       -8.508801   -6.369170    0.425968
     93          1           0       -3.898351   -1.273875    0.795724
     94          1           0       -2.906745   -3.601634    2.360446
     95          1           0       -2.698918   -5.052310    0.494744
     96          1           0       -3.269366   -3.721964   -0.590507
     97          1           0       -5.534696   -3.436749   -1.059902
     98          1           0       -4.242713   -6.052040    2.029845
     99          1           0       -7.760750   -4.316905   -1.037291
    100          1           0       -6.501427   -7.187817    2.083938
    101          1           0       -8.562754   -7.129730    1.004792
    102          7           0       -0.566267   -2.980880    1.709808
    103          6           0        0.827943   -2.581922    1.640449
    104          6           0        1.591796   -3.672188    0.905162
    105          8           0        1.545476   -4.829113    1.303884
    106          6           0        1.306861   -2.247651    3.047218
    107          6           0        0.731950   -0.953672    3.596488
    108          6           0        2.832922   -2.260826    3.179753
    109          6           0        1.175974   -0.553204    5.002677
    110          1           0       -0.726379   -3.675313    2.429549
    111          1           0        0.980123   -1.672945    1.056752
    112          1           0        0.963109   -3.051460    3.711164
    113          1           0       -0.317368   -1.222098    3.676362
    114          1           0        0.660902   -0.115048    2.896088
    115          1           0        3.113315   -3.304622    3.041297
    116          1           0        3.339803   -1.658815    2.428251
    117          1           0        3.117813   -2.098499    4.221572
    118          1           0        1.207567   -1.409885    5.671183
    119          1           0        2.173226   -0.139590    4.970859
    120          1           0        0.558613    0.257814    5.398169
    121          7           0        2.345889   -3.268629   -0.127593
    122          6           0        3.255996   -4.115703   -0.871079
    123          6           0        4.737214   -3.912334   -0.567379
    124          8           0        5.062631   -3.059887    0.249958
    125          6           0        3.119663   -3.692813   -2.333912
    126          8           0        3.555431   -2.371313   -2.551955
    127          1           0        2.344936   -2.292403   -0.374945
    128          1           0        3.040486   -5.167414   -0.698863
    129          1           0        2.094226   -3.692801   -2.708318
    130          1           0        3.668201   -4.403138   -2.958367
    131          1           0        2.852518   -1.808406   -2.223703
    132          7           0        5.670117   -4.682375   -1.131851
    133          6           0        7.089712   -4.442885   -0.929134
    134          6           0        7.557630   -3.029928   -1.263806
    135          8           0        8.505407   -2.435273   -0.760016
    136          6           0        7.960115   -5.402160   -1.744971
    137          1           0        5.380920   -5.459228   -1.707581
    138          1           0        7.319885   -4.675010    0.108959
    139          1           0        8.950987   -5.386586   -1.305278
    140          1           0        7.581255   -6.394470   -1.517184
    141          1           0        7.969842   -5.182786   -2.809246
    142          7           0        6.917228   -2.518681   -2.316142
    143          6           0        7.139974   -1.163682   -2.791283
    144          6           0        6.708960   -0.056210   -1.841003
    145          8           0        7.053463    1.118210   -1.975754
    146          6           0        6.576173   -0.974641   -4.191780
    147          1           0        6.333824   -3.160010   -2.827256
    148          1           0        8.212861   -1.040573   -2.943460
    149          1           0        5.524600   -1.241355   -4.125762
    150          1           0        6.627360    0.079999   -4.488453
    151          1           0        7.054134   -1.578449   -4.964806
    152          7           0        5.827744   -0.437074   -0.914666
    153          6           0        5.255078    0.439081    0.087834
    154          6           0        5.749224    0.325354    1.516185
    155          8           0        5.844920    1.342654    2.210838
    156          6           0        3.738014    0.309484    0.015591
    157          6           0        3.096492    0.845463   -1.250022
    158          6           0        1.622528    0.481018   -1.408803
    159          8           0        0.738239    1.348949   -1.561864
    160          8           0        1.392993   -0.748717   -1.400633
    161          1           0        5.580639   -1.416576   -0.944904
    162          1           0        5.466276    1.500685   -0.075241
    163          1           0        3.245020    0.839348    0.839668
    164          1           0        3.460605   -0.752000    0.037897
    165          1           0        3.637405    0.419203   -2.097969
    166          1           0        3.235714    1.920542   -1.406937
    167          7           0        6.337296   -0.839609    1.796242
    168          6           0        7.131216   -1.108686    2.976194
    169          1           0        6.898348   -0.372690    3.745868
    170          1           0        6.903034   -2.107922    3.348207
    171          1           0        8.190023   -1.047049    2.724173
    172          1           0        6.067564   -1.585364    1.185099
    173         20           0       -1.392140   -0.019431   -1.983193
    174          8           0        0.393206   -0.198570   -3.977446
    175          1           0        0.233285   -0.206530   -4.919498
    176          1           0        0.982986   -0.928619   -3.817165
 ---------------------------------------------------------------------
 Rotational constants (GHZ):           0.0244834           0.0152139           0.0120901
 Standard basis: SVP (5D, 7F)
 There are  1809 symmetry adapted cartesian basis functions of A   symmetry.
 There are  1717 symmetry adapted basis functions of A   symmetry.
  1717 basis functions,  2922 primitive gaussians,  1809 cartesian basis functions
   358 alpha electrons      358 beta electrons
       nuclear repulsion energy     21952.2571702295 Hartrees.
 NAtoms=  176 NActive=  176 NUniq=  176 SFac= 1.00D+00 NAtFMM=   60 NAOKFM=T Big=T
 Integral buffers will be    131072 words long.
 Raffenetti 2 integral format.
 Two-electron integral symmetry is turned on.
 One-electron integrals computed using PRISM.
 NBasis=  1717 RedAO= T EigKep=  2.89D-04  NBF=  1717
 NBsUse=  1717 1.00D-06 EigRej= -1.00D+00 NBFU=  1717
 ExpMin= 1.98D-02 ExpMax= 3.51D+04 ExpMxC= 5.28D+03 IAcc=3 IRadAn=         5 AccDes= 0.00D+00
 Harris functional with IExCor=  402 and IRadAn=       5 diagonalized for initial guess.
 HarFok:  IExCor=  402 AccDes= 0.00D+00 IRadAn=         5 IDoV= 1 UseB2=F ITyADJ=14
 ICtDFT=  3500011 ScaDFX=  1.000000  1.000000  1.000000  1.000000
 FoFCou: FMM=F IPFlag=           0 FMFlag=      100000 FMFlg1=        2001
         NFxFlg=           0 DoJE=T BraDBF=F KetDBF=T FulRan=T
         wScrn=  0.000000 ICntrl=       500 IOpCl=  0 I1Cent=   200000004 NGrid=           0
         NMat0=    1 NMatS0=      1 NMatT0=    0 NMatD0=    1 NMtDS0=    0 NMtDT0=    0
 Petite list used in FoFCou.
 Requested convergence on RMS density matrix=1.00D-08 within 128 cycles.
 Requested convergence on MAX density matrix=1.00D-06.
 Requested convergence on             energy=1.00D-06.
 No special actions if energy rises.
 EnCoef did     4 forward-backward iterations
 SCF Done:  E(RB3LYP) =  -5333.58927788     A.U. after   18 cycles
            NFock= 18  Conv=0.57D-08     -V/T= 2.0081
 SCF density gives NOpUse=  1 NOpAll=  1.
 Hyperfine terms turned off by default for NAtoms > 100.

 **********************************************************************

            Population analysis using the SCF density.

 **********************************************************************

 Orbital symmetries:
 BldTbl:  Degeneracy threshold= 1.00D-02
       Occupied  (A) (A) (A) (A) (A) (A) (A) (A) (A) (A) (A) (A)
                 (A) (A) (A) (A) (A) (A) (A) (A) (A) (A) (A) (A)
                 (A) (A) (A) (A) (A) (A) (A) (A) (A) (A) (A) (A)
                 (A) (A) (A) (A) (A) (A) (A) (A) (A) (A) (A) (A)
                 (A) (A) (A) (A) (A) (A) (A) (A) (A) (A) (A) (A)
                 (A) (A) (A) (A) (A) (A) (A) (A) (A) (A) (A) (A)
                 (A) (A) (A) (A) (A) (A) (A) (A) (A) (A) (A) (A)
                 (A) (A) (A) (A) (A) (A) (A) (A) (A) (A) (A) (A)
                 (A) (A) (A) (A) (A) (A) (A) (A) (A) (A) (A) (A)
                 (A) (A) (A) (A) (A) (A) (A) (A) (A) (A) (A) (A)
                 (A) (A) (A) (A) (A) (A) (A) (A) (A) (A) (A) (A)
                 (A) (A) (A) (A) (A) (A) (A) (A) (A) (A) (A) (A)
                 (A) (A) (A) (A) (A) (A) (A) (A) (A) (A) (A) (A)
                 (A) (A) (A) (A) (A) (A) (A) (A) (A) (A) (A) (A)
                 (A) (A) (A) (A) (A) (A) (A) (A) (A) (A) (A) (A)
                 (A) (A) (A) (A) (A) (A) (A) (A) (A) (A) (A) (A)
                 (A) (A) (A) (A) (A) (A) (A) (A) (A) (A) (A) (A)
                 (A) (A) (A) (A) (A) (A) (A) (A) (A) (A) (A) (A)
                 (A) (A) (A) (A) (A) (A) (A) (A) (A) (A) (A) (A)
                 (A) (A) (A) (A) (A) (A) (A) (A) (A) (A) (A) (A)
                 (A) (A) (A) (A) (A) (A) (A) (A) (A) (A) (A) (A)
                 (A) (A) (A) (A) (A) (A) (A) (A) (A) (A) (A) (A)
                 (A) (A) (A) (A) (A) (A) (A) (A) (A) (A) (A) (A)
                 (A) (A) (A) (A) (A) (A) (A) (A) (A) (A) (A) (A)
                 (A) (A) (A) (A) (A) (A) (A) (A) (A) (A) (A) (A)
                 (A) (A) (A) (A) (A) (A) (A) (A) (A) (A) (A) (A)
                 (A) (A) (A) (A) (A) (A) (A) (A) (A) (A) (A) (A)
                 (A) (A) (A) (A) (A) (A) (A) (A) (A) (A) (A) (A)
                 (A) (A) (A) (A) (A) (A) (A) (A) (A) (A) (A) (A)
                 (A) (A) (A) (A) (A) (A) (A) (A) (A) (A)
       Virtual   (A) (A) (A) (A) (A) (A) (A) (A) (A) (A) (A) (A)
                 (A) (A) (A) (A) (A) (A) (A) (A) (A) (A) (A) (A)
                 (A) (A) (A) (A) (A) (A) (A) (A) (A) (A) (A) (A)
                 (A) (A) (A) (A) (A) (A) (A) (A) (A) (A) (A) (A)
                 (A) (A) (A) (A) (A) (A) (A) (A) (A) (A) (A) (A)
                 (A) (A) (A) (A) (A) (A) (A) (A) (A) (A) (A) (A)
                 (A) (A) (A) (A) (A) (A) (A) (A) (A) (A) (A) (A)
                 (A) (A) (A) (A) (A) (A) (A) (A) (A) (A) (A) (A)
                 (A) (A) (A) (A) (A) (A) (A) (A) (A) (A) (A) (A)
                 (A) (A) (A) (A) (A) (A) (A) (A) (A) (A) (A) (A)
                 (A) (A) (A) (A) (A) (A) (A) (A) (A) (A) (A) (A)
                 (A) (A) (A) (A) (A) (A) (A) (A) (A) (A) (A) (A)
                 (A) (A) (A) (A) (A) (A) (A) (A) (A) (A) (A) (A)
                 (A) (A) (A) (A) (A) (A) (A) (A) (A) (A) (A) (A)
                 (A) (A) (A) (A) (A) (A) (A) (A) (A) (A) (A) (A)
                 (A) (A) (A) (A) (A) (A) (A) (A) (A) (A) (A) (A)
                 (A) (A) (A) (A) (A) (A) (A) (A) (A) (A) (A) (A)
                 (A) (A) (A) (A) (A) (A) (A) (A) (A) (A) (A) (A)
                 (A) (A) (A) (A) (A) (A) (A) (A) (A) (A) (A) (A)
                 (A) (A) (A) (A) (A) (A) (A) (A) (A) (A) (A) (A)
                 (A) (A) (A) (A) (A) (A) (A) (A) (A) (A) (A) (A)
                 (A) (A) (A) (A) (A) (A) (A) (A) (A) (A) (A) (A)
                 (A) (A) (A) (A) (A) (A) (A) (A) (A) (A) (A) (A)
                 (A) (A) (A) (A) (A) (A) (A) (A) (A) (A) (A) (A)
                 (A) (A) (A) (A) (A) (A) (A) (A) (A) (A) (A) (A)
                 (A) (A) (A) (A) (A) (A) (A) (A) (A) (A) (A) (A)
                 (A) (A) (A) (A) (A) (A) (A) (A) (A) (A) (A) (A)
                 (A) (A) (A) (A) (A) (A) (A) (A) (A) (A) (A) (A)
                 (A) (A) (A) (A) (A) (A) (A) (A) (A) (A) (A) (A)
                 (A) (A) (A) (A) (A) (A) (A) (A) (A) (A) (A) (A)
                 (A) (A) (A) (A) (A) (A) (A) (A) (A) (A) (A) (A)
                 (A) (A) (A) (A) (A) (A) (A) (A) (A) (A) (A) (A)
                 (A) (A) (A) (A) (A) (A) (A) (A) (A) (A) (A) (A)
                 (A) (A) (A) (A) (A) (A) (A) (A) (A) (A) (A) (A)
                 (A) (A) (A) (A) (A) (A) (A) (A) (A) (A) (A) (A)
                 (A) (A) (A) (A) (A) (A) (A) (A) (A) (A) (A) (A)
                 (A) (A) (A) (A) (A) (A) (A) (A) (A) (A) (A) (A)
                 (A) (A) (A) (A) (A) (A) (A) (A) (A) (A) (A) (A)
                 (A) (A) (A) (A) (A) (A) (A) (A) (A) (A) (A) (A)
                 (A) (A) (A) (A) (A) (A) (A) (A) (A) (A) (A) (A)
                 (A) (A) (A) (A) (A) (A) (A) (A) (A) (A) (A) (A)
                 (A) (A) (A) (A) (A) (A) (A) (A) (A) (A) (A) (A)
                 (A) (A) (A) (A) (A) (A) (A) (A) (A) (A) (A) (A)
                 (A) (A) (A) (A) (A) (A) (A) (A) (A) (A) (A) (A)
                 (A) (A) (A) (A) (A) (A) (A) (A) (A) (A) (A) (A)
                 (A) (A) (A) (A) (A) (A) (A) (A) (A) (A) (A) (A)
                 (A) (A) (A) (A) (A) (A) (A) (A) (A) (A) (A) (A)
                 (A) (A) (A) (A) (A) (A) (A) (A) (A) (A) (A) (A)
                 (A) (A) (A) (A) (A) (A) (A) (A) (A) (A) (A) (A)
                 (A) (A) (A) (A) (A) (A) (A) (A) (A) (A) (A) (A)
                 (A) (A) (A) (A) (A) (A) (A) (A) (A) (A) (A) (A)
                 (A) (A) (A) (A) (A) (A) (A) (A) (A) (A) (A) (A)
                 (A) (A) (A) (A) (A) (A) (A) (A) (A) (A) (A) (A)
                 (A) (A) (A) (A) (A) (A) (A) (A) (A) (A) (A) (A)
                 (A) (A) (A) (A) (A) (A) (A) (A) (A) (A) (A) (A)
                 (A) (A) (A) (A) (A) (A) (A) (A) (A) (A) (A) (A)
                 (A) (A) (A) (A) (A) (A) (A) (A) (A) (A) (A) (A)
                 (A) (A) (A) (A) (A) (A) (A) (A) (A) (A) (A) (A)
                 (A) (A) (A) (A) (A) (A) (A) (A) (A) (A) (A) (A)
                 (A) (A) (A) (A) (A) (A) (A) (A) (A) (A) (A) (A)
                 (A) (A) (A) (A) (A) (A) (A) (A) (A) (A) (A) (A)
                 (A) (A) (A) (A) (A) (A) (A) (A) (A) (A) (A) (A)
                 (A) (A) (A) (A) (A) (A) (A) (A) (A) (A) (A) (A)
                 (A) (A) (A) (A) (A) (A) (A) (A) (A) (A) (A) (A)
                 (A) (A) (A) (A) (A) (A) (A) (A) (A) (A) (A) (A)
                 (A) (A) (A) (A) (A) (A) (A) (A) (A) (A) (A) (A)
                 (A) (A) (A) (A) (A) (A) (A) (A) (A) (A) (A) (A)
                 (A) (A) (A) (A) (A) (A) (A) (A) (A) (A) (A) (A)
                 (A) (A) (A) (A) (A) (A) (A) (A) (A) (A) (A) (A)
                 (A) (A) (A) (A) (A) (A) (A) (A) (A) (A) (A) (A)
                 (A) (A) (A) (A) (A) (A) (A) (A) (A) (A) (A) (A)
                 (A) (A) (A) (A) (A) (A) (A) (A) (A) (A) (A) (A)
                 (A) (A) (A) (A) (A) (A) (A) (A) (A) (A) (A) (A)
                 (A) (A) (A) (A) (A) (A) (A) (A) (A) (A) (A) (A)
                 (A) (A) (A) (A) (A) (A) (A) (A) (A) (A) (A) (A)
                 (A) (A) (A) (A) (A) (A) (A) (A) (A) (A) (A) (A)
                 (A) (A) (A) (A) (A) (A) (A) (A) (A) (A) (A) (A)
                 (A) (A) (A) (A) (A) (A) (A) (A) (A) (A) (A) (A)
                 (A) (A) (A) (A) (A) (A) (A) (A) (A) (A) (A) (A)
                 (A) (A) (A) (A) (A) (A) (A) (A) (A) (A) (A) (A)
                 (A) (A) (A) (A) (A) (A) (A) (A) (A) (A) (A) (A)
                 (A) (A) (A) (A) (A) (A) (A) (A) (A) (A) (A) (A)
                 (A) (A) (A) (A) (A) (A) (A) (A) (A) (A) (A) (A)
                 (A) (A) (A) (A) (A) (A) (A) (A) (A) (A) (A) (A)
                 (A) (A) (A) (A) (A) (A) (A) (A) (A) (A) (A) (A)
                 (A) (A) (A) (A) (A) (A) (A) (A) (A) (A) (A) (A)
                 (A) (A) (A) (A) (A) (A) (A) (A) (A) (A) (A) (A)
                 (A) (A) (A) (A) (A) (A) (A) (A) (A) (A) (A) (A)
                 (A) (A) (A) (A) (A) (A) (A) (A) (A) (A) (A) (A)
                 (A) (A) (A) (A) (A) (A) (A) (A) (A) (A) (A) (A)
                 (A) (A) (A) (A) (A) (A) (A) (A) (A) (A) (A) (A)
                 (A) (A) (A) (A) (A) (A) (A) (A) (A) (A) (A) (A)
                 (A) (A) (A) (A) (A) (A) (A) (A) (A) (A) (A) (A)
                 (A) (A) (A) (A) (A) (A) (A) (A) (A) (A) (A) (A)
                 (A) (A) (A) (A) (A) (A) (A) (A) (A) (A) (A) (A)
                 (A) (A) (A) (A) (A) (A) (A) (A) (A) (A) (A) (A)
                 (A) (A) (A) (A) (A) (A) (A) (A) (A) (A) (A) (A)
                 (A) (A) (A) (A) (A) (A) (A) (A) (A) (A) (A) (A)
                 (A) (A) (A) (A) (A) (A) (A) (A) (A) (A) (A) (A)
                 (A) (A) (A) (A) (A) (A) (A) (A) (A) (A) (A) (A)
                 (A) (A) (A) (A) (A) (A) (A) (A) (A) (A) (A) (A)
                 (A) (A) (A) (A) (A) (A) (A) (A) (A) (A) (A) (A)
                 (A) (A) (A) (A) (A) (A) (A) (A) (A) (A) (A) (A)
                 (A) (A) (A) (A) (A) (A) (A) (A) (A) (A) (A) (A)
                 (A) (A) (A) (A) (A) (A) (A) (A) (A) (A) (A) (A)
                 (A) (A) (A) (A) (A) (A) (A) (A) (A) (A) (A) (A)
                 (A) (A) (A) (A) (A) (A) (A) (A) (A) (A) (A) (A)
                 (A) (A) (A) (A) (A) (A) (A) (A) (A) (A) (A) (A)
                 (A) (A) (A) (A) (A) (A) (A) (A) (A) (A) (A) (A)
                 (A) (A) (A) (A) (A) (A) (A) (A) (A) (A) (A) (A)
                 (A) (A) (A) (A) (A) (A) (A) (A) (A) (A) (A) (A)
                 (A) (A) (A) (A) (A) (A) (A) (A) (A) (A) (A) (A)
                 (A) (A) (A) (A) (A) (A) (A) (A) (A) (A) (A) (A)
                 (A) (A) (A)
 The electronic state is 1-A.
 Alpha  occ. eigenvalues -- -145.37963 -19.16584 -19.16101 -19.14267 -19.13822
 Alpha  occ. eigenvalues --  -19.12364 -19.11835 -19.11434 -19.11318 -19.10742
 Alpha  occ. eigenvalues --  -19.10293 -19.09833 -19.09264 -19.08562 -19.08209
 Alpha  occ. eigenvalues --  -19.06286 -19.04633 -19.04366 -19.04205 -19.03663
 Alpha  occ. eigenvalues --  -19.03416 -19.03050 -19.02714 -19.02462 -15.43675
 Alpha  occ. eigenvalues --  -14.57553 -14.40424 -14.37791 -14.37098 -14.36944
 Alpha  occ. eigenvalues --  -14.36787 -14.36289 -14.34939 -14.34443 -14.33690
 Alpha  occ. eigenvalues --  -14.32252 -14.31074 -14.30407 -14.29298 -14.28154
 Alpha  occ. eigenvalues --  -12.57297 -12.57262 -12.57230 -10.32668 -10.32616
 Alpha  occ. eigenvalues --  -10.31335 -10.30031 -10.29980 -10.29622 -10.29280
 Alpha  occ. eigenvalues --  -10.28257 -10.28184 -10.27550 -10.27156 -10.26680
 Alpha  occ. eigenvalues --  -10.26618 -10.26533 -10.25678 -10.25564 -10.24115
 Alpha  occ. eigenvalues --  -10.23803 -10.23759 -10.23684 -10.23634 -10.23588
 Alpha  occ. eigenvalues --  -10.23524 -10.23248 -10.23190 -10.22630 -10.22517
 Alpha  occ. eigenvalues --  -10.22388 -10.22198 -10.21993 -10.21753 -10.21531
 Alpha  occ. eigenvalues --  -10.21320 -10.19975 -10.19943 -10.19482 -10.19443
 Alpha  occ. eigenvalues --  -10.19208 -10.18706 -10.18629 -10.18276 -10.18133
 Alpha  occ. eigenvalues --  -10.18116 -10.18009 -10.17976 -10.17794 -10.17791
 Alpha  occ. eigenvalues --  -10.17442 -10.17439 -10.17210 -10.16844 -10.16676
 Alpha  occ. eigenvalues --  -10.16632 -10.14024  -1.80381  -1.12757  -1.08067
 Alpha  occ. eigenvalues --   -1.08014  -1.07721  -1.07629  -1.05470  -1.05077
 Alpha  occ. eigenvalues --   -1.04645  -1.04395  -1.04150  -1.03877  -1.03523
 Alpha  occ. eigenvalues --   -1.02904  -1.02792  -1.02742  -1.01556  -1.00487
 Alpha  occ. eigenvalues --   -0.99516  -0.99138  -0.98363  -0.98273  -0.97471
 Alpha  occ. eigenvalues --   -0.96953  -0.96902  -0.95496  -0.94564  -0.94212
 Alpha  occ. eigenvalues --   -0.94085  -0.93828  -0.93644  -0.92273  -0.91606
 Alpha  occ. eigenvalues --   -0.91301  -0.89882  -0.89174  -0.88557  -0.87851
 Alpha  occ. eigenvalues --   -0.87503  -0.87236  -0.86823  -0.86487  -0.85029
 Alpha  occ. eigenvalues --   -0.82868  -0.82788  -0.82083  -0.80896  -0.79821
 Alpha  occ. eigenvalues --   -0.79544  -0.78826  -0.77388  -0.77045  -0.76193
 Alpha  occ. eigenvalues --   -0.75278  -0.75182  -0.74728  -0.74209  -0.73003
 Alpha  occ. eigenvalues --   -0.72841  -0.72540  -0.71890  -0.70314  -0.69808
 Alpha  occ. eigenvalues --   -0.69294  -0.69034  -0.68938  -0.68254  -0.68228
 Alpha  occ. eigenvalues --   -0.67520  -0.65985  -0.65966  -0.64889  -0.64529
 Alpha  occ. eigenvalues --   -0.64304  -0.63069  -0.62318  -0.61958  -0.61653
 Alpha  occ. eigenvalues --   -0.61493  -0.60758  -0.60645  -0.60386  -0.60234
 Alpha  occ. eigenvalues --   -0.59276  -0.59074  -0.58753  -0.58586  -0.57749
 Alpha  occ. eigenvalues --   -0.57073  -0.56709  -0.56577  -0.56232  -0.56217
 Alpha  occ. eigenvalues --   -0.55896  -0.55728  -0.55458  -0.55311  -0.55128
 Alpha  occ. eigenvalues --   -0.55058  -0.54751  -0.54570  -0.53855  -0.53021
 Alpha  occ. eigenvalues --   -0.52885  -0.52603  -0.52467  -0.52248  -0.51648
 Alpha  occ. eigenvalues --   -0.51349  -0.51162  -0.50796  -0.50368  -0.50176
 Alpha  occ. eigenvalues --   -0.49870  -0.49774  -0.49219  -0.49000  -0.48845
 Alpha  occ. eigenvalues --   -0.48674  -0.48659  -0.48444  -0.47995  -0.47771
 Alpha  occ. eigenvalues --   -0.47713  -0.47625  -0.47519  -0.47187  -0.46827
 Alpha  occ. eigenvalues --   -0.46427  -0.46332  -0.46101  -0.45535  -0.45455
 Alpha  occ. eigenvalues --   -0.45162  -0.45066  -0.44946  -0.44801  -0.44685
 Alpha  occ. eigenvalues --   -0.44566  -0.44261  -0.44070  -0.44032  -0.43969
 Alpha  occ. eigenvalues --   -0.43770  -0.43698  -0.43478  -0.43403  -0.43271
 Alpha  occ. eigenvalues --   -0.43114  -0.42924  -0.42796  -0.42699  -0.42575
 Alpha  occ. eigenvalues --   -0.42358  -0.42210  -0.42172  -0.42091  -0.41936
 Alpha  occ. eigenvalues --   -0.41869  -0.41776  -0.41435  -0.41191  -0.41022
 Alpha  occ. eigenvalues --   -0.40980  -0.40780  -0.40655  -0.40469  -0.40250
 Alpha  occ. eigenvalues --   -0.40149  -0.39966  -0.39723  -0.39512  -0.39452
 Alpha  occ. eigenvalues --   -0.39247  -0.39006  -0.38936  -0.38899  -0.38785
 Alpha  occ. eigenvalues --   -0.38675  -0.38507  -0.38431  -0.38346  -0.38277
 Alpha  occ. eigenvalues --   -0.37987  -0.37893  -0.37723  -0.37693  -0.37518
 Alpha  occ. eigenvalues --   -0.37285  -0.37197  -0.37001  -0.36827  -0.36731
 Alpha  occ. eigenvalues --   -0.36585  -0.36212  -0.35850  -0.35659  -0.35520
 Alpha  occ. eigenvalues --   -0.35238  -0.35044  -0.34765  -0.34676  -0.34535
 Alpha  occ. eigenvalues --   -0.34425  -0.34362  -0.33904  -0.33708  -0.33617
 Alpha  occ. eigenvalues --   -0.33335  -0.33298  -0.33227  -0.32992  -0.32885
 Alpha  occ. eigenvalues --   -0.32800  -0.32296  -0.31883  -0.31494  -0.31280
 Alpha  occ. eigenvalues --   -0.31244  -0.31117  -0.30925  -0.30760  -0.29884
 Alpha  occ. eigenvalues --   -0.29863  -0.29601  -0.28831  -0.28723  -0.28567
 Alpha  occ. eigenvalues --   -0.28350  -0.27974  -0.27620  -0.27377  -0.27111
 Alpha  occ. eigenvalues --   -0.26972  -0.26907  -0.26731  -0.26608  -0.25992
 Alpha  occ. eigenvalues --   -0.25771  -0.25108  -0.24320  -0.24235  -0.24189
 Alpha  occ. eigenvalues --   -0.23799  -0.23116  -0.23049  -0.22573  -0.22320
 Alpha  occ. eigenvalues --   -0.22228  -0.21980  -0.21601  -0.21137  -0.20950
 Alpha  occ. eigenvalues --   -0.20739  -0.19943  -0.19505  -0.19235  -0.18699
 Alpha  occ. eigenvalues --   -0.18359  -0.18124  -0.17941
 Alpha virt. eigenvalues --   -0.09931  -0.04026  -0.03196  -0.02859  -0.01927
 Alpha virt. eigenvalues --   -0.01567  -0.00238  -0.00061   0.00042   0.00197
 Alpha virt. eigenvalues --    0.00379   0.00652   0.00989   0.01149   0.01979
 Alpha virt. eigenvalues --    0.02118   0.02429   0.02755   0.03099   0.03435
 Alpha virt. eigenvalues --    0.04061   0.04325   0.04525   0.05086   0.05203
 Alpha virt. eigenvalues --    0.05411   0.05439   0.05794   0.06120   0.06295
 Alpha virt. eigenvalues --    0.06500   0.06655   0.06796   0.06913   0.07120
 Alpha virt. eigenvalues --    0.07230   0.07360   0.07448   0.07693   0.07774
 Alpha virt. eigenvalues --    0.08051   0.08140   0.08689   0.08761   0.08944
 Alpha virt. eigenvalues --    0.09063   0.09232   0.09584   0.09788   0.10063
 Alpha virt. eigenvalues --    0.10228   0.10401   0.10676   0.10791   0.10955
 Alpha virt. eigenvalues --    0.11397   0.11622   0.11739   0.12008   0.12079
 Alpha virt. eigenvalues --    0.12220   0.12314   0.12381   0.12861   0.12944
 Alpha virt. eigenvalues --    0.13158   0.13351   0.13380   0.13444   0.13781
 Alpha virt. eigenvalues --    0.13837   0.13891   0.14025   0.14135   0.14245
 Alpha virt. eigenvalues --    0.14386   0.14667   0.14837   0.15044   0.15086
 Alpha virt. eigenvalues --    0.15283   0.15353   0.15635   0.15796   0.16090
 Alpha virt. eigenvalues --    0.16306   0.16498   0.16616   0.16849   0.16977
 Alpha virt. eigenvalues --    0.17127   0.17232   0.17629   0.17734   0.17885
 Alpha virt. eigenvalues --    0.18029   0.18126   0.18205   0.18545   0.18643
 Alpha virt. eigenvalues --    0.18752   0.18839   0.18947   0.19228   0.19291
 Alpha virt. eigenvalues --    0.19756   0.19985   0.20031   0.20113   0.20448
 Alpha virt. eigenvalues --    0.20645   0.20801   0.21051   0.21086   0.21464
 Alpha virt. eigenvalues --    0.21536   0.21644   0.22267   0.22335   0.22654
 Alpha virt. eigenvalues --    0.22834   0.23212   0.23288   0.23320   0.23634
 Alpha virt. eigenvalues --    0.23669   0.23859   0.24220   0.24329   0.24470
 Alpha virt. eigenvalues --    0.24649   0.24806   0.25233   0.25527   0.25661
 Alpha virt. eigenvalues --    0.25884   0.26117   0.26345   0.26480   0.26606
 Alpha virt. eigenvalues --    0.26864   0.27159   0.27321   0.27424   0.27929
 Alpha virt. eigenvalues --    0.28222   0.28346   0.28610   0.28975   0.29049
 Alpha virt. eigenvalues --    0.29405   0.29757   0.30259   0.30409   0.30694
 Alpha virt. eigenvalues --    0.30866   0.31220   0.31402   0.31491   0.31692
 Alpha virt. eigenvalues --    0.31845   0.32030   0.32549   0.32684   0.32811
 Alpha virt. eigenvalues --    0.33057   0.33210   0.33265   0.33742   0.33847
 Alpha virt. eigenvalues --    0.34218   0.34538   0.34613   0.34957   0.35609
 Alpha virt. eigenvalues --    0.35620   0.35892   0.36041   0.36110   0.36656
 Alpha virt. eigenvalues --    0.37303   0.37635   0.37989   0.38239   0.38459
 Alpha virt. eigenvalues --    0.38897   0.39153   0.39258   0.39338   0.39791
 Alpha virt. eigenvalues --    0.40020   0.40426   0.40732   0.40949   0.41032
 Alpha virt. eigenvalues --    0.41443   0.41840   0.41944   0.42235   0.42372
 Alpha virt. eigenvalues --    0.42576   0.42848   0.42902   0.43018   0.43134
 Alpha virt. eigenvalues --    0.43227   0.43375   0.43597   0.43950   0.43968
 Alpha virt. eigenvalues --    0.44367   0.44537   0.44710   0.44914   0.45016
 Alpha virt. eigenvalues --    0.45266   0.45503   0.45878   0.46137   0.46381
 Alpha virt. eigenvalues --    0.46537   0.46572   0.46899   0.47126   0.47346
 Alpha virt. eigenvalues --    0.47599   0.47676   0.47745   0.47906   0.48335
 Alpha virt. eigenvalues --    0.48548   0.48647   0.48746   0.48869   0.48905
 Alpha virt. eigenvalues --    0.49422   0.49623   0.49925   0.50031   0.50302
 Alpha virt. eigenvalues --    0.50508   0.50800   0.50951   0.51141   0.51473
 Alpha virt. eigenvalues --    0.51543   0.51773   0.51899   0.52173   0.52371
 Alpha virt. eigenvalues --    0.52718   0.52866   0.53146   0.53386   0.53661
 Alpha virt. eigenvalues --    0.53733   0.54072   0.54087   0.54480   0.54582
 Alpha virt. eigenvalues --    0.54839   0.55020   0.55148   0.55394   0.55544
 Alpha virt. eigenvalues --    0.55698   0.55793   0.55980   0.56072   0.56326
 Alpha virt. eigenvalues --    0.56560   0.56605   0.56719   0.57261   0.57463
 Alpha virt. eigenvalues --    0.57737   0.57948   0.58148   0.58380   0.58488
 Alpha virt. eigenvalues --    0.58645   0.58769   0.58831   0.59212   0.59300
 Alpha virt. eigenvalues --    0.59529   0.59725   0.59779   0.59856   0.59950
 Alpha virt. eigenvalues --    0.60118   0.60321   0.60473   0.60608   0.60861
 Alpha virt. eigenvalues --    0.61061   0.61216   0.61267   0.61402   0.61498
 Alpha virt. eigenvalues --    0.61607   0.61810   0.61917   0.62038   0.62082
 Alpha virt. eigenvalues --    0.62126   0.62180   0.62300   0.62592   0.62709
 Alpha virt. eigenvalues --    0.62792   0.62957   0.63016   0.63270   0.63362
 Alpha virt. eigenvalues --    0.63452   0.63506   0.63632   0.63727   0.63804
 Alpha virt. eigenvalues --    0.63980   0.64069   0.64216   0.64309   0.64425
 Alpha virt. eigenvalues --    0.64440   0.64774   0.64795   0.64911   0.65108
 Alpha virt. eigenvalues --    0.65243   0.65487   0.65569   0.65634   0.65664
 Alpha virt. eigenvalues --    0.65830   0.65861   0.66116   0.66248   0.66408
 Alpha virt. eigenvalues --    0.66492   0.66532   0.66611   0.66756   0.66862
 Alpha virt. eigenvalues --    0.66928   0.67084   0.67226   0.67391   0.67505
 Alpha virt. eigenvalues --    0.67652   0.67676   0.67890   0.67935   0.67990
 Alpha virt. eigenvalues --    0.68105   0.68259   0.68271   0.68488   0.68705
 Alpha virt. eigenvalues --    0.68807   0.68994   0.69057   0.69239   0.69397
 Alpha virt. eigenvalues --    0.69411   0.69573   0.69680   0.69803   0.69988
 Alpha virt. eigenvalues --    0.70090   0.70154   0.70289   0.70386   0.70428
 Alpha virt. eigenvalues --    0.70520   0.70675   0.70850   0.71024   0.71224
 Alpha virt. eigenvalues --    0.71388   0.71470   0.71592   0.71657   0.71788
 Alpha virt. eigenvalues --    0.72078   0.72323   0.72471   0.72615   0.72758
 Alpha virt. eigenvalues --    0.72887   0.72933   0.72995   0.73422   0.73466
 Alpha virt. eigenvalues --    0.73687   0.73819   0.74058   0.74146   0.74314
 Alpha virt. eigenvalues --    0.74763   0.74876   0.74944   0.75042   0.75177
 Alpha virt. eigenvalues --    0.75515   0.75668   0.76049   0.76391   0.76468
 Alpha virt. eigenvalues --    0.76741   0.76898   0.77048   0.77289   0.77538
 Alpha virt. eigenvalues --    0.77821   0.78096   0.78221   0.78518   0.78595
 Alpha virt. eigenvalues --    0.78796   0.79091   0.79315   0.79527   0.79824
 Alpha virt. eigenvalues --    0.80245   0.80373   0.80408   0.80735   0.80859
 Alpha virt. eigenvalues --    0.81070   0.81444   0.81625   0.81791   0.82158
 Alpha virt. eigenvalues --    0.82602   0.82822   0.83255   0.83480   0.83748
 Alpha virt. eigenvalues --    0.83796   0.83962   0.84106   0.84483   0.84778
 Alpha virt. eigenvalues --    0.85089   0.85557   0.85682   0.85818   0.86026
 Alpha virt. eigenvalues --    0.86357   0.86517   0.86913   0.87084   0.87267
 Alpha virt. eigenvalues --    0.87690   0.87768   0.88513   0.88814   0.88859
 Alpha virt. eigenvalues --    0.88974   0.89457   0.89790   0.90157   0.90495
 Alpha virt. eigenvalues --    0.90716   0.91045   0.91475   0.91871   0.92150
 Alpha virt. eigenvalues --    0.92267   0.92701   0.92936   0.93380   0.93566
 Alpha virt. eigenvalues --    0.93933   0.94015   0.94647   0.94677   0.95078
 Alpha virt. eigenvalues --    0.95364   0.95686   0.95879   0.96268   0.96776
 Alpha virt. eigenvalues --    0.97401   0.97722   0.97812   0.98024   0.98266
 Alpha virt. eigenvalues --    0.98571   0.98736   0.98999   0.99179   0.99456
 Alpha virt. eigenvalues --    0.99582   0.99986   1.00312   1.00490   1.00685
 Alpha virt. eigenvalues --    1.01067   1.01256   1.01457   1.01821   1.02024
 Alpha virt. eigenvalues --    1.02778   1.03187   1.03267   1.03498   1.03799
 Alpha virt. eigenvalues --    1.04045   1.04375   1.04528   1.05187   1.05508
 Alpha virt. eigenvalues --    1.05708   1.05798   1.06390   1.06550   1.06735
 Alpha virt. eigenvalues --    1.07219   1.07480   1.07809   1.08057   1.08207
 Alpha virt. eigenvalues --    1.08835   1.09290   1.09556   1.09640   1.09765
 Alpha virt. eigenvalues --    1.10154   1.10575   1.10711   1.10910   1.11356
 Alpha virt. eigenvalues --    1.11637   1.12065   1.12156   1.12320   1.12599
 Alpha virt. eigenvalues --    1.12966   1.13106   1.13406   1.13809   1.14002
 Alpha virt. eigenvalues --    1.14185   1.14524   1.14936   1.15191   1.15428
 Alpha virt. eigenvalues --    1.15546   1.15666   1.16163   1.16245   1.16432
 Alpha virt. eigenvalues --    1.16917   1.17138   1.17380   1.17861   1.18033
 Alpha virt. eigenvalues --    1.18193   1.18770   1.18961   1.19227   1.19450
 Alpha virt. eigenvalues --    1.19590   1.19734   1.19936   1.20155   1.20441
 Alpha virt. eigenvalues --    1.20508   1.21055   1.21526   1.21731   1.22085
 Alpha virt. eigenvalues --    1.22164   1.22650   1.22843   1.22975   1.23063
 Alpha virt. eigenvalues --    1.23215   1.23587   1.23821   1.24110   1.24170
 Alpha virt. eigenvalues --    1.24375   1.24544   1.25093   1.25268   1.25486
 Alpha virt. eigenvalues --    1.25781   1.25962   1.26328   1.26523   1.26713
 Alpha virt. eigenvalues --    1.27030   1.27333   1.27499   1.27827   1.28155
 Alpha virt. eigenvalues --    1.28205   1.28581   1.28860   1.28988   1.29121
 Alpha virt. eigenvalues --    1.29407   1.29571   1.29787   1.30138   1.30438
 Alpha virt. eigenvalues --    1.30553   1.30841   1.30977   1.31671   1.31735
 Alpha virt. eigenvalues --    1.32197   1.32584   1.32934   1.33188   1.33455
 Alpha virt. eigenvalues --    1.33666   1.33977   1.34315   1.34691   1.34887
 Alpha virt. eigenvalues --    1.35123   1.35512   1.35636   1.35949   1.36000
 Alpha virt. eigenvalues --    1.36410   1.37006   1.37181   1.37296   1.37748
 Alpha virt. eigenvalues --    1.37904   1.38418   1.38574   1.38649   1.38906
 Alpha virt. eigenvalues --    1.39209   1.39597   1.39762   1.40324   1.40512
 Alpha virt. eigenvalues --    1.40676   1.40848   1.41362   1.41566   1.41688
 Alpha virt. eigenvalues --    1.41708   1.42044   1.42233   1.42350   1.43165
 Alpha virt. eigenvalues --    1.43375   1.43442   1.44119   1.44166   1.44567
 Alpha virt. eigenvalues --    1.44871   1.45217   1.45371   1.45698   1.45937
 Alpha virt. eigenvalues --    1.46114   1.46612   1.46883   1.47131   1.47603
 Alpha virt. eigenvalues --    1.47860   1.47931   1.48120   1.48439   1.48548
 Alpha virt. eigenvalues --    1.48785   1.49134   1.49612   1.49764   1.50173
 Alpha virt. eigenvalues --    1.50265   1.50675   1.50877   1.51081   1.51427
 Alpha virt. eigenvalues --    1.51775   1.51962   1.52734   1.52907   1.53079
 Alpha virt. eigenvalues --    1.53219   1.53490   1.54007   1.54300   1.54605
 Alpha virt. eigenvalues --    1.54806   1.55283   1.55445   1.55488   1.55807
 Alpha virt. eigenvalues --    1.55887   1.56268   1.56552   1.56771   1.57280
 Alpha virt. eigenvalues --    1.57431   1.57532   1.57929   1.58502   1.58890
 Alpha virt. eigenvalues --    1.59188   1.59450   1.59510   1.59638   1.60552
 Alpha virt. eigenvalues --    1.60629   1.60882   1.61114   1.61685   1.61847
 Alpha virt. eigenvalues --    1.62055   1.62525   1.62679   1.62854   1.63258
 Alpha virt. eigenvalues --    1.63541   1.64089   1.64283   1.65173   1.65292
 Alpha virt. eigenvalues --    1.65453   1.65847   1.66820   1.67245   1.67380
 Alpha virt. eigenvalues --    1.67567   1.68105   1.68321   1.69069   1.69349
 Alpha virt. eigenvalues --    1.69445   1.69672   1.69764   1.69960   1.70326
 Alpha virt. eigenvalues --    1.70614   1.70808   1.70968   1.71457   1.71637
 Alpha virt. eigenvalues --    1.72027   1.72084   1.72427   1.72518   1.72955
 Alpha virt. eigenvalues --    1.73068   1.73087   1.73158   1.73360   1.73925
 Alpha virt. eigenvalues --    1.74179   1.74479   1.74492   1.74596   1.74902
 Alpha virt. eigenvalues --    1.75174   1.75237   1.75575   1.75651   1.75763
 Alpha virt. eigenvalues --    1.76011   1.76309   1.76508   1.76551   1.76681
 Alpha virt. eigenvalues --    1.76799   1.77188   1.77341   1.77666   1.77711
 Alpha virt. eigenvalues --    1.77838   1.77973   1.78161   1.78292   1.78676
 Alpha virt. eigenvalues --    1.78767   1.79022   1.79150   1.79441   1.79482
 Alpha virt. eigenvalues --    1.79527   1.79647   1.79780   1.79963   1.80168
 Alpha virt. eigenvalues --    1.80208   1.80356   1.80649   1.80764   1.80906
 Alpha virt. eigenvalues --    1.81012   1.81152   1.81605   1.81731   1.81843
 Alpha virt. eigenvalues --    1.82099   1.82150   1.82240   1.82501   1.82734
 Alpha virt. eigenvalues --    1.82780   1.82992   1.83289   1.83473   1.83635
 Alpha virt. eigenvalues --    1.83905   1.83943   1.84068   1.84279   1.84463
 Alpha virt. eigenvalues --    1.84669   1.84929   1.85192   1.85303   1.85432
 Alpha virt. eigenvalues --    1.85708   1.85806   1.86039   1.86153   1.86487
 Alpha virt. eigenvalues --    1.86673   1.86739   1.86922   1.87179   1.87220
 Alpha virt. eigenvalues --    1.87411   1.87679   1.87956   1.88333   1.88457
 Alpha virt. eigenvalues --    1.88748   1.88856   1.89081   1.89150   1.89571
 Alpha virt. eigenvalues --    1.89605   1.89885   1.90003   1.90133   1.90197
 Alpha virt. eigenvalues --    1.90333   1.90717   1.90874   1.90928   1.91187
 Alpha virt. eigenvalues --    1.91350   1.91455   1.91616   1.92085   1.92244
 Alpha virt. eigenvalues --    1.92389   1.92756   1.92913   1.92999   1.93196
 Alpha virt. eigenvalues --    1.93455   1.93634   1.94423   1.94527   1.94612
 Alpha virt. eigenvalues --    1.94755   1.94822   1.95111   1.95306   1.95738
 Alpha virt. eigenvalues --    1.95827   1.95987   1.96118   1.96315   1.96431
 Alpha virt. eigenvalues --    1.96699   1.96777   1.96904   1.96954   1.97325
 Alpha virt. eigenvalues --    1.97711   1.98044   1.98121   1.98268   1.98405
 Alpha virt. eigenvalues --    1.98661   1.98948   1.99264   1.99423   1.99463
 Alpha virt. eigenvalues --    1.99725   1.99893   2.00067   2.00225   2.00269
 Alpha virt. eigenvalues --    2.00716   2.00839   2.01231   2.01492   2.01668
 Alpha virt. eigenvalues --    2.02198   2.02419   2.02453   2.02748   2.03193
 Alpha virt. eigenvalues --    2.03348   2.03358   2.03687   2.03938   2.04127
 Alpha virt. eigenvalues --    2.04277   2.04531   2.04671   2.05176   2.05753
 Alpha virt. eigenvalues --    2.05901   2.06134   2.06537   2.06617   2.06860
 Alpha virt. eigenvalues --    2.07120   2.07795   2.08075   2.08147   2.08342
 Alpha virt. eigenvalues --    2.08613   2.08773   2.09036   2.09262   2.09646
 Alpha virt. eigenvalues --    2.10071   2.10409   2.10713   2.10910   2.11305
 Alpha virt. eigenvalues --    2.11332   2.11585   2.11825   2.12274   2.13088
 Alpha virt. eigenvalues --    2.13293   2.13634   2.13804   2.14364   2.14450
 Alpha virt. eigenvalues --    2.15045   2.15155   2.15396   2.15566   2.15933
 Alpha virt. eigenvalues --    2.16155   2.16543   2.16802   2.17008   2.17302
 Alpha virt. eigenvalues --    2.17884   2.18427   2.18575   2.18776   2.18964
 Alpha virt. eigenvalues --    2.19076   2.19580   2.20072   2.20479   2.20579
 Alpha virt. eigenvalues --    2.20641   2.20884   2.21502   2.21873   2.21980
 Alpha virt. eigenvalues --    2.22163   2.22495   2.23151   2.23328   2.23869
 Alpha virt. eigenvalues --    2.24074   2.24329   2.24596   2.24884   2.25197
 Alpha virt. eigenvalues --    2.25533   2.25658   2.25995   2.26174   2.26340
 Alpha virt. eigenvalues --    2.26873   2.27265   2.27584   2.27776   2.28437
 Alpha virt. eigenvalues --    2.28974   2.29109   2.29496   2.29578   2.29724
 Alpha virt. eigenvalues --    2.29911   2.30402   2.30540   2.30788   2.30977
 Alpha virt. eigenvalues --    2.31734   2.32322   2.32508   2.32979   2.33241
 Alpha virt. eigenvalues --    2.33261   2.33492   2.33957   2.34274   2.34358
 Alpha virt. eigenvalues --    2.34462   2.34776   2.35120   2.35369   2.35519
 Alpha virt. eigenvalues --    2.35929   2.36040   2.36283   2.36600   2.37421
 Alpha virt. eigenvalues --    2.37680   2.37798   2.38109   2.38263   2.38573
 Alpha virt. eigenvalues --    2.38813   2.39076   2.39558   2.39842   2.40093
 Alpha virt. eigenvalues --    2.40505   2.40639   2.40865   2.41319   2.41463
 Alpha virt. eigenvalues --    2.42004   2.42467   2.42551   2.43403   2.43531
 Alpha virt. eigenvalues --    2.43828   2.44160   2.44392   2.44405   2.44661
 Alpha virt. eigenvalues --    2.45341   2.45437   2.46110   2.46641   2.46837
 Alpha virt. eigenvalues --    2.47505   2.47885   2.48446   2.48480   2.48812
 Alpha virt. eigenvalues --    2.49718   2.49940   2.50328   2.50734   2.50769
 Alpha virt. eigenvalues --    2.51094   2.51230   2.51491   2.51746   2.52063
 Alpha virt. eigenvalues --    2.52282   2.53050   2.53102   2.53260   2.53720
 Alpha virt. eigenvalues --    2.53868   2.54492   2.54705   2.54876   2.55237
 Alpha virt. eigenvalues --    2.55364   2.55920   2.56193   2.56808   2.57510
 Alpha virt. eigenvalues --    2.58346   2.58631   2.58807   2.59302   2.59508
 Alpha virt. eigenvalues --    2.59553   2.60150   2.60321   2.60477   2.60933
 Alpha virt. eigenvalues --    2.61185   2.61296   2.61669   2.61958   2.62483
 Alpha virt. eigenvalues --    2.62676   2.62776   2.62867   2.63083   2.63481
 Alpha virt. eigenvalues --    2.63984   2.64203   2.64244   2.65219   2.65455
 Alpha virt. eigenvalues --    2.65577   2.66110   2.66196   2.66752   2.67169
 Alpha virt. eigenvalues --    2.67285   2.67638   2.67981   2.68110   2.68631
 Alpha virt. eigenvalues --    2.68789   2.68973   2.69365   2.69794   2.70120
 Alpha virt. eigenvalues --    2.70249   2.70845   2.70965   2.71241   2.71647
 Alpha virt. eigenvalues --    2.71870   2.71999   2.72158   2.72344   2.72478
 Alpha virt. eigenvalues --    2.72794   2.72889   2.73374   2.73593   2.73675
 Alpha virt. eigenvalues --    2.73753   2.74296   2.74493   2.74685   2.74864
 Alpha virt. eigenvalues --    2.75058   2.75480   2.75697   2.75852   2.75992
 Alpha virt. eigenvalues --    2.76264   2.76534   2.76728   2.76951   2.77309
 Alpha virt. eigenvalues --    2.77543   2.77724   2.77910   2.78281   2.78541
 Alpha virt. eigenvalues --    2.78918   2.79061   2.79230   2.79523   2.79706
 Alpha virt. eigenvalues --    2.80032   2.80279   2.80565   2.80963   2.81634
 Alpha virt. eigenvalues --    2.82155   2.82439   2.82496   2.82629   2.82957
 Alpha virt. eigenvalues --    2.83066   2.83836   2.83952   2.84300   2.84628
 Alpha virt. eigenvalues --    2.84818   2.85209   2.85733   2.86266   2.86685
 Alpha virt. eigenvalues --    2.86893   2.87290   2.87463   2.88026   2.88183
 Alpha virt. eigenvalues --    2.88301   2.88721   2.88770   2.88939   2.89376
 Alpha virt. eigenvalues --    2.89558   2.89824   2.90256   2.90495   2.90733
 Alpha virt. eigenvalues --    2.90918   2.91035   2.91262   2.91461   2.91656
 Alpha virt. eigenvalues --    2.91962   2.92740   2.92766   2.93122   2.93492
 Alpha virt. eigenvalues --    2.93910   2.94181   2.94702   2.95252   2.95727
 Alpha virt. eigenvalues --    2.95834   2.95992   2.96126   2.96457   2.96876
 Alpha virt. eigenvalues --    2.97110   2.97411   2.97600   2.97639   2.98134
 Alpha virt. eigenvalues --    2.98576   2.98987   2.99155   2.99685   2.99918
 Alpha virt. eigenvalues --    3.00166   3.00266   3.00503   3.01042   3.01319
 Alpha virt. eigenvalues --    3.01518   3.02090   3.02352   3.02669   3.03051
 Alpha virt. eigenvalues --    3.03406   3.03630   3.03894   3.04581   3.04803
 Alpha virt. eigenvalues --    3.04835   3.05157   3.05626   3.06030   3.06235
 Alpha virt. eigenvalues --    3.06375   3.06952   3.07901   3.09160   3.09522
 Alpha virt. eigenvalues --    3.10118   3.10512   3.12225   3.12504   3.13348
 Alpha virt. eigenvalues --    3.13644   3.13856   3.13956   3.14368   3.14950
 Alpha virt. eigenvalues --    3.15047   3.15793   3.16117   3.16451   3.16517
 Alpha virt. eigenvalues --    3.17029   3.17082   3.17160   3.17318   3.17499
 Alpha virt. eigenvalues --    3.17993   3.18264   3.18550   3.19255   3.19588
 Alpha virt. eigenvalues --    3.20008   3.20090   3.20268   3.20451   3.20852
 Alpha virt. eigenvalues --    3.21585   3.21857   3.22358   3.22500   3.22924
 Alpha virt. eigenvalues --    3.23117   3.23407   3.23842   3.24459   3.24644
 Alpha virt. eigenvalues --    3.25363   3.26135   3.26959   3.27747   3.27921
 Alpha virt. eigenvalues --    3.28768   3.29085   3.29492   3.31787   3.32336
 Alpha virt. eigenvalues --    3.32622   3.32963   3.33280   3.33542   3.33749
 Alpha virt. eigenvalues --    3.33809   3.34690   3.36060   3.38971   3.39891
 Alpha virt. eigenvalues --    3.44787   3.45983   3.46109   3.52119   3.52223
 Alpha virt. eigenvalues --    3.53102   3.53909   3.54080   3.54789   3.56630
 Alpha virt. eigenvalues --    3.56781   3.56916   3.58611   3.59492   3.60790
 Alpha virt. eigenvalues --    3.61470   3.61563   3.62400   3.62610   3.65691
 Alpha virt. eigenvalues --    3.66127   3.66294   3.66900   3.68151   3.68270
 Alpha virt. eigenvalues --    3.68581   3.68991   3.69890   3.70250   3.70336
 Alpha virt. eigenvalues --    3.70563   3.70987   3.71213   3.71635   3.71895
 Alpha virt. eigenvalues --    3.73212   3.73381   3.73788   3.74612   3.76693
 Alpha virt. eigenvalues --    3.78285   3.83944   3.84660   3.87595
          Condensed to atoms (all electrons):
 Mulliken charges:
               1
     1  C    0.055793
     2  C    0.026244
     3  O   -0.279639
     4  H   -0.014594
     5  H    0.033868
     6  H    0.050242
     7  N   -0.118437
     8  C    0.131992
     9  C    0.030904
    10  O   -0.287373
    11  C    0.050127
    12  C    0.137178
    13  O   -0.371688
    14  O   -0.442963
    15  H    0.115562
    16  H    0.010548
    17  H    0.006435
    18  H    0.011958
    19  N   -0.144367
    20  C    0.133248
    21  C    0.042751
    22  O   -0.312232
    23  C    0.065618
    24  C   -0.015207
    25  C   -0.082305
    26  C    0.023849
    27  N    0.088663
    28  H    0.165995
    29  H    0.002485
    30  H    0.003780
    31  H    0.030560
    32  H    0.032762
    33  H    0.035742
    34  H    0.022565
    35  H    0.018573
    36  H    0.083422
    37  H    0.090980
    38  H    0.178065
    39  H    0.181942
    40  H    0.196922
    41  N   -0.118022
    42  C    0.119679
    43  C    0.075911
    44  O   -0.283176
    45  C    0.095518
    46  C    0.083305
    47  O   -0.433837
    48  O   -0.391808
    49  H    0.152704
    50  H    0.016585
    51  H    0.000089
    52  H    0.017245
    53  N   -0.161411
    54  C    0.232731
    55  C    0.037082
    56  O   -0.317754
    57  H    0.137017
    58  H    0.013478
    59  H    0.021275
    60  N   -0.155126
    61  C    0.147429
    62  C    0.026039
    63  O   -0.306833
    64  C    0.110024
    65  C    0.042543
    66  N   -0.049283
    67  O   -0.330439
    68  H    0.153181
    69  H    0.022659
    70  H    0.057185
    71  H   -0.002966
    72  H    0.146551
    73  H    0.131369
    74  N   -0.193133
    75  C    0.324763
    76  C   -0.030462
    77  O   -0.326654
    78  H    0.156818
    79  H    0.045365
    80  H    0.029577
    81  N   -0.135663
    82  C    0.117580
    83  C    0.147182
    84  O   -0.343933
    85  C    0.155271
    86  C   -0.014712
    87  C   -0.011711
    88  C    0.022486
    89  C    0.002333
    90  C   -0.027304
    91  C    0.176053
    92  O   -0.203495
    93  H    0.141906
    94  H   -0.014484
    95  H   -0.017431
    96  H   -0.042254
    97  H   -0.083260
    98  H   -0.038816
    99  H   -0.028996
   100  H   -0.036501
   101  H    0.162276
   102  N   -0.106799
   103  C    0.150519
   104  C    0.068053
   105  O   -0.279459
   106  C   -0.133979
   107  C    0.025280
   108  C    0.079712
   109  C    0.042872
   110  H    0.134286
   111  H    0.009583
   112  H   -0.019969
   113  H   -0.009579
   114  H    0.005719
   115  H    0.003396
   116  H    0.022676
   117  H    0.000971
   118  H    0.007510
   119  H    0.012710
   120  H   -0.008128
   121  N   -0.138164
   122  C    0.098980
   123  C    0.103723
   124  O   -0.284706
   125  C    0.225093
   126  O   -0.337735
   127  H    0.152491
   128  H    0.028971
   129  H    0.005475
   130  H   -0.013968
   131  H    0.172129
   132  N   -0.126124
   133  C    0.059943
   134  C    0.050902
   135  O   -0.245977
   136  C    0.058699
   137  H    0.121712
   138  H    0.019897
   139  H    0.044113
   140  H    0.017933
   141  H    0.021695
   142  N   -0.163152
   143  C    0.122390
   144  C    0.064157
   145  O   -0.282943
   146  C    0.019748
   147  H    0.111305
   148  H    0.020663
   149  H    0.008679
   150  H    0.037309
   151  H    0.015601
   152  N   -0.157302
   153  C    0.130976
   154  C    0.079016
   155  O   -0.307269
   156  C   -0.023454
   157  C    0.073690
   158  C    0.175655
   159  O   -0.398031
   160  O   -0.452329
   161  H    0.152147
   162  H    0.007145
   163  H    0.034320
   164  H   -0.032915
   165  H   -0.000011
   166  H   -0.026723
   167  N   -0.160961
   168  C    0.136026
   169  H    0.023958
   170  H    0.014125
   171  H    0.030326
   172  H    0.125515
   173  Ca   1.294730
   174  O   -0.260923
   175  H    0.182099
   176  H    0.154265
 Sum of Mulliken charges =  -0.00000
 Mulliken charges with hydrogens summed into heavy atoms:
               1
     1  C    0.125310
     2  C    0.026244
     3  O   -0.279639
     7  N   -0.002875
     8  C    0.142540
     9  C    0.030904
    10  O   -0.287373
    11  C    0.068521
    12  C    0.137178
    13  O   -0.371688
    14  O   -0.442963
    19  N    0.021627
    20  C    0.135733
    21  C    0.042751
    22  O   -0.312232
    23  C    0.099959
    24  C    0.053298
    25  C   -0.041168
    26  C    0.198251
    27  N    0.645592
    41  N    0.034682
    42  C    0.136263
    43  C    0.075911
    44  O   -0.283176
    45  C    0.112852
    46  C    0.083305
    47  O   -0.433837
    48  O   -0.391808
    53  N   -0.024394
    54  C    0.267484
    55  C    0.037082
    56  O   -0.317754
    60  N   -0.001945
    61  C    0.170088
    62  C    0.026039
    63  O   -0.306833
    64  C    0.164243
    65  C    0.042543
    66  N    0.228637
    67  O   -0.330439
    74  N   -0.036315
    75  C    0.399706
    76  C   -0.030462
    77  O   -0.326654
    81  N    0.006242
    82  C    0.103097
    83  C    0.147182
    84  O   -0.343933
    85  C    0.095585
    86  C   -0.014712
    87  C   -0.094971
    88  C   -0.016330
    89  C   -0.026663
    90  C   -0.063805
    91  C    0.176053
    92  O   -0.041219
   102  N    0.027487
   103  C    0.160101
   104  C    0.068053
   105  O   -0.279459
   106  C   -0.153947
   107  C    0.021419
   108  C    0.106755
   109  C    0.054964
   121  N    0.014328
   122  C    0.127951
   123  C    0.103723
   124  O   -0.284706
   125  C    0.216600
   126  O   -0.165606
   132  N   -0.004412
   133  C    0.079841
   134  C    0.050902
   135  O   -0.245977
   136  C    0.142440
   142  N   -0.051847
   143  C    0.143053
   144  C    0.064157
   145  O   -0.282943
   146  C    0.081336
   152  N   -0.005155
   153  C    0.138121
   154  C    0.079016
   155  O   -0.307269
   156  C   -0.022048
   157  C    0.046956
   158  C    0.175655
   159  O   -0.398031
   160  O   -0.452329
   167  N   -0.035446
   168  C    0.204435
   173  Ca   1.294730
   174  O    0.075441
 DipInt: DoE/N= T F RetVal/Mat= T F Init=T NMatP=  1 IDeriv=0 Min/MaxMlt=  0  4
 Entering OneElI...
 OneElI was handed  1333951383 working-precision words.
 Multipole integrals L=0 to 4 MinM= 0 MaxM= 0.
 Requested accuracy = 0.1000D-12
 ShPair: Thresh= 1.00D-13 NBox=     0 BxSize= 0.00D+00 RnKept= 2.55D+01
         NSMCal=               327645 NSMKep=              164808
 PrmmSu-InSpLW:  IPartL=    0 NPrtUS=    1 NPrtUL=    1 DoSpLW=F IThBeg=    0 IThEnd=    0 NThAct=    1.
 PrsmSu:  NPrtUS=   1 ThrOK=F IAlg=1 NPAlg=1 LenDen=           0 ISkipM=0 DoSpLW=F IThBeg=    0 IThEnd=    0.
 Prism:   IPart=     0 DynPar=F LinDyn=F Incr=         512.
 PRISM was handed  1323692449 working-precision words and164808 shell-pairs
 IPart=  0 NShTot=      164808 NBatch=         380 AvBLen=       433.7
 PrsmSu-ThDecC:  IPartSL=    0    0 NPrtUSL=    1    1 IThBeg=    0 IThEnd=    0 CPU=   -1 GPU=   -1 NThAct=    1.
 PrSmSu:  NxtVal=            513.
 Electronic moments (au):
       -716.00000000         11.41062214         -0.08228676          3.16925976
     -52171.40613378     -28421.82297824     -12302.69029996         76.93423535
         37.87191815        110.65539886     -21104.75522558     -12484.63581887
      -8290.55885454      22223.35877719     123684.63749483      27675.76836803
     -17854.87438233     -14890.46464225      -8385.92410193     -46236.18120932
   -7513684.22372184   -2449124.05131074    -537121.80403398     -17585.82531446
     393673.34671409    -485928.12691282      11371.48983735     -78968.92467326
     -43214.89082872   -2203739.97519461    -673787.36115090    -387226.25815469
    -109860.14013143       4977.92383952       6037.39646105
 Electronic spatial extent (au):  <R**2>=          92895.9194
 DipInt: DoE/N= F T RetVal/Mat= T F Init=T NMatP=  1 IDeriv=0 Min/MaxMlt=  0  4
 Nuclear    moments (au):
        716.00000000          0.00000000         -0.00000000          0.00000000
      51674.01083379      28109.36280169      11936.44417312         -0.00000000
         -0.00000000         -0.00000000      22280.72253879      13177.88472875
       8476.77710854     -20704.27728100    -123911.70315893     -27700.29330836
      18194.95585145      15078.09075411       9270.14724037      46789.40005777
    7304149.58545264    2369520.73694876     497911.38169670      22531.60009936
    -389657.51195131     501609.72754242       1585.94455630      81045.94216124
      48642.01089038    2168759.52603180     640267.70798339     368662.99430823
     115946.35754362      -1414.11968586      -3317.91057228
 Total      moments (au):
         -0.00000000         11.41062214         -0.08228676          3.16925976
       -497.39529998       -312.46017654       -366.24612684         76.93423535
         37.87191815        110.65539886       1175.96731321        693.24890987
        186.21825400       1519.08149619       -227.06566410        -24.52494033
        340.08146911        187.62611186        884.22313844        553.21884846
    -209534.63826921     -79603.31436198     -39210.42233728       4945.77478491
       4015.83476279      15681.60062960      12957.43439365       2077.01748798
       5427.12006166     -34980.44916280     -33519.65316751     -18563.26384646
       6086.21741219       3563.80415366       2719.48588877
 Traceless Quadrup. (au):
       -105.36143220         79.57369125         25.78774095         76.93423535
         37.87191815        110.65539886
 Charge=             -0.0000 electrons
 Dipole moment (field-independent basis, Debye):
    X=             29.0029    Y=             -0.2092    Z=              8.0555  Tot=             30.1015
 Quadrupole moment (field-independent basis, Debye-Ang):
   XX=           -669.0137   YY=           -420.2696   ZZ=           -492.6136
   XY=            103.4792   XZ=             50.9390   YZ=            148.8353
 Traceless Quadrupole moment (field-independent basis, Debye-Ang):
   XX=           -141.7147   YY=            107.0293   ZZ=             34.6854
   XY=            103.4792   XZ=             50.9390   YZ=            148.8353
 Octapole moment (field-independent basis, Debye-Ang**2):
  XXX=            837.0082  YYY=            493.4279  ZZZ=            132.5430  XYY=           1081.2237
  XXY=           -161.6166  XXZ=            -17.4559  XZZ=            242.0569  YZZ=            133.5450
  YYZ=            629.3560  XYZ=            393.7599
 Hexadecapole moment (field-independent basis, Debye-Ang**3):
 XXXX=         -78920.7923 YYYY=         -29982.4253 ZZZZ=         -14768.5253 XXXY=           1862.8159
 XXXZ=           1512.5559 YYYX=           5906.4428 YYYZ=           4880.3911 ZZZX=            782.3044
 ZZZY=           2044.1137 XXYY=         -13175.3145 XXZZ=         -12625.1087 YYZZ=          -6991.8153
 XXYZ=           2292.3613 YYXZ=           1342.2995 ZZXY=           1024.2888
 N-N= 2.195225717023D+04 E-N=-5.638583722485D+04  KE= 5.290481175626D+03
 Leave Link  601 at Sat Sep 14 22:40:15 2019, MaxMem=  1342177280 cpu:              54.3 elap:               1.4
 FitSet:  NAtFit=   176 NAtPot=   176 NAtFrz=     0 MDM=   180 TotChg=   0.00000
 Merz-Kollman atomic radii used.
 Read replacement radii for each type of atom:
 Rad(20) =   1.700000000000D+00
 Atom Element Radius
    1     6    1.50
    2     6    1.50
    3     8    1.40
    4     1    1.20
    5     1    1.20
    6     1    1.20
    7     7    1.50
    8     6    1.50
    9     6    1.50
   10     8    1.40
   11     6    1.50
   12     6    1.50
   13     8    1.40
   14     8    1.40
   15     1    1.20
   16     1    1.20
   17     1    1.20
   18     1    1.20
   19     7    1.50
   20     6    1.50
   21     6    1.50
   22     8    1.40
   23     6    1.50
   24     6    1.50
   25     6    1.50
   26     6    1.50
   27     7    1.50
   28     1    1.20
   29     1    1.20
   30     1    1.20
   31     1    1.20
   32     1    1.20
   33     1    1.20
   34     1    1.20
   35     1    1.20
   36     1    1.20
   37     1    1.20
   38     1    1.20
   39     1    1.20
   40     1    1.20
   41     7    1.50
   42     6    1.50
   43     6    1.50
   44     8    1.40
   45     6    1.50
   46     6    1.50
   47     8    1.40
   48     8    1.40
   49     1    1.20
   50     1    1.20
   51     1    1.20
   52     1    1.20
   53     7    1.50
   54     6    1.50
   55     6    1.50
   56     8    1.40
   57     1    1.20
   58     1    1.20
   59     1    1.20
   60     7    1.50
   61     6    1.50
   62     6    1.50
   63     8    1.40
   64     6    1.50
   65     6    1.50
   66     7    1.50
   67     8    1.40
   68     1    1.20
   69     1    1.20
   70     1    1.20
   71     1    1.20
   72     1    1.20
   73     1    1.20
   74     7    1.50
   75     6    1.50
   76     6    1.50
   77     8    1.40
   78     1    1.20
   79     1    1.20
   80     1    1.20
   81     7    1.50
   82     6    1.50
   83     6    1.50
   84     8    1.40
   85     6    1.50
   86     6    1.50
   87     6    1.50
   88     6    1.50
   89     6    1.50
   90     6    1.50
   91     6    1.50
   92     8    1.40
   93     1    1.20
   94     1    1.20
   95     1    1.20
   96     1    1.20
   97     1    1.20
   98     1    1.20
   99     1    1.20
  100     1    1.20
  101     1    1.20
  102     7    1.50
  103     6    1.50
  104     6    1.50
  105     8    1.40
  106     6    1.50
  107     6    1.50
  108     6    1.50
  109     6    1.50
  110     1    1.20
  111     1    1.20
  112     1    1.20
  113     1    1.20
  114     1    1.20
  115     1    1.20
  116     1    1.20
  117     1    1.20
  118     1    1.20
  119     1    1.20
  120     1    1.20
  121     7    1.50
  122     6    1.50
  123     6    1.50
  124     8    1.40
  125     6    1.50
  126     8    1.40
  127     1    1.20
  128     1    1.20
  129     1    1.20
  130     1    1.20
  131     1    1.20
  132     7    1.50
  133     6    1.50
  134     6    1.50
  135     8    1.40
  136     6    1.50
  137     1    1.20
  138     1    1.20
  139     1    1.20
  140     1    1.20
  141     1    1.20
  142     7    1.50
  143     6    1.50
  144     6    1.50
  145     8    1.40
  146     6    1.50
  147     1    1.20
  148     1    1.20
  149     1    1.20
  150     1    1.20
  151     1    1.20
  152     7    1.50
  153     6    1.50
  154     6    1.50
  155     8    1.40
  156     6    1.50
  157     6    1.50
  158     6    1.50
  159     8    1.40
  160     8    1.40
  161     1    1.20
  162     1    1.20
  163     1    1.20
  164     1    1.20
  165     1    1.20
  166     1    1.20
  167     7    1.50
  168     6    1.50
  169     1    1.20
  170     1    1.20
  171     1    1.20
  172     1    1.20
  173    20    1.70
  174     8    1.40
[...]
 **** Fit       0.008878
 **** Fit       0.008635
 **** Fit       0.008494
 **** Fit       0.007876
 **** Fit       0.007845
 **** Fit       0.007867
 **** Fit       0.005900
 **** Fit       0.006611
 **** Fit       0.007279
 **** Fit       0.008761
 **** Fit       0.008387
 **** Fit       0.008125
 **** Fit       0.007963
 **** Fit       0.007216
 **** Fit       0.007112
 **** Fit       0.007015
 **** Fit       0.006921
 **** Fit       0.008216
 **** Fit       0.007799
 **** Fit       0.007519
 **** Fit       0.007340
 **** Fit       0.006505
 **** Fit       0.006345
 **** Fit       0.006141
 **** Fit       0.005887
 **** Fit       0.005570
 **** Fit       0.008070
 **** Fit       0.007476
 **** Fit       0.007065
 **** Fit       0.006806
 **** Fit       0.006641
 **** Fit       0.004313
 **** Fit       0.003618
 **** Fit       0.007213
 **** Fit       0.006602
 **** Fit       0.006213
 **** Fit       0.002148
 **** Fit       0.000891
 **** Fit      -0.000984
 **** Fit       0.006971
 **** Fit       0.006102
 **** Fit       0.005510
 **** Fit      -0.000975
 **** Fit      -0.003162
 **** Fit      -0.006528
 **** Fit       0.005686
 **** Fit       0.004744
 **** Fit      -0.003421
 **** Fit      -0.006164
 **** Fit       0.005826
 **** Fit       0.004256
 **** Fit      -0.009240
 **** Fit       0.004231
 **** Fit       0.002180
 **** Fit      -0.012322
 **** Fit       0.004927
 **** Fit       0.001788
 **** Fit      -0.000964
 **** Fit      -0.000766
 **** Fit      -0.004955
 **** Fit      -0.017635
 **** Fit       0.009927
 **** Fit       0.009974
 **** Fit       0.010176
 **** Fit       0.009985
 **** Fit       0.009590
 **** Fit       0.009519
 **** Fit       0.009716
 **** Fit       0.009776
 **** Fit       0.009998
 **** Fit       0.010171
 **** Fit       0.010095
 **** Fit       0.009708
 **** Fit       0.009217
 **** Fit       0.008902
 **** Fit       0.008864
 **** Fit       0.009034
 **** Fit       0.009283
 **** Fit       0.009483
 **** Fit       0.009618
 **** Fit       0.009365
 **** Fit       0.009498
 **** Fit       0.009683
 **** Fit       0.009806
 **** Fit       0.009728
 **** Fit       0.009375
 **** Fit       0.008820
 **** Fit       0.008256
 **** Fit       0.007881
 **** Fit       0.007781
 **** Fit       0.007913
 **** Fit       0.008188
 **** Fit       0.009327
 **** Fit       0.008769
 **** Fit       0.008773
 **** Fit       0.008861
 **** Fit       0.008954
 **** Fit       0.008935
 **** Fit       0.008687
 **** Fit       0.008152
 **** Fit       0.007401
 **** Fit       0.006628
 **** Fit       0.006055
 **** Fit       0.005826
 **** Fit       0.005950
 **** Fit       0.006325
 **** Fit       0.006823
 **** Fit       0.007847
 **** Fit       0.007774
 **** Fit       0.007725
 **** Fit       0.007592
 **** Fit       0.007244
 **** Fit       0.006570
 **** Fit       0.005543
 **** Fit       0.004302
 **** Fit       0.003137
 **** Fit       0.002359
 **** Fit       0.002156
 **** Fit       0.002529
 **** Fit       0.003294
 **** Fit       0.004230
 **** Fit       0.005192
 **** Fit       0.006464
 **** Fit       0.006193
 **** Fit       0.005839
 **** Fit       0.005264
 **** Fit       0.004319
 **** Fit       0.002891
 **** Fit       0.000992
 **** Fit      -0.001143
 **** Fit      -0.004458
 **** Fit      -0.003651
 **** Fit      -0.002129
 **** Fit      -0.000360
 **** Fit       0.004331
 **** Fit       0.003598
 **** Fit       0.002540
 **** Fit       0.000936
 **** Fit      -0.001422
 **** Fit      -0.008551
 **** Fit      -0.005212
 **** Fit       0.000999
 **** Fit      -0.000673
 **** Fit      -0.003122
 **** Fit       0.009039
 **** Fit       0.009224
 **** Fit       0.008326
 **** Fit       0.008646
 **** Fit       0.008997
 **** Fit       0.009250
 **** Fit       0.009318
 **** Fit       0.009269
 **** Fit       0.007715
 **** Fit       0.008115
 **** Fit       0.008514
 **** Fit       0.008911
 **** Fit       0.009238
 **** Fit       0.009404
 **** Fit       0.009382
 **** Fit       0.009244
 **** Fit       0.007195
 **** Fit       0.007642
 **** Fit       0.008080
 **** Fit       0.008567
 **** Fit       0.009037
 **** Fit       0.009383
 **** Fit       0.009526
 **** Fit       0.009454
 **** Fit       0.009231
 **** Fit       0.008974
 **** Fit       0.007150
 **** Fit       0.007751
 **** Fit       0.008417
 **** Fit       0.009028
 **** Fit       0.009467
 **** Fit       0.009655
 **** Fit       0.009575
 **** Fit       0.009284
 **** Fit       0.008890
 **** Fit       0.006450
 **** Fit       0.007347
 **** Fit       0.008241
 **** Fit       0.009018
 **** Fit       0.009565
 **** Fit       0.009810
 **** Fit       0.009736
 **** Fit       0.009391
 **** Fit       0.008876
 **** Fit       0.008324
 **** Fit       0.006056
 **** Fit       0.007329
 **** Fit       0.008479
 **** Fit       0.009375
 **** Fit       0.009905
 **** Fit       0.010018
 **** Fit       0.009732
 **** Fit       0.009138
 **** Fit       0.008376
 **** Fit       0.007617
 **** Fit       0.005987
 **** Fit       0.007597
 **** Fit       0.008943
 **** Fit       0.009871
 **** Fit       0.010287
 **** Fit       0.010172
 **** Fit       0.009590
 **** Fit       0.008675
 **** Fit       0.007613
 **** Fit       0.005532
 **** Fit       0.007602
 **** Fit       0.009254
 **** Fit       0.010311
 **** Fit       0.010673
 **** Fit       0.010340
 **** Fit       0.009417
 **** Fit       0.008096
 **** Fit       0.006631
 **** Fit       0.003057
 **** Fit       0.006099
 **** Fit       0.008627
 **** Fit       0.010355
 **** Fit       0.011094
 **** Fit       0.010791
 **** Fit       0.009572
 **** Fit       0.007721
 **** Fit       0.009325
 **** Fit       0.011200
 **** Fit       0.011444
 **** Fit       0.010112
 **** Fit       0.007615
 **** Fit       0.006078
 **** Fit       0.005929
 **** Fit       0.006266
 **** Fit       0.005170
 **** Fit       0.005041
 **** Fit       0.004858
 **** Fit       0.004541
 **** Fit       0.005918
 **** Fit       0.005543
 **** Fit       0.005316
 **** Fit       0.004078
 **** Fit       0.003975
 **** Fit       0.003813
 **** Fit       0.003517
 **** Fit       0.002985
 **** Fit       0.005117
 **** Fit       0.004644
 **** Fit       0.004353
 **** Fit       0.004184
 **** Fit       0.002701
 **** Fit       0.002627
 **** Fit       0.002481
 **** Fit       0.002184
 **** Fit       0.001631
 **** Fit       0.000653
 **** Fit       0.004296
 **** Fit       0.003594
 **** Fit       0.003148
 **** Fit       0.002895
 **** Fit       0.002768
 **** Fit       0.000923
 **** Fit       0.000899
 **** Fit       0.000789
 **** Fit       0.000516
 **** Fit      -0.000017
 **** Fit      -0.000967
 **** Fit      -0.002594
 **** Fit       0.002250
 **** Fit       0.001571
 **** Fit       0.001174
 **** Fit       0.000987
 **** Fit       0.000928
 **** Fit      -0.001395
 **** Fit      -0.001333
 **** Fit      -0.001385
 **** Fit      -0.001626
 **** Fit      -0.002153
 **** Fit      -0.003110
 **** Fit      -0.004739
 **** Fit       0.000603
 **** Fit      -0.000491
 **** Fit      -0.001157
 **** Fit      -0.001478
 **** Fit      -0.001556
 **** Fit      -0.001497
 **** Fit      -0.004428
 **** Fit      -0.004208
 **** Fit      -0.004164
 **** Fit      -0.004381
 **** Fit      -0.004961
 **** Fit      -0.006061
 **** Fit      -0.007938
 **** Fit      -0.002922
 **** Fit      -0.004260
 **** Fit      -0.004953
 **** Fit      -0.005147
 **** Fit      -0.005019
 **** Fit      -0.004734
 **** Fit      -0.008398
 **** Fit      -0.007886
 **** Fit      -0.007666
 **** Fit      -0.007830
 **** Fit      -0.008486
 **** Fit      -0.009791
 **** Fit      -0.012003
 **** Fit      -0.008193
 **** Fit      -0.009925
 **** Fit      -0.010566
 **** Fit      -0.010425
 **** Fit      -0.009841
 **** Fit      -0.009098
 **** Fit      -0.013583
 **** Fit      -0.012560
 **** Fit      -0.012019
 **** Fit      -0.012037
 **** Fit      -0.012695
 **** Fit      -0.014099
 **** Fit      -0.016393
 **** Fit      -0.016615
 **** Fit      -0.014989
 **** Fit      -0.020282
 **** Fit      -0.018321
 **** Fit      -0.017256
 **** Fit      -0.017104
 **** Fit      -0.017863
 **** Fit      -0.019485
 **** Fit      -0.023314
 **** Fit      -0.022816
 **** Fit       0.025861
 **** Fit       0.025456
 **** Fit       0.031354
 **** Fit       0.032174
 **** Fit       0.032873
 **** Fit       0.033279
 **** Fit       0.036374
 **** Fit       0.036741
 **** Fit       0.037482
 **** Fit       0.038384
 **** Fit       0.039382
 **** Fit       0.040778
 **** Fit       0.040564
 **** Fit       0.041067
 **** Fit       0.041983
 **** Fit       0.043252
 **** Fit       0.045035
 **** Fit       0.042739
 **** Fit       0.043053
 **** Fit       0.043885
 **** Fit       0.045170
 **** Fit       0.042570
 **** Fit       0.042905
 **** Fit       0.043632
 **** Fit       0.044735
 **** Fit       0.046329
 **** Fit       0.039610
 **** Fit       0.041195
 **** Fit       0.042613
 **** Fit       0.044138
 **** Fit       0.030581
 **** Fit       0.034866
 **** Fit       0.037862
 **** Fit       0.040193
 **** Fit       0.010473
 **** Fit       0.019674
 **** Fit       0.026692
 **** Fit       0.031833
 **** Fit       0.035688
 **** Fit       0.003941
 **** Fit       0.014785
 **** Fit       0.022939
 **** Fit       0.005266
 **** Fit      -0.011532
 **** Fit      -0.017701
 **** Fit      -0.024254
 **** Fit      -0.031245
 **** Fit      -0.038656
 **** Fit      -0.046580
 **** Fit       0.044625
 **** Fit       0.043709
 **** Fit       0.005826
 **** Fit       0.000628
 **** Fit      -0.004854
 **** Fit      -0.010501
 **** Fit      -0.016341
 **** Fit      -0.022490
 **** Fit      -0.029081
 **** Fit      -0.036305
 **** Fit      -0.044583
 **** Fit       0.040111
 **** Fit       0.040352
 **** Fit       0.040719
 **** Fit       0.041640
 **** Fit       0.012212
 **** Fit       0.007311
 **** Fit       0.002170
 **** Fit      -0.003120
 **** Fit      -0.008517
 **** Fit      -0.014067
 **** Fit      -0.019893
 **** Fit      -0.026183
 **** Fit      -0.033245
 **** Fit      -0.041679
 **** Fit       0.031172
 **** Fit       0.034376
 **** Fit       0.036340
 **** Fit       0.037822
 **** Fit       0.039300
 **** Fit       0.040972
 **** Fit       0.014203
 **** Fit       0.009098
 **** Fit       0.003876
 **** Fit      -0.001423
 **** Fit      -0.006804
 **** Fit      -0.012349
 **** Fit      -0.018223
 **** Fit      -0.024704
 **** Fit      -0.032272
 **** Fit       0.038009
 **** Fit       0.039814
 **** Fit       0.019167
 **** Fit       0.016379
 **** Fit       0.011142
 **** Fit       0.005834
 **** Fit       0.000476
 **** Fit      -0.004966
 **** Fit      -0.010618
 **** Fit      -0.016716
 **** Fit       0.021494
 **** Fit       0.007942
 **** Fit       0.018731
 **** Fit       0.025886
 **** Fit       0.030587
 **** Fit       0.033821
 **** Fit      -0.018733
 **** Fit      -0.026638
 **** Fit       0.006740
 **** Fit       0.016378
 **** Fit       0.023192
 **** Fit       0.027982
 **** Fit       0.031468
 **** Fit       0.034197
 **** Fit       0.036481
 **** Fit       0.038363
 **** Fit       0.039642
 **** Fit       0.018166
 **** Fit       0.013127
 **** Fit       0.007916
 **** Fit       0.002574
 **** Fit      -0.002948
 **** Fit      -0.008800
 **** Fit      -0.015235
 **** Fit      -0.022583
 **** Fit      -0.003355
 **** Fit       0.007367
 **** Fit       0.015635
 **** Fit       0.021797
 **** Fit       0.026338
 **** Fit       0.029732
 **** Fit       0.032332
 **** Fit       0.034307
 **** Fit       0.035626
 **** Fit       0.036113
 **** Fit       0.035549
 **** Fit       0.033817
 **** Fit       0.030985
 **** Fit       0.027273
 **** Fit       0.022932
 **** Fit       0.018490
 **** Fit       0.013728
 **** Fit       0.008711
 **** Fit       0.003485
 **** Fit      -0.001995
 **** Fit      -0.007846
 **** Fit      -0.014190
 **** Fit      -0.020979
 **** Fit      -0.009721
 **** Fit       0.000681
 **** Fit       0.009634
 **** Fit       0.016767
 **** Fit       0.022195
 **** Fit       0.026231
 **** Fit       0.029189
 **** Fit       0.031256
 **** Fit       0.032450
 **** Fit       0.032660
 **** Fit       0.031762
 **** Fit       0.029732
 **** Fit       0.026696
 **** Fit       0.022874
 **** Fit       0.018453
 **** Fit       0.013956
 **** Fit       0.009129
 **** Fit       0.004056
 **** Fit      -0.001229
 **** Fit      -0.006659
 **** Fit      -0.011940
 **** Fit      -0.016271
 **** Fit      -0.018267
 **** Fit      -0.016628
 **** Fit      -0.011289
 **** Fit      -0.003622
 **** Fit       0.004566
 **** Fit       0.011978
 **** Fit       0.018032
 **** Fit       0.022656
 **** Fit       0.026000
 **** Fit       0.028211
 **** Fit       0.029329
 **** Fit       0.029303
 **** Fit       0.028089
 **** Fit       0.025747
 **** Fit       0.022457
 **** Fit       0.018015
 **** Fit       0.013586
 **** Fit       0.008761
 **** Fit       0.003787
 **** Fit      -0.001004
 **** Fit      -0.004960
 **** Fit      -0.006959
 **** Fit      -0.005857
 **** Fit      -0.001519
 **** Fit       0.004818
 **** Fit       0.011462
 **** Fit       0.017223
 **** Fit       0.021602
 **** Fit       0.024515
 **** Fit       0.025972
 **** Fit       0.025961
 **** Fit       0.024506
 **** Fit       0.021763
 **** Fit       0.017141
 **** Fit       0.012464
 **** Fit       0.007518
 **** Fit       0.003378
 **** Fit       0.001585
 **** Fit       0.003461
 **** Fit       0.008482
 **** Fit       0.014406
 **** Fit       0.019225
 **** Fit       0.022007
 **** Fit       0.022480
 **** Fit       0.020715
 **** Fit       0.015792
 **** Fit       0.010887
 **** Fit       0.008389
 **** Fit       0.011508
 **** Fit       0.016690
 **** Fit       0.018541
 **** Fit       0.013930
 **** Fit       0.044548
 **** Fit       0.043502
 **** Fit       0.042943
 **** Fit       0.012404
 **** Fit       0.041922
 **** Fit       0.041908
 **** Fit       0.042157
 **** Fit       0.017520
 **** Fit       0.015274
 **** Fit       0.041054
 **** Fit       0.041033
 **** Fit       0.040873
 **** Fit       0.040173
 **** Fit       0.038414
 **** Fit       0.035205
 **** Fit       0.021186
 **** Fit       0.040560
 **** Fit       0.040045
 **** Fit       0.039017
 **** Fit       0.037113
 **** Fit       0.034187
 **** Fit       0.030564
 **** Fit       0.026965
 **** Fit       0.023897
 **** Fit       0.024709
 **** Fit       0.039835
 **** Fit       0.038444
 **** Fit       0.036399
 **** Fit       0.033676
 **** Fit       0.030597
 **** Fit       0.027568
 **** Fit       0.036686
 **** Fit       0.034007
 -----------------------------------------------------------------
 Leave Link  602 at Sat Sep 14 22:40:17 2019, MaxMem=  1342177280 cpu:             113.2 elap:               2.4

 Test job not archived.
 1\1\GINC-C485-003\SP\RB3LYP\SVP\C54H83Ca1N15O23\PENGZHI\14-Sep-2019\0\
 \#b3lyp/svp scf=(tight,noincore) Test #IOP(5/87=12) Density=Current Po
 p=(MK,readradii) iop(6/33=2) iop(6/42=6)\\holoCaM_loop3_77.0\\0,1\C,0,
 85.04,32.93,26.38\C,0,86.54,32.81,26.57\O,0,87.07,31.77,26.96\H,0,84.5
 82,33.264,27.311\H,0,84.83,33.653,25.592\H,0,84.63,31.959,26.102\N,0,8
 7.3,33.88,26.3\C,0,88.67,34.,26.77\C,0,88.67,34.44,28.22\O,0,88.33,35.
 58,28.53\C,0,89.38,34.93,25.79\C,0,90.88,35.05,26.05\O,0,91.62,35.82,2
 5.41\O,0,91.39,34.47,27.03\H,0,86.8,34.71,26.03\H,0,89.16,33.03,26.77\
 H,0,88.84,35.88,25.86\H,0,89.27,34.68,24.74\N,0,89.11,33.56,29.12\C,0,
 88.85,33.56,30.55\C,0,89.86,34.41,31.29\O,0,89.75,34.48,32.52\C,0,88.6
 8,32.17,31.16\C,0,87.5,31.41,30.55\C,0,86.13,32.02,30.82\C,0,85.12,31.
 55,29.77\N,0,83.77,32.04,30.08\H,0,89.63,32.78,28.76\H,0,87.93,34.06,3
 0.85\H,0,88.44,32.28,32.21\H,0,89.57,31.55,31.04\H,0,87.47,30.38,30.93
 \H,0,87.69,31.43,29.48\H,0,86.2,33.11,30.88\H,0,85.89,31.6,31.8\H,0,85
 .09,30.47,29.87\H,0,85.5,31.9,28.81\H,0,83.53,31.94,31.06\H,0,83.69,33
 .05,30.05\H,0,83.1,31.59,29.48\N,0,90.85,35.05,30.66\C,0,91.65,36.14,3
 1.17\C,0,91.67,37.37,30.27\O,0,92.18,38.43,30.64\C,0,93.08,35.65,31.4\
 C,0,93.79,34.97,30.25\O,0,93.57,35.38,29.09\O,0,94.46,33.93,30.41\H,0,
 90.93,34.78,29.69\H,0,91.31,36.48,32.15\H,0,93.01,34.94,32.23\H,0,93.6
 6,36.49,31.79\N,0,91.14,37.22,29.06\C,0,91.04,38.25,28.05\C,0,92.38,38
 .54,27.4\O,0,92.55,39.63,26.84\H,0,90.63,36.41,28.73\H,0,90.64,39.17,2
 8.49\H,0,90.32,37.97,27.29\N,0,93.4,37.67,27.37\C,0,94.69,38.04,26.83\
 C,0,94.64,38.15,25.32\O,0,95.52,38.86,24.83\C,0,95.8,37.09,27.27\C,0,9
 5.9,35.75,26.56\N,0,97.09,35.49,26.\O,0,94.95,34.99,26.41\H,0,93.26,36
 .8,27.86\H,0,94.95,39.02,27.23\H,0,95.62,36.8,28.31\H,0,96.76,37.59,27
 .15\H,0,97.72,36.27,25.88\H,0,97.3,34.54,25.74\N,0,93.69,37.55,24.6\C,
 0,93.49,37.57,23.16\C,0,93.41,36.16,22.6\O,0,93.29,36.01,21.38\H,0,93.
 16,36.85,25.1\H,0,94.39,38.03,22.74\H,0,92.5,37.99,22.98\N,0,93.41,35.
 07,23.36\C,0,93.52,33.71,22.85\C,0,92.85,32.74,23.82\O,0,93.01,32.84,2
 5.03\C,0,95.,33.4,22.66\C,0,95.83,34.4,21.89\C,0,96.54,35.36,22.62\C,0
 ,95.94,34.31,20.49\C,0,97.4,36.25,21.98\C,0,96.74,35.23,19.8\C,0,97.46
 ,36.15,20.58\O,0,98.42,36.91,19.98\H,0,93.37,35.25,24.35\H,0,93.07,33.
 65,21.86\H,0,95.1,32.45,22.12\H,0,95.41,33.33,23.67\H,0,96.59,35.34,23
 .7\H,0,95.22,33.65,20.05\H,0,98.03,36.89,22.58\H,0,96.79,35.12,18.72\H
 ,0,98.44,36.73,19.04\N,0,92.17,31.76,23.24\C,0,91.39,30.71,23.87\C,0,9
 2.17,29.41,23.75\O,0,92.53,29.01,22.65\C,0,89.99,30.72,23.27\C,0,89.15
 ,31.91,23.7\C,0,89.23,29.41,23.5\C,0,87.73,31.98,23.14\H,0,92.1,31.73,
 22.23\H,0,91.25,30.87,24.94\H,0,90.1,30.79,22.18\H,0,89.7,32.72,23.23\
 H,0,89.23,32.21,24.75\H,0,89.77,28.67,22.91\H,0,89.22,29.09,24.54\H,0,
 88.27,29.44,22.98\H,0,87.7,31.7,22.09\H,0,87.09,31.29,23.67\H,0,87.28,
 32.96,23.32\N,0,92.36,28.73,24.89\C,0,92.95,27.41,24.98\C,0,91.97,26.2
 7,25.24\O,0,90.78,26.53,25.37\C,0,93.83,27.43,26.23\O,0,93.08,27.6,27.
 41\H,0,92.01,29.12,25.75\H,0,93.49,27.16,24.07\H,0,94.55,28.25,26.26\H
 ,0,94.42,26.51,26.26\H,0,92.85,28.53,27.44\N,0,92.38,25.,25.27\C,0,91.
 48,23.91,25.61\C,0,90.75,24.07,26.94\O,0,89.65,23.61,27.23\C,0,92.2,22
 .56,25.66\H,0,93.34,24.79,25.04\H,0,90.76,23.81,24.8\H,0,91.44,21.79,2
 5.59\H,0,92.74,22.49,24.72\H,0,92.84,22.44,26.53\N,0,91.51,24.65,27.87
 \C,0,91.02,24.97,29.2\C,0,89.93,26.03,29.26\O,0,89.24,26.23,30.26\C,0,
 92.17,25.27,30.15\H,0,92.48,24.77,27.63\H,0,90.59,24.06,29.62\H,0,92.7
 3,26.08,29.69\H,0,91.79,25.64,31.11\H,0,92.84,24.43,30.34\N,0,89.86,26
 .81,28.18\C,0,88.92,27.9,28.01\C,0,87.74,27.7,27.08\O,0,86.65,28.21,27
 .36\C,0,89.71,29.15,27.64\C,0,90.61,29.7,28.73\C,0,91.57,30.79,28.26\O
 ,0,91.6,31.92,28.79\O,0,92.33,30.44,27.33\H,0,90.52,26.58,27.45\H,0,88
 .37,28.16,28.92\H,0,89.05,29.98,27.36\H,0,90.39,28.92,26.81\H,0,91.21,
 28.87,29.11\H,0,90.08,30.03,29.63\N,0,87.91,26.72,26.19\C,0,86.86,26.1
 4,25.38\H,0,86.013,26.825,25.339\H,0,87.234,25.964,24.371\H,0,86.541,2
 5.195,25.82\H,0,88.87,26.5,26.01\Ca,0,93.58,33.08,27.64\O,0,94.32,31.0
 5,29.23\H,0,95.07,31.,29.82\H,0,94.34,30.24,28.73\\Version=ES64L-G16Re
 vA.03\State=1-A\HF=-5333.5892779\RMSD=5.688e-09\Dipole=-7.2528128,-9.3
 581325,0.2744799\Quadrupole=162.3652603,-116.6473033,-45.717957,-69.35
 40771,-52.4559552,7.4542003\PG=C01 [X(C54H83Ca1N15O23)]\\@


 CHARLIE BROWN.."I CAN'T GET THAT STUPID KITE IN THE
 AIR... I CAN'T... I C A N N O T..."
 LUCY.."OH COME NOW CHARLIE BROWN...THAT'S NO WAY TO TALK...
 THE TROUBLE WITH YOU IS YOU DON'T BELIEVE IN YOURSELF... YOU
 DON'T BELIEVE IN YOUR OWN ABILITIES...  YOU'VE GOT TO SAY TO
 YOURSELF...'I BELIEVE I CAN FLY THIS KITE.'... GO AHEAD SAY
 IT...."
 CHARLIE BROWN.."I BELIEVE THAT I CAN FLY THIS STUPID
 KITE.....I BELIEVE THAT I CAN FLY THIS KITE........
 I  A C T U A L L Y  B E L I E V E  T H A T  I  C A N ******"
 LUCY.."I'LL BET YOU TEN-TO-ONE YOU'RE WRONG......."    SCHULZ
 Job cpu time:       0 days  9 hours 24 minutes 21.3 seconds.
 Elapsed time:       0 days  0 hours 11 minutes 53.1 seconds.
 File lengths (MBytes):  RWF=   1517 Int=      0 D2E=      0 Chk=    171 Scr=      1
 Normal termination of Gaussian 16 at Sat Sep 14 22:40:19 2019.
