 Entering Gaussian System, Link 0=g09
 Initial command:
 /home/pcieplak/g09/g09/l1.exe "/scratch1/pcieplak/holo_12.0/Gau-12435.inp" -scrdir="/scratch1/pcieplak/holo_12.0/"
 Entering Link 1 = /home/pcieplak/g09/g09/l1.exe PID=     12436.
  
 Copyright (c) 1988,1990,1992,1993,1995,1998,2003,2009,2013,
            Gaussian, Inc.  All Rights Reserved.
  
 This is part of the Gaussian(R) 09 program.  It is based on
 the Gaussian(R) 03 system (copyright 2003, Gaussian, Inc.),
 the Gaussian(R) 98 system (copyright 1998, Gaussian, Inc.),
 the Gaussian(R) 94 system (copyright 1995, Gaussian, Inc.),
 the Gaussian 92(TM) system (copyright 1992, Gaussian, Inc.),
 the Gaussian 90(TM) system (copyright 1990, Gaussian, Inc.),
 the Gaussian 88(TM) system (copyright 1988, Gaussian, Inc.),
 the Gaussian 86(TM) system (copyright 1986, Carnegie Mellon
 University), and the Gaussian 82(TM) system (copyright 1983,
 Carnegie Mellon University). Gaussian is a federally registered
 trademark of Gaussian, Inc.
  
 This software contains proprietary and confidential information,
 including trade secrets, belonging to Gaussian, Inc.
  
 This software is provided under written license and may be
 used, copied, transmitted, or stored only in accord with that
 written license.
  
 The following legend is applicable only to US Government
 contracts under FAR:
  
                    RESTRICTED RIGHTS LEGEND
  
 Use, reproduction and disclosure by the US Government is
 subject to restrictions as set forth in subparagraphs (a)
 and (c) of the Commercial Computer Software - Restricted
 Rights clause in FAR 52.227-19.
  
 Gaussian, Inc.
 340 Quinnipiac St., Bldg. 40, Wallingford CT 06492
  
  
 ---------------------------------------------------------------
 Warning -- This program may not be used in any manner that
 competes with the business of Gaussian, Inc. or will provide
 assistance to any competitor of Gaussian, Inc.  The licensee
 of this program is prohibited from giving any competitor of
 Gaussian, Inc. access to this program.  By using this program,
 the user acknowledges that Gaussian, Inc. is engaged in the
 business of creating and licensing software in the field of
 computational chemistry and represents and warrants to the
 licensee that it is not a competitor of Gaussian, Inc. and that
 it will not use this program in any manner prohibited above.
 ---------------------------------------------------------------
  

 Cite this work as:
 Gaussian 09, Revision D.01,
 M. J. Frisch, G. W. Trucks, H. B. Schlegel, G. E. Scuseria, 
 M. A. Robb, J. R. Cheeseman, G. Scalmani, V. Barone, B. Mennucci, 
 G. A. Petersson, H. Nakatsuji, M. Caricato, X. Li, H. P. Hratchian, 
 A. F. Izmaylov, J. Bloino, G. Zheng, J. L. Sonnenberg, M. Hada, 
 M. Ehara, K. Toyota, R. Fukuda, J. Hasegawa, M. Ishida, T. Nakajima, 
 Y. Honda, O. Kitao, H. Nakai, T. Vreven, J. A. Montgomery, Jr., 
 J. E. Peralta, F. Ogliaro, M. Bearpark, J. J. Heyd, E. Brothers, 
 K. N. Kudin, V. N. Staroverov, T. Keith, R. Kobayashi, J. Normand, 
 K. Raghavachari, A. Rendell, J. C. Burant, S. S. Iyengar, J. Tomasi, 
 M. Cossi, N. Rega, J. M. Millam, M. Klene, J. E. Knox, J. B. Cross, 
 V. Bakken, C. Adamo, J. Jaramillo, R. Gomperts, R. E. Stratmann, 
 O. Yazyev, A. J. Austin, R. Cammi, C. Pomelli, J. W. Ochterski, 
 R. L. Martin, K. Morokuma, V. G. Zakrzewski, G. A. Voth, 
 P. Salvador, J. J. Dannenberg, S. Dapprich, A. D. Daniels, 
 O. Farkas, J. B. Foresman, J. V. Ortiz, J. Cioslowski, 
 and D. J. Fox, Gaussian, Inc., Wallingford CT, 2013.
 
 ******************************************
 Gaussian 09:  ES64L-G09RevD.01 24-Apr-2013
                16-Sep-2019 
 ******************************************
 %Nproc=12
 Will use up to   12 processors via shared memory.
 %chk=chk1mol
 %mem=32GB
 ----------------------------------------------------------------------
 #maxdisk=50GB #B3LYP/SVP Density=Current scf=(tight) #IOP(5/87=12)Pop=
 (MK,readradii) iop(6/33=2) iop(6/42=6)
 ----------------------------------------------------------------------
 1/30=1,38=1/1;
 2/12=2,17=6,18=5,40=1/2;
 3/5=18,7=101,11=2,16=1,25=1,30=1,74=-5/1,2,3;
 4//1;
 5/5=2,32=2,38=5,87=12/2;
 6/7=2,8=2,9=2,10=2,15=8,20=101,22=-1,28=1,33=2,42=6/1,2;
 99/5=1,9=1/99;
 ------------
 SOL molecule
 ------------
 Symbolic Z-matrix:
 Charge =  0 Multiplicity = 1
 C                    -4.895     56.69     102.81 
 C                    -3.805     57.6      102.26 
 O                    -2.735     57.19     101.81 
 H                    -5.793     56.791    102.201 
 H                    -4.553     55.655    102.784 
 H                    -5.121     56.973    103.838 
 N                    -3.985     58.91     102.44 
 C                    -2.925     59.89     102.29 
 C                    -2.125     59.92     103.58 
 O                    -2.675     60.27     104.63 
 C                    -3.455     61.27     101.92 
 C                    -2.255     62.19     101.76 
 O                    -1.925     63.04     102.62 
 O                    -1.665     62.09     100.67 
 H                    -4.775     59.16     103.03 
 H                    -2.205     59.68     101.5 
 H                    -4.215     61.61     102.63 
 H                    -3.995     61.24     100.97 
 N                    -0.825     59.63     103.46 
 C                     0.155     59.42     104.5 
 C                     1.285     60.4      104.74 
 O                     2.075     60.23     105.67 
 C                     0.805     58.06     104.28 
 C                    -0.035     56.79     104.4 
 C                    -0.955     56.73     105.61 
 C                    -1.155     55.25     105.91 
 N                    -2.055     54.62     104.93 
 H                    -0.605     59.24     102.55 
 H                    -0.375     59.45     105.46 
 H                     1.695     57.93     104.9 
 H                     1.285     58.06     103.3 
 H                     0.605     55.91     104.32 
 H                    -0.675     56.81     103.52 
 H                    -1.865     57.33     105.61 
 H                    -0.285     57.07     106.4 
 H                    -1.635     55.19     106.88 
 H                    -0.195     54.74     106. 
 H                    -1.625     54.56     104.02 
 H                    -2.275     53.66     105.17 
 H                    -2.925     55.12     104.84 
 N                     1.285     61.44     103.9 
 C                     2.205     62.56     103.98 
 C                     1.675     63.98     104.11 
 O                     2.425     64.93     104.33 
 C                     3.215     62.43     102.84 
 C                     2.525     62.36     101.48 
 O                     2.655     61.31     100.81 
 O                     1.875     63.3      100.98 
 H                     0.525     61.43     103.23 
 H                     2.795     62.36     104.88 
 H                     3.645     61.44     102.97 
 H                     3.975     63.2      102.91 
 N                     0.375     64.15     103.87 
 C                    -0.245     65.44     104.09 
 C                    -0.725     66.29     102.92 
 O                    -1.295     67.35     103.17 
 H                    -0.195     63.34     103.71 
 H                     0.435     66.12     104.6 
 H                    -1.185     65.4      104.63 
 N                    -0.465     65.9      101.67 
 C                    -0.945     66.63     100.52 
 C                    -2.295     66.24     99.95 
 O                    -2.825     66.86     99.02 
 C                     0.115     66.71     99.42 
 C                     0.355     65.43     98.64 
 N                     1.065     65.57     97.51 
 O                    -0.165     64.34     98.84 
 H                    -0.015     65.       101.6 
 H                    -0.925     67.67     100.85 
 H                     1.065     67.08     99.8 
 H                    -0.205     67.54     98.78 
 H                     1.365     66.53     97.37 
 H                     1.185     64.89     96.78 
 N                    -2.885     65.19     100.53 
 C                    -4.215     64.73     100.19 
 C                    -4.345     64.1      98.81 
 O                    -5.475     64.05     98.33 
 H                    -2.345     64.82     101.3 
 H                    -4.835     65.62     100.28 
 H                    -4.635     64.03     100.92 
 N                    -3.215     63.69     98.24 
 C                    -3.245     63.06     96.94 
 C                    -2.555     61.71     97.06 
 O                    -1.465     61.64     97.62 
 C                    -2.605     63.93     95.86 
 C                    -3.125     65.34     95.73 
 C                    -2.165     66.36     95.63 
 C                    -4.495     65.58     95.69 
 C                    -2.695     67.62     95.33 
 C                    -4.995     66.86     95.43 
 C                    -4.075     67.9      95.21 
 O                    -4.415     69.17     94.83 
 H                    -2.435     63.69     98.89 
 H                    -4.265     62.77     96.67 
 H                    -2.765     63.45     94.9 
 H                    -1.525     63.89     96. 
 H                    -1.105     66.18     95.77 
 H                    -5.205     64.8      95.91 
 H                    -2.035     68.44     95.13 
 H                    -6.065     67.06     95.45 
 H                    -5.365     69.19     94.7 
 N                    -3.065     60.59     96.53 
 C                    -2.475     59.29     96.77 
 C                    -1.485     59.04     95.65 
 O                    -1.835     59.27     94.49 
 C                    -3.505     58.16     96.86 
 C                    -4.785     58.56     97.59 
 C                    -2.825     56.92     97.42 
 C                    -4.675     59.03     99.03 
 H                    -4.005     60.69     96.17 
 H                    -2.115     59.33     97.8 
 H                    -3.735     58.       95.81 
 H                    -5.415     57.67     97.65 
 H                    -5.385     59.24     96.98 
 H                    -3.605     56.16     97.34 
 H                    -1.975     56.54     96.85 
 H                    -2.435     57.13     98.42 
 H                    -4.165     58.3      99.66 
 H                    -4.105     59.96     99.1 
 H                    -5.695     59.07     99.42 
 N                    -0.255     58.63     95.98 
 C                     0.785     58.26     95.05 
 C                     1.125     56.79     95.25 
 O                     0.535     56.07     96.05 
 C                     1.955     59.22     95.17 
 O                     2.645     59.07     96.39 
 H                    -0.025     58.56     96.97 
 H                     0.425     58.37     94.02 
 H                     1.535     60.23     95.1 
 H                     2.675     58.94     94.4 
 H                     2.025     59.26     97.09 
 N                     2.025     56.18     94.48 
 C                     2.185     54.75     94.33 
 C                     2.525     53.99     95.6 
 O                     1.875     53.01     95.94 
 C                     3.275     54.6      93.28 
 H                     2.505     56.76     93.8 
 H                     1.305     54.31     93.86 
 H                     3.425     53.53     93.19 
 H                     2.995     54.93     92.28 
 H                     4.275     54.89     93.6 
 N                     3.475     54.45     96.43 
 C                     3.855     53.76     97.64 
 C                     2.785     53.82     98.71 
 O                     2.505     52.91     99.49 
 C                     5.185     54.34     98.13 
 H                     3.925     55.34     96.26 
 H                     4.065     52.71     97.44 
 H                     5.515     53.94     99.09 
 H                     5.885     54.12     97.33 
 H                     4.925     55.39     98.28 
 N                     2.075     54.95     98.72 
 C                     0.855     55.06     99.5 
 C                    -0.265     54.14     99.05 
 O                    -0.825     53.46     99.91 
 C                     0.295     56.48     99.45 
 C                     1.245     57.47     100.1 
 C                     0.685     58.86     99.83 
 O                     0.355     59.53     100.83 
 O                     0.645     59.22     98.63 
 H                     2.285     55.64     98.01 
 H                     1.135     54.75     100.5 
 H                    -0.675     56.51     99.94 
 H                     0.085     56.73     98.41 
 H                     2.245     57.45     99.66 
 H                     1.475     57.32     101.15 
 N                    -0.635     53.97     97.78 
 C                    -1.515     53.       97.15 
 H                    -2.42      53.501    96.807 
 H                    -1.007     52.546    96.299 
 H                    -1.779     52.226    97.871 
 H                    -0.265     54.64     97.12 
 Ca                    0.5       61.8      99.36 
 O                     1.78      62.46     97.23 
 H                     2.71      62.63     97.09 
 H                     1.39      62.58     96.36 
 
 Stoichiometry    C54H83CaN15O23
 Framework group  C1[X(C54H83CaN15O23)]
 Deg. of freedom   522
 Full point group                 C1      NOp   1
 Largest Abelian subgroup         C1      NOp   1
 Largest concise Abelian subgroup C1      NOp   1
                         Standard orientation:                         
 ---------------------------------------------------------------------
 Center     Atomic      Atomic             Coordinates (Angstroms)
 Number     Number       Type             X           Y           Z
 ---------------------------------------------------------------------
      1          6           0        2.017316    3.156867    5.319581
      2          6           0        1.492810    2.642948    3.985609
      3          8           0        2.218249    2.313235    3.047245
      4          1           0        1.726686    2.468531    6.112811
      5          1           0        3.104654    3.227857    5.280578
      6          1           0        1.595259    4.141214    5.521764
      7          7           0        0.173280    2.720806    3.802089
      8          6           0       -0.461121    2.597448    2.502544
      9          6           0       -0.381799    3.945955    1.809554
     10          8           0       -0.958902    4.920282    2.304669
     11          6           0       -1.896203    2.094179    2.599809
     12          6           0       -2.433832    1.976694    1.182363
     13          8           0       -3.231638    2.804061    0.682394
     14          8           0       -2.081693    0.949615    0.576305
     15          1           0       -0.334156    3.223963    4.525996
     16          1           0        0.006095    1.886881    1.821807
     17          1           0       -2.491975    2.713294    3.277343
     18          1           0       -1.933550    1.105782    3.065294
     19          7           0        0.263325    3.956002    0.638139
     20          6           0        0.643555    5.086955   -0.175784
     21          6           0       -0.005378    5.357291   -1.517688
     22          8           0        0.293886    6.360129   -2.167809
     23          6           0        2.143506    5.012502   -0.430940
     24          6           0        3.118640    5.143708    0.737306
     25          6           0        2.818709    6.272565    1.711895
     26          6           0        4.155134    6.650820    2.337429
     27          7           0        4.596105    5.641345    3.314059
     28          1           0        0.775989    3.095476    0.479174
     29          1           0        0.386180    5.994463    0.384204
     30          1           0        2.458759    5.712996   -1.207680
     31          1           0        2.360150    4.078899   -0.952717
     32          1           0        4.144057    5.176152    0.366000
     33          1           0        2.999889    4.213143    1.288982
     34          1           0        1.994207    6.156007    2.415252
     35          1           0        2.608736    7.092610    1.024846
     36          1           0        3.996814    7.578411    2.875396
     37          1           0        4.899390    6.855207    1.566644
     38          1           0        4.850418    4.777025    2.861426
     39          1           0        5.434253    5.924180    3.809145
     40          1           0        3.886142    5.445253    4.001446
     41          7           0       -0.928626    4.453998   -1.862471
     42          6           0       -1.755453    4.538258   -3.052621
     43          6           0       -3.272117    4.529485   -2.934922
     44          8           0       -3.994950    4.749644   -3.905717
     45          6           0       -1.254912    3.499085   -4.055706
     46          6           0       -1.259661    2.092940   -3.461289
     47          8           0       -0.160440    1.506629   -3.333800
     48          8           0       -2.295082    1.479060   -3.133944
     49          1           0       -1.069779    3.724001   -1.174155
     50          1           0       -1.479789    5.496256   -3.504671
     51          1           0       -0.200003    3.729698   -4.181738
     52          1           0       -1.789639    3.582751   -4.995104
     53          7           0       -3.771165    4.169376   -1.752647
     54          6           0       -5.195842    4.250962   -1.506598
     55          6           0       -6.040397    2.991273   -1.359254
     56          8           0       -7.233680    3.121999   -1.094704
     57          1           0       -3.138163    4.014979   -0.989712
     58          1           0       -5.704434    4.771195   -2.316283
     59          1           0       -5.462427    4.710673   -0.560872
     60          7           0       -5.487320    1.796102   -1.578053
     61          6           0       -6.218690    0.564160   -1.395796
     62          6           0       -6.166624   -0.091602   -0.029500
     63          8           0       -6.825426   -1.101851    0.245417
     64          6           0       -5.908984   -0.444756   -2.503121
     65          6           0       -4.549775   -1.116026   -2.423461
     66          7           0       -4.391052   -2.188412   -3.214281
     67          8           0       -3.666059   -0.889910   -1.607117
     68          1           0       -4.495796    1.823670   -1.761136
     69          1           0       -7.237711    0.825819   -1.685673
     70          1           0       -6.035304   -0.010544   -3.492718
     71          1           0       -6.736319   -1.162608   -2.469867
     72          1           0       -5.215886   -2.365033   -3.779661
     73          1           0       -3.643714   -2.859466   -3.184758
     74          7           0       -5.373329    0.503760    0.866729
     75          6           0       -5.268643    0.082955    2.248056
     76          6           0       -4.581585   -1.258849    2.461863
     77          8           0       -4.802491   -1.828730    3.527807
     78          1           0       -4.937344    1.339401    0.502007
     79          1           0       -6.299009    0.061497    2.598034
     80          1           0       -4.776819    0.818954    2.892816
     81          7           0       -3.829282   -1.702777    1.458435
     82          6           0       -3.121685   -2.956553    1.581526
     83          6           0       -1.649754   -2.690226    1.306777
     84          8           0       -1.331840   -2.036340    0.317856
     85          6           0       -3.685597   -4.032995    0.656228
     86          6           0       -5.167435   -4.298765    0.750696
     87          6           0       -5.871933   -4.383520   -0.461121
     88          6           0       -5.770052   -4.470556    1.993048
     89          6           0       -7.198156   -4.809331   -0.325777
     90          6           0       -7.110651   -4.855360    2.096582
     91          6           0       -7.834901   -5.064130    0.909873
     92          8           0       -9.111597   -5.554006    0.855368
     93          1           0       -3.671329   -0.990311    0.752500
     94          1           0       -3.100723   -3.292584    2.622700
     95          1           0       -3.186777   -4.969595    0.883296
     96          1           0       -3.362807   -3.799502   -0.358113
     97          1           0       -5.420565   -4.142553   -1.417050
     98          1           0       -5.237118   -4.260993    2.905717
     99          1           0       -7.784858   -5.005874   -1.200506
    100          1           0       -7.597767   -4.939410    3.066610
    101          1           0       -9.380397   -5.765211    1.751436
    102          7           0       -0.671379   -3.187086    2.075745
    103          6           0        0.714821   -2.813216    1.890352
    104          6           0        1.323056   -3.826339    0.941336
    105          8           0        1.107078   -5.024431    1.138644
    106          6           0        1.506301   -2.737138    3.199424
    107          6           0        0.708532   -2.146211    4.359454
    108          6           0        2.832062   -2.041404    2.931262
    109          6           0        0.164012   -0.735968    4.213464
    110          1           0       -0.994138   -3.631358    2.925245
    111          1           0        0.686233   -1.761215    1.599530
    112          1           0        1.687240   -3.790126    3.398114
    113          1           0        1.382626   -2.081728    5.216214
    114          1           0       -0.054649   -2.848178    4.704849
    115          1           0        3.352586   -2.137364    3.886378
    116          1           0        3.478740   -2.511066    2.187604
    117          1           0        2.651510   -1.027821    2.562140
    118          1           0        0.948627   -0.018481    3.969556
    119          1           0       -0.576118   -0.678914    3.411184
    120          1           0       -0.188174   -0.437424    5.203887
    121          7           0        2.024925   -3.366967   -0.100901
    122          6           0        2.745365   -4.179080   -1.052132
    123          6           0        4.229169   -3.855064   -0.952941
    124          8           0        4.687400   -3.062590   -0.135317
    125          6           0        2.136956   -4.023347   -2.434335
    126          8           0        2.364504   -2.741980   -2.975927
    127          1           0        2.069438   -2.358565   -0.238898
    128          1           0        2.630306   -5.240908   -0.803369
    129          1           0        1.060447   -4.194767   -2.319691
    130          1           0        2.669477   -4.709443   -3.094179
    131          1           0        1.951693   -2.111095   -2.391059
    132          7           0        5.127146   -4.504260   -1.692658
    133          6           0        6.553504   -4.546126   -1.454435
    134          6           0        7.264768   -3.204794   -1.486593
    135          8           0        7.995324   -2.857728   -0.567717
    136          6           0        7.087380   -5.487715   -2.522839
    137          1           0        4.762390   -5.177591   -2.358073
    138          1           0        6.773873   -5.059291   -0.517953
    139          1           0        8.161046   -5.494362   -2.372182
    140          1           0        6.781012   -6.527338   -2.410487
    141          1           0        7.056596   -5.103671   -3.541692
    142          7           0        7.013312   -2.329073   -2.472940
    143          6           0        7.673719   -1.048586   -2.566836
    144          6           0        7.229794   -0.079517   -1.491086
    145          8           0        7.956844    0.731835   -0.918370
    146          6           0        7.441133   -0.486508   -3.972315
    147          1           0        6.299305   -2.518201   -3.164261
    148          1           0        8.754231   -1.160815   -2.486218
    149          1           0        7.831729    0.522176   -4.115460
    150          1           0        7.913299   -1.208060   -4.631725
    151          1           0        6.351217   -0.428235   -4.008208
    152          7           0        5.951800   -0.203878   -1.127265
    153          6           0        5.443898    0.460853    0.059776
    154          6           0        6.056294   -0.021354    1.361985
    155          8           0        6.479265    0.830700    2.143458
    156          6           0        3.934574    0.270572    0.194816
    157          6           0        3.191145    0.932608   -0.951535
    158          6           0        1.729592    0.525561   -0.822010
    159          8           0        0.910788    1.447887   -0.630501
    160          8           0        1.477717   -0.694501   -0.960602
    161          1           0        5.410149   -0.937164   -1.566818
    162          1           0        5.731112    1.499166   -0.058183
    163          1           0        3.597042    0.673439    1.146483
    164          1           0        3.727505   -0.797637    0.260021
    165          1           0        3.523012    0.581345   -1.931575
    166          1           0        3.307076    2.005906   -1.063303
    167          7           0        6.227402   -1.304302    1.683644
    168          6           0        6.969172   -1.941822    2.758607
    169          1           0        6.270537   -2.392492    3.463222
    170          1           0        7.617112   -2.715048    2.345477
    171          1           0        7.575483   -1.196681    3.274131
    172          1           0        5.744517   -1.972983    1.099616
    173         20           0       -1.096015   -0.150048   -1.498931
    174          8           0       -1.192177   -2.202349   -3.044801
    175          1           0       -1.087452   -2.273733   -3.992079
    176          1           0       -1.338899   -3.108302   -2.759980
 ---------------------------------------------------------------------
 Rotational constants (GHZ):      0.0239826      0.0152965      0.0123778
 Standard basis: SVP (5D, 7F)
 There are  1809 symmetry adapted cartesian basis functions of A   symmetry.
 There are  1717 symmetry adapted basis functions of A   symmetry.
  1717 basis functions,  2922 primitive gaussians,  1809 cartesian basis functions
   358 alpha electrons      358 beta electrons
       nuclear repulsion energy     21916.8949301655 Hartrees.
 NAtoms=  176 NActive=  176 NUniq=  176 SFac= 1.00D+00 NAtFMM=   60 NAOKFM=T Big=T
 Integral buffers will be    131072 words long.
 Raffenetti 2 integral format.
 Two-electron integral symmetry is turned on.
 One-electron integrals computed using PRISM.
 NBasis=  1717 RedAO= T EigKep=  2.73D-04  NBF=  1717
 NBsUse=  1717 1.00D-06 EigRej= -1.00D+00 NBFU=  1717
 ExpMin= 1.98D-02 ExpMax= 3.51D+04 ExpMxC= 5.28D+03 IAcc=3 IRadAn=         5 AccDes= 0.00D+00
 Harris functional with IExCor=  402 and IRadAn=       5 diagonalized for initial guess.
 HarFok:  IExCor=  402 AccDes= 0.00D+00 IRadAn=         5 IDoV= 1 UseB2=F ITyADJ=14
 ICtDFT=  3500011 ScaDFX=  1.000000  1.000000  1.000000  1.000000
 FoFCou: FMM=F IPFlag=           0 FMFlag=      100000 FMFlg1=        2001
         NFxFlg=           0 DoJE=T BraDBF=F KetDBF=T FulRan=T
         wScrn=  0.000000 ICntrl=     500 IOpCl=  0 I1Cent=   200000004 NGrid=           0
         NMat0=    1 NMatS0=      1 NMatT0=    0 NMatD0=    1 NMtDS0=    0 NMtDT0=    0
 Petite list used in FoFCou.
 Requested convergence on RMS density matrix=1.00D-08 within 128 cycles.
 Requested convergence on MAX density matrix=1.00D-06.
 Requested convergence on             energy=1.00D-06.
 No special actions if energy rises.
 SCF Done:  E(RB3LYP) =  -5333.64103800     A.U. after   15 cycles
            NFock= 15  Conv=0.39D-08     -V/T= 2.0082

 **********************************************************************

            Population analysis using the SCF density.

 **********************************************************************

 Orbital symmetries:
 BldTbl:  Degeneracy threshold= 1.00D-02
       Occupied  (A) (A) (A) (A) (A) (A) (A) (A) (A) (A) (A) (A)
                 (A) (A) (A) (A) (A) (A) (A) (A) (A) (A) (A) (A)
                 (A) (A) (A) (A) (A) (A) (A) (A) (A) (A) (A) (A)
                 (A) (A) (A) (A) (A) (A) (A) (A) (A) (A) (A) (A)
                 (A) (A) (A) (A) (A) (A) (A) (A) (A) (A) (A) (A)
                 (A) (A) (A) (A) (A) (A) (A) (A) (A) (A) (A) (A)
                 (A) (A) (A) (A) (A) (A) (A) (A) (A) (A) (A) (A)
                 (A) (A) (A) (A) (A) (A) (A) (A) (A) (A) (A) (A)
                 (A) (A) (A) (A) (A) (A) (A) (A) (A) (A) (A) (A)
                 (A) (A) (A) (A) (A) (A) (A) (A) (A) (A) (A) (A)
                 (A) (A) (A) (A) (A) (A) (A) (A) (A) (A) (A) (A)
                 (A) (A) (A) (A) (A) (A) (A) (A) (A) (A) (A) (A)
                 (A) (A) (A) (A) (A) (A) (A) (A) (A) (A) (A) (A)
                 (A) (A) (A) (A) (A) (A) (A) (A) (A) (A) (A) (A)
                 (A) (A) (A) (A) (A) (A) (A) (A) (A) (A) (A) (A)
                 (A) (A) (A) (A) (A) (A) (A) (A) (A) (A) (A) (A)
                 (A) (A) (A) (A) (A) (A) (A) (A) (A) (A) (A) (A)
                 (A) (A) (A) (A) (A) (A) (A) (A) (A) (A) (A) (A)
                 (A) (A) (A) (A) (A) (A) (A) (A) (A) (A) (A) (A)
                 (A) (A) (A) (A) (A) (A) (A) (A) (A) (A) (A) (A)
                 (A) (A) (A) (A) (A) (A) (A) (A) (A) (A) (A) (A)
                 (A) (A) (A) (A) (A) (A) (A) (A) (A) (A) (A) (A)
                 (A) (A) (A) (A) (A) (A) (A) (A) (A) (A) (A) (A)
                 (A) (A) (A) (A) (A) (A) (A) (A) (A) (A) (A) (A)
                 (A) (A) (A) (A) (A) (A) (A) (A) (A) (A) (A) (A)
                 (A) (A) (A) (A) (A) (A) (A) (A) (A) (A) (A) (A)
                 (A) (A) (A) (A) (A) (A) (A) (A) (A) (A) (A) (A)
                 (A) (A) (A) (A) (A) (A) (A) (A) (A) (A) (A) (A)
                 (A) (A) (A) (A) (A) (A) (A) (A) (A) (A) (A) (A)
                 (A) (A) (A) (A) (A) (A) (A) (A) (A) (A)
       Virtual   (A) (A) (A) (A) (A) (A) (A) (A) (A) (A) (A) (A)
                 (A) (A) (A) (A) (A) (A) (A) (A) (A) (A) (A) (A)
                 (A) (A) (A) (A) (A) (A) (A) (A) (A) (A) (A) (A)
                 (A) (A) (A) (A) (A) (A) (A) (A) (A) (A) (A) (A)
                 (A) (A) (A) (A) (A) (A) (A) (A) (A) (A) (A) (A)
                 (A) (A) (A) (A) (A) (A) (A) (A) (A) (A) (A) (A)
                 (A) (A) (A) (A) (A) (A) (A) (A) (A) (A) (A) (A)
                 (A) (A) (A) (A) (A) (A) (A) (A) (A) (A) (A) (A)
                 (A) (A) (A) (A) (A) (A) (A) (A) (A) (A) (A) (A)
                 (A) (A) (A) (A) (A) (A) (A) (A) (A) (A) (A) (A)
                 (A) (A) (A) (A) (A) (A) (A) (A) (A) (A) (A) (A)
                 (A) (A) (A) (A) (A) (A) (A) (A) (A) (A) (A) (A)
                 (A) (A) (A) (A) (A) (A) (A) (A) (A) (A) (A) (A)
                 (A) (A) (A) (A) (A) (A) (A) (A) (A) (A) (A) (A)
                 (A) (A) (A) (A) (A) (A) (A) (A) (A) (A) (A) (A)
                 (A) (A) (A) (A) (A) (A) (A) (A) (A) (A) (A) (A)
                 (A) (A) (A) (A) (A) (A) (A) (A) (A) (A) (A) (A)
                 (A) (A) (A) (A) (A) (A) (A) (A) (A) (A) (A) (A)
                 (A) (A) (A) (A) (A) (A) (A) (A) (A) (A) (A) (A)
                 (A) (A) (A) (A) (A) (A) (A) (A) (A) (A) (A) (A)
                 (A) (A) (A) (A) (A) (A) (A) (A) (A) (A) (A) (A)
                 (A) (A) (A) (A) (A) (A) (A) (A) (A) (A) (A) (A)
                 (A) (A) (A) (A) (A) (A) (A) (A) (A) (A) (A) (A)
                 (A) (A) (A) (A) (A) (A) (A) (A) (A) (A) (A) (A)
                 (A) (A) (A) (A) (A) (A) (A) (A) (A) (A) (A) (A)
                 (A) (A) (A) (A) (A) (A) (A) (A) (A) (A) (A) (A)
                 (A) (A) (A) (A) (A) (A) (A) (A) (A) (A) (A) (A)
                 (A) (A) (A) (A) (A) (A) (A) (A) (A) (A) (A) (A)
                 (A) (A) (A) (A) (A) (A) (A) (A) (A) (A) (A) (A)
                 (A) (A) (A) (A) (A) (A) (A) (A) (A) (A) (A) (A)
                 (A) (A) (A) (A) (A) (A) (A) (A) (A) (A) (A) (A)
                 (A) (A) (A) (A) (A) (A) (A) (A) (A) (A) (A) (A)
                 (A) (A) (A) (A) (A) (A) (A) (A) (A) (A) (A) (A)
                 (A) (A) (A) (A) (A) (A) (A) (A) (A) (A) (A) (A)
                 (A) (A) (A) (A) (A) (A) (A) (A) (A) (A) (A) (A)
                 (A) (A) (A) (A) (A) (A) (A) (A) (A) (A) (A) (A)
                 (A) (A) (A) (A) (A) (A) (A) (A) (A) (A) (A) (A)
                 (A) (A) (A) (A) (A) (A) (A) (A) (A) (A) (A) (A)
                 (A) (A) (A) (A) (A) (A) (A) (A) (A) (A) (A) (A)
                 (A) (A) (A) (A) (A) (A) (A) (A) (A) (A) (A) (A)
                 (A) (A) (A) (A) (A) (A) (A) (A) (A) (A) (A) (A)
                 (A) (A) (A) (A) (A) (A) (A) (A) (A) (A) (A) (A)
                 (A) (A) (A) (A) (A) (A) (A) (A) (A) (A) (A) (A)
                 (A) (A) (A) (A) (A) (A) (A) (A) (A) (A) (A) (A)
                 (A) (A) (A) (A) (A) (A) (A) (A) (A) (A) (A) (A)
                 (A) (A) (A) (A) (A) (A) (A) (A) (A) (A) (A) (A)
                 (A) (A) (A) (A) (A) (A) (A) (A) (A) (A) (A) (A)
                 (A) (A) (A) (A) (A) (A) (A) (A) (A) (A) (A) (A)
                 (A) (A) (A) (A) (A) (A) (A) (A) (A) (A) (A) (A)
                 (A) (A) (A) (A) (A) (A) (A) (A) (A) (A) (A) (A)
                 (A) (A) (A) (A) (A) (A) (A) (A) (A) (A) (A) (A)
                 (A) (A) (A) (A) (A) (A) (A) (A) (A) (A) (A) (A)
                 (A) (A) (A) (A) (A) (A) (A) (A) (A) (A) (A) (A)
                 (A) (A) (A) (A) (A) (A) (A) (A) (A) (A) (A) (A)
                 (A) (A) (A) (A) (A) (A) (A) (A) (A) (A) (A) (A)
                 (A) (A) (A) (A) (A) (A) (A) (A) (A) (A) (A) (A)
                 (A) (A) (A) (A) (A) (A) (A) (A) (A) (A) (A) (A)
                 (A) (A) (A) (A) (A) (A) (A) (A) (A) (A) (A) (A)
                 (A) (A) (A) (A) (A) (A) (A) (A) (A) (A) (A) (A)
                 (A) (A) (A) (A) (A) (A) (A) (A) (A) (A) (A) (A)
                 (A) (A) (A) (A) (A) (A) (A) (A) (A) (A) (A) (A)
                 (A) (A) (A) (A) (A) (A) (A) (A) (A) (A) (A) (A)
                 (A) (A) (A) (A) (A) (A) (A) (A) (A) (A) (A) (A)
                 (A) (A) (A) (A) (A) (A) (A) (A) (A) (A) (A) (A)
                 (A) (A) (A) (A) (A) (A) (A) (A) (A) (A) (A) (A)
                 (A) (A) (A) (A) (A) (A) (A) (A) (A) (A) (A) (A)
                 (A) (A) (A) (A) (A) (A) (A) (A) (A) (A) (A) (A)
                 (A) (A) (A) (A) (A) (A) (A) (A) (A) (A) (A) (A)
                 (A) (A) (A) (A) (A) (A) (A) (A) (A) (A) (A) (A)
                 (A) (A) (A) (A) (A) (A) (A) (A) (A) (A) (A) (A)
                 (A) (A) (A) (A) (A) (A) (A) (A) (A) (A) (A) (A)
                 (A) (A) (A) (A) (A) (A) (A) (A) (A) (A) (A) (A)
                 (A) (A) (A) (A) (A) (A) (A) (A) (A) (A) (A) (A)
                 (A) (A) (A) (A) (A) (A) (A) (A) (A) (A) (A) (A)
                 (A) (A) (A) (A) (A) (A) (A) (A) (A) (A) (A) (A)
                 (A) (A) (A) (A) (A) (A) (A) (A) (A) (A) (A) (A)
                 (A) (A) (A) (A) (A) (A) (A) (A) (A) (A) (A) (A)
                 (A) (A) (A) (A) (A) (A) (A) (A) (A) (A) (A) (A)
                 (A) (A) (A) (A) (A) (A) (A) (A) (A) (A) (A) (A)
                 (A) (A) (A) (A) (A) (A) (A) (A) (A) (A) (A) (A)
                 (A) (A) (A) (A) (A) (A) (A) (A) (A) (A) (A) (A)
                 (A) (A) (A) (A) (A) (A) (A) (A) (A) (A) (A) (A)
                 (A) (A) (A) (A) (A) (A) (A) (A) (A) (A) (A) (A)
                 (A) (A) (A) (A) (A) (A) (A) (A) (A) (A) (A) (A)
                 (A) (A) (A) (A) (A) (A) (A) (A) (A) (A) (A) (A)
                 (A) (A) (A) (A) (A) (A) (A) (A) (A) (A) (A) (A)
                 (A) (A) (A) (A) (A) (A) (A) (A) (A) (A) (A) (A)
                 (A) (A) (A) (A) (A) (A) (A) (A) (A) (A) (A) (A)
                 (A) (A) (A) (A) (A) (A) (A) (A) (A) (A) (A) (A)
                 (A) (A) (A) (A) (A) (A) (A) (A) (A) (A) (A) (A)
                 (A) (A) (A) (A) (A) (A) (A) (A) (A) (A) (A) (A)
                 (A) (A) (A) (A) (A) (A) (A) (A) (A) (A) (A) (A)
                 (A) (A) (A) (A) (A) (A) (A) (A) (A) (A) (A) (A)
                 (A) (A) (A) (A) (A) (A) (A) (A) (A) (A) (A) (A)
                 (A) (A) (A) (A) (A) (A) (A) (A) (A) (A) (A) (A)
                 (A) (A) (A) (A) (A) (A) (A) (A) (A) (A) (A) (A)
                 (A) (A) (A) (A) (A) (A) (A) (A) (A) (A) (A) (A)
                 (A) (A) (A) (A) (A) (A) (A) (A) (A) (A) (A) (A)
                 (A) (A) (A) (A) (A) (A) (A) (A) (A) (A) (A) (A)
                 (A) (A) (A) (A) (A) (A) (A) (A) (A) (A) (A) (A)
                 (A) (A) (A) (A) (A) (A) (A) (A) (A) (A) (A) (A)
                 (A) (A) (A) (A) (A) (A) (A) (A) (A) (A) (A) (A)
                 (A) (A) (A) (A) (A) (A) (A) (A) (A) (A) (A) (A)
                 (A) (A) (A) (A) (A) (A) (A) (A) (A) (A) (A) (A)
                 (A) (A) (A) (A) (A) (A) (A) (A) (A) (A) (A) (A)
                 (A) (A) (A) (A) (A) (A) (A) (A) (A) (A) (A) (A)
                 (A) (A) (A) (A) (A) (A) (A) (A) (A) (A) (A) (A)
                 (A) (A) (A) (A) (A) (A) (A) (A) (A) (A) (A) (A)
                 (A) (A) (A) (A) (A) (A) (A) (A) (A) (A) (A) (A)
                 (A) (A) (A) (A) (A) (A) (A) (A) (A) (A) (A) (A)
                 (A) (A) (A) (A) (A) (A) (A) (A) (A) (A) (A) (A)
                 (A) (A) (A) (A) (A) (A) (A) (A) (A) (A) (A) (A)
                 (A) (A) (A) (A) (A) (A) (A) (A) (A) (A) (A) (A)
                 (A) (A) (A)
 The electronic state is 1-A.
 Alpha  occ. eigenvalues -- -145.34741 -19.20235 -19.14701 -19.13886 -19.13148
 Alpha  occ. eigenvalues --  -19.12086 -19.11637 -19.11300 -19.10895 -19.09738
 Alpha  occ. eigenvalues --  -19.09674 -19.09125 -19.08315 -19.08251 -19.08159
 Alpha  occ. eigenvalues --  -19.06887 -19.06541 -19.05629 -19.05435 -19.05373
 Alpha  occ. eigenvalues --  -19.05317 -19.04582 -19.04147 -19.03444 -15.40534
 Alpha  occ. eigenvalues --  -14.56691 -14.38830 -14.37227 -14.37151 -14.36597
 Alpha  occ. eigenvalues --  -14.36485 -14.35262 -14.34902 -14.34044 -14.33736
 Alpha  occ. eigenvalues --  -14.33072 -14.32000 -14.31798 -14.31797 -14.31195
 Alpha  occ. eigenvalues --  -12.54129 -12.54114 -12.54099 -10.33493 -10.31586
 Alpha  occ. eigenvalues --  -10.30961 -10.30413 -10.29920 -10.29425 -10.28402
 Alpha  occ. eigenvalues --  -10.27572 -10.27310 -10.26960 -10.26810 -10.26319
 Alpha  occ. eigenvalues --  -10.26064 -10.25600 -10.25592 -10.25314 -10.25223
 Alpha  occ. eigenvalues --  -10.24954 -10.24667 -10.24336 -10.24177 -10.23635
 Alpha  occ. eigenvalues --  -10.23591 -10.23238 -10.23161 -10.23010 -10.22975
 Alpha  occ. eigenvalues --  -10.22801 -10.22785 -10.22532 -10.21818 -10.21395
 Alpha  occ. eigenvalues --  -10.21361 -10.20345 -10.20181 -10.20055 -10.20029
 Alpha  occ. eigenvalues --  -10.19942 -10.19818 -10.19384 -10.18853 -10.18489
 Alpha  occ. eigenvalues --  -10.18417 -10.17922 -10.17879 -10.17598 -10.17458
 Alpha  occ. eigenvalues --  -10.17231 -10.17217 -10.17094 -10.16769 -10.16755
 Alpha  occ. eigenvalues --  -10.16510 -10.14788  -1.77537  -1.11967  -1.06993
 Alpha  occ. eigenvalues --   -1.06628  -1.05481  -1.05340  -1.05010  -1.04727
 Alpha  occ. eigenvalues --   -1.04485  -1.04391  -1.04362  -1.03239  -1.03033
 Alpha  occ. eigenvalues --   -1.02679  -1.02126  -1.01790  -1.01299  -1.00770
 Alpha  occ. eigenvalues --   -1.00159  -0.99763  -0.99265  -0.99073  -0.98935
 Alpha  occ. eigenvalues --   -0.98587  -0.98120  -0.95555  -0.94132  -0.93753
 Alpha  occ. eigenvalues --   -0.93476  -0.92995  -0.92481  -0.92311  -0.91421
 Alpha  occ. eigenvalues --   -0.90735  -0.90555  -0.90411  -0.89769  -0.89474
 Alpha  occ. eigenvalues --   -0.88081  -0.87972  -0.87766  -0.87754  -0.87228
 Alpha  occ. eigenvalues --   -0.83105  -0.82227  -0.81666  -0.80939  -0.79344
 Alpha  occ. eigenvalues --   -0.79119  -0.78018  -0.77745  -0.77478  -0.77206
 Alpha  occ. eigenvalues --   -0.76571  -0.75092  -0.74511  -0.73893  -0.72808
 Alpha  occ. eigenvalues --   -0.72260  -0.71660  -0.71443  -0.71162  -0.70099
 Alpha  occ. eigenvalues --   -0.69877  -0.69211  -0.68996  -0.68614  -0.68001
 Alpha  occ. eigenvalues --   -0.66987  -0.66112  -0.65571  -0.65466  -0.64423
 Alpha  occ. eigenvalues --   -0.64221  -0.63205  -0.62964  -0.62010  -0.61243
 Alpha  occ. eigenvalues --   -0.60826  -0.60763  -0.60559  -0.60040  -0.59862
 Alpha  occ. eigenvalues --   -0.59508  -0.59024  -0.58769  -0.58427  -0.58199
 Alpha  occ. eigenvalues --   -0.57415  -0.57309  -0.57028  -0.56936  -0.56173
 Alpha  occ. eigenvalues --   -0.55922  -0.55572  -0.55216  -0.55186  -0.54875
 Alpha  occ. eigenvalues --   -0.54687  -0.54599  -0.54378  -0.53550  -0.53541
 Alpha  occ. eigenvalues --   -0.53328  -0.52973  -0.52830  -0.52626  -0.52211
 Alpha  occ. eigenvalues --   -0.51946  -0.51356  -0.50900  -0.50344  -0.50119
 Alpha  occ. eigenvalues --   -0.49996  -0.49636  -0.49475  -0.49226  -0.49111
 Alpha  occ. eigenvalues --   -0.48657  -0.48602  -0.48534  -0.48292  -0.48144
 Alpha  occ. eigenvalues --   -0.48087  -0.47937  -0.47723  -0.47271  -0.46809
 Alpha  occ. eigenvalues --   -0.46769  -0.46224  -0.46134  -0.45942  -0.45686
 Alpha  occ. eigenvalues --   -0.45569  -0.45170  -0.45086  -0.45001  -0.44867
 Alpha  occ. eigenvalues --   -0.44734  -0.44474  -0.44412  -0.44230  -0.44030
 Alpha  occ. eigenvalues --   -0.43928  -0.43650  -0.43433  -0.43373  -0.43275
 Alpha  occ. eigenvalues --   -0.42882  -0.42781  -0.42699  -0.42486  -0.42397
 Alpha  occ. eigenvalues --   -0.42250  -0.42026  -0.41855  -0.41561  -0.41494
 Alpha  occ. eigenvalues --   -0.41423  -0.41345  -0.41179  -0.41114  -0.41073
 Alpha  occ. eigenvalues --   -0.40782  -0.40757  -0.40718  -0.40518  -0.40385
 Alpha  occ. eigenvalues --   -0.40372  -0.40171  -0.40045  -0.39961  -0.39867
 Alpha  occ. eigenvalues --   -0.39687  -0.39515  -0.39407  -0.39233  -0.39126
 Alpha  occ. eigenvalues --   -0.39029  -0.38808  -0.38757  -0.38533  -0.38462
 Alpha  occ. eigenvalues --   -0.38315  -0.38017  -0.37999  -0.37713  -0.37630
 Alpha  occ. eigenvalues --   -0.37490  -0.37410  -0.37273  -0.37115  -0.36930
 Alpha  occ. eigenvalues --   -0.36660  -0.36477  -0.36417  -0.36366  -0.36230
 Alpha  occ. eigenvalues --   -0.35778  -0.35630  -0.35590  -0.35386  -0.35176
 Alpha  occ. eigenvalues --   -0.34732  -0.34610  -0.34530  -0.34370  -0.34241
 Alpha  occ. eigenvalues --   -0.34090  -0.33895  -0.33520  -0.33435  -0.33049
 Alpha  occ. eigenvalues --   -0.32860  -0.32587  -0.32452  -0.32316  -0.31994
 Alpha  occ. eigenvalues --   -0.31733  -0.31683  -0.31095  -0.30294  -0.29905
 Alpha  occ. eigenvalues --   -0.29135  -0.28969  -0.28684  -0.28659  -0.27997
 Alpha  occ. eigenvalues --   -0.27942  -0.27653  -0.27295  -0.27189  -0.27029
 Alpha  occ. eigenvalues --   -0.26546  -0.26265  -0.26048  -0.25627  -0.25556
 Alpha  occ. eigenvalues --   -0.25405  -0.25055  -0.24865  -0.24613  -0.24346
 Alpha  occ. eigenvalues --   -0.23884  -0.23810  -0.23636  -0.23611  -0.23458
 Alpha  occ. eigenvalues --   -0.22919  -0.22728  -0.22431  -0.22264  -0.21694
 Alpha  occ. eigenvalues --   -0.21439  -0.21229  -0.21221  -0.21104  -0.20481
 Alpha  occ. eigenvalues --   -0.20107  -0.19994  -0.19086
 Alpha virt. eigenvalues --   -0.08544  -0.03431  -0.02733  -0.01674  -0.01591
 Alpha virt. eigenvalues --   -0.00950  -0.00571  -0.00043   0.00022   0.00284
 Alpha virt. eigenvalues --    0.00500   0.01049   0.01839   0.01940   0.02290
 Alpha virt. eigenvalues --    0.02323   0.02609   0.03428   0.03503   0.03750
 Alpha virt. eigenvalues --    0.03825   0.04081   0.04522   0.05023   0.05069
 Alpha virt. eigenvalues --    0.05230   0.05312   0.05447   0.05600   0.05717
 Alpha virt. eigenvalues --    0.05880   0.06078   0.06100   0.06582   0.06651
 Alpha virt. eigenvalues --    0.06804   0.06831   0.07409   0.07542   0.07714
 Alpha virt. eigenvalues --    0.08035   0.08211   0.08355   0.08460   0.08843
 Alpha virt. eigenvalues --    0.09022   0.09271   0.09576   0.09866   0.10028
 Alpha virt. eigenvalues --    0.10082   0.10232   0.10444   0.10678   0.10793
 Alpha virt. eigenvalues --    0.10903   0.11064   0.11730   0.11859   0.12069
 Alpha virt. eigenvalues --    0.12269   0.12373   0.12575   0.12633   0.12883
 Alpha virt. eigenvalues --    0.12908   0.13158   0.13278   0.13453   0.13572
 Alpha virt. eigenvalues --    0.13721   0.13838   0.14023   0.14132   0.14286
 Alpha virt. eigenvalues --    0.14489   0.14626   0.14665   0.14898   0.15247
 Alpha virt. eigenvalues --    0.15303   0.15340   0.15417   0.15502   0.16025
 Alpha virt. eigenvalues --    0.16065   0.16297   0.16598   0.16783   0.17017
 Alpha virt. eigenvalues --    0.17114   0.17233   0.17350   0.17489   0.17665
 Alpha virt. eigenvalues --    0.17980   0.18091   0.18160   0.18322   0.18382
 Alpha virt. eigenvalues --    0.18553   0.18953   0.19221   0.19387   0.19558
 Alpha virt. eigenvalues --    0.19735   0.19954   0.20221   0.20303   0.20440
 Alpha virt. eigenvalues --    0.20609   0.20794   0.21124   0.21261   0.21372
 Alpha virt. eigenvalues --    0.21615   0.21795   0.22131   0.22322   0.22446
 Alpha virt. eigenvalues --    0.22634   0.22732   0.22960   0.23410   0.23647
 Alpha virt. eigenvalues --    0.23780   0.23883   0.23950   0.24323   0.24433
 Alpha virt. eigenvalues --    0.24718   0.24792   0.25098   0.25338   0.25466
 Alpha virt. eigenvalues --    0.25807   0.25898   0.25985   0.26274   0.26352
 Alpha virt. eigenvalues --    0.26665   0.26734   0.26880   0.26986   0.27108
 Alpha virt. eigenvalues --    0.27512   0.27842   0.27955   0.28018   0.28368
 Alpha virt. eigenvalues --    0.28677   0.29024   0.29391   0.29915   0.30051
 Alpha virt. eigenvalues --    0.30238   0.30670   0.30935   0.31187   0.31309
 Alpha virt. eigenvalues --    0.31455   0.31638   0.31769   0.31980   0.32294
 Alpha virt. eigenvalues --    0.32503   0.32630   0.32768   0.33030   0.33493
 Alpha virt. eigenvalues --    0.33713   0.33967   0.34129   0.34327   0.34491
 Alpha virt. eigenvalues --    0.34654   0.35100   0.35802   0.36316   0.36424
 Alpha virt. eigenvalues --    0.36546   0.37114   0.37209   0.37891   0.38084
 Alpha virt. eigenvalues --    0.38411   0.38596   0.38712   0.38858   0.39068
 Alpha virt. eigenvalues --    0.39218   0.39506   0.39751   0.40032   0.40432
 Alpha virt. eigenvalues --    0.40990   0.41114   0.41271   0.41583   0.41647
 Alpha virt. eigenvalues --    0.41980   0.42122   0.42312   0.42917   0.43088
 Alpha virt. eigenvalues --    0.43331   0.43597   0.43691   0.43761   0.43977
 Alpha virt. eigenvalues --    0.44054   0.44441   0.44552   0.44749   0.45169
 Alpha virt. eigenvalues --    0.45466   0.45701   0.45808   0.46012   0.46260
 Alpha virt. eigenvalues --    0.46355   0.46384   0.46758   0.46916   0.47338
 Alpha virt. eigenvalues --    0.47536   0.47682   0.47883   0.48102   0.48148
 Alpha virt. eigenvalues --    0.48315   0.48409   0.48458   0.48751   0.49016
 Alpha virt. eigenvalues --    0.49175   0.49406   0.49491   0.49703   0.49944
 Alpha virt. eigenvalues --    0.50048   0.50400   0.50690   0.50925   0.51130
 Alpha virt. eigenvalues --    0.51253   0.51586   0.51771   0.52043   0.52376
 Alpha virt. eigenvalues --    0.52550   0.52660   0.52886   0.53162   0.53292
 Alpha virt. eigenvalues --    0.53478   0.53811   0.53880   0.54144   0.54494
 Alpha virt. eigenvalues --    0.54810   0.54849   0.55035   0.55323   0.55553
 Alpha virt. eigenvalues --    0.55684   0.55768   0.55888   0.56187   0.56383
 Alpha virt. eigenvalues --    0.56434   0.56506   0.56760   0.56881   0.57044
 Alpha virt. eigenvalues --    0.57308   0.57512   0.57550   0.57813   0.57852
 Alpha virt. eigenvalues --    0.58136   0.58280   0.58373   0.58569   0.58729
 Alpha virt. eigenvalues --    0.58799   0.59031   0.59207   0.59225   0.59440
 Alpha virt. eigenvalues --    0.59627   0.59887   0.60051   0.60212   0.60280
 Alpha virt. eigenvalues --    0.60396   0.60658   0.60713   0.60786   0.61024
 Alpha virt. eigenvalues --    0.61159   0.61224   0.61341   0.61532   0.61667
 Alpha virt. eigenvalues --    0.61756   0.61836   0.61943   0.62008   0.62362
 Alpha virt. eigenvalues --    0.62561   0.62605   0.62636   0.62961   0.63045
 Alpha virt. eigenvalues --    0.63066   0.63286   0.63416   0.63457   0.63530
 Alpha virt. eigenvalues --    0.63881   0.63919   0.64045   0.64099   0.64141
 Alpha virt. eigenvalues --    0.64282   0.64394   0.64591   0.64779   0.64851
 Alpha virt. eigenvalues --    0.65084   0.65167   0.65346   0.65394   0.65479
 Alpha virt. eigenvalues --    0.65530   0.65820   0.65905   0.66012   0.66238
 Alpha virt. eigenvalues --    0.66314   0.66390   0.66448   0.66544   0.66618
 Alpha virt. eigenvalues --    0.66652   0.66801   0.66970   0.66991   0.67174
 Alpha virt. eigenvalues --    0.67283   0.67346   0.67512   0.67582   0.67621
 Alpha virt. eigenvalues --    0.67726   0.67939   0.68084   0.68186   0.68446
 Alpha virt. eigenvalues --    0.68456   0.68559   0.68586   0.68691   0.68815
 Alpha virt. eigenvalues --    0.68945   0.69037   0.69140   0.69205   0.69368
 Alpha virt. eigenvalues --    0.69461   0.69636   0.69749   0.69975   0.69987
 Alpha virt. eigenvalues --    0.70119   0.70142   0.70305   0.70732   0.70792
 Alpha virt. eigenvalues --    0.70932   0.70979   0.71134   0.71300   0.71415
 Alpha virt. eigenvalues --    0.71576   0.71654   0.71679   0.71989   0.72305
 Alpha virt. eigenvalues --    0.72479   0.72592   0.72694   0.72842   0.73133
 Alpha virt. eigenvalues --    0.73259   0.73463   0.73619   0.73847   0.74078
 Alpha virt. eigenvalues --    0.74242   0.74424   0.74589   0.74826   0.75013
 Alpha virt. eigenvalues --    0.75453   0.75488   0.75548   0.75941   0.76206
 Alpha virt. eigenvalues --    0.76255   0.76541   0.76617   0.76725   0.76831
 Alpha virt. eigenvalues --    0.77118   0.77363   0.77652   0.78037   0.78148
 Alpha virt. eigenvalues --    0.78216   0.78503   0.78942   0.79110   0.79275
 Alpha virt. eigenvalues --    0.79802   0.79931   0.80033   0.80273   0.80362
 Alpha virt. eigenvalues --    0.80832   0.81169   0.81263   0.81486   0.81960
 Alpha virt. eigenvalues --    0.82130   0.82538   0.83015   0.83169   0.83339
 Alpha virt. eigenvalues --    0.83532   0.83655   0.83926   0.84363   0.84594
 Alpha virt. eigenvalues --    0.84840   0.85035   0.85486   0.85770   0.85985
 Alpha virt. eigenvalues --    0.86455   0.86556   0.86891   0.87087   0.87185
 Alpha virt. eigenvalues --    0.87928   0.88002   0.88461   0.88558   0.88792
 Alpha virt. eigenvalues --    0.89262   0.89380   0.89683   0.89967   0.90453
 Alpha virt. eigenvalues --    0.90717   0.90816   0.91036   0.91508   0.91709
 Alpha virt. eigenvalues --    0.92073   0.92323   0.92520   0.92886   0.93046
 Alpha virt. eigenvalues --    0.93236   0.93767   0.93937   0.94202   0.94593
 Alpha virt. eigenvalues --    0.94702   0.94967   0.95109   0.95501   0.95821
 Alpha virt. eigenvalues --    0.96093   0.96256   0.96415   0.96675   0.96951
 Alpha virt. eigenvalues --    0.97307   0.97665   0.98177   0.98243   0.98483
 Alpha virt. eigenvalues --    0.98702   0.98923   0.99326   0.99721   0.99820
 Alpha virt. eigenvalues --    1.00298   1.00354   1.00454   1.00688   1.00907
 Alpha virt. eigenvalues --    1.01133   1.01487   1.01616   1.01786   1.02117
 Alpha virt. eigenvalues --    1.02717   1.03004   1.03337   1.03826   1.04305
 Alpha virt. eigenvalues --    1.04581   1.04947   1.05137   1.05505   1.05959
 Alpha virt. eigenvalues --    1.06139   1.06541   1.06893   1.07082   1.07542
 Alpha virt. eigenvalues --    1.07818   1.07907   1.08229   1.08508   1.08834
 Alpha virt. eigenvalues --    1.09180   1.09710   1.09865   1.10090   1.10291
 Alpha virt. eigenvalues --    1.10609   1.10793   1.10924   1.11123   1.11486
 Alpha virt. eigenvalues --    1.11798   1.11926   1.12350   1.12805   1.12979
 Alpha virt. eigenvalues --    1.13102   1.13356   1.13924   1.14137   1.14268
 Alpha virt. eigenvalues --    1.14598   1.14685   1.14979   1.15436   1.15466
 Alpha virt. eigenvalues --    1.15925   1.16340   1.16461   1.16534   1.16945
 Alpha virt. eigenvalues --    1.16982   1.17368   1.17600   1.17714   1.17859
 Alpha virt. eigenvalues --    1.18184   1.18412   1.19004   1.19169   1.19534
 Alpha virt. eigenvalues --    1.19803   1.20004   1.20230   1.20536   1.20834
 Alpha virt. eigenvalues --    1.21253   1.21521   1.21908   1.22252   1.22477
 Alpha virt. eigenvalues --    1.22603   1.22837   1.23003   1.23209   1.23262
 Alpha virt. eigenvalues --    1.23538   1.23904   1.24053   1.24349   1.24620
 Alpha virt. eigenvalues --    1.24698   1.24837   1.25050   1.25501   1.25843
 Alpha virt. eigenvalues --    1.26033   1.26111   1.26327   1.26518   1.26713
 Alpha virt. eigenvalues --    1.27232   1.27327   1.27723   1.27781   1.28120
 Alpha virt. eigenvalues --    1.28396   1.28703   1.29074   1.29287   1.29501
 Alpha virt. eigenvalues --    1.30025   1.30132   1.30334   1.30439   1.30847
 Alpha virt. eigenvalues --    1.31252   1.31455   1.31567   1.32070   1.32452
 Alpha virt. eigenvalues --    1.32596   1.32961   1.33103   1.33627   1.33766
 Alpha virt. eigenvalues --    1.34159   1.34350   1.34717   1.34780   1.35174
 Alpha virt. eigenvalues --    1.35473   1.35732   1.36183   1.36331   1.36861
 Alpha virt. eigenvalues --    1.37207   1.37377   1.37701   1.38214   1.38373
 Alpha virt. eigenvalues --    1.38510   1.38921   1.39254   1.39362   1.39451
 Alpha virt. eigenvalues --    1.39974   1.40256   1.40302   1.40937   1.41355
 Alpha virt. eigenvalues --    1.41515   1.41965   1.42406   1.42444   1.42585
 Alpha virt. eigenvalues --    1.42731   1.43194   1.43846   1.43999   1.44152
 Alpha virt. eigenvalues --    1.44207   1.44699   1.44856   1.45215   1.45485
 Alpha virt. eigenvalues --    1.45555   1.45811   1.46122   1.46559   1.46720
 Alpha virt. eigenvalues --    1.46900   1.47158   1.47217   1.47363   1.47869
 Alpha virt. eigenvalues --    1.48005   1.48284   1.48616   1.48853   1.49491
 Alpha virt. eigenvalues --    1.49924   1.50090   1.50557   1.50713   1.50949
 Alpha virt. eigenvalues --    1.51418   1.51751   1.52199   1.52310   1.52835
 Alpha virt. eigenvalues --    1.52900   1.53163   1.53269   1.53441   1.53614
 Alpha virt. eigenvalues --    1.53714   1.54102   1.54478   1.54667   1.54808
 Alpha virt. eigenvalues --    1.54999   1.55204   1.55532   1.55719   1.56134
 Alpha virt. eigenvalues --    1.56422   1.56805   1.57178   1.57325   1.57724
 Alpha virt. eigenvalues --    1.57875   1.58674   1.59397   1.59872   1.60089
 Alpha virt. eigenvalues --    1.60774   1.61507   1.61647   1.61850   1.62377
 Alpha virt. eigenvalues --    1.62505   1.62932   1.63020   1.63360   1.63550
 Alpha virt. eigenvalues --    1.63707   1.64048   1.64425   1.64696   1.65413
 Alpha virt. eigenvalues --    1.65605   1.66158   1.66401   1.66605   1.66684
 Alpha virt. eigenvalues --    1.67143   1.67353   1.67609   1.67862   1.67970
 Alpha virt. eigenvalues --    1.68326   1.68589   1.68831   1.69027   1.69267
 Alpha virt. eigenvalues --    1.69583   1.70072   1.70297   1.70488   1.70893
 Alpha virt. eigenvalues --    1.70955   1.71650   1.71990   1.72209   1.72337
 Alpha virt. eigenvalues --    1.72537   1.72674   1.72936   1.73015   1.73434
 Alpha virt. eigenvalues --    1.73518   1.73793   1.74069   1.74379   1.74550
 Alpha virt. eigenvalues --    1.74742   1.74967   1.75091   1.75234   1.75336
 Alpha virt. eigenvalues --    1.75420   1.75716   1.75756   1.75843   1.76051
 Alpha virt. eigenvalues --    1.76247   1.76434   1.76501   1.76850   1.77090
 Alpha virt. eigenvalues --    1.77144   1.77608   1.77678   1.77945   1.78051
 Alpha virt. eigenvalues --    1.78334   1.78400   1.78523   1.78564   1.78945
 Alpha virt. eigenvalues --    1.78996   1.79205   1.79303   1.79463   1.79652
 Alpha virt. eigenvalues --    1.79950   1.79992   1.80181   1.80593   1.80803
 Alpha virt. eigenvalues --    1.81029   1.81220   1.81575   1.81641   1.81816
 Alpha virt. eigenvalues --    1.81882   1.82158   1.82257   1.82438   1.82529
 Alpha virt. eigenvalues --    1.82679   1.82830   1.82931   1.83112   1.83449
 Alpha virt. eigenvalues --    1.83746   1.83863   1.83961   1.84096   1.84223
 Alpha virt. eigenvalues --    1.84427   1.84714   1.84881   1.84972   1.85021
 Alpha virt. eigenvalues --    1.85528   1.85646   1.85755   1.85851   1.86107
 Alpha virt. eigenvalues --    1.86180   1.86266   1.86676   1.86723   1.86918
 Alpha virt. eigenvalues --    1.87185   1.87417   1.87574   1.87696   1.88104
 Alpha virt. eigenvalues --    1.88184   1.88398   1.88489   1.88682   1.88830
 Alpha virt. eigenvalues --    1.88872   1.89346   1.89468   1.89492   1.89759
 Alpha virt. eigenvalues --    1.89825   1.90128   1.90176   1.90519   1.90843
 Alpha virt. eigenvalues --    1.90882   1.91001   1.91207   1.91593   1.91621
 Alpha virt. eigenvalues --    1.91932   1.91957   1.92169   1.92325   1.92811
 Alpha virt. eigenvalues --    1.92971   1.93126   1.93218   1.93496   1.93833
 Alpha virt. eigenvalues --    1.93969   1.94026   1.94499   1.94654   1.94859
 Alpha virt. eigenvalues --    1.95081   1.95449   1.95625   1.95807   1.95963
 Alpha virt. eigenvalues --    1.96249   1.96619   1.96667   1.96818   1.96973
 Alpha virt. eigenvalues --    1.97120   1.97433   1.97635   1.98008   1.98486
 Alpha virt. eigenvalues --    1.98524   1.98660   1.98913   1.99169   1.99452
 Alpha virt. eigenvalues --    1.99633   1.99900   2.00205   2.00351   2.00650
 Alpha virt. eigenvalues --    2.00785   2.00996   2.01175   2.01409   2.01911
 Alpha virt. eigenvalues --    2.01974   2.02307   2.02418   2.02632   2.02705
 Alpha virt. eigenvalues --    2.02960   2.03236   2.03550   2.03618   2.03947
 Alpha virt. eigenvalues --    2.04541   2.04786   2.04990   2.05089   2.05379
 Alpha virt. eigenvalues --    2.05623   2.05868   2.06086   2.06367   2.06696
 Alpha virt. eigenvalues --    2.06844   2.07261   2.07679   2.07742   2.08335
 Alpha virt. eigenvalues --    2.08346   2.09019   2.09319   2.09457   2.09732
 Alpha virt. eigenvalues --    2.09846   2.10274   2.10618   2.10646   2.10858
 Alpha virt. eigenvalues --    2.11403   2.11666   2.11918   2.12218   2.12378
 Alpha virt. eigenvalues --    2.12840   2.13015   2.13283   2.13888   2.14023
 Alpha virt. eigenvalues --    2.14380   2.14977   2.15324   2.15767   2.15976
 Alpha virt. eigenvalues --    2.16237   2.16316   2.16467   2.16749   2.16894
 Alpha virt. eigenvalues --    2.17222   2.17690   2.17799   2.18107   2.18378
 Alpha virt. eigenvalues --    2.18527   2.18800   2.19190   2.19303   2.19423
 Alpha virt. eigenvalues --    2.19545   2.19951   2.20085   2.20462   2.20895
 Alpha virt. eigenvalues --    2.21060   2.21289   2.21459   2.21712   2.22047
 Alpha virt. eigenvalues --    2.22364   2.22784   2.22865   2.23172   2.23497
 Alpha virt. eigenvalues --    2.23864   2.24337   2.25086   2.25489   2.25702
 Alpha virt. eigenvalues --    2.26045   2.26099   2.26451   2.27307   2.27732
 Alpha virt. eigenvalues --    2.27929   2.28307   2.28725   2.28987   2.29404
 Alpha virt. eigenvalues --    2.30028   2.30274   2.30521   2.31095   2.31267
 Alpha virt. eigenvalues --    2.31602   2.31710   2.32059   2.32137   2.32442
 Alpha virt. eigenvalues --    2.32791   2.33110   2.33252   2.33344   2.33676
 Alpha virt. eigenvalues --    2.34345   2.34439   2.34619   2.34685   2.34966
 Alpha virt. eigenvalues --    2.35650   2.35654   2.36015   2.36384   2.36553
 Alpha virt. eigenvalues --    2.36991   2.37379   2.37516   2.37819   2.37873
 Alpha virt. eigenvalues --    2.38030   2.38622   2.38757   2.39224   2.39866
 Alpha virt. eigenvalues --    2.40100   2.40451   2.40800   2.40853   2.41164
 Alpha virt. eigenvalues --    2.41329   2.42070   2.42379   2.42676   2.42851
 Alpha virt. eigenvalues --    2.43066   2.43707   2.44141   2.44495   2.44952
 Alpha virt. eigenvalues --    2.45184   2.45376   2.46032   2.46094   2.46680
 Alpha virt. eigenvalues --    2.46786   2.47102   2.47594   2.47830   2.47881
 Alpha virt. eigenvalues --    2.48722   2.49169   2.49400   2.49611   2.50011
 Alpha virt. eigenvalues --    2.50225   2.50573   2.51100   2.51993   2.52142
 Alpha virt. eigenvalues --    2.52320   2.52551   2.53096   2.53206   2.53823
 Alpha virt. eigenvalues --    2.54032   2.54276   2.54521   2.55241   2.55264
 Alpha virt. eigenvalues --    2.55825   2.56061   2.56275   2.56525   2.56649
 Alpha virt. eigenvalues --    2.56916   2.57064   2.57352   2.57954   2.58219
 Alpha virt. eigenvalues --    2.58564   2.59172   2.59239   2.59593   2.60056
 Alpha virt. eigenvalues --    2.60501   2.60728   2.60839   2.61201   2.61433
 Alpha virt. eigenvalues --    2.61818   2.61986   2.62171   2.62476   2.62702
 Alpha virt. eigenvalues --    2.63121   2.63521   2.63966   2.64092   2.64337
 Alpha virt. eigenvalues --    2.65071   2.65182   2.65821   2.66061   2.66257
 Alpha virt. eigenvalues --    2.66957   2.67170   2.67872   2.68036   2.68429
 Alpha virt. eigenvalues --    2.68646   2.68825   2.69157   2.69275   2.69562
 Alpha virt. eigenvalues --    2.69586   2.69799   2.70134   2.70317   2.70600
 Alpha virt. eigenvalues --    2.70835   2.71126   2.71304   2.71346   2.71967
 Alpha virt. eigenvalues --    2.72356   2.72625   2.72933   2.72992   2.73144
 Alpha virt. eigenvalues --    2.73266   2.73504   2.73969   2.74103   2.74230
 Alpha virt. eigenvalues --    2.74479   2.74648   2.74843   2.74955   2.75211
 Alpha virt. eigenvalues --    2.75331   2.75487   2.75892   2.76465   2.76847
 Alpha virt. eigenvalues --    2.77203   2.77424   2.77925   2.78076   2.78131
 Alpha virt. eigenvalues --    2.78349   2.78929   2.79213   2.79950   2.80090
 Alpha virt. eigenvalues --    2.80152   2.80824   2.80915   2.81713   2.81767
 Alpha virt. eigenvalues --    2.82046   2.82293   2.82301   2.82709   2.82906
 Alpha virt. eigenvalues --    2.83128   2.83242   2.83654   2.83798   2.84199
 Alpha virt. eigenvalues --    2.84527   2.84597   2.85134   2.85474   2.85782
 Alpha virt. eigenvalues --    2.86393   2.86767   2.87409   2.87602   2.87784
 Alpha virt. eigenvalues --    2.88117   2.88325   2.88599   2.88919   2.89105
 Alpha virt. eigenvalues --    2.89367   2.89574   2.89779   2.90176   2.90599
 Alpha virt. eigenvalues --    2.91179   2.91505   2.91813   2.91928   2.92260
 Alpha virt. eigenvalues --    2.92789   2.93077   2.93214   2.93280   2.93404
 Alpha virt. eigenvalues --    2.93857   2.93885   2.94059   2.94095   2.94547
 Alpha virt. eigenvalues --    2.94906   2.95731   2.95964   2.96053   2.96095
 Alpha virt. eigenvalues --    2.96727   2.96795   2.97315   2.97631   2.97905
 Alpha virt. eigenvalues --    2.98243   2.98341   2.98512   2.99291   2.99377
 Alpha virt. eigenvalues --    2.99872   3.00485   3.00800   3.00939   3.00995
 Alpha virt. eigenvalues --    3.01340   3.01394   3.01617   3.01858   3.02113
 Alpha virt. eigenvalues --    3.02560   3.02806   3.03357   3.03675   3.03872
 Alpha virt. eigenvalues --    3.04109   3.04377   3.05031   3.05623   3.05860
 Alpha virt. eigenvalues --    3.06369   3.06514   3.07063   3.08980   3.10768
 Alpha virt. eigenvalues --    3.11114   3.12006   3.12017   3.12962   3.13385
 Alpha virt. eigenvalues --    3.13472   3.14032   3.14277   3.14432   3.14589
 Alpha virt. eigenvalues --    3.15037   3.15527   3.15552   3.15828   3.15919
 Alpha virt. eigenvalues --    3.16322   3.16888   3.16983   3.17484   3.18201
 Alpha virt. eigenvalues --    3.18384   3.18506   3.19030   3.19391   3.19658
 Alpha virt. eigenvalues --    3.19751   3.20022   3.20557   3.21059   3.21274
 Alpha virt. eigenvalues --    3.21326   3.21396   3.21724   3.22218   3.22594
 Alpha virt. eigenvalues --    3.22870   3.23066   3.23261   3.23666   3.24228
 Alpha virt. eigenvalues --    3.25269   3.25760   3.26417   3.27029   3.27676
 Alpha virt. eigenvalues --    3.28065   3.28297   3.28564   3.30028   3.30107
 Alpha virt. eigenvalues --    3.30139   3.31185   3.31496   3.31589   3.31968
 Alpha virt. eigenvalues --    3.34959   3.35250   3.35445   3.36563   3.38230
 Alpha virt. eigenvalues --    3.40021   3.42192   3.43931   3.46251   3.51157
 Alpha virt. eigenvalues --    3.52092   3.54756   3.55278   3.55678   3.56259
 Alpha virt. eigenvalues --    3.56568   3.57768   3.58465   3.58801   3.59666
 Alpha virt. eigenvalues --    3.60159   3.60455   3.61515   3.61859   3.62179
 Alpha virt. eigenvalues --    3.62420   3.66002   3.66929   3.67185   3.68265
 Alpha virt. eigenvalues --    3.68462   3.69204   3.69475   3.70128   3.70319
 Alpha virt. eigenvalues --    3.70639   3.70729   3.70887   3.71291   3.71542
 Alpha virt. eigenvalues --    3.71687   3.72049   3.73410   3.74874   3.76881
 Alpha virt. eigenvalues --    3.78635   3.79597   3.83452   3.84578
          Condensed to atoms (all electrons):
 Mulliken charges:
               1
     1  C    0.026352
     2  C    0.035079
     3  O   -0.292128
     4  H    0.056472
     5  H    0.004464
     6  H    0.027185
     7  N   -0.113099
     8  C    0.056218
     9  C    0.031973
    10  O   -0.289613
    11  C    0.154014
    12  C    0.105493
    13  O   -0.385393
    14  O   -0.444959
    15  H    0.120198
    16  H    0.027273
    17  H   -0.016627
    18  H    0.000429
    19  N   -0.141571
    20  C    0.145301
    21  C    0.064868
    22  O   -0.282434
    23  C   -0.026263
    24  C   -0.001375
    25  C   -0.033545
    26  C    0.017787
    27  N    0.075133
    28  H    0.160305
    29  H    0.018348
    30  H    0.018910
    31  H    0.025545
    32  H    0.004224
    33  H    0.015913
    34  H    0.059316
    35  H    0.050714
    36  H    0.053170
    37  H    0.081900
    38  H    0.203083
    39  H    0.188140
    40  H    0.187226
    41  N   -0.154238
    42  C    0.065200
    43  C    0.090283
    44  O   -0.284749
    45  C    0.171167
    46  C    0.044989
    47  O   -0.416047
    48  O   -0.423265
    49  H    0.163710
    50  H    0.027713
    51  H   -0.012971
    52  H    0.019993
    53  N   -0.145561
    54  C    0.240895
    55  C   -0.003034
    56  O   -0.302293
    57  H    0.113864
    58  H    0.042613
    59  H    0.023453
    60  N   -0.162849
    61  C    0.171946
    62  C    0.058373
    63  O   -0.277872
    64  C   -0.007129
    65  C    0.122873
    66  N   -0.045865
    67  O   -0.333263
    68  H    0.146095
    69  H    0.025382
    70  H    0.041337
    71  H    0.045799
    72  H    0.120945
    73  H    0.094880
    74  N   -0.178923
    75  C    0.232850
    76  C    0.026805
    77  O   -0.304513
    78  H    0.149780
    79  H    0.027931
    80  H    0.029700
    81  N   -0.140197
    82  C    0.143320
    83  C    0.103397
    84  O   -0.371690
    85  C    0.179397
    86  C    0.003206
    87  C    0.033227
    88  C    0.026273
    89  C   -0.005978
    90  C   -0.069793
    91  C    0.172212
    92  O   -0.195412
    93  H    0.177764
    94  H   -0.009658
    95  H   -0.001121
    96  H   -0.056014
    97  H   -0.080658
    98  H   -0.020719
    99  H   -0.045627
   100  H   -0.039759
   101  H    0.168974
   102  N   -0.101612
   103  C    0.080933
   104  C    0.095864
   105  O   -0.292852
   106  C   -0.072667
   107  C    0.031919
   108  C    0.045017
   109  C   -0.027358
   110  H    0.125156
   111  H    0.020263
   112  H   -0.021913
   113  H   -0.017537
   114  H   -0.012199
   115  H    0.006120
   116  H    0.017754
   117  H    0.028648
   118  H    0.022032
   119  H    0.054131
   120  H    0.004281
   121  N   -0.144427
   122  C    0.049333
   123  C    0.105785
   124  O   -0.276731
   125  C    0.268718
   126  O   -0.329377
   127  H    0.159767
   128  H    0.031419
   129  H   -0.010035
   130  H   -0.015305
   131  H    0.162070
   132  N   -0.114571
   133  C    0.118422
   134  C    0.078210
   135  O   -0.240898
   136  C    0.001232
   137  H    0.115456
   138  H    0.016179
   139  H    0.021619
   140  H    0.036830
   141  H    0.016073
   142  N   -0.152699
   143  C    0.079099
   144  C    0.077743
   145  O   -0.266298
   146  C    0.042926
   147  H    0.113955
   148  H    0.016496
   149  H    0.038210
   150  H    0.026592
   151  H    0.007009
   152  N   -0.149383
   153  C    0.196641
   154  C    0.039681
   155  O   -0.313920
   156  C   -0.087773
   157  C    0.138169
   158  C    0.189700
   159  O   -0.383398
   160  O   -0.462570
   161  H    0.110980
   162  H   -0.028391
   163  H    0.041021
   164  H    0.008915
   165  H   -0.010883
   166  H   -0.036554
   167  N   -0.154448
   168  C    0.137730
   169  H    0.002695
   170  H    0.027284
   171  H    0.024816
   172  H    0.132667
   173  Ca   1.243527
   174  O   -0.276212
   175  H    0.193696
   176  H    0.192052
 Sum of Mulliken charges =   0.00000
 Mulliken charges with hydrogens summed into heavy atoms:
               1
     1  C    0.114472
     2  C    0.035079
     3  O   -0.292128
     7  N    0.007099
     8  C    0.083491
     9  C    0.031973
    10  O   -0.289613
    11  C    0.137815
    12  C    0.105493
    13  O   -0.385393
    14  O   -0.444959
    19  N    0.018734
    20  C    0.163649
    21  C    0.064868
    22  O   -0.282434
    23  C    0.018192
    24  C    0.018763
    25  C    0.076485
    26  C    0.152857
    27  N    0.653582
    41  N    0.009473
    42  C    0.092913
    43  C    0.090283
    44  O   -0.284749
    45  C    0.178189
    46  C    0.044989
    47  O   -0.416047
    48  O   -0.423265
    53  N   -0.031697
    54  C    0.306962
    55  C   -0.003034
    56  O   -0.302293
    60  N   -0.016754
    61  C    0.197328
    62  C    0.058373
    63  O   -0.277872
    64  C    0.080007
    65  C    0.122873
    66  N    0.169959
    67  O   -0.333263
    74  N   -0.029142
    75  C    0.290481
    76  C    0.026805
    77  O   -0.304513
    81  N    0.037567
    82  C    0.133661
    83  C    0.103397
    84  O   -0.371690
    85  C    0.122262
    86  C    0.003206
    87  C   -0.047432
    88  C    0.005554
    89  C   -0.051605
    90  C   -0.109552
    91  C    0.172212
    92  O   -0.026438
   102  N    0.023544
   103  C    0.101196
   104  C    0.095864
   105  O   -0.292852
   106  C   -0.094579
   107  C    0.002182
   108  C    0.097538
   109  C    0.053085
   121  N    0.015340
   122  C    0.080752
   123  C    0.105785
   124  O   -0.276731
   125  C    0.243378
   126  O   -0.167307
   132  N    0.000885
   133  C    0.134600
   134  C    0.078210
   135  O   -0.240898
   136  C    0.075754
   142  N   -0.038743
   143  C    0.095596
   144  C    0.077743
   145  O   -0.266298
   146  C    0.114737
   152  N   -0.038403
   153  C    0.168250
   154  C    0.039681
   155  O   -0.313920
   156  C   -0.037838
   157  C    0.090733
   158  C    0.189700
   159  O   -0.383398
   160  O   -0.462570
   167  N   -0.021781
   168  C    0.192526
   173  Ca   1.243527
   174  O    0.109536
 DipInt: DoE/N= T F RetVal/Mat= T F Init=T NMatP=  1 IDeriv=0 Min/MaxMlt=  0  4
 Entering OneElI...
 OneElI was handed  4286741430 working-precision words.
 Multipole integrals L=0 to 4 MinM= 0 MaxM= 0.
 Requested accuracy = 0.1000D-12
 ShPair: Thresh= 1.00D-13 NBox=     0 BxSize= 0.00D+00 RnKept= 2.55D+01
         NSMCal=               327645 NSMKep=              164286
 PrsmSu:  NPrtUS=   1 ThrOK=F IAlg=1 NPAlg=1 LenDen=           0.
 Prism:   IPart=     0 DynPar=F LinDyn=F Incr=         512.
 PRISM was handed  4276524638 working-precision words and164286 shell-pairs
 IPart=  0 NShTot=      164286 NBatch=         459 AvBLen=       357.9
 PrSmSu:  NxtVal=            513.
 Electronic moments (au):
       -716.00000000          8.12220753         -0.64665659          3.16286535
     -50671.86526614     -28122.66315856     -13462.53815897         74.78914588
         14.37270565        103.79016387     -25455.63531501     -36208.52175979
     -10866.98389142       7451.77908477     115776.53717579      28977.03420004
      -9497.61636402     -15045.83728479      -2161.75282486     -53234.96859310
   -7564483.57071096   -2289160.38772486    -585307.14948794    -204099.50235123
     468230.78009672    -334663.36271020     -44558.92848547     -62668.18195721
     -22726.25511895   -1973363.45248654    -736991.00270984    -490511.32309212
     -31148.71262796     -23212.61522648      32926.28644561
 Electronic spatial extent (au):  <R**2>=          92257.0666
 DipInt: DoE/N= F T RetVal/Mat= T F Init=T NMatP=  1 IDeriv=0 Min/MaxMlt=  0  4
 Nuclear    moments (au):
        716.00000000          0.00000000          0.00000000          0.00000000
      50201.09427810      27774.13690084      13098.06735770          0.00000000
          0.00000000          0.00000000      25887.69472621      36596.67033072
      11167.37693356      -6134.60791142    -115832.96230018     -29006.26877197
       9878.90625279      15045.05961387       2781.25105099      53701.48414454
    7367094.77549873    2198043.91920702     541906.67652524     209890.75937241
    -471943.38026423     343744.93318659      55349.60638877      64766.37502267
      28461.71270662    1936221.48851574     705245.70009872     470401.48745078
      37061.08012792      25472.80029087     -28621.49746988
 Total      moments (au):
          0.00000000          8.12220753         -0.64665659          3.16286535
       -470.77098803       -348.52625772       -364.47080126         74.78914588
         14.37270565        103.79016387        432.05941119        388.14857093
        300.39304215       1317.17117334        -56.42512439        -29.23457194
        381.28988878         -0.77767092        619.49822613        466.51555144
    -197388.79521223     -91116.46851784     -43400.47296269       5791.25702118
      -3712.60016752       9081.57047639      10790.67790330       2098.19306546
       5735.45758766     -37141.96397080     -31745.30261113     -20109.83564134
       5912.36749995       2260.18506439       4304.78897573
 Traceless Quadrup. (au):
        -76.18163903         46.06309129         30.11854774         74.78914588
         14.37270565        103.79016387
 Charge=              0.0000 electrons
 Dipole moment (field-independent basis, Debye):
    X=             20.6446    Y=             -1.6436    Z=              8.0392  Tot=             22.2155
 Quadrupole moment (field-independent basis, Debye-Ang):
   XX=           -633.2031   YY=           -468.7797   ZZ=           -490.2257
   XY=            100.5940   XZ=             19.3318   YZ=            139.6013
 Traceless Quadrupole moment (field-independent basis, Debye-Ang):
   XX=           -102.4669   YY=             61.9564   ZZ=             40.5105
   XY=            100.5940   XZ=             19.3318   YZ=            139.6013
 Octapole moment (field-independent basis, Debye-Ang**2):
  XXX=            307.5232  YYY=            276.2692  ZZZ=            213.8082  XYY=            937.5116
  XXY=            -40.1612  XXZ=            -20.8080  XZZ=            271.3874  YZZ=             -0.5535
  YYZ=            440.9349  XYZ=            332.0478
 Hexadecapole moment (field-independent basis, Debye-Ang**3):
 XXXX=         -74346.0805 YYYY=         -34318.8289 ZZZZ=         -16346.6982 XXXY=           2181.2649
 XXXZ=          -1398.3432 YYYX=           3420.5547 YYYZ=           4064.2865 ZZZX=            790.2801
 ZZZY=           2160.2482 XXYY=         -13989.4437 XXZZ=         -11956.8024 YYZZ=          -7574.3279
 XXYZ=           2226.8810 YYXZ=            851.2940 ZZXY=           1621.3898
 N-N= 2.191689493017D+04 E-N=-5.631437638509D+04  KE= 5.290450660465D+03
 Leave Link  601 at Mon Sep 16 17:40:28 2019, MaxMem=  4294967296 cpu:        22.0
 FitSet:  NAtFit=   176 NAtPot=   176 NAtFrz=     0 MDM=   180 TotChg=   0.00000
 Merz-Kollman atomic radii used.
 Read replacement radii for each type of atom:
 Rad(20) =   1.700000000000D+00
 Atom Element Radius
    1     6    1.50
    2     6    1.50
    3     8    1.40
    4     1    1.20
    5     1    1.20
    6     1    1.20
    7     7    1.50
    8     6    1.50
    9     6    1.50
   10     8    1.40
   11     6    1.50
   12     6    1.50
   13     8    1.40
   14     8    1.40
   15     1    1.20
   16     1    1.20
   17     1    1.20
   18     1    1.20
   19     7    1.50
   20     6    1.50
   21     6    1.50
   22     8    1.40
   23     6    1.50
   24     6    1.50
   25     6    1.50
   26     6    1.50
   27     7    1.50
   28     1    1.20
   29     1    1.20
   30     1    1.20
   31     1    1.20
   32     1    1.20
   33     1    1.20
   34     1    1.20
   35     1    1.20
   36     1    1.20
   37     1    1.20
   38     1    1.20
   39     1    1.20
   40     1    1.20
   41     7    1.50
   42     6    1.50
   43     6    1.50
   44     8    1.40
   45     6    1.50
   46     6    1.50
   47     8    1.40
   48     8    1.40
   49     1    1.20
   50     1    1.20
   51     1    1.20
   52     1    1.20
   53     7    1.50
   54     6    1.50
   55     6    1.50
   56     8    1.40
   57     1    1.20
   58     1    1.20
   59     1    1.20
   60     7    1.50
   61     6    1.50
   62     6    1.50
   63     8    1.40
   64     6    1.50
   65     6    1.50
   66     7    1.50
   67     8    1.40
   68     1    1.20
   69     1    1.20
   70     1    1.20
   71     1    1.20
   72     1    1.20
   73     1    1.20
   74     7    1.50
   75     6    1.50
   76     6    1.50
   77     8    1.40
   78     1    1.20
   79     1    1.20
   80     1    1.20
   81     7    1.50
   82     6    1.50
   83     6    1.50
   84     8    1.40
   85     6    1.50
   86     6    1.50
   87     6    1.50
   88     6    1.50
   89     6    1.50
   90     6    1.50
   91     6    1.50
   92     8    1.40
   93     1    1.20
   94     1    1.20
   95     1    1.20
   96     1    1.20
   97     1    1.20
   98     1    1.20
   99     1    1.20
  100     1    1.20
  101     1    1.20
  102     7    1.50
  103     6    1.50
  104     6    1.50
  105     8    1.40
  106     6    1.50
  107     6    1.50
  108     6    1.50
  109     6    1.50
  110     1    1.20
  111     1    1.20
  112     1    1.20
  113     1    1.20
  114     1    1.20
  115     1    1.20
  116     1    1.20
  117     1    1.20
  118     1    1.20
  119     1    1.20
  120     1    1.20
  121     7    1.50
  122     6    1.50
  123     6    1.50
  124     8    1.40
  125     6    1.50
  126     8    1.40
  127     1    1.20
  128     1    1.20
  129     1    1.20
  130     1    1.20
  131     1    1.20
  132     7    1.50
  133     6    1.50
  134     6    1.50
  135     8    1.40
  136     6    1.50
  137     1    1.20
  138     1    1.20
  139     1    1.20
  140     1    1.20
  141     1    1.20
  142     7    1.50
  143     6    1.50
  144     6    1.50
  145     8    1.40
  146     6    1.50
  147     1    1.20
  148     1    1.20
  149     1    1.20
  150     1    1.20
  151     1    1.20
  152     7    1.50
  153     6    1.50
  154     6    1.50
  155     8    1.40
  156     6    1.50
  157     6    1.50
  158     6    1.50
  159     8    1.40
  160     8    1.40
  161     1    1.20
  162     1    1.20
  163     1    1.20
  164     1    1.20
  165     1    1.20
  166     1    1.20
  167     7    1.50
  168     6    1.50
  169     1    1.20
  170     1    1.20
  171     1    1.20
  172     1    1.20
  173    20    1.70
  174     8    1.40
  175     1    1.20
  176     1    1.20
 Generate VDW surfaces: Layer= 4 Dens= 6 Start= 1.400 Inc= 0.200

 **********************************************************************

            Electrostatic Properties Using The SCF Density

 **********************************************************************

       Atomic Center    1 is at   2.017316  3.156867  5.319581
       Atomic Center    2 is at   1.492810  2.642948  3.985609
       Atomic Center    3 is at   2.218249  2.313235  3.047245
[...]
 **** Fit      -0.020015
 **** Fit      -0.001690
 **** Fit      -0.001833
 **** Fit      -0.002523
 **** Fit      -0.002800
 **** Fit      -0.005011
 **** Fit      -0.007055
 **** Fit      -0.031805
 **** Fit      -0.014265
 **** Fit      -0.020919
 **** Fit      -0.030445
 **** Fit      -0.024440
 **** Fit      -0.034554
 **** Fit       0.013442
 **** Fit       0.027469
 **** Fit      -0.004876
 **** Fit       0.009897
 **** Fit       0.022966
 **** Fit      -0.009043
 **** Fit       0.004394
 **** Fit       0.016236
 **** Fit      -0.012406
 **** Fit       0.000143
 **** Fit       0.010851
 **** Fit       0.019677
 **** Fit      -0.000885
 **** Fit       0.008614
 **** Fit       0.016079
 **** Fit      -0.000619
 **** Fit       0.007340
 **** Fit       0.013119
 **** Fit      -0.000755
 **** Fit       0.005472
 **** Fit       0.009582
 **** Fit       0.011712
 **** Fit      -0.005060
 **** Fit       0.001039
 **** Fit       0.004890
 **** Fit      -0.002372
 **** Fit       0.001139
 **** Fit      -0.003808
 **** Fit      -0.001166
 **** Fit      -0.002616
 **** Fit      -0.001783
 **** Fit      -0.004033
 **** Fit      -0.006613
 **** Fit      -0.003596
 **** Fit      -0.006969
 **** Fit      -0.011117
 **** Fit      -0.016691
 **** Fit      -0.024160
 **** Fit      -0.033497
 **** Fit      -0.003252
 **** Fit      -0.007417
 **** Fit      -0.012292
 **** Fit      -0.018443
 **** Fit      -0.025799
 **** Fit      -0.032860
 **** Fit      -0.027274
 **** Fit      -0.003564
 **** Fit      -0.008456
 **** Fit      -0.014304
 **** Fit      -0.020754
 **** Fit      -0.025347
 **** Fit      -0.024775
 **** Fit      -0.019924
 **** Fit      -0.014147
 **** Fit      -0.007814
 **** Fit      -0.001514
 **** Fit      -0.005017
 **** Fit      -0.009561
 **** Fit      -0.015669
 **** Fit      -0.017272
 **** Fit      -0.012282
 **** Fit      -0.006157
 **** Fit      -0.010804
 **** Fit       0.010806
 **** Fit       0.004635
 **** Fit       0.007823
 **** Fit       0.010341
 **** Fit       0.000389
 **** Fit       0.002731
 **** Fit       0.004714
 **** Fit       0.005966
 **** Fit      -0.000466
 **** Fit       0.000789
 **** Fit       0.001468
 **** Fit      -0.002179
 **** Fit      -0.002122
 **** Fit      -0.002929
 **** Fit      -0.005099
 **** Fit      -0.006595
 **** Fit      -0.009607
 **** Fit      -0.014672
 **** Fit      -0.022308
 **** Fit      -0.010292
 **** Fit      -0.014959
 **** Fit       0.000582
 **** Fit       0.000232
 **** Fit      -0.000285
 **** Fit      -0.000053
 **** Fit       0.000935
 **** Fit      -0.000124
 **** Fit      -0.001539
 **** Fit      -0.001091
 **** Fit       0.001082
 **** Fit       0.000450
 **** Fit      -0.000548
 **** Fit      -0.003334
 **** Fit      -0.002710
 **** Fit       0.001077
 **** Fit       0.000484
 **** Fit      -0.000063
 **** Fit      -0.005882
 **** Fit      -0.004689
 **** Fit      -0.002895
 **** Fit       0.001059
 **** Fit       0.000461
 **** Fit      -0.000123
 **** Fit      -0.000661
 **** Fit      -0.009881
 **** Fit      -0.008221
 **** Fit      -0.006049
 **** Fit       0.001419
 **** Fit       0.000851
 **** Fit       0.000271
 **** Fit      -0.000331
 **** Fit      -0.000926
 **** Fit      -0.001464
 **** Fit      -0.014280
 **** Fit      -0.011328
 **** Fit      -0.008290
 **** Fit       0.001340
 **** Fit       0.000785
 **** Fit       0.000189
 **** Fit      -0.000468
 **** Fit      -0.001165
 **** Fit      -0.001854
 **** Fit      -0.002471
 **** Fit      -0.014845
 **** Fit       0.001221
 **** Fit       0.000692
 **** Fit       0.000089
 **** Fit      -0.000610
 **** Fit      -0.001394
 **** Fit      -0.002222
 **** Fit      -0.003032
 **** Fit      -0.003760
 **** Fit       0.001644
 **** Fit       0.001206
 **** Fit       0.000707
 **** Fit       0.000106
 **** Fit      -0.000626
 **** Fit      -0.001490
 **** Fit      -0.002456
 **** Fit      -0.003466
 **** Fit      -0.004449
 **** Fit      -0.005342
 **** Fit       0.001574
 **** Fit       0.001210
 **** Fit       0.000744
 **** Fit      -0.005013
 **** Fit      -0.006188
 **** Fit      -0.007267
 **** Fit      -0.010760
 **** Fit       0.001735
 **** Fit       0.001611
 **** Fit       0.001342
 **** Fit      -0.008268
 **** Fit      -0.009566
 **** Fit      -0.013760
 **** Fit      -0.015208
 **** Fit       0.001397
 **** Fit       0.001632
 **** Fit       0.001620
 **** Fit      -0.012300
 **** Fit      -0.017371
 **** Fit      -0.019068
 **** Fit      -0.000664
 **** Fit       0.000291
 **** Fit       0.001135
 **** Fit       0.001642
 **** Fit       0.001708
 **** Fit      -0.021823
 **** Fit      -0.023651
 **** Fit      -0.025809
 **** Fit      -0.028583
 **** Fit      -0.000687
 **** Fit       0.000790
 **** Fit       0.001650
 **** Fit      -0.029306
 **** Fit      -0.031656
 **** Fit      -0.034853
 **** Fit      -0.039252
 **** Fit       0.000696
 **** Fit      -0.036337
 **** Fit      -0.038692
 **** Fit      -0.042292
 **** Fit      -0.047447
 **** Fit       0.002584
 **** Fit       0.001865
 **** Fit       0.001548
 **** Fit       0.002262
 **** Fit       0.003289
 **** Fit       0.003345
 **** Fit       0.002656
 **** Fit       0.000484
 **** Fit       0.001554
 **** Fit       0.002963
 **** Fit       0.003999
 **** Fit       0.004225
 **** Fit       0.003862
 **** Fit       0.003260
 **** Fit       0.002569
 **** Fit       0.001849
 **** Fit      -0.001091
 **** Fit       0.000257
 **** Fit       0.001985
 **** Fit       0.003690
 **** Fit       0.005050
 **** Fit       0.004692
 **** Fit       0.004146
 **** Fit       0.003573
 **** Fit       0.002987
 **** Fit       0.002379
 **** Fit       0.001752
 **** Fit      -0.001224
 **** Fit       0.005094
 **** Fit       0.004400
 **** Fit       0.003820
 **** Fit       0.003294
 **** Fit       0.002767
 **** Fit       0.002217
 **** Fit       0.001645
 **** Fit       0.004697
 **** Fit       0.004010
 **** Fit       0.003504
 **** Fit       0.003056
 **** Fit       0.002593
 **** Fit       0.002090
 **** Fit       0.003962
 **** Fit       0.003452
 **** Fit       0.003091
 **** Fit       0.002752
 **** Fit       0.002367
 **** Fit       0.001919
 **** Fit       0.003434
 **** Fit       0.002993
 **** Fit       0.002756
 **** Fit       0.002551
 **** Fit       0.002278
 **** Fit       0.001903
 **** Fit       0.002294
 **** Fit       0.002239
 **** Fit       0.002220
 **** Fit       0.002109
 **** Fit       0.001850
 **** Fit       0.001478
 **** Fit       0.001692
 **** Fit       0.001835
 **** Fit       0.001789
 **** Fit       0.000518
 **** Fit       0.000997
 **** Fit       0.001400
 **** Fit      -0.000304
 **** Fit      -0.000283
 **** Fit      -0.001147
 **** Fit      -0.002151
 **** Fit      -0.003246
 **** Fit       0.000917
 **** Fit       0.000397
 **** Fit      -0.000344
 **** Fit      -0.001277
 **** Fit      -0.002359
 **** Fit      -0.003547
 **** Fit      -0.004802
 **** Fit      -0.006087
 **** Fit      -0.009617
 **** Fit       0.001185
 **** Fit       0.000694
 **** Fit      -0.000093
 **** Fit      -0.001127
 **** Fit      -0.002346
 **** Fit      -0.003691
 **** Fit      -0.005117
 **** Fit      -0.006593
 **** Fit      -0.008098
 **** Fit      -0.012372
 **** Fit       0.001509
 **** Fit       0.001052
 **** Fit       0.000191
 **** Fit      -0.000994
 **** Fit      -0.002407
 **** Fit      -0.003960
 **** Fit      -0.005590
 **** Fit      -0.007256
 **** Fit      -0.008942
 **** Fit      -0.010644
 **** Fit      -0.015848
 **** Fit      -0.017854
 **** Fit       0.001896
 **** Fit       0.001664
 **** Fit       0.000810
 **** Fit      -0.000551
 **** Fit      -0.002255
 **** Fit      -0.004151
 **** Fit      -0.006125
 **** Fit      -0.008108
 **** Fit      -0.010065
 **** Fit      -0.011993
 **** Fit      -0.013909
 **** Fit      -0.020395
 **** Fit      -0.022678
 **** Fit       0.002203
 **** Fit       0.002095
 **** Fit       0.000927
 **** Fit      -0.001045
 **** Fit      -0.003489
 **** Fit      -0.006121
 **** Fit      -0.008758
 **** Fit      -0.011297
 **** Fit      -0.013703
 **** Fit      -0.015987
 **** Fit      -0.018194
 **** Fit      -0.026588
 **** Fit      -0.029093
 **** Fit      -0.031826
 **** Fit      -0.004831
 **** Fit      -0.008677
 **** Fit      -0.012395
 **** Fit      -0.015811
 **** Fit      -0.018874
 **** Fit      -0.001132
 **** Fit      -0.001116
 **** Fit      -0.001748
 **** Fit      -0.002042
 **** Fit      -0.000665
 **** Fit      -0.001397
 **** Fit      -0.001989
 **** Fit      -0.002708
 **** Fit      -0.003392
 **** Fit      -0.003634
 **** Fit      -0.003122
 **** Fit      -0.000907
 **** Fit      -0.001988
 **** Fit      -0.002556
 **** Fit      -0.003274
 **** Fit      -0.004178
 **** Fit      -0.005180
 **** Fit      -0.006013
 **** Fit      -0.006291
 **** Fit      -0.005766
 **** Fit      -0.001007
 **** Fit      -0.001494
 **** Fit      -0.002903
 **** Fit      -0.003510
 **** Fit      -0.004277
 **** Fit      -0.005284
 **** Fit      -0.006568
 **** Fit      -0.008064
 **** Fit      -0.009520
 **** Fit      -0.010490
 **** Fit      -0.010522
 **** Fit      -0.001822
 **** Fit      -0.002366
 **** Fit      -0.004165
 **** Fit      -0.004858
 **** Fit      -0.005732
 **** Fit      -0.006893
 **** Fit      -0.008438
 **** Fit      -0.010429
 **** Fit      -0.012804
 **** Fit      -0.015248
 **** Fit      -0.002931
 **** Fit      -0.003553
 **** Fit      -0.005806
 **** Fit      -0.006599
 **** Fit      -0.007593
 **** Fit      -0.008905
 **** Fit      -0.010671
 **** Fit      -0.013037
 **** Fit      -0.016123
 **** Fit      -0.004407
 **** Fit      -0.005108
 **** Fit      -0.007870
 **** Fit      -0.008834
 **** Fit      -0.010053
 **** Fit      -0.011675
 **** Fit      -0.013887
 **** Fit      -0.016934
 **** Fit      -0.021109
 **** Fit      -0.006198
 **** Fit      -0.007031
 **** Fit      -0.010415
 **** Fit      -0.011562
 **** Fit      -0.013019
 **** Fit      -0.014959
 **** Fit      -0.017614
 **** Fit      -0.021314
 **** Fit      -0.009429
 **** Fit      -0.013520
 **** Fit      -0.014890
 **** Fit      -0.016651
 **** Fit      -0.019010
 **** Fit      -0.022252
 **** Fit      -0.026813
 **** Fit      -0.012362
 **** Fit      -0.017285
 **** Fit      -0.018971
 **** Fit      -0.021200
 **** Fit      -0.024248
 **** Fit      -0.028513
 **** Fit      -0.023892
 **** Fit      -0.026732
 **** Fit      -0.030720
 **** Fit      -0.033131
 **** Fit      -0.038087
 **** Fit      -0.009221
 **** Fit       0.053781
 **** Fit       0.052322
 **** Fit       0.050486
 **** Fit       0.048081
 **** Fit       0.044943
 **** Fit       0.040888
 **** Fit       0.035618
 **** Fit      -0.000482
 **** Fit      -0.003998
 **** Fit      -0.008667
 **** Fit      -0.011086
 **** Fit      -0.006045
 **** Fit       0.048741
 **** Fit       0.048325
 **** Fit       0.047278
 **** Fit       0.045624
 **** Fit       0.043281
 **** Fit       0.040124
 **** Fit       0.035971
 **** Fit       0.030605
 **** Fit       0.023939
 **** Fit       0.011777
 **** Fit       0.008040
 **** Fit       0.004576
 **** Fit       0.000814
 **** Fit      -0.002998
 **** Fit      -0.005906
 **** Fit      -0.007047
 **** Fit      -0.006410
 **** Fit      -0.004370
 **** Fit      -0.000889
 **** Fit       0.004067
 **** Fit       0.010096
 **** Fit       0.041536
 **** Fit       0.043534
 **** Fit       0.044094
 **** Fit       0.043645
 **** Fit       0.042356
 **** Fit       0.040229
 **** Fit       0.037185
 **** Fit       0.033121
 **** Fit       0.028026
 **** Fit       0.022220
 **** Fit       0.016519
 **** Fit       0.016503
 **** Fit       0.012563
 **** Fit       0.008955
 **** Fit       0.005617
 **** Fit       0.003008
 **** Fit       0.001773
 **** Fit       0.002189
 **** Fit       0.004196
 **** Fit       0.007727
 **** Fit       0.012587
 **** Fit       0.018356
 **** Fit       0.024543
 **** Fit       0.030473
 **** Fit       0.035281
 **** Fit       0.038428
 **** Fit       0.039955
 **** Fit       0.040161
 **** Fit       0.039266
 **** Fit       0.037352
 **** Fit       0.034426
 **** Fit       0.030525
 **** Fit       0.025875
 **** Fit       0.021002
 **** Fit       0.019839
 **** Fit       0.015912
 **** Fit       0.012546
 **** Fit       0.010078
 **** Fit       0.009062
 **** Fit       0.009852
 **** Fit       0.012460
 **** Fit       0.016633
 **** Fit       0.021813
 **** Fit       0.027193
 **** Fit       0.031835
 **** Fit       0.035006
 **** Fit       0.036487
 **** Fit       0.036412
 **** Fit       0.034950
 **** Fit       0.032237
 **** Fit       0.028492
 **** Fit       0.024162
 **** Fit       0.022229
 **** Fit       0.018366
 **** Fit       0.015807
 **** Fit       0.015394
 **** Fit       0.017520
 **** Fit       0.021719
 **** Fit       0.026699
 **** Fit       0.030808
 **** Fit       0.032882
 **** Fit       0.032641
 **** Fit       0.030335
 **** Fit       0.026548
 **** Fit       0.023949
 **** Fit       0.020780
 **** Fit       0.021719
 **** Fit       0.026060
 **** Fit       0.029165
 **** Fit       0.028018
 **** Fit       0.025181
 **** Fit       0.018717
 **** Fit       0.023747
 **** Fit       0.029798
 **** Fit       0.028832
 **** Fit       0.035391
 **** Fit       0.034368
 **** Fit       0.033625
 **** Fit       0.041489
 **** Fit       0.039638
 **** Fit       0.038419
 **** Fit       0.037626
 **** Fit       0.037304
 **** Fit       0.044547
 **** Fit       0.042565
 **** Fit       0.041327
 **** Fit       0.040600
 **** Fit       0.048886
 **** Fit       0.046070
 **** Fit       0.044363
 **** Fit       0.043326
 **** Fit       0.042757
 **** Fit       0.050327
 **** Fit       0.047688
 **** Fit       0.046067
 **** Fit       0.045037
 **** Fit       0.044342
 **** Fit       0.051142
 **** Fit       0.048881
 **** Fit       0.047403
 **** Fit       0.046330
 **** Fit       0.045355
 **** Fit       0.053457
 **** Fit       0.050959
 **** Fit       0.049279
 **** Fit       0.047999
 **** Fit       0.046737
 **** Fit       0.045060
 **** Fit       0.055503
 **** Fit       0.053101
 **** Fit       0.051398
 **** Fit       0.050092
 -----------------------------------------------------------------
 Leave Link  602 at Mon Sep 16 17:40:41 2019, MaxMem=  4294967296 cpu:       151.5

 Test job not archived.
 1\1\GINC-N003\SP\RB3LYP\SVP\C54H83Ca1N15O23\PCIEPLAK\16-Sep-2019\0\\#m
 axdisk=50GB #B3LYP/SVP Density=Current scf=(tight) #IOP(5/87=12)Pop=(M
 K,readradii) iop(6/33=2) iop(6/42=6)\\SOL molecule\\0,1\C,0,-4.895,56.
 69,102.81\C,0,-3.805,57.6,102.26\O,0,-2.735,57.19,101.81\H,0,-5.793,56
 .791,102.201\H,0,-4.553,55.655,102.784\H,0,-5.121,56.973,103.838\N,0,-
 3.985,58.91,102.44\C,0,-2.925,59.89,102.29\C,0,-2.125,59.92,103.58\O,0
 ,-2.675,60.27,104.63\C,0,-3.455,61.27,101.92\C,0,-2.255,62.19,101.76\O
 ,0,-1.925,63.04,102.62\O,0,-1.665,62.09,100.67\H,0,-4.775,59.16,103.03
 \H,0,-2.205,59.68,101.5\H,0,-4.215,61.61,102.63\H,0,-3.995,61.24,100.9
 7\N,0,-0.825,59.63,103.46\C,0,0.155,59.42,104.5\C,0,1.285,60.4,104.74\
 O,0,2.075,60.23,105.67\C,0,0.805,58.06,104.28\C,0,-0.035,56.79,104.4\C
 ,0,-0.955,56.73,105.61\C,0,-1.155,55.25,105.91\N,0,-2.055,54.62,104.93
 \H,0,-0.605,59.24,102.55\H,0,-0.375,59.45,105.46\H,0,1.695,57.93,104.9
 \H,0,1.285,58.06,103.3\H,0,0.605,55.91,104.32\H,0,-0.675,56.81,103.52\
 H,0,-1.865,57.33,105.61\H,0,-0.285,57.07,106.4\H,0,-1.635,55.19,106.88
 \H,0,-0.195,54.74,106.\H,0,-1.625,54.56,104.02\H,0,-2.275,53.66,105.17
 \H,0,-2.925,55.12,104.84\N,0,1.285,61.44,103.9\C,0,2.205,62.56,103.98\
 C,0,1.675,63.98,104.11\O,0,2.425,64.93,104.33\C,0,3.215,62.43,102.84\C
 ,0,2.525,62.36,101.48\O,0,2.655,61.31,100.81\O,0,1.875,63.3,100.98\H,0
 ,0.525,61.43,103.23\H,0,2.795,62.36,104.88\H,0,3.645,61.44,102.97\H,0,
 3.975,63.2,102.91\N,0,0.375,64.15,103.87\C,0,-0.245,65.44,104.09\C,0,-
 0.725,66.29,102.92\O,0,-1.295,67.35,103.17\H,0,-0.195,63.34,103.71\H,0
 ,0.435,66.12,104.6\H,0,-1.185,65.4,104.63\N,0,-0.465,65.9,101.67\C,0,-
 0.945,66.63,100.52\C,0,-2.295,66.24,99.95\O,0,-2.825,66.86,99.02\C,0,0
 .115,66.71,99.42\C,0,0.355,65.43,98.64\N,0,1.065,65.57,97.51\O,0,-0.16
 5,64.34,98.84\H,0,-0.015,65.,101.6\H,0,-0.925,67.67,100.85\H,0,1.065,6
 7.08,99.8\H,0,-0.205,67.54,98.78\H,0,1.365,66.53,97.37\H,0,1.185,64.89
 ,96.78\N,0,-2.885,65.19,100.53\C,0,-4.215,64.73,100.19\C,0,-4.345,64.1
 ,98.81\O,0,-5.475,64.05,98.33\H,0,-2.345,64.82,101.3\H,0,-4.835,65.62,
 100.28\H,0,-4.635,64.03,100.92\N,0,-3.215,63.69,98.24\C,0,-3.245,63.06
 ,96.94\C,0,-2.555,61.71,97.06\O,0,-1.465,61.64,97.62\C,0,-2.605,63.93,
 95.86\C,0,-3.125,65.34,95.73\C,0,-2.165,66.36,95.63\C,0,-4.495,65.58,9
 5.69\C,0,-2.695,67.62,95.33\C,0,-4.995,66.86,95.43\C,0,-4.075,67.9,95.
 21\O,0,-4.415,69.17,94.83\H,0,-2.435,63.69,98.89\H,0,-4.265,62.77,96.6
 7\H,0,-2.765,63.45,94.9\H,0,-1.525,63.89,96.\H,0,-1.105,66.18,95.77\H,
 0,-5.205,64.8,95.91\H,0,-2.035,68.44,95.13\H,0,-6.065,67.06,95.45\H,0,
 -5.365,69.19,94.7\N,0,-3.065,60.59,96.53\C,0,-2.475,59.29,96.77\C,0,-1
 .485,59.04,95.65\O,0,-1.835,59.27,94.49\C,0,-3.505,58.16,96.86\C,0,-4.
 785,58.56,97.59\C,0,-2.825,56.92,97.42\C,0,-4.675,59.03,99.03\H,0,-4.0
 05,60.69,96.17\H,0,-2.115,59.33,97.8\H,0,-3.735,58.,95.81\H,0,-5.415,5
 7.67,97.65\H,0,-5.385,59.24,96.98\H,0,-3.605,56.16,97.34\H,0,-1.975,56
 .54,96.85\H,0,-2.435,57.13,98.42\H,0,-4.165,58.3,99.66\H,0,-4.105,59.9
 6,99.1\H,0,-5.695,59.07,99.42\N,0,-0.255,58.63,95.98\C,0,0.785,58.26,9
 5.05\C,0,1.125,56.79,95.25\O,0,0.535,56.07,96.05\C,0,1.955,59.22,95.17
 \O,0,2.645,59.07,96.39\H,0,-0.025,58.56,96.97\H,0,0.425,58.37,94.02\H,
 0,1.535,60.23,95.1\H,0,2.675,58.94,94.4\H,0,2.025,59.26,97.09\N,0,2.02
 5,56.18,94.48\C,0,2.185,54.75,94.33\C,0,2.525,53.99,95.6\O,0,1.875,53.
 01,95.94\C,0,3.275,54.6,93.28\H,0,2.505,56.76,93.8\H,0,1.305,54.31,93.
 86\H,0,3.425,53.53,93.19\H,0,2.995,54.93,92.28\H,0,4.275,54.89,93.6\N,
 0,3.475,54.45,96.43\C,0,3.855,53.76,97.64\C,0,2.785,53.82,98.71\O,0,2.
 505,52.91,99.49\C,0,5.185,54.34,98.13\H,0,3.925,55.34,96.26\H,0,4.065,
 52.71,97.44\H,0,5.515,53.94,99.09\H,0,5.885,54.12,97.33\H,0,4.925,55.3
 9,98.28\N,0,2.075,54.95,98.72\C,0,0.855,55.06,99.5\C,0,-0.265,54.14,99
 .05\O,0,-0.825,53.46,99.91\C,0,0.295,56.48,99.45\C,0,1.245,57.47,100.1
 \C,0,0.685,58.86,99.83\O,0,0.355,59.53,100.83\O,0,0.645,59.22,98.63\H,
 0,2.285,55.64,98.01\H,0,1.135,54.75,100.5\H,0,-0.675,56.51,99.94\H,0,0
 .085,56.73,98.41\H,0,2.245,57.45,99.66\H,0,1.475,57.32,101.15\N,0,-0.6
 35,53.97,97.78\C,0,-1.515,53.,97.15\H,0,-2.42,53.501,96.807\H,0,-1.007
 ,52.546,96.299\H,0,-1.779,52.226,97.871\H,0,-0.265,54.64,97.12\Ca,0,0.
 5,61.8,99.36\O,0,1.78,62.46,97.23\H,0,2.71,62.63,97.09\H,0,1.39,62.58,
 96.36\\Version=ES64L-G09RevD.01\State=1-A\HF=-5333.641038\RMSD=3.932e-
 09\Dipole=-0.8536603,-8.6226875,-1.1457141\Quadrupole=1.2644188,-46.38
 28776,45.1184588,36.5613838,-73.0934969,-110.5213149\PG=C01 [X(C54H83C
 a1N15O23)]\\@


 I WOULD TAKE COUNSEL OF MYSELF.
 I WOULD STOP AND LOOK WITHIN
 AND LOOKING WITHIN, LOOK BACK, ALSO
 THAT I MAY LOOK AHEAD WITH CLEARER UNDERSTANDING
 OF THE WAY I HAVE BEEN MOVING, AND IN WHAT DIRECTION.
 I NEED TO KNOW IF I AM GOING FORWARD OR RETREATING,
 WHETHER I HAVE BEEN WASTING, OR ENJOYING
 THE PRECIOUS MOMENTS OF LIFE.  THERE HAVE BEEN FRICTIONS,
 ANNOYANCES AND SOMETIMES WRATH,
 BUT WERE THEY BECAUSE I WAS RIGHT AND OTHERS WRONG.....
 HAVE I HAD MY THOUGHTS TOO SHARPLY FOCUSED
 ON THAT WHICH PLEASED ME, SERVED MY SELF-ESTEEM,
 UNDERGIRDED MY SECURITY,
 OF WHICH I DID NOT INQUIRE WHETHER IT SERVED OR HAMPERED OTHERS.....
 HAVE I BEEN TRYING TO STOP THE CLOCK
 TO HOLD THE WORLD
 IN PERPETUATION OF WHAT WAS AN IS ALREADY SLIPPING AWAY.....
 HAVE I BEEN CRITICAL OF OTHERS FOR WHAT REALLY NEEDED CHANGING IN ME...
 LET ME INDEED TAKE COUNSEL OF MYSELF
 AND SET MY DIRECTIONS STRAIGHT.

                          R.T. WESTON AS ADAPTED BY D. OSBORN 1967
 Job cpu time:       0 days 13 hours 25 minutes 38.4 seconds.
 File lengths (MBytes):  RWF=   1513 Int=      0 D2E=      0 Chk=    103 Scr=      1
 Normal termination of Gaussian 09 at Mon Sep 16 17:40:41 2019.
