 Entering Gaussian System, Link 0=g16
 Initial command:
 /home1/apps/gaussian/16rA.03/g16/l1.exe "/scratch/04905/jaebeomh/4357446/Gau-289646.inp" -scrdir="/scratch/04905/jaebeomh/4357446/"
 Entering Link 1 = /home1/apps/gaussian/16rA.03/g16/l1.exe PID=    289647.
  
 Copyright (c) 1988,1990,1992,1993,1995,1998,2003,2009,2016,
            Gaussian, Inc.  All Rights Reserved.
  
 This is part of the Gaussian(R) 16 program.  It is based on
 the Gaussian(R) 09 system (copyright 2009, Gaussian, Inc.),
 the Gaussian(R) 03 system (copyright 2003, Gaussian, Inc.),
 the Gaussian(R) 98 system (copyright 1998, Gaussian, Inc.),
 the Gaussian(R) 94 system (copyright 1995, Gaussian, Inc.),
 the Gaussian 92(TM) system (copyright 1992, Gaussian, Inc.),
 the Gaussian 90(TM) system (copyright 1990, Gaussian, Inc.),
 the Gaussian 88(TM) system (copyright 1988, Gaussian, Inc.),
 the Gaussian 86(TM) system (copyright 1986, Carnegie Mellon
 University), and the Gaussian 82(TM) system (copyright 1983,
 Carnegie Mellon University). Gaussian is a federally registered
 trademark of Gaussian, Inc.
  
 This software contains proprietary and confidential information,
 including trade secrets, belonging to Gaussian, Inc.
  
 This software is provided under written license and may be
 used, copied, transmitted, or stored only in accord with that
 written license.
  
 The following legend is applicable only to US Government
 contracts under FAR:
  
                    RESTRICTED RIGHTS LEGEND
  
 Use, reproduction and disclosure by the US Government is
 subject to restrictions as set forth in subparagraphs (a)
 and (c) of the Commercial Computer Software - Restricted
 Rights clause in FAR 52.227-19.
  
 Gaussian, Inc.
 340 Quinnipiac St., Bldg. 40, Wallingford CT 06492
  
  
 ---------------------------------------------------------------
 Warning -- This program may not be used in any manner that
 competes with the business of Gaussian, Inc. or will provide
 assistance to any competitor of Gaussian, Inc.  The licensee
 of this program is prohibited from giving any competitor of
 Gaussian, Inc. access to this program.  By using this program,
 the user acknowledges that Gaussian, Inc. is engaged in the
 business of creating and licensing software in the field of
 computational chemistry and represents and warrants to the
 licensee that it is not a competitor of Gaussian, Inc. and that
 it will not use this program in any manner prohibited above.
 ---------------------------------------------------------------
  

 Cite this work as:
 Gaussian 16, Revision A.03,
 M. J. Frisch, G. W. Trucks, H. B. Schlegel, G. E. Scuseria, 
 M. A. Robb, J. R. Cheeseman, G. Scalmani, V. Barone, 
 G. A. Petersson, H. Nakatsuji, X. Li, M. Caricato, A. V. Marenich, 
 J. Bloino, B. G. Janesko, R. Gomperts, B. Mennucci, H. P. Hratchian, 
 J. V. Ortiz, A. F. Izmaylov, J. L. Sonnenberg, D. Williams-Young, 
 F. Ding, F. Lipparini, F. Egidi, J. Goings, B. Peng, A. Petrone, 
 T. Henderson, D. Ranasinghe, V. G. Zakrzewski, J. Gao, N. Rega, 
 G. Zheng, W. Liang, M. Hada, M. Ehara, K. Toyota, R. Fukuda, 
 J. Hasegawa, M. Ishida, T. Nakajima, Y. Honda, O. Kitao, H. Nakai, 
 T. Vreven, K. Throssell, J. A. Montgomery, Jr., J. E. Peralta, 
 F. Ogliaro, M. J. Bearpark, J. J. Heyd, E. N. Brothers, K. N. Kudin, 
 V. N. Staroverov, T. A. Keith, R. Kobayashi, J. Normand, 
 K. Raghavachari, A. P. Rendell, J. C. Burant, S. S. Iyengar, 
 J. Tomasi, M. Cossi, J. M. Millam, M. Klene, C. Adamo, R. Cammi, 
 J. W. Ochterski, R. L. Martin, K. Morokuma, O. Farkas, 
 J. B. Foresman, and D. J. Fox, Gaussian, Inc., Wallingford CT, 2016.
 
 ******************************************
 Gaussian 16:  ES64L-G16RevA.03 25-Dec-2016
                18-Sep-2019 
 ******************************************
 %chk=holoCaM_loop3_32.0.chk
 %nprocshared=48
 Will use up to   48 processors via shared memory.
 %mem=10GB
 %nosave
 ----------------------------------------------------------------------
 #b3lyp/svp scf=(tight,noincore) Test #IOP(5/87=12) Density=Current Pop
 =(MK,readradii) iop(6/33=2) iop(6/42=6)
 ----------------------------------------------------------------------
 1/30=1,38=1,172=1/1;
 2/12=2,17=6,18=5,40=1/2;
 3/5=18,7=101,11=2,25=1,30=1,74=-5/1,2,3;
 4//1;
 5/5=4,32=2,38=5,87=12/2;
 6/7=2,8=2,9=2,10=2,15=8,20=101,22=-1,28=1,33=2,42=6/1,2;
 99/5=1,9=1/99;
 ------------------
 holoCaM_loop3_32.0
 ------------------
 Symbolic Z-matrix:
 Charge =  0 Multiplicity = 1
 C                     37.41     46.66     42. 
 C                     37.83     46.43     43.45 
 O                     36.96     45.96     44.18 
 H                     36.56     47.342    41.972 
 H                     38.242    47.094    41.445 
 H                     37.127    45.709    41.548 
 N                     39.06     46.76     43.86 
 C                     39.44     46.73     45.26 
 C                     39.08     48.03     45.98 
 O                     39.7      49.04     45.68 
 C                     40.89     46.35     45.52 
 C                     41.24     46.29     47. 
 O                     40.36     46.55     47.85 
 O                     42.41     45.99     47.32 
 H                     39.76     46.82     43.14 
 H                     38.85     45.96     45.75 
 H                     41.61     47.05     45.07 
 H                     41.09     45.34     45.16 
 N                     38.07     47.91     46.84 
 C                     37.44     49.08     47.42 
 C                     38.3      49.81     48.45 
 O                     38.47     51.       48.19 
 C                     36.06     48.7      47.93 
 C                     35.13     49.79     48.46 
 C                     33.7      49.26     48.32 
 C                     32.64     50.27     48.76 
 N                     31.26     49.77     48.85 
 H                     37.61     47.03     47.02 
 H                     37.32     49.7      46.53 
 H                     36.13     48.02     48.78 
 H                     35.59     48.13     47.13 
 H                     35.17     50.77     47.99 
 H                     35.43     49.83     49.5 
 H                     33.67     48.39     48.97 
 H                     33.56     49.04     47.26 
 H                     32.77     51.13     48.1 
 H                     32.88     50.6      49.77 
 H                     31.26     48.84     49.25 
 H                     30.65     50.38     49.38 
 H                     30.79     49.67     47.96 
 N                     38.74     49.09     49.48 
 C                     39.58     49.58     50.56 
 C                     41.07     49.54     50.29 
 O                     41.81     50.08     51.1 
 C                     39.23     48.81     51.83 
 C                     39.84     47.42     51.98 
 O                     40.05     46.76     50.94 
 O                     40.03     47.01     53.15 
 H                     38.34     48.17     49.63 
 H                     39.36     50.63     50.76 
 H                     38.14     48.87     51.88 
 H                     39.63     49.36     52.68 
 N                     41.59     48.96     49.2 
 C                     42.98     49.11     48.82 
 C                     43.85     48.07     49.52 
 O                     45.04     48.34     49.62 
 H                     40.98     48.59     48.49 
 H                     43.3      50.08     49.2 
 H                     43.01     49.18     47.73 
 N                     43.38     46.94     50.05 
 C                     44.16     45.96     50.79 
 C                     44.88     44.93     49.94 
 O                     45.43     43.93     50.4 
 C                     43.35     45.39     51.95 
 C                     42.38     44.29     51.51 
 N                     42.03     43.32     52.35 
 O                     41.96     44.3      50.36 
 H                     42.39     46.74     49.99 
 H                     44.92     46.58     51.26 
 H                     42.91     46.16     52.59 
 H                     44.07     44.88     52.6 
 H                     42.43     43.09     53.25 
 H                     41.27     42.74     52.04 
 N                     44.74     45.13     48.62 
 C                     45.4      44.23     47.69 
 C                     44.65     42.95     47.37 
 O                     45.24     41.95     46.98 
 H                     44.11     45.89     48.4 
 H                     46.36     43.83     48.04 
 H                     45.7      44.8      46.81 
 N                     43.33     42.98     47.62 
 C                     42.37     41.93     47.38 
 C                     40.99     42.52     47.11 
 O                     40.57     43.54     47.64 
 C                     42.31     40.99     48.59 
 C                     43.56     40.33     49.1 
 C                     44.02     40.58     50.39 
 C                     44.24     39.39     48.31 
 C                     45.18     39.97     50.9 
 C                     45.32     38.67     48.85 
 C                     45.85     39.03     50.1 
 O                     46.96     38.42     50.62 
 H                     42.96     43.84     47.98 
 H                     42.72     41.28     46.57 
 H                     41.62     40.17     48.36 
 H                     41.9      41.57     49.42 
 H                     43.45     41.23     51.04 
 H                     43.9      39.14     47.32 
 H                     45.68     40.33     51.79 
 H                     45.81     37.89     48.28 
 H                     47.49     37.87     50.04 
 N                     40.2      41.71     46.41 
 C                     38.77     41.82     46.16 
 C                     38.06     40.78     47. 
 O                     38.42     39.6      46.98 
 C                     38.38     41.62     44.7 
 C                     39.01     42.71     43.85 
 C                     36.87     41.73     44.5 
 C                     38.94     42.44     42.34 
 H                     40.62     40.83     46.14 
 H                     38.51     42.78     46.61 
 H                     38.77     40.66     44.37 
 H                     40.08     42.8      44.05 
 H                     38.56     43.69     43.93 
 H                     36.42     40.93     45.08 
 H                     36.58     42.69     44.92 
 H                     36.59     41.7      43.44 
 H                     39.54     43.19     41.82 
 H                     39.3      41.42     42.17 
 H                     37.92     42.49     41.99 
 N                     37.       41.15     47.73 
 C                     36.01     40.32     48.39 
 C                     34.64     40.41     47.72 
 O                     34.35     41.34     46.97 
 C                     35.89     40.77     49.84 
 O                     35.58     42.14     49.94 
 H                     36.81     42.14     47.82 
 H                     36.37     39.3      48.3 
 H                     36.79     40.45     50.35 
 H                     35.12     40.17     50.34 
 H                     36.29     42.67     49.57 
 N                     33.76     39.47     48.06 
 C                     32.45     39.45     47.44 
 C                     31.68     40.76     47.5 
 O                     31.06     41.13     46.51 
 C                     31.69     38.29     48.08 
 H                     33.94     38.73     48.72 
 H                     32.57     39.14     46.4 
 H                     32.3      37.4      48.22 
 H                     31.28     38.57     49.05 
 H                     30.88     38.01     47.41 
 N                     31.6      41.44     48.65 
 C                     30.88     42.69     48.8 
 C                     31.34     43.76     47.83 
 O                     30.63     44.66     47.38 
 C                     31.09     43.19     50.22 
 H                     32.1      41.08     49.45 
 H                     29.8      42.53     48.69 
 H                     30.9      42.4      50.94 
 H                     32.14     43.47     50.23 
 H                     30.52     44.1      50.39 
 N                     32.62     43.64     47.44 
 C                     33.21     44.61     46.54 
 C                     33.05     44.29     45.06 
 O                     32.85     45.23     44.28 
 C                     34.72     44.64     46.8 
 C                     35.01     45.07     48.23 
 C                     36.51     44.97     48.49 
 O                     37.17     43.91     48.44 
 O                     37.2      46.       48.66 
 H                     33.13     42.79     47.62 
 H                     32.73     45.57     46.68 
 H                     35.23     45.45     46.28 
 H                     35.17     43.66     46.65 
 H                     34.45     44.43     48.9 
 H                     34.73     46.12     48.37 
 N                     32.89     43.02     44.71 
 C                     32.48     42.65     43.37 
 H                     31.621    43.252    43.074 
 H                     33.302    42.826    42.676 
 H                     32.207    41.595    43.351 
 H                     32.98     42.4      45.51 
 Ca                    39.33     44.94     49.45 
 O                     37.87     44.65     51.61 
 H                     38.1      43.94     52.21 
 H                     37.07     45.03     51.99 
 
 Stoichiometry    C54H83CaN15O23
 Framework group  C1[X(C54H83CaN15O23)]
 Deg. of freedom   522
 Full point group                 C1      NOp   1
 Largest Abelian subgroup         C1      NOp   1
 Largest concise Abelian subgroup C1      NOp   1
                         Standard orientation:                         
 ---------------------------------------------------------------------
 Center     Atomic      Atomic             Coordinates (Angstroms)
 Number     Number       Type             X           Y           Z
 ---------------------------------------------------------------------
      1          6           0        2.364296    1.551763    5.898755
      2          6           0        1.646036    1.456225    4.554592
      3          8           0        2.353141    1.129190    3.603933
      4          1           0        3.170875    2.281752    5.828366
      5          1           0        1.657293    1.865024    6.667273
      6          1           0        2.778551    0.577609    6.159926
      7          7           0        0.343509    1.746640    4.459817
      8          6           0       -0.333022    1.846557    3.180120
      9          6           0       -0.193738    3.239446    2.564930
     10          8           0       -0.773807    4.166283    3.111732
     11          6           0       -1.787814    1.401617    3.190556
     12          6           0       -2.451430    1.482653    1.823242
     13          8           0       -1.790992    1.893443    0.843665
     14          8           0       -3.649766    1.142404    1.725652
     15          1           0       -0.183200    1.679592    5.314266
     16          1           0        0.166206    1.176742    2.484980
     17          1           0       -2.419655    1.997760    3.866048
     18          1           0       -1.862122    0.346861    3.458263
     19          7           0        0.606872    3.283228    1.501348
     20          6           0        1.045424    4.549752    0.948367
     21          6           0       -0.049047    5.330212    0.222824
     22          8           0       -0.206683    6.470049    0.657016
     23          6           0        2.294236    4.321686    0.113289
     24          6           0        3.039480    5.523399   -0.464980
     25          6           0        4.485913    5.077941   -0.699071
     26          6           0        5.380928    6.199048   -1.227623
     27          7           0        6.726892    5.805470   -1.670315
     28          1           0        1.051975    2.461311    1.120907
     29          1           0        1.332254    5.073985    1.861499
     30          1           0        2.067396    3.736869   -0.779086
     31          1           0        2.951476    3.699285    0.718643
     32          1           0        3.063315    6.440431    0.119301
     33          1           0        2.517083    5.658201   -1.404198
     34          1           0        4.408282    4.289253   -1.442203
     35          1           0        4.864159    4.751740    0.271560
     36          1           0        5.363693    6.970027   -0.454711
     37          1           0        4.911656    6.622101   -2.114985
     38          1           0        6.677378    4.927591   -2.172088
     39          1           0        7.179993    6.509826   -2.239247
     40          1           0        7.384533    5.639151   -0.920084
     41          7           0       -0.674409    4.700935   -0.770067
     42          6           0       -1.750478    5.250287   -1.577772
     43          6           0       -3.141903    5.081112   -1.003387
     44          8           0       -4.063280    5.656824   -1.564565
     45          6           0       -1.656434    4.650823   -2.977807
     46          6           0       -2.226701    3.248341   -3.163655
     47          8           0       -2.175880    2.464657   -2.191772
     48          8           0       -2.651885    2.958677   -4.307514
     49          1           0       -0.279555    3.832020   -1.113547
     50          1           0       -1.623195    6.328322   -1.689749
     51          1           0       -0.607425    4.788723   -3.251237
     52          1           0       -2.255597    5.263610   -3.648998
     53          7           0       -3.385566    4.350494    0.092845
     54          6           0       -4.663193    4.364224    0.775839
     55          6           0       -5.622058    3.352339    0.155221
     56          8           0       -6.815064    3.551596    0.345043
     57          1           0       -2.619861    3.945740    0.605650
     58          1           0       -5.098488    5.346770    0.594674
     59          1           0       -4.456010    4.310899    1.847349
     60          7           0       -5.233752    2.321958   -0.597264
     61          6           0       -6.116144    1.380016   -1.268479
     62          6           0       -6.588911    0.216393   -0.417437
     63          8           0       -7.184818   -0.761020   -0.868724
     64          6           0       -5.557811    0.997438   -2.635409
     65          6           0       -4.470413   -0.077209   -2.550571
     66          7           0       -4.273725   -0.922620   -3.558338
     67          8           0       -3.808956   -0.166594   -1.524176
     68          1           0       -4.247357    2.183174   -0.774645
     69          1           0       -6.985665    1.996059   -1.486022
     70          1           0       -5.301155    1.861269   -3.255106
     71          1           0       -6.381318    0.515588   -3.174534
     72          1           0       -4.851738   -1.077741   -4.373653
     73          1           0       -3.440979   -1.481277   -3.490976
     74          7           0       -6.170882    0.277865    0.856719
     75          6           0       -6.572955   -0.761701    1.788460
     76          6           0       -5.718930   -2.016252    1.781798
     77          8           0       -6.167209   -3.090486    2.162936
     78          1           0       -5.539803    1.049225    1.028891
     79          1           0       -7.569064   -1.183748    1.604767
     80          1           0       -6.695649   -0.314017    2.775285
     81          7           0       -4.488407   -1.870572    1.261807
     82          6           0       -3.456725   -2.874156    1.161049
     83          6           0       -2.076618   -2.226769    1.200981
     84          8           0       -1.825604   -1.128560    0.722829
     85          6           0       -3.625178   -3.668223   -0.139866
     86          6           0       -4.928378   -4.349749   -0.448721
     87          6           0       -5.670270   -3.989717   -1.570405
     88          6           0       -5.379036   -5.414809    0.346675
     89          6           0       -6.887804   -4.615647   -1.892311
     90          6           0       -6.520647   -6.141144   -0.034852
     91          6           0       -7.326518   -5.681146   -1.089353
     92          8           0       -8.497511   -6.302626   -1.431609
     93          1           0       -4.242216   -0.953191    0.939470
     94          1           0       -3.593274   -3.631808    1.941061
     95          1           0       -2.868343   -4.460682   -0.164561
     96          1           0       -3.431653   -2.973757   -0.960636
     97          1           0       -5.284152   -3.235080   -2.242220
     98          1           0       -4.819977   -5.749634    1.203148
     99          1           0       -7.585395   -4.193518   -2.604261
    100          1           0       -6.840996   -7.010479    0.526426
    101          1           0       -8.864127   -6.947676   -0.823906
    102          7           0       -1.119534   -3.054685    1.611766
    103          6           0        0.324689   -2.877706    1.562788
    104          6           0        0.875164   -3.768463    0.469705
    105          8           0        0.577253   -4.964827    0.421106
    106          6           0        1.033613   -3.211667    2.870303
    107          6           0        0.561253   -2.267090    3.962160
    108          6           0        2.544837   -3.023802    2.755809
    109          6           0        0.972124   -2.697393    5.377760
    110          1           0       -1.433397   -3.985272    1.855072
    111          1           0        0.439782   -1.858550    1.188924
    112          1           0        0.765460   -4.226222    3.155561
    113          1           0       -0.529326   -2.227222    4.007400
    114          1           0        0.941954   -1.256383    3.908890
    115          1           0        2.889079   -3.722754    1.999593
    116          1           0        2.695758   -2.005963    2.404629
    117          1           0        3.051719   -3.152240    3.719901
    118          1           0        0.470559   -2.051401    6.101658
    119          1           0        0.700556   -3.751716    5.494178
    120          1           0        2.041133   -2.618394    5.505741
    121          7           0        1.732869   -3.249856   -0.418432
    122          6           0        2.587137   -3.933597   -1.370968
    123          6           0        4.065911   -3.826981   -1.002507
    124          8           0        4.474939   -2.968482   -0.223293
    125          6           0        2.367225   -3.318751   -2.746832
    126          8           0        2.591009   -1.928465   -2.741818
    127          1           0        1.857532   -2.245505   -0.424752
    128          1           0        2.298005   -4.979059   -1.332093
    129          1           0        1.391177   -3.639737   -3.088589
    130          1           0        3.032707   -3.806854   -3.469182
    131          1           0        1.958353   -1.491364   -2.166850
    132          7           0        4.887745   -4.662595   -1.634913
    133          6           0        6.301587   -4.663527   -1.315619
    134          6           0        6.985001   -3.306417   -1.377237
    135          8           0        7.791448   -3.007735   -0.504407
    136          6           0        6.949651   -5.692086   -2.240217
    137          1           0        4.597870   -5.335306   -2.327035
    138          1           0        6.425719   -5.094137   -0.319995
    139          1           0        6.360985   -6.599877   -2.355052
    140          1           0        7.124796   -5.279591   -3.233481
    141          1           0        7.897814   -5.989796   -1.797774
    142          7           0        6.782491   -2.499407   -2.425581
    143          6           0        7.399880   -1.195166   -2.571137
    144          6           0        7.120394   -0.272348   -1.401652
    145          8           0        7.874181    0.617708   -1.006424
    146          6           0        6.862833   -0.556124   -3.841454
    147          1           0        6.134314   -2.801196   -3.138595
    148          1           0        8.483331   -1.293808   -2.714330
    149          1           0        6.922496   -1.247035   -4.676728
    150          1           0        5.825637   -0.347561   -3.593009
    151          1           0        7.343626    0.403162   -4.016122
    152          7           0        5.963304   -0.520104   -0.765523
    153          6           0        5.545854    0.302618    0.351556
    154          6           0        6.039923   -0.167926    1.712763
    155          8           0        6.367400    0.691150    2.541465
    156          6           0        4.015691    0.260222    0.425062
    157          6           0        3.401353    0.825612   -0.846481
    158          6           0        1.886292    0.654977   -0.791049
    159          8           0        1.297606   -0.445773   -0.731910
    160          8           0        1.133979    1.649025   -0.682442
    161          1           0        5.461682   -1.377116   -0.935538
    162          1           0        5.943448    1.302144    0.231281
    163          1           0        3.599380    0.971725    1.137136
    164          1           0        3.650358   -0.758239    0.546183
    165          1           0        3.826466    0.302637   -1.693757
    166          1           0        3.600293    1.901012   -0.913090
    167          7           0        6.325031   -1.455324    1.862160
    168          6           0        7.034106   -1.943228    3.028248
    169          1           0        7.911592   -1.321649    3.205900
    170          1           0        6.377994   -1.900526    3.897725
    171          1           0        7.347833   -2.973216    2.859092
    172          1           0        6.087203   -1.987520    1.029871
    173         20           0       -1.071983    0.543047   -1.124191
    174          8           0       -0.111155    0.592330   -3.564618
    175          1           0       -0.437829   -0.060621   -4.184246
    176          1           0        0.569550    1.064706   -4.056859
 ---------------------------------------------------------------------
 Rotational constants (GHZ):           0.0241715           0.0152831           0.0121326
 Standard basis: SVP (5D, 7F)
 There are  1809 symmetry adapted cartesian basis functions of A   symmetry.
 There are  1717 symmetry adapted basis functions of A   symmetry.
  1717 basis functions,  2922 primitive gaussians,  1809 cartesian basis functions
   358 alpha electrons      358 beta electrons
       nuclear repulsion energy     21896.1805026103 Hartrees.
 NAtoms=  176 NActive=  176 NUniq=  176 SFac= 1.00D+00 NAtFMM=   60 NAOKFM=T Big=T
 Integral buffers will be    131072 words long.
 Raffenetti 2 integral format.
 Two-electron integral symmetry is turned on.
 One-electron integrals computed using PRISM.
 NBasis=  1717 RedAO= T EigKep=  2.96D-04  NBF=  1717
 NBsUse=  1717 1.00D-06 EigRej= -1.00D+00 NBFU=  1717
 ExpMin= 1.98D-02 ExpMax= 3.51D+04 ExpMxC= 5.28D+03 IAcc=3 IRadAn=         5 AccDes= 0.00D+00
 Harris functional with IExCor=  402 and IRadAn=       5 diagonalized for initial guess.
 HarFok:  IExCor=  402 AccDes= 0.00D+00 IRadAn=         5 IDoV= 1 UseB2=F ITyADJ=14
 ICtDFT=  3500011 ScaDFX=  1.000000  1.000000  1.000000  1.000000
 FoFCou: FMM=F IPFlag=           0 FMFlag=      100000 FMFlg1=        2001
         NFxFlg=           0 DoJE=T BraDBF=F KetDBF=T FulRan=T
         wScrn=  0.000000 ICntrl=       500 IOpCl=  0 I1Cent=   200000004 NGrid=           0
         NMat0=    1 NMatS0=      1 NMatT0=    0 NMatD0=    1 NMtDS0=    0 NMtDT0=    0
 Petite list used in FoFCou.
 Requested convergence on RMS density matrix=1.00D-08 within 128 cycles.
 Requested convergence on MAX density matrix=1.00D-06.
 Requested convergence on             energy=1.00D-06.
 No special actions if energy rises.
 EnCoef did     4 forward-backward iterations
 EnCoef did     6 forward-backward iterations
 SCF Done:  E(RB3LYP) =  -5333.59564022     A.U. after   20 cycles
            NFock= 20  Conv=0.38D-08     -V/T= 2.0081
 SCF density gives NOpUse=  1 NOpAll=  1.
 Hyperfine terms turned off by default for NAtoms > 100.

 **********************************************************************

            Population analysis using the SCF density.

 **********************************************************************

 Orbital symmetries:
 BldTbl:  Degeneracy threshold= 1.00D-02
       Occupied  (A) (A) (A) (A) (A) (A) (A) (A) (A) (A) (A) (A)
                 (A) (A) (A) (A) (A) (A) (A) (A) (A) (A) (A) (A)
                 (A) (A) (A) (A) (A) (A) (A) (A) (A) (A) (A) (A)
                 (A) (A) (A) (A) (A) (A) (A) (A) (A) (A) (A) (A)
                 (A) (A) (A) (A) (A) (A) (A) (A) (A) (A) (A) (A)
                 (A) (A) (A) (A) (A) (A) (A) (A) (A) (A) (A) (A)
                 (A) (A) (A) (A) (A) (A) (A) (A) (A) (A) (A) (A)
                 (A) (A) (A) (A) (A) (A) (A) (A) (A) (A) (A) (A)
                 (A) (A) (A) (A) (A) (A) (A) (A) (A) (A) (A) (A)
                 (A) (A) (A) (A) (A) (A) (A) (A) (A) (A) (A) (A)
                 (A) (A) (A) (A) (A) (A) (A) (A) (A) (A) (A) (A)
                 (A) (A) (A) (A) (A) (A) (A) (A) (A) (A) (A) (A)
                 (A) (A) (A) (A) (A) (A) (A) (A) (A) (A) (A) (A)
                 (A) (A) (A) (A) (A) (A) (A) (A) (A) (A) (A) (A)
                 (A) (A) (A) (A) (A) (A) (A) (A) (A) (A) (A) (A)
                 (A) (A) (A) (A) (A) (A) (A) (A) (A) (A) (A) (A)
                 (A) (A) (A) (A) (A) (A) (A) (A) (A) (A) (A) (A)
                 (A) (A) (A) (A) (A) (A) (A) (A) (A) (A) (A) (A)
                 (A) (A) (A) (A) (A) (A) (A) (A) (A) (A) (A) (A)
                 (A) (A) (A) (A) (A) (A) (A) (A) (A) (A) (A) (A)
                 (A) (A) (A) (A) (A) (A) (A) (A) (A) (A) (A) (A)
                 (A) (A) (A) (A) (A) (A) (A) (A) (A) (A) (A) (A)
                 (A) (A) (A) (A) (A) (A) (A) (A) (A) (A) (A) (A)
                 (A) (A) (A) (A) (A) (A) (A) (A) (A) (A) (A) (A)
                 (A) (A) (A) (A) (A) (A) (A) (A) (A) (A) (A) (A)
                 (A) (A) (A) (A) (A) (A) (A) (A) (A) (A) (A) (A)
                 (A) (A) (A) (A) (A) (A) (A) (A) (A) (A) (A) (A)
                 (A) (A) (A) (A) (A) (A) (A) (A) (A) (A) (A) (A)
                 (A) (A) (A) (A) (A) (A) (A) (A) (A) (A) (A) (A)
                 (A) (A) (A) (A) (A) (A) (A) (A) (A) (A)
       Virtual   (A) (A) (A) (A) (A) (A) (A) (A) (A) (A) (A) (A)
                 (A) (A) (A) (A) (A) (A) (A) (A) (A) (A) (A) (A)
                 (A) (A) (A) (A) (A) (A) (A) (A) (A) (A) (A) (A)
                 (A) (A) (A) (A) (A) (A) (A) (A) (A) (A) (A) (A)
                 (A) (A) (A) (A) (A) (A) (A) (A) (A) (A) (A) (A)
                 (A) (A) (A) (A) (A) (A) (A) (A) (A) (A) (A) (A)
                 (A) (A) (A) (A) (A) (A) (A) (A) (A) (A) (A) (A)
                 (A) (A) (A) (A) (A) (A) (A) (A) (A) (A) (A) (A)
                 (A) (A) (A) (A) (A) (A) (A) (A) (A) (A) (A) (A)
                 (A) (A) (A) (A) (A) (A) (A) (A) (A) (A) (A) (A)
                 (A) (A) (A) (A) (A) (A) (A) (A) (A) (A) (A) (A)
                 (A) (A) (A) (A) (A) (A) (A) (A) (A) (A) (A) (A)
                 (A) (A) (A) (A) (A) (A) (A) (A) (A) (A) (A) (A)
                 (A) (A) (A) (A) (A) (A) (A) (A) (A) (A) (A) (A)
                 (A) (A) (A) (A) (A) (A) (A) (A) (A) (A) (A) (A)
                 (A) (A) (A) (A) (A) (A) (A) (A) (A) (A) (A) (A)
                 (A) (A) (A) (A) (A) (A) (A) (A) (A) (A) (A) (A)
                 (A) (A) (A) (A) (A) (A) (A) (A) (A) (A) (A) (A)
                 (A) (A) (A) (A) (A) (A) (A) (A) (A) (A) (A) (A)
                 (A) (A) (A) (A) (A) (A) (A) (A) (A) (A) (A) (A)
                 (A) (A) (A) (A) (A) (A) (A) (A) (A) (A) (A) (A)
                 (A) (A) (A) (A) (A) (A) (A) (A) (A) (A) (A) (A)
                 (A) (A) (A) (A) (A) (A) (A) (A) (A) (A) (A) (A)
                 (A) (A) (A) (A) (A) (A) (A) (A) (A) (A) (A) (A)
                 (A) (A) (A) (A) (A) (A) (A) (A) (A) (A) (A) (A)
                 (A) (A) (A) (A) (A) (A) (A) (A) (A) (A) (A) (A)
                 (A) (A) (A) (A) (A) (A) (A) (A) (A) (A) (A) (A)
                 (A) (A) (A) (A) (A) (A) (A) (A) (A) (A) (A) (A)
                 (A) (A) (A) (A) (A) (A) (A) (A) (A) (A) (A) (A)
                 (A) (A) (A) (A) (A) (A) (A) (A) (A) (A) (A) (A)
                 (A) (A) (A) (A) (A) (A) (A) (A) (A) (A) (A) (A)
                 (A) (A) (A) (A) (A) (A) (A) (A) (A) (A) (A) (A)
                 (A) (A) (A) (A) (A) (A) (A) (A) (A) (A) (A) (A)
                 (A) (A) (A) (A) (A) (A) (A) (A) (A) (A) (A) (A)
                 (A) (A) (A) (A) (A) (A) (A) (A) (A) (A) (A) (A)
                 (A) (A) (A) (A) (A) (A) (A) (A) (A) (A) (A) (A)
                 (A) (A) (A) (A) (A) (A) (A) (A) (A) (A) (A) (A)
                 (A) (A) (A) (A) (A) (A) (A) (A) (A) (A) (A) (A)
                 (A) (A) (A) (A) (A) (A) (A) (A) (A) (A) (A) (A)
                 (A) (A) (A) (A) (A) (A) (A) (A) (A) (A) (A) (A)
                 (A) (A) (A) (A) (A) (A) (A) (A) (A) (A) (A) (A)
                 (A) (A) (A) (A) (A) (A) (A) (A) (A) (A) (A) (A)
                 (A) (A) (A) (A) (A) (A) (A) (A) (A) (A) (A) (A)
                 (A) (A) (A) (A) (A) (A) (A) (A) (A) (A) (A) (A)
                 (A) (A) (A) (A) (A) (A) (A) (A) (A) (A) (A) (A)
                 (A) (A) (A) (A) (A) (A) (A) (A) (A) (A) (A) (A)
                 (A) (A) (A) (A) (A) (A) (A) (A) (A) (A) (A) (A)
                 (A) (A) (A) (A) (A) (A) (A) (A) (A) (A) (A) (A)
                 (A) (A) (A) (A) (A) (A) (A) (A) (A) (A) (A) (A)
                 (A) (A) (A) (A) (A) (A) (A) (A) (A) (A) (A) (A)
                 (A) (A) (A) (A) (A) (A) (A) (A) (A) (A) (A) (A)
                 (A) (A) (A) (A) (A) (A) (A) (A) (A) (A) (A) (A)
                 (A) (A) (A) (A) (A) (A) (A) (A) (A) (A) (A) (A)
                 (A) (A) (A) (A) (A) (A) (A) (A) (A) (A) (A) (A)
                 (A) (A) (A) (A) (A) (A) (A) (A) (A) (A) (A) (A)
                 (A) (A) (A) (A) (A) (A) (A) (A) (A) (A) (A) (A)
                 (A) (A) (A) (A) (A) (A) (A) (A) (A) (A) (A) (A)
                 (A) (A) (A) (A) (A) (A) (A) (A) (A) (A) (A) (A)
                 (A) (A) (A) (A) (A) (A) (A) (A) (A) (A) (A) (A)
                 (A) (A) (A) (A) (A) (A) (A) (A) (A) (A) (A) (A)
                 (A) (A) (A) (A) (A) (A) (A) (A) (A) (A) (A) (A)
                 (A) (A) (A) (A) (A) (A) (A) (A) (A) (A) (A) (A)
                 (A) (A) (A) (A) (A) (A) (A) (A) (A) (A) (A) (A)
                 (A) (A) (A) (A) (A) (A) (A) (A) (A) (A) (A) (A)
                 (A) (A) (A) (A) (A) (A) (A) (A) (A) (A) (A) (A)
                 (A) (A) (A) (A) (A) (A) (A) (A) (A) (A) (A) (A)
                 (A) (A) (A) (A) (A) (A) (A) (A) (A) (A) (A) (A)
                 (A) (A) (A) (A) (A) (A) (A) (A) (A) (A) (A) (A)
                 (A) (A) (A) (A) (A) (A) (A) (A) (A) (A) (A) (A)
                 (A) (A) (A) (A) (A) (A) (A) (A) (A) (A) (A) (A)
                 (A) (A) (A) (A) (A) (A) (A) (A) (A) (A) (A) (A)
                 (A) (A) (A) (A) (A) (A) (A) (A) (A) (A) (A) (A)
                 (A) (A) (A) (A) (A) (A) (A) (A) (A) (A) (A) (A)
                 (A) (A) (A) (A) (A) (A) (A) (A) (A) (A) (A) (A)
                 (A) (A) (A) (A) (A) (A) (A) (A) (A) (A) (A) (A)
                 (A) (A) (A) (A) (A) (A) (A) (A) (A) (A) (A) (A)
                 (A) (A) (A) (A) (A) (A) (A) (A) (A) (A) (A) (A)
                 (A) (A) (A) (A) (A) (A) (A) (A) (A) (A) (A) (A)
                 (A) (A) (A) (A) (A) (A) (A) (A) (A) (A) (A) (A)
                 (A) (A) (A) (A) (A) (A) (A) (A) (A) (A) (A) (A)
                 (A) (A) (A) (A) (A) (A) (A) (A) (A) (A) (A) (A)
                 (A) (A) (A) (A) (A) (A) (A) (A) (A) (A) (A) (A)
                 (A) (A) (A) (A) (A) (A) (A) (A) (A) (A) (A) (A)
                 (A) (A) (A) (A) (A) (A) (A) (A) (A) (A) (A) (A)
                 (A) (A) (A) (A) (A) (A) (A) (A) (A) (A) (A) (A)
                 (A) (A) (A) (A) (A) (A) (A) (A) (A) (A) (A) (A)
                 (A) (A) (A) (A) (A) (A) (A) (A) (A) (A) (A) (A)
                 (A) (A) (A) (A) (A) (A) (A) (A) (A) (A) (A) (A)
                 (A) (A) (A) (A) (A) (A) (A) (A) (A) (A) (A) (A)
                 (A) (A) (A) (A) (A) (A) (A) (A) (A) (A) (A) (A)
                 (A) (A) (A) (A) (A) (A) (A) (A) (A) (A) (A) (A)
                 (A) (A) (A) (A) (A) (A) (A) (A) (A) (A) (A) (A)
                 (A) (A) (A) (A) (A) (A) (A) (A) (A) (A) (A) (A)
                 (A) (A) (A) (A) (A) (A) (A) (A) (A) (A) (A) (A)
                 (A) (A) (A) (A) (A) (A) (A) (A) (A) (A) (A) (A)
                 (A) (A) (A) (A) (A) (A) (A) (A) (A) (A) (A) (A)
                 (A) (A) (A) (A) (A) (A) (A) (A) (A) (A) (A) (A)
                 (A) (A) (A) (A) (A) (A) (A) (A) (A) (A) (A) (A)
                 (A) (A) (A) (A) (A) (A) (A) (A) (A) (A) (A) (A)
                 (A) (A) (A) (A) (A) (A) (A) (A) (A) (A) (A) (A)
                 (A) (A) (A) (A) (A) (A) (A) (A) (A) (A) (A) (A)
                 (A) (A) (A) (A) (A) (A) (A) (A) (A) (A) (A) (A)
                 (A) (A) (A) (A) (A) (A) (A) (A) (A) (A) (A) (A)
                 (A) (A) (A) (A) (A) (A) (A) (A) (A) (A) (A) (A)
                 (A) (A) (A) (A) (A) (A) (A) (A) (A) (A) (A) (A)
                 (A) (A) (A) (A) (A) (A) (A) (A) (A) (A) (A) (A)
                 (A) (A) (A) (A) (A) (A) (A) (A) (A) (A) (A) (A)
                 (A) (A) (A) (A) (A) (A) (A) (A) (A) (A) (A) (A)
                 (A) (A) (A) (A) (A) (A) (A) (A) (A) (A) (A) (A)
                 (A) (A) (A) (A) (A) (A) (A) (A) (A) (A) (A) (A)
                 (A) (A) (A) (A) (A) (A) (A) (A) (A) (A) (A) (A)
                 (A) (A) (A) (A) (A) (A) (A) (A) (A) (A) (A) (A)
                 (A) (A) (A) (A) (A) (A) (A) (A) (A) (A) (A) (A)
                 (A) (A) (A)
 The electronic state is 1-A.
 Alpha  occ. eigenvalues -- -145.36695 -19.19297 -19.16142 -19.15509 -19.13236
 Alpha  occ. eigenvalues --  -19.12961 -19.12447 -19.12258 -19.11366 -19.10742
 Alpha  occ. eigenvalues --  -19.10575 -19.10268 -19.07624 -19.07167 -19.06165
 Alpha  occ. eigenvalues --  -19.05926 -19.04891 -19.04635 -19.03656 -19.03579
 Alpha  occ. eigenvalues --  -19.03279 -19.02658 -19.02031 -19.01149 -15.42504
 Alpha  occ. eigenvalues --  -14.59357 -14.41076 -14.39699 -14.36794 -14.36217
 Alpha  occ. eigenvalues --  -14.36064 -14.35957 -14.34040 -14.33602 -14.32433
 Alpha  occ. eigenvalues --  -14.31313 -14.30546 -14.29236 -14.29099 -14.28609
 Alpha  occ. eigenvalues --  -12.56116 -12.56072 -12.56053 -10.35135 -10.33354
 Alpha  occ. eigenvalues --  -10.32054 -10.30580 -10.30246 -10.29988 -10.29249
 Alpha  occ. eigenvalues --  -10.28819 -10.27680 -10.27543 -10.27310 -10.26690
 Alpha  occ. eigenvalues --  -10.26595 -10.26398 -10.25848 -10.24874 -10.24164
 Alpha  occ. eigenvalues --  -10.23809 -10.23680 -10.23574 -10.23163 -10.22979
 Alpha  occ. eigenvalues --  -10.22972 -10.22863 -10.22708 -10.22350 -10.22140
 Alpha  occ. eigenvalues --  -10.22091 -10.21984 -10.21895 -10.21030 -10.20475
 Alpha  occ. eigenvalues --  -10.20255 -10.19970 -10.19598 -10.19444 -10.19363
 Alpha  occ. eigenvalues --  -10.18900 -10.18873 -10.17907 -10.17833 -10.17665
 Alpha  occ. eigenvalues --  -10.17521 -10.17245 -10.17132 -10.17099 -10.16876
 Alpha  occ. eigenvalues --  -10.16428 -10.16186 -10.16116 -10.16029 -10.15502
 Alpha  occ. eigenvalues --  -10.15106 -10.14242  -1.79571  -1.14317  -1.08749
 Alpha  occ. eigenvalues --   -1.08594  -1.07289  -1.07106  -1.06463  -1.05936
 Alpha  occ. eigenvalues --   -1.05179  -1.04862  -1.04587  -1.04006  -1.03312
 Alpha  occ. eigenvalues --   -1.03272  -1.01477  -1.00693  -1.00070  -0.99326
 Alpha  occ. eigenvalues --   -0.98404  -0.98095  -0.98071  -0.97662  -0.97337
 Alpha  occ. eigenvalues --   -0.97048  -0.96538  -0.96321  -0.96117  -0.95752
 Alpha  occ. eigenvalues --   -0.93854  -0.93169  -0.93044  -0.90540  -0.90229
 Alpha  occ. eigenvalues --   -0.89966  -0.89573  -0.89138  -0.88733  -0.88648
 Alpha  occ. eigenvalues --   -0.87766  -0.87019  -0.86923  -0.85479  -0.84719
 Alpha  occ. eigenvalues --   -0.83636  -0.82387  -0.81913  -0.81608  -0.81432
 Alpha  occ. eigenvalues --   -0.80198  -0.78782  -0.76834  -0.76176  -0.74719
 Alpha  occ. eigenvalues --   -0.74567  -0.74425  -0.73987  -0.73919  -0.72891
 Alpha  occ. eigenvalues --   -0.72126  -0.71689  -0.71090  -0.70829  -0.70677
 Alpha  occ. eigenvalues --   -0.70209  -0.69460  -0.68861  -0.68320  -0.67430
 Alpha  occ. eigenvalues --   -0.67389  -0.67083  -0.66026  -0.64195  -0.63753
 Alpha  occ. eigenvalues --   -0.63485  -0.63379  -0.62766  -0.62697  -0.62145
 Alpha  occ. eigenvalues --   -0.61971  -0.60907  -0.60757  -0.60246  -0.59740
 Alpha  occ. eigenvalues --   -0.59257  -0.59122  -0.58448  -0.58421  -0.57865
 Alpha  occ. eigenvalues --   -0.57322  -0.57082  -0.56992  -0.56662  -0.56340
 Alpha  occ. eigenvalues --   -0.56287  -0.55845  -0.55762  -0.55287  -0.54731
 Alpha  occ. eigenvalues --   -0.54547  -0.54439  -0.54138  -0.53956  -0.52708
 Alpha  occ. eigenvalues --   -0.52386  -0.52168  -0.52111  -0.52052  -0.51962
 Alpha  occ. eigenvalues --   -0.51230  -0.50957  -0.50434  -0.50283  -0.49867
 Alpha  occ. eigenvalues --   -0.49830  -0.49576  -0.49214  -0.49016  -0.48837
 Alpha  occ. eigenvalues --   -0.48505  -0.48283  -0.47973  -0.47610  -0.47419
 Alpha  occ. eigenvalues --   -0.47258  -0.46977  -0.46939  -0.46784  -0.46698
 Alpha  occ. eigenvalues --   -0.46356  -0.46258  -0.46118  -0.46063  -0.45852
 Alpha  occ. eigenvalues --   -0.45586  -0.45377  -0.45048  -0.44769  -0.44598
 Alpha  occ. eigenvalues --   -0.44480  -0.44408  -0.44168  -0.44001  -0.43846
 Alpha  occ. eigenvalues --   -0.43781  -0.43613  -0.43506  -0.43363  -0.43244
 Alpha  occ. eigenvalues --   -0.43151  -0.43028  -0.42935  -0.42664  -0.42442
 Alpha  occ. eigenvalues --   -0.42137  -0.42022  -0.41965  -0.41851  -0.41570
 Alpha  occ. eigenvalues --   -0.41396  -0.41173  -0.41053  -0.40905  -0.40732
 Alpha  occ. eigenvalues --   -0.40426  -0.40331  -0.40266  -0.40170  -0.39937
 Alpha  occ. eigenvalues --   -0.39564  -0.39512  -0.39422  -0.39340  -0.39000
 Alpha  occ. eigenvalues --   -0.38895  -0.38856  -0.38671  -0.38537  -0.38431
 Alpha  occ. eigenvalues --   -0.38330  -0.38034  -0.37906  -0.37839  -0.37741
 Alpha  occ. eigenvalues --   -0.37477  -0.37316  -0.37212  -0.36975  -0.36820
 Alpha  occ. eigenvalues --   -0.36792  -0.36673  -0.36507  -0.36455  -0.36357
 Alpha  occ. eigenvalues --   -0.36168  -0.35757  -0.35642  -0.35474  -0.35328
 Alpha  occ. eigenvalues --   -0.35045  -0.34715  -0.34554  -0.34525  -0.34213
 Alpha  occ. eigenvalues --   -0.34093  -0.33962  -0.33929  -0.33668  -0.33420
 Alpha  occ. eigenvalues --   -0.33058  -0.32956  -0.32823  -0.32775  -0.32284
 Alpha  occ. eigenvalues --   -0.32096  -0.31940  -0.31796  -0.31527  -0.31450
 Alpha  occ. eigenvalues --   -0.31390  -0.30871  -0.30837  -0.30649  -0.30485
 Alpha  occ. eigenvalues --   -0.30219  -0.29802  -0.29552  -0.29500  -0.28855
 Alpha  occ. eigenvalues --   -0.28635  -0.28399  -0.28145  -0.28107  -0.27298
 Alpha  occ. eigenvalues --   -0.26774  -0.26563  -0.25831  -0.25765  -0.25585
 Alpha  occ. eigenvalues --   -0.24200  -0.23874  -0.23710  -0.23481  -0.23293
 Alpha  occ. eigenvalues --   -0.22644  -0.22598  -0.22090  -0.21948  -0.21580
 Alpha  occ. eigenvalues --   -0.21241  -0.21043  -0.20467  -0.20455  -0.20191
 Alpha  occ. eigenvalues --   -0.20120  -0.19526  -0.19048  -0.18919  -0.18851
 Alpha  occ. eigenvalues --   -0.17905  -0.17805  -0.17278
 Alpha virt. eigenvalues --   -0.11012  -0.04991  -0.04745  -0.03927  -0.03466
 Alpha virt. eigenvalues --   -0.02110  -0.01635  -0.01029  -0.00433  -0.00269
 Alpha virt. eigenvalues --    0.00536   0.00919   0.01443   0.01796   0.02085
 Alpha virt. eigenvalues --    0.02229   0.02366   0.03229   0.03321   0.03563
 Alpha virt. eigenvalues --    0.03966   0.04196   0.04254   0.04587   0.05083
 Alpha virt. eigenvalues --    0.05169   0.05365   0.05509   0.05599   0.05785
 Alpha virt. eigenvalues --    0.06284   0.06459   0.06610   0.06901   0.07099
 Alpha virt. eigenvalues --    0.07167   0.07249   0.07514   0.07675   0.07911
 Alpha virt. eigenvalues --    0.08138   0.08333   0.08387   0.08607   0.08700
 Alpha virt. eigenvalues --    0.09052   0.09140   0.09253   0.09449   0.09527
 Alpha virt. eigenvalues --    0.09637   0.09766   0.10004   0.10357   0.10706
 Alpha virt. eigenvalues --    0.10824   0.10957   0.11148   0.11453   0.11522
 Alpha virt. eigenvalues --    0.11682   0.12016   0.12402   0.12553   0.12806
 Alpha virt. eigenvalues --    0.12958   0.13054   0.13330   0.13514   0.13579
 Alpha virt. eigenvalues --    0.13694   0.13823   0.13914   0.14074   0.14354
 Alpha virt. eigenvalues --    0.14679   0.14794   0.15029   0.15091   0.15321
 Alpha virt. eigenvalues --    0.15499   0.15727   0.15818   0.16053   0.16063
 Alpha virt. eigenvalues --    0.16535   0.16756   0.16842   0.17163   0.17187
 Alpha virt. eigenvalues --    0.17388   0.17751   0.17783   0.18077   0.18202
 Alpha virt. eigenvalues --    0.18327   0.18490   0.18629   0.18705   0.18803
 Alpha virt. eigenvalues --    0.19131   0.19154   0.19300   0.19669   0.19930
 Alpha virt. eigenvalues --    0.19970   0.20160   0.20342   0.20506   0.20747
 Alpha virt. eigenvalues --    0.20906   0.20988   0.21177   0.21409   0.21637
 Alpha virt. eigenvalues --    0.21770   0.22185   0.22233   0.22316   0.22586
 Alpha virt. eigenvalues --    0.22796   0.22893   0.23087   0.23557   0.23666
 Alpha virt. eigenvalues --    0.23966   0.24029   0.24440   0.24474   0.24753
 Alpha virt. eigenvalues --    0.24776   0.25129   0.25249   0.25361   0.25556
 Alpha virt. eigenvalues --    0.25837   0.25985   0.26154   0.26436   0.26885
 Alpha virt. eigenvalues --    0.27157   0.27404   0.27637   0.27803   0.28094
 Alpha virt. eigenvalues --    0.28195   0.28296   0.28651   0.28868   0.29200
 Alpha virt. eigenvalues --    0.29295   0.29497   0.29810   0.30050   0.30805
 Alpha virt. eigenvalues --    0.30827   0.31052   0.31231   0.31485   0.31529
 Alpha virt. eigenvalues --    0.31935   0.32145   0.32418   0.32717   0.32821
 Alpha virt. eigenvalues --    0.33288   0.33478   0.33918   0.34294   0.34556
 Alpha virt. eigenvalues --    0.34723   0.34846   0.35011   0.35228   0.35278
 Alpha virt. eigenvalues --    0.35378   0.35875   0.36163   0.36669   0.36847
 Alpha virt. eigenvalues --    0.37119   0.37543   0.37717   0.38029   0.38438
 Alpha virt. eigenvalues --    0.38492   0.38841   0.39219   0.39280   0.39503
 Alpha virt. eigenvalues --    0.39748   0.39885   0.40429   0.40586   0.40864
 Alpha virt. eigenvalues --    0.41266   0.41424   0.41563   0.41645   0.42027
 Alpha virt. eigenvalues --    0.42360   0.42567   0.42822   0.42920   0.43279
 Alpha virt. eigenvalues --    0.43397   0.43646   0.44109   0.44172   0.44394
 Alpha virt. eigenvalues --    0.44601   0.44926   0.45090   0.45165   0.45366
 Alpha virt. eigenvalues --    0.45516   0.45917   0.46109   0.46294   0.46469
 Alpha virt. eigenvalues --    0.46724   0.46914   0.46944   0.47382   0.47517
 Alpha virt. eigenvalues --    0.47620   0.47702   0.47844   0.48139   0.48256
 Alpha virt. eigenvalues --    0.48489   0.48580   0.48693   0.49066   0.49258
 Alpha virt. eigenvalues --    0.49672   0.49708   0.50171   0.50293   0.50418
 Alpha virt. eigenvalues --    0.50634   0.50975   0.51277   0.51489   0.51582
 Alpha virt. eigenvalues --    0.51800   0.51994   0.52100   0.52348   0.52427
 Alpha virt. eigenvalues --    0.52716   0.52854   0.53034   0.53203   0.53496
 Alpha virt. eigenvalues --    0.53524   0.53740   0.54007   0.54067   0.54221
 Alpha virt. eigenvalues --    0.54283   0.54410   0.54766   0.54975   0.55332
 Alpha virt. eigenvalues --    0.55381   0.55622   0.55793   0.55972   0.56175
 Alpha virt. eigenvalues --    0.56294   0.56387   0.56552   0.56606   0.56890
 Alpha virt. eigenvalues --    0.56963   0.57336   0.57502   0.57729   0.57920
 Alpha virt. eigenvalues --    0.58037   0.58151   0.58310   0.58364   0.58697
 Alpha virt. eigenvalues --    0.58938   0.59027   0.59246   0.59347   0.59516
 Alpha virt. eigenvalues --    0.59616   0.59749   0.59789   0.59878   0.60170
 Alpha virt. eigenvalues --    0.60345   0.60527   0.60712   0.60908   0.60973
 Alpha virt. eigenvalues --    0.61124   0.61284   0.61386   0.61642   0.61868
 Alpha virt. eigenvalues --    0.62064   0.62156   0.62257   0.62289   0.62450
 Alpha virt. eigenvalues --    0.62593   0.62650   0.63015   0.63061   0.63145
 Alpha virt. eigenvalues --    0.63302   0.63435   0.63461   0.63536   0.63570
 Alpha virt. eigenvalues --    0.63779   0.63941   0.64013   0.64265   0.64347
 Alpha virt. eigenvalues --    0.64456   0.64621   0.64636   0.64793   0.64883
 Alpha virt. eigenvalues --    0.65038   0.65263   0.65273   0.65527   0.65590
 Alpha virt. eigenvalues --    0.65675   0.65719   0.65918   0.65943   0.66091
 Alpha virt. eigenvalues --    0.66249   0.66368   0.66414   0.66553   0.66620
 Alpha virt. eigenvalues --    0.66845   0.66946   0.67151   0.67286   0.67419
 Alpha virt. eigenvalues --    0.67425   0.67653   0.67820   0.67941   0.68135
 Alpha virt. eigenvalues --    0.68144   0.68339   0.68589   0.68782   0.68825
 Alpha virt. eigenvalues --    0.69010   0.69055   0.69084   0.69258   0.69319
 Alpha virt. eigenvalues --    0.69488   0.69556   0.69774   0.69913   0.70005
 Alpha virt. eigenvalues --    0.70079   0.70113   0.70205   0.70287   0.70506
 Alpha virt. eigenvalues --    0.70652   0.70884   0.71071   0.71158   0.71240
 Alpha virt. eigenvalues --    0.71298   0.71360   0.71511   0.71551   0.71776
 Alpha virt. eigenvalues --    0.71924   0.72109   0.72285   0.72403   0.72496
 Alpha virt. eigenvalues --    0.72760   0.73040   0.73090   0.73152   0.73464
 Alpha virt. eigenvalues --    0.73624   0.73754   0.73905   0.74019   0.74230
 Alpha virt. eigenvalues --    0.74490   0.74523   0.74638   0.74855   0.75138
 Alpha virt. eigenvalues --    0.75278   0.75644   0.75749   0.75945   0.75995
 Alpha virt. eigenvalues --    0.76048   0.76439   0.76643   0.76723   0.76735
 Alpha virt. eigenvalues --    0.77113   0.77336   0.77758   0.78143   0.78343
 Alpha virt. eigenvalues --    0.78649   0.78774   0.79057   0.79252   0.79426
 Alpha virt. eigenvalues --    0.79700   0.80066   0.80279   0.80384   0.80600
 Alpha virt. eigenvalues --    0.80833   0.81068   0.81427   0.81664   0.81763
 Alpha virt. eigenvalues --    0.81922   0.81976   0.82503   0.82772   0.82872
 Alpha virt. eigenvalues --    0.83373   0.83525   0.83668   0.83849   0.84236
 Alpha virt. eigenvalues --    0.84658   0.84930   0.84986   0.85158   0.85528
 Alpha virt. eigenvalues --    0.85953   0.86260   0.86710   0.86753   0.86959
 Alpha virt. eigenvalues --    0.87402   0.87548   0.87735   0.88116   0.88632
 Alpha virt. eigenvalues --    0.89212   0.89739   0.90092   0.90116   0.90564
 Alpha virt. eigenvalues --    0.91062   0.91118   0.91393   0.91779   0.92044
 Alpha virt. eigenvalues --    0.92232   0.92696   0.92816   0.93064   0.93312
 Alpha virt. eigenvalues --    0.93734   0.93934   0.94194   0.94613   0.94763
 Alpha virt. eigenvalues --    0.95450   0.95515   0.95775   0.96024   0.96384
 Alpha virt. eigenvalues --    0.96602   0.96991   0.97120   0.97370   0.97513
 Alpha virt. eigenvalues --    0.97803   0.97957   0.98258   0.98513   0.98721
 Alpha virt. eigenvalues --    0.98908   0.99164   0.99218   0.99702   1.00009
 Alpha virt. eigenvalues --    1.00389   1.00503   1.00905   1.01054   1.01196
 Alpha virt. eigenvalues --    1.01274   1.01533   1.01803   1.02342   1.02509
 Alpha virt. eigenvalues --    1.02836   1.03164   1.03266   1.03843   1.04174
 Alpha virt. eigenvalues --    1.04674   1.05105   1.05466   1.05842   1.06210
 Alpha virt. eigenvalues --    1.06267   1.06401   1.06920   1.07181   1.07374
 Alpha virt. eigenvalues --    1.07574   1.07998   1.08245   1.08457   1.08815
 Alpha virt. eigenvalues --    1.09323   1.09566   1.10159   1.10323   1.10638
 Alpha virt. eigenvalues --    1.10796   1.11154   1.11362   1.11514   1.11745
 Alpha virt. eigenvalues --    1.12030   1.12429   1.12790   1.12963   1.13321
 Alpha virt. eigenvalues --    1.13458   1.13693   1.13843   1.14188   1.14348
 Alpha virt. eigenvalues --    1.14695   1.14990   1.15420   1.15674   1.15724
 Alpha virt. eigenvalues --    1.16101   1.16201   1.16730   1.16870   1.17241
 Alpha virt. eigenvalues --    1.17567   1.17747   1.18016   1.18403   1.18614
 Alpha virt. eigenvalues --    1.19311   1.19476   1.19661   1.20075   1.20372
 Alpha virt. eigenvalues --    1.20540   1.20824   1.21213   1.21321   1.21621
 Alpha virt. eigenvalues --    1.21835   1.22054   1.22169   1.22424   1.22591
 Alpha virt. eigenvalues --    1.22873   1.22940   1.23308   1.23453   1.23714
 Alpha virt. eigenvalues --    1.24125   1.24234   1.24747   1.24846   1.25147
 Alpha virt. eigenvalues --    1.25491   1.25719   1.25921   1.26077   1.26196
 Alpha virt. eigenvalues --    1.26637   1.26729   1.26975   1.27319   1.27608
 Alpha virt. eigenvalues --    1.27742   1.27854   1.28240   1.28574   1.29105
 Alpha virt. eigenvalues --    1.29203   1.29333   1.29567   1.30019   1.30278
 Alpha virt. eigenvalues --    1.30731   1.30819   1.30900   1.31545   1.31741
 Alpha virt. eigenvalues --    1.32042   1.32229   1.32515   1.32742   1.32885
 Alpha virt. eigenvalues --    1.33217   1.33419   1.33769   1.33845   1.34192
 Alpha virt. eigenvalues --    1.34490   1.34720   1.35263   1.35354   1.35743
 Alpha virt. eigenvalues --    1.35791   1.36186   1.36476   1.36869   1.36995
 Alpha virt. eigenvalues --    1.37408   1.37507   1.37866   1.38341   1.38463
 Alpha virt. eigenvalues --    1.38585   1.38908   1.39201   1.39318   1.39715
 Alpha virt. eigenvalues --    1.39982   1.40439   1.40808   1.41129   1.41382
 Alpha virt. eigenvalues --    1.41506   1.41728   1.42017   1.42144   1.42531
 Alpha virt. eigenvalues --    1.43062   1.43574   1.43773   1.43971   1.44175
 Alpha virt. eigenvalues --    1.44493   1.44960   1.45352   1.45687   1.46213
 Alpha virt. eigenvalues --    1.46243   1.46603   1.47022   1.47241   1.47327
 Alpha virt. eigenvalues --    1.47852   1.48258   1.48335   1.48405   1.48920
 Alpha virt. eigenvalues --    1.49192   1.49731   1.50121   1.50265   1.50337
 Alpha virt. eigenvalues --    1.50472   1.50724   1.51248   1.51393   1.51742
 Alpha virt. eigenvalues --    1.51785   1.51922   1.52530   1.52688   1.53169
 Alpha virt. eigenvalues --    1.53439   1.53614   1.53684   1.53897   1.54076
 Alpha virt. eigenvalues --    1.54377   1.54897   1.56064   1.56280   1.56427
 Alpha virt. eigenvalues --    1.56720   1.57032   1.57500   1.57667   1.57885
 Alpha virt. eigenvalues --    1.58194   1.58382   1.58787   1.58948   1.59298
 Alpha virt. eigenvalues --    1.59595   1.60074   1.60357   1.60651   1.61058
 Alpha virt. eigenvalues --    1.61298   1.61359   1.61767   1.62447   1.62780
 Alpha virt. eigenvalues --    1.63214   1.63459   1.63742   1.64068   1.64163
 Alpha virt. eigenvalues --    1.64569   1.64690   1.65069   1.65429   1.65875
 Alpha virt. eigenvalues --    1.66356   1.66561   1.66644   1.67036   1.67079
 Alpha virt. eigenvalues --    1.67534   1.68083   1.68323   1.68547   1.69233
 Alpha virt. eigenvalues --    1.69495   1.69767   1.70055   1.70180   1.70377
 Alpha virt. eigenvalues --    1.70578   1.71045   1.71137   1.71292   1.71379
 Alpha virt. eigenvalues --    1.71620   1.71668   1.71856   1.72069   1.72112
 Alpha virt. eigenvalues --    1.72383   1.72512   1.72612   1.72712   1.72873
 Alpha virt. eigenvalues --    1.73411   1.73683   1.73762   1.74007   1.74255
 Alpha virt. eigenvalues --    1.74436   1.74567   1.74754   1.74907   1.75113
 Alpha virt. eigenvalues --    1.75293   1.75487   1.75730   1.75949   1.76394
 Alpha virt. eigenvalues --    1.76496   1.76716   1.76915   1.77089   1.77392
 Alpha virt. eigenvalues --    1.77550   1.77850   1.77914   1.78196   1.78331
 Alpha virt. eigenvalues --    1.78482   1.78537   1.78639   1.78971   1.79004
 Alpha virt. eigenvalues --    1.79109   1.79250   1.79563   1.79680   1.79938
 Alpha virt. eigenvalues --    1.80084   1.80390   1.80501   1.80623   1.80854
 Alpha virt. eigenvalues --    1.80991   1.81145   1.81212   1.81392   1.81516
 Alpha virt. eigenvalues --    1.81730   1.82013   1.82134   1.82285   1.82320
 Alpha virt. eigenvalues --    1.82559   1.82741   1.82861   1.83039   1.83267
 Alpha virt. eigenvalues --    1.83451   1.83607   1.83771   1.83960   1.84102
 Alpha virt. eigenvalues --    1.84166   1.84396   1.84461   1.84560   1.84880
 Alpha virt. eigenvalues --    1.85025   1.85371   1.85548   1.85693   1.85909
 Alpha virt. eigenvalues --    1.86112   1.86284   1.86489   1.86650   1.86776
 Alpha virt. eigenvalues --    1.87093   1.87441   1.87612   1.87794   1.88000
 Alpha virt. eigenvalues --    1.88108   1.88205   1.88480   1.88757   1.88904
 Alpha virt. eigenvalues --    1.89037   1.89204   1.89482   1.89782   1.90201
 Alpha virt. eigenvalues --    1.90325   1.90701   1.90737   1.90895   1.91130
 Alpha virt. eigenvalues --    1.91221   1.91438   1.91573   1.91826   1.92027
 Alpha virt. eigenvalues --    1.92193   1.92477   1.92636   1.93157   1.93245
 Alpha virt. eigenvalues --    1.93441   1.93601   1.93897   1.94027   1.94197
 Alpha virt. eigenvalues --    1.94431   1.94638   1.94833   1.95051   1.95269
 Alpha virt. eigenvalues --    1.95450   1.95535   1.95930   1.95986   1.96239
 Alpha virt. eigenvalues --    1.96493   1.96718   1.96993   1.97064   1.97211
 Alpha virt. eigenvalues --    1.97331   1.97433   1.97679   1.97972   1.98524
 Alpha virt. eigenvalues --    1.98696   1.99012   1.99405   1.99521   1.99699
 Alpha virt. eigenvalues --    2.00079   2.00149   2.00446   2.00544   2.00719
 Alpha virt. eigenvalues --    2.00928   2.01229   2.01562   2.01898   2.02193
 Alpha virt. eigenvalues --    2.02255   2.02721   2.02813   2.03087   2.03274
 Alpha virt. eigenvalues --    2.03525   2.03789   2.03942   2.04190   2.04504
 Alpha virt. eigenvalues --    2.04822   2.04895   2.05230   2.05455   2.05710
 Alpha virt. eigenvalues --    2.05845   2.06412   2.06638   2.07196   2.07275
 Alpha virt. eigenvalues --    2.07326   2.07673   2.07895   2.08178   2.08536
 Alpha virt. eigenvalues --    2.08977   2.09070   2.09162   2.09315   2.09521
 Alpha virt. eigenvalues --    2.09701   2.09773   2.10281   2.10540   2.10620
 Alpha virt. eigenvalues --    2.11137   2.11422   2.11537   2.11933   2.12146
 Alpha virt. eigenvalues --    2.12364   2.13022   2.13394   2.13625   2.14095
 Alpha virt. eigenvalues --    2.14486   2.14656   2.15173   2.15342   2.15490
 Alpha virt. eigenvalues --    2.15782   2.15981   2.16477   2.16783   2.17187
 Alpha virt. eigenvalues --    2.17427   2.17521   2.17702   2.17860   2.18393
 Alpha virt. eigenvalues --    2.18610   2.18748   2.18982   2.19247   2.19471
 Alpha virt. eigenvalues --    2.19743   2.19830   2.19987   2.20284   2.20607
 Alpha virt. eigenvalues --    2.20793   2.21370   2.21655   2.22137   2.22296
 Alpha virt. eigenvalues --    2.22778   2.23021   2.23282   2.23497   2.23613
 Alpha virt. eigenvalues --    2.23872   2.24105   2.24402   2.24974   2.25640
 Alpha virt. eigenvalues --    2.26053   2.26301   2.26413   2.27043   2.27213
 Alpha virt. eigenvalues --    2.28291   2.28342   2.28624   2.29287   2.29479
 Alpha virt. eigenvalues --    2.30097   2.30308   2.30532   2.30637   2.31268
 Alpha virt. eigenvalues --    2.31422   2.32046   2.32267   2.32530   2.32817
 Alpha virt. eigenvalues --    2.33077   2.33397   2.33828   2.34194   2.34449
 Alpha virt. eigenvalues --    2.34578   2.34755   2.35038   2.35798   2.36009
 Alpha virt. eigenvalues --    2.36245   2.36427   2.37285   2.37531   2.37807
 Alpha virt. eigenvalues --    2.38356   2.38541   2.38606   2.38888   2.39373
 Alpha virt. eigenvalues --    2.39900   2.40059   2.40140   2.40201   2.40487
 Alpha virt. eigenvalues --    2.40607   2.40909   2.41317   2.41493   2.41877
 Alpha virt. eigenvalues --    2.42217   2.42840   2.43072   2.43130   2.43348
 Alpha virt. eigenvalues --    2.43624   2.44241   2.44743   2.44897   2.45459
 Alpha virt. eigenvalues --    2.45655   2.45668   2.46069   2.46234   2.46515
 Alpha virt. eigenvalues --    2.46968   2.47136   2.47380   2.48481   2.48518
 Alpha virt. eigenvalues --    2.48702   2.48917   2.49539   2.49822   2.50280
 Alpha virt. eigenvalues --    2.50555   2.50987   2.51318   2.51808   2.52336
 Alpha virt. eigenvalues --    2.52677   2.53156   2.53309   2.53849   2.54167
 Alpha virt. eigenvalues --    2.54378   2.54669   2.55038   2.55355   2.55959
 Alpha virt. eigenvalues --    2.56102   2.56443   2.56747   2.57243   2.57459
 Alpha virt. eigenvalues --    2.58024   2.58126   2.58541   2.58791   2.58823
 Alpha virt. eigenvalues --    2.59076   2.59536   2.59904   2.60057   2.60150
 Alpha virt. eigenvalues --    2.60217   2.60653   2.61523   2.61719   2.61903
 Alpha virt. eigenvalues --    2.62599   2.62902   2.63441   2.63772   2.63871
 Alpha virt. eigenvalues --    2.64105   2.64444   2.64662   2.64851   2.65168
 Alpha virt. eigenvalues --    2.65365   2.65607   2.65744   2.66206   2.66379
 Alpha virt. eigenvalues --    2.66756   2.66926   2.67571   2.67656   2.67941
 Alpha virt. eigenvalues --    2.68188   2.68276   2.68844   2.69157   2.69293
 Alpha virt. eigenvalues --    2.69556   2.70155   2.70459   2.70709   2.70940
 Alpha virt. eigenvalues --    2.71453   2.71768   2.71973   2.72377   2.72608
 Alpha virt. eigenvalues --    2.72952   2.73023   2.73082   2.73223   2.73390
 Alpha virt. eigenvalues --    2.73787   2.74119   2.74307   2.74520   2.74842
 Alpha virt. eigenvalues --    2.74958   2.75559   2.75702   2.75803   2.76223
 Alpha virt. eigenvalues --    2.76568   2.76916   2.77170   2.77440   2.77589
 Alpha virt. eigenvalues --    2.77713   2.78109   2.78309   2.78367   2.78891
 Alpha virt. eigenvalues --    2.78976   2.79131   2.79565   2.79733   2.80076
 Alpha virt. eigenvalues --    2.80144   2.80266   2.80845   2.81293   2.81968
 Alpha virt. eigenvalues --    2.82115   2.82409   2.82845   2.83395   2.83987
 Alpha virt. eigenvalues --    2.84047   2.84165   2.84232   2.84401   2.84585
 Alpha virt. eigenvalues --    2.85122   2.85265   2.85452   2.85798   2.85953
 Alpha virt. eigenvalues --    2.86052   2.86298   2.86739   2.86971   2.87427
 Alpha virt. eigenvalues --    2.87569   2.88104   2.88424   2.88427   2.88910
 Alpha virt. eigenvalues --    2.89344   2.89477   2.89592   2.89933   2.90214
 Alpha virt. eigenvalues --    2.90482   2.90884   2.91115   2.91369   2.91556
 Alpha virt. eigenvalues --    2.92079   2.92145   2.92353   2.92935   2.93333
 Alpha virt. eigenvalues --    2.93498   2.93603   2.93820   2.93978   2.94088
 Alpha virt. eigenvalues --    2.94599   2.95057   2.95278   2.95372   2.95949
 Alpha virt. eigenvalues --    2.96158   2.96340   2.96810   2.97179   2.97724
 Alpha virt. eigenvalues --    2.97979   2.98927   2.99248   2.99426   2.99943
 Alpha virt. eigenvalues --    3.00567   3.00869   3.01019   3.01111   3.01638
 Alpha virt. eigenvalues --    3.01855   3.02336   3.03009   3.03172   3.03593
 Alpha virt. eigenvalues --    3.03798   3.03936   3.04314   3.04824   3.05139
 Alpha virt. eigenvalues --    3.05699   3.05756   3.06435   3.06514   3.06738
 Alpha virt. eigenvalues --    3.07617   3.08311   3.08490   3.09031   3.09377
 Alpha virt. eigenvalues --    3.09770   3.10794   3.10884   3.11244   3.11759
 Alpha virt. eigenvalues --    3.11853   3.12489   3.13014   3.13428   3.13490
 Alpha virt. eigenvalues --    3.13646   3.14153   3.14524   3.15435   3.15870
 Alpha virt. eigenvalues --    3.16104   3.17456   3.17598   3.17710   3.18329
 Alpha virt. eigenvalues --    3.18413   3.18547   3.18629   3.18715   3.19319
 Alpha virt. eigenvalues --    3.19453   3.19979   3.20803   3.21117   3.21699
 Alpha virt. eigenvalues --    3.21900   3.21941   3.22386   3.22729   3.23083
 Alpha virt. eigenvalues --    3.23392   3.23598   3.24242   3.25515   3.26119
 Alpha virt. eigenvalues --    3.26437   3.26745   3.26993   3.27449   3.28216
 Alpha virt. eigenvalues --    3.28464   3.29761   3.30287   3.30604   3.31269
 Alpha virt. eigenvalues --    3.31924   3.32652   3.34533   3.35001   3.35278
 Alpha virt. eigenvalues --    3.35546   3.37697   3.38802   3.40521   3.42348
 Alpha virt. eigenvalues --    3.42695   3.43543   3.45916   3.47983   3.50350
 Alpha virt. eigenvalues --    3.51006   3.53666   3.54345   3.54538   3.55189
 Alpha virt. eigenvalues --    3.55526   3.56853   3.57035   3.58858   3.59272
 Alpha virt. eigenvalues --    3.59528   3.62680   3.64999   3.65104   3.65474
 Alpha virt. eigenvalues --    3.65515   3.65682   3.66091   3.66402   3.67058
 Alpha virt. eigenvalues --    3.67809   3.68142   3.69557   3.70126   3.70141
 Alpha virt. eigenvalues --    3.72102   3.72354   3.73049   3.73083   3.73379
 Alpha virt. eigenvalues --    3.73953   3.75158   3.75409   3.75785   3.77844
 Alpha virt. eigenvalues --    3.78815   3.80886   3.82065   3.82448
          Condensed to atoms (all electrons):
 Mulliken charges:
               1
     1  C    0.078873
     2  C    0.022374
     3  O   -0.310200
     4  H    0.043910
     5  H   -0.014036
     6  H    0.030984
     7  N   -0.109110
     8  C    0.114329
     9  C    0.078305
    10  O   -0.274820
    11  C    0.069155
    12  C    0.142167
    13  O   -0.485861
    14  O   -0.372137
    15  H    0.120528
    16  H   -0.028534
    17  H    0.020858
    18  H   -0.000668
    19  N   -0.118109
    20  C    0.164163
    21  C    0.058249
    22  O   -0.266502
    23  C   -0.061172
    24  C    0.050068
    25  C   -0.075804
    26  C    0.031250
    27  N    0.088387
    28  H    0.138011
    29  H   -0.010405
    30  H    0.019942
    31  H    0.015571
    32  H    0.021612
    33  H    0.017072
    34  H    0.024623
    35  H    0.055019
    36  H    0.083721
    37  H    0.057775
    38  H    0.194376
    39  H    0.193438
    40  H    0.194151
    41  N   -0.144406
    42  C    0.159217
    43  C    0.054661
    44  O   -0.289673
    45  C    0.019183
    46  C    0.136101
    47  O   -0.485907
    48  O   -0.369532
    49  H    0.139370
    50  H    0.005536
    51  H   -0.030884
    52  H    0.019032
    53  N   -0.166827
    54  C    0.234125
    55  C    0.041879
    56  O   -0.303534
    57  H    0.152664
    58  H    0.018158
    59  H    0.033332
    60  N   -0.180321
    61  C    0.151339
    62  C    0.056048
    63  O   -0.290726
    64  C    0.059775
    65  C    0.092340
    66  N   -0.034268
    67  O   -0.323192
    68  H    0.161568
    69  H    0.019051
    70  H    0.074138
    71  H    0.002622
    72  H    0.135259
    73  H    0.104721
    74  N   -0.169175
    75  C    0.239594
    76  C    0.033375
    77  O   -0.288698
    78  H    0.162665
    79  H    0.024521
    80  H    0.023023
    81  N   -0.147402
    82  C    0.088330
    83  C    0.132074
    84  O   -0.348816
    85  C    0.153043
    86  C    0.011667
    87  C    0.026432
    88  C    0.040163
    89  C   -0.018306
    90  C   -0.051548
    91  C    0.169982
    92  O   -0.223335
    93  H    0.164931
    94  H   -0.001667
    95  H   -0.008836
    96  H   -0.052794
    97  H   -0.071762
    98  H   -0.048179
    99  H   -0.018567
   100  H   -0.054706
   101  H    0.172930
   102  N   -0.117438
   103  C    0.163149
   104  C    0.041077
   105  O   -0.294532
   106  C   -0.075991
   107  C   -0.011576
   108  C    0.068107
   109  C    0.025904
   110  H    0.130374
   111  H    0.012241
   112  H   -0.014857
   113  H   -0.004346
   114  H    0.023355
   115  H    0.008042
   116  H    0.034571
   117  H    0.010927
   118  H    0.009033
   119  H   -0.001984
   120  H    0.005306
   121  N   -0.150134
   122  C    0.076814
   123  C    0.124090
   124  O   -0.287372
   125  C    0.264347
   126  O   -0.337626
   127  H    0.137695
   128  H    0.017200
   129  H    0.004968
   130  H   -0.030445
   131  H    0.164183
   132  N   -0.118727
   133  C    0.091382
   134  C    0.048744
   135  O   -0.248891
   136  C    0.028235
   137  H    0.125073
   138  H    0.022680
   139  H    0.025611
   140  H    0.011066
   141  H    0.044709
   142  N   -0.141285
   143  C    0.105653
   144  C    0.069630
   145  O   -0.280099
   146  C    0.039092
   147  H    0.112058
   148  H    0.022187
   149  H    0.025024
   150  H    0.012474
   151  H    0.019197
   152  N   -0.184075
   153  C    0.153107
   154  C    0.069862
   155  O   -0.302942
   156  C   -0.074094
   157  C    0.122055
   158  C    0.160445
   159  O   -0.457115
   160  O   -0.425427
   161  H    0.143759
   162  H   -0.032514
   163  H    0.048349
   164  H    0.050040
   165  H   -0.014208
   166  H   -0.039737
   167  N   -0.151593
   168  C    0.161887
   169  H    0.025786
   170  H    0.022559
   171  H    0.009661
   172  H    0.130661
   173  Ca   1.287037
   174  O   -0.278590
   175  H    0.178713
   176  H    0.196144
 Sum of Mulliken charges =  -0.00000
 Mulliken charges with hydrogens summed into heavy atoms:
               1
     1  C    0.139731
     2  C    0.022374
     3  O   -0.310200
     7  N    0.011418
     8  C    0.085794
     9  C    0.078305
    10  O   -0.274820
    11  C    0.089345
    12  C    0.142167
    13  O   -0.485861
    14  O   -0.372137
    19  N    0.019902
    20  C    0.153758
    21  C    0.058249
    22  O   -0.266502
    23  C   -0.025659
    24  C    0.088753
    25  C    0.003838
    26  C    0.172745
    27  N    0.670352
    41  N   -0.005036
    42  C    0.164753
    43  C    0.054661
    44  O   -0.289673
    45  C    0.007331
    46  C    0.136101
    47  O   -0.485907
    48  O   -0.369532
    53  N   -0.014163
    54  C    0.285615
    55  C    0.041879
    56  O   -0.303534
    60  N   -0.018753
    61  C    0.170390
    62  C    0.056048
    63  O   -0.290726
    64  C    0.136535
    65  C    0.092340
    66  N    0.205711
    67  O   -0.323192
    74  N   -0.006510
    75  C    0.287139
    76  C    0.033375
    77  O   -0.288698
    81  N    0.017529
    82  C    0.086662
    83  C    0.132074
    84  O   -0.348816
    85  C    0.091414
    86  C    0.011667
    87  C   -0.045330
    88  C   -0.008017
    89  C   -0.036873
    90  C   -0.106254
    91  C    0.169982
    92  O   -0.050405
   102  N    0.012937
   103  C    0.175390
   104  C    0.041077
   105  O   -0.294532
   106  C   -0.090847
   107  C    0.007434
   108  C    0.121647
   109  C    0.038259
   121  N   -0.012439
   122  C    0.094014
   123  C    0.124090
   124  O   -0.287372
   125  C    0.238869
   126  O   -0.173444
   132  N    0.006347
   133  C    0.114063
   134  C    0.048744
   135  O   -0.248891
   136  C    0.109620
   142  N   -0.029228
   143  C    0.127840
   144  C    0.069630
   145  O   -0.280099
   146  C    0.095787
   152  N   -0.040316
   153  C    0.120593
   154  C    0.069862
   155  O   -0.302942
   156  C    0.024294
   157  C    0.068110
   158  C    0.160445
   159  O   -0.457115
   160  O   -0.425427
   167  N   -0.020932
   168  C    0.219893
   173  Ca   1.287037
   174  O    0.096267
 DipInt: DoE/N= T F RetVal/Mat= T F Init=T NMatP=  1 IDeriv=0 Min/MaxMlt=  0  4
 Entering OneElI...
 OneElI was handed  1333951383 working-precision words.
 Multipole integrals L=0 to 4 MinM= 0 MaxM= 0.
 Requested accuracy = 0.1000D-12
 ShPair: Thresh= 1.00D-13 NBox=     0 BxSize= 0.00D+00 RnKept= 2.55D+01
         NSMCal=               327645 NSMKep=              163570
 PrmmSu-InSpLW:  IPartL=    0 NPrtUS=    1 NPrtUL=    1 DoSpLW=F IThBeg=    0 IThEnd=    0 NThAct=    1.
 PrsmSu:  NPrtUS=   1 ThrOK=F IAlg=1 NPAlg=1 LenDen=           0 ISkipM=0 DoSpLW=F IThBeg=    0 IThEnd=    0.
 Prism:   IPart=     0 DynPar=F LinDyn=F Incr=         512.
 PRISM was handed  1323759749 working-precision words and163570 shell-pairs
 IPart=  0 NShTot=      163570 NBatch=         375 AvBLen=       436.2
 PrsmSu-ThDecC:  IPartSL=    0    0 NPrtUSL=    1    1 IThBeg=    0 IThEnd=    0 CPU=   -1 GPU=   -1 NThAct=    1.
 PrSmSu:  NxtVal=            513.
 Electronic moments (au):
       -716.00000000         16.05857548         -0.93835013         -5.90622130
     -51642.60133289     -28694.19066821     -12596.75261370        119.00707048
        -69.83629013         -9.86568306     -30563.02902695     -17539.57868896
     -24458.27326361      20492.62905858      98058.17000261      50095.12360483
     -16201.03516105      -1533.61900460      20471.44433291      -7784.84048126
   -7368198.05320298   -2475354.71564259    -665551.52907312    -384738.36733979
     207460.82144796    -457788.86615948       2079.39351133    -114031.50372312
      11012.59770737   -2259686.13792975    -661007.23036534    -328551.54036505
    -164885.60628560      51232.81210714      65727.77374395
 Electronic spatial extent (au):  <R**2>=          92933.5446
 DipInt: DoE/N= F T RetVal/Mat= T F Init=T NMatP=  1 IDeriv=0 Min/MaxMlt=  0  4
 Nuclear    moments (au):
        716.00000000          0.00000000         -0.00000000         -0.00000000
      51226.73059982      28331.64852395      12214.25605191         -0.00000000
         -0.00000000         -0.00000000      32556.88980544      17687.78436644
      24396.67885034     -18469.63904597     -97251.84728276     -50881.99671739
      16512.19808636       1393.76975662     -20904.03198882       7445.89423985
    7184271.70766807    2383835.97497827     624424.15781803     404592.66420529
    -217297.11790496     476274.75222193      -5659.21005446     112550.39112276
      -9442.61108821    2232156.92879378     626706.82209439     305006.64450420
     161387.95634179     -58655.30070213     -64941.41502695
 Total      moments (au):
         -0.00000000         16.05857548         -0.93835013         -5.90622130
       -415.87073307       -362.54214426       -382.49656178        119.00707048
        -69.83629013         -9.86568306       1993.86077849        148.20567748
        -61.59441327       2022.99001261        806.32271984       -786.87311256
        311.16292531       -139.84924797       -432.58765591       -338.94624141
    -183926.34553491     -91518.74066432     -41127.37125509      19854.29686550
      -9836.29645700      18485.88606245      -3579.81654313      -1481.11260036
       1569.98661916     -27529.20913596     -34300.40827095     -23544.89586085
      -3497.64994381      -7422.48859499        786.35871701
 Traceless Quadrup. (au):
        -28.90092003         24.42766878          4.47325125        119.00707048
        -69.83629013         -9.86568306
 Charge=             -0.0000 electrons
 Dipole moment (field-independent basis, Debye):
    X=             40.8168    Y=             -2.3850    Z=            -15.0121  Tot=             43.5553
 Quadrupole moment (field-independent basis, Debye-Ang):
   XX=           -559.3604   YY=           -487.6316   ZZ=           -514.4710
   XY=            160.0686   XZ=            -93.9322   YZ=            -13.2697
 Traceless Quadrupole moment (field-independent basis, Debye-Ang):
   XX=            -38.8727   YY=             32.8561   ZZ=              6.0167
   XY=            160.0686   XZ=            -93.9322   YZ=            -13.2697
 Octapole moment (field-independent basis, Debye-Ang**2):
  XXX=           1419.1533  YYY=            105.4871  ZZZ=            -43.8405  XYY=           1439.8864
  XXY=            573.9094  XXZ=           -560.0660  XZZ=            221.4738  YZZ=            -99.5393
  YYZ=           -307.8992  XYZ=           -241.2489
 Hexadecapole moment (field-independent basis, Debye-Ang**3):
 XXXX=         -69275.4813 YYYY=         -34470.3462 ZZZZ=         -15490.5401 XXXY=           7478.0802
 XXXZ=          -3704.8209 YYYX=           6962.6711 YYYZ=          -1348.3306 ZZZX=           -557.8580
 ZZZY=            591.3322 XXYY=         -10368.8202 XXZZ=         -12919.1785 YYZZ=          -8868.1368
 XXYZ=          -1317.3827 YYXZ=          -2795.6651 ZZXY=            296.1804
 N-N= 2.189618050261D+04 E-N=-5.627524470367D+04  KE= 5.290487676127D+03
 Leave Link  601 at Wed Sep 18 17:30:57 2019, MaxMem=  1342177280 cpu:              43.0 elap:               1.1
 FitSet:  NAtFit=   176 NAtPot=   176 NAtFrz=     0 MDM=   180 TotChg=   0.00000
 Merz-Kollman atomic radii used.
 Read replacement radii for each type of atom:
 Rad(20) =   1.700000000000D+00
 Atom Element Radius
    1     6    1.50
    2     6    1.50
    3     8    1.40
    4     1    1.20
    5     1    1.20
    6     1    1.20
    7     7    1.50
    8     6    1.50
    9     6    1.50
   10     8    1.40
   11     6    1.50
   12     6    1.50
   13     8    1.40
   14     8    1.40
   15     1    1.20
   16     1    1.20
   17     1    1.20
   18     1    1.20
   19     7    1.50
   20     6    1.50
   21     6    1.50
   22     8    1.40
   23     6    1.50
   24     6    1.50
   25     6    1.50
   26     6    1.50
   27     7    1.50
   28     1    1.20
   29     1    1.20
   30     1    1.20
   31     1    1.20
   32     1    1.20
   33     1    1.20
   34     1    1.20
   35     1    1.20
   36     1    1.20
   37     1    1.20
   38     1    1.20
   39     1    1.20
   40     1    1.20
   41     7    1.50
   42     6    1.50
   43     6    1.50
   44     8    1.40
   45     6    1.50
   46     6    1.50
   47     8    1.40
   48     8    1.40
   49     1    1.20
   50     1    1.20
   51     1    1.20
   52     1    1.20
   53     7    1.50
   54     6    1.50
   55     6    1.50
   56     8    1.40
   57     1    1.20
   58     1    1.20
   59     1    1.20
   60     7    1.50
   61     6    1.50
   62     6    1.50
   63     8    1.40
   64     6    1.50
   65     6    1.50
   66     7    1.50
   67     8    1.40
   68     1    1.20
   69     1    1.20
   70     1    1.20
   71     1    1.20
   72     1    1.20
   73     1    1.20
   74     7    1.50
   75     6    1.50
   76     6    1.50
   77     8    1.40
   78     1    1.20
   79     1    1.20
   80     1    1.20
   81     7    1.50
   82     6    1.50
   83     6    1.50
   84     8    1.40
   85     6    1.50
   86     6    1.50
   87     6    1.50
   88     6    1.50
   89     6    1.50
   90     6    1.50
   91     6    1.50
   92     8    1.40
   93     1    1.20
   94     1    1.20
   95     1    1.20
   96     1    1.20
   97     1    1.20
   98     1    1.20
   99     1    1.20
  100     1    1.20
  101     1    1.20
  102     7    1.50
  103     6    1.50
  104     6    1.50
  105     8    1.40
  106     6    1.50
  107     6    1.50
  108     6    1.50
  109     6    1.50
  110     1    1.20
  111     1    1.20
  112     1    1.20
  113     1    1.20
  114     1    1.20
  115     1    1.20
  116     1    1.20
  117     1    1.20
  118     1    1.20
  119     1    1.20
  120     1    1.20
  121     7    1.50
  122     6    1.50
  123     6    1.50
  124     8    1.40
  125     6    1.50
  126     8    1.40
  127     1    1.20
  128     1    1.20
  129     1    1.20
  130     1    1.20
  131     1    1.20
  132     7    1.50
  133     6    1.50
  134     6    1.50
  135     8    1.40
  136     6    1.50
  137     1    1.20
  138     1    1.20
  139     1    1.20
  140     1    1.20
  141     1    1.20
  142     7    1.50
  143     6    1.50
  144     6    1.50
  145     8    1.40
  146     6    1.50
  147     1    1.20
  148     1    1.20
  149     1    1.20
  150     1    1.20
  151     1    1.20
  152     7    1.50
  153     6    1.50
  154     6    1.50
  155     8    1.40
  156     6    1.50
  157     6    1.50
  158     6    1.50
  159     8    1.40
  160     8    1.40
  161     1    1.20
  162     1    1.20
  163     1    1.20
  164     1    1.20
  165     1    1.20
  166     1    1.20
  167     7    1.50
  168     6    1.50
  169     1    1.20
  170     1    1.20
  171     1    1.20
  172     1    1.20
[...]
 **** Fit       0.001002
 **** Fit       0.005251
 **** Fit       0.008250
 **** Fit       0.009739
 **** Fit       0.009652
 **** Fit      -0.024485
 **** Fit      -0.019888
 **** Fit      -0.014095
 **** Fit      -0.007514
 **** Fit      -0.000677
 **** Fit       0.005768
 **** Fit       0.011136
 **** Fit       0.014885
 **** Fit       0.016789
 **** Fit      -0.004963
 **** Fit       0.003992
 **** Fit       0.057082
 **** Fit       0.064333
 **** Fit       0.057109
 **** Fit       0.061863
 **** Fit       0.054932
 **** Fit       0.057453
 **** Fit       0.057975
 **** Fit       0.056104
 **** Fit       0.052242
 **** Fit       0.047441
 **** Fit       0.043047
 **** Fit       0.051948
 **** Fit       0.052334
 **** Fit       0.050742
 **** Fit       0.047888
 **** Fit       0.045348
 **** Fit       0.048114
 **** Fit       0.047430
 **** Fit       0.046219
 **** Fit       0.046342
 **** Fit       0.044957
 **** Fit       0.045444
 **** Fit       0.036818
 **** Fit       0.017084
 **** Fit       0.010065
 **** Fit       0.022407
 **** Fit       0.032213
 **** Fit       0.032455
 **** Fit       0.044947
 **** Fit       0.041293
 **** Fit       0.056749
 **** Fit       0.045427
 **** Fit       0.044210
 **** Fit       0.042305
 **** Fit       0.041115
 **** Fit       0.038793
 **** Fit       0.037847
 **** Fit       0.047601
 **** Fit       0.053448
 **** Fit      -0.024923
 **** Fit      -0.002081
 **** Fit      -0.004095
 **** Fit      -0.000581
 **** Fit      -0.001764
 **** Fit      -0.003631
 **** Fit      -0.005959
 **** Fit      -0.008487
 **** Fit       0.001684
 **** Fit       0.001332
 **** Fit       0.000665
 **** Fit      -0.000354
 **** Fit      -0.001371
 **** Fit      -0.003110
 **** Fit      -0.005404
 **** Fit      -0.008288
 **** Fit      -0.011512
 **** Fit      -0.014459
 **** Fit       0.002565
 **** Fit       0.002295
 **** Fit       0.001771
 **** Fit       0.000991
 **** Fit      -0.000042
 **** Fit      -0.000965
 **** Fit      -0.018347
 **** Fit      -0.021630
 **** Fit       0.003362
 **** Fit       0.003459
 **** Fit       0.003404
 **** Fit       0.003139
 **** Fit       0.002656
 **** Fit       0.001985
 **** Fit       0.001161
 **** Fit       0.000193
 **** Fit      -0.024846
 **** Fit       0.003867
 **** Fit       0.004152
 **** Fit       0.004347
 **** Fit       0.004354
 **** Fit       0.004120
 **** Fit       0.003646
 **** Fit       0.002982
 **** Fit       0.002195
 **** Fit       0.001336
 **** Fit       0.000418
 **** Fit       0.004181
 **** Fit       0.004630
 **** Fit       0.005058
 **** Fit       0.003935
 **** Fit       0.003087
 **** Fit       0.002202
 **** Fit       0.001334
 **** Fit       0.000491
 **** Fit       0.004088
 **** Fit       0.004684
 **** Fit       0.005361
 **** Fit       0.003024
 **** Fit       0.002038
 **** Fit       0.001153
 **** Fit       0.004252
 **** Fit       0.005210
 **** Fit       0.002644
 **** Fit       0.001578
 **** Fit       0.000688
 **** Fit       0.003863
 **** Fit       0.005335
 **** Fit       0.000818
 **** Fit      -0.000098
 **** Fit       0.005893
 **** Fit      -0.000270
 **** Fit      -0.001267
 **** Fit      -0.001982
 **** Fit      -0.003022
 **** Fit      -0.004570
 **** Fit      -0.005567
 **** Fit      -0.006282
 **** Fit      -0.008282
 **** Fit      -0.009154
 **** Fit      -0.009738
 **** Fit      -0.014757
 **** Fit      -0.014402
 **** Fit      -0.014572
 **** Fit      -0.020801
 **** Fit      -0.003635
 **** Fit      -0.005962
 **** Fit      -0.008977
 **** Fit      -0.002888
 **** Fit      -0.004769
 **** Fit      -0.007342
 **** Fit      -0.010657
 **** Fit      -0.014414
 **** Fit      -0.001514
 **** Fit      -0.002301
 **** Fit      -0.003904
 **** Fit      -0.006114
 **** Fit      -0.009121
 **** Fit      -0.013040
 **** Fit      -0.017756
 **** Fit      -0.022684
 **** Fit      -0.001101
 **** Fit      -0.001919
 **** Fit      -0.003325
 **** Fit      -0.005275
 **** Fit      -0.007991
 **** Fit      -0.011708
 **** Fit      -0.016634
 **** Fit      -0.022805
 **** Fit       0.000022
 **** Fit      -0.000861
 **** Fit      -0.001790
 **** Fit      -0.003003
 **** Fit      -0.004685
 **** Fit      -0.007040
 **** Fit      -0.010323
 **** Fit      -0.014841
 **** Fit      -0.020942
 **** Fit      -0.000105
 **** Fit      -0.000875
 **** Fit      -0.001971
 **** Fit      -0.003084
 **** Fit      -0.004655
 **** Fit      -0.006894
 **** Fit      -0.010080
 **** Fit      -0.014596
 **** Fit      -0.020968
 **** Fit       0.000260
 **** Fit      -0.000450
 **** Fit      -0.001144
 **** Fit      -0.002527
 **** Fit      -0.003538
 **** Fit      -0.004984
 **** Fit      -0.007064
 **** Fit      -0.010049
 **** Fit      -0.014336
 **** Fit      -0.020518
 **** Fit      -0.000560
 **** Fit      -0.001186
 **** Fit      -0.001792
 **** Fit      -0.003545
 **** Fit      -0.004487
 **** Fit      -0.005869
 **** Fit      -0.007883
 **** Fit      -0.010795
 **** Fit      -0.015011
 **** Fit      -0.021170
 **** Fit      -0.001835
 **** Fit      -0.002367
 **** Fit      -0.002886
 **** Fit      -0.005130
 **** Fit      -0.006067
 **** Fit      -0.007511
 **** Fit      -0.009670
 **** Fit      -0.012844
 **** Fit      -0.017501
 **** Fit      -0.004114
 **** Fit      -0.004533
 **** Fit      -0.007419
 **** Fit      -0.008379
 **** Fit      -0.009973
 **** Fit      -0.012430
 **** Fit      -0.016081
 **** Fit      -0.021468
 **** Fit      -0.006663
 **** Fit      -0.006908
 **** Fit      -0.010567
 **** Fit      -0.011531
 **** Fit      -0.013300
 **** Fit      -0.016089
 **** Fit      -0.020195
 **** Fit      -0.010222
 **** Fit      -0.014721
 **** Fit      -0.015730
 **** Fit      -0.017922
 **** Fit      -0.021472
 **** Fit      -0.014711
 **** Fit      -0.019931
 **** Fit      -0.020856
 **** Fit      -0.023456
 **** Fit      -0.002591
 **** Fit      -0.002600
 **** Fit      -0.004390
 **** Fit      -0.004400
 **** Fit      -0.002553
 **** Fit      -0.001113
 **** Fit      -0.001158
 **** Fit      -0.002551
 **** Fit      -0.004638
 **** Fit      -0.006597
 **** Fit      -0.007492
 **** Fit      -0.006748
 **** Fit      -0.004754
 **** Fit      -0.002505
 **** Fit      -0.000801
 **** Fit       0.000116
 **** Fit       0.000361
 **** Fit       0.000020
 **** Fit      -0.000940
 **** Fit      -0.004539
 **** Fit      -0.006996
 **** Fit      -0.009331
 **** Fit      -0.010883
 **** Fit      -0.011101
 **** Fit      -0.009876
 **** Fit      -0.007599
 **** Fit      -0.004932
 **** Fit      -0.002475
 **** Fit      -0.000609
 **** Fit       0.000551
 **** Fit       0.001156
 **** Fit       0.001399
 **** Fit       0.001364
 **** Fit       0.001036
 **** Fit       0.000350
 **** Fit      -0.000776
 **** Fit      -0.013220
 **** Fit      -0.015402
 **** Fit      -0.016204
 **** Fit      -0.015428
 **** Fit      -0.013295
 **** Fit      -0.010290
 **** Fit      -0.006996
 **** Fit      -0.003890
 **** Fit      -0.001312
 **** Fit       0.000471
 **** Fit       0.001464
 **** Fit       0.001950
 **** Fit       0.002190
 **** Fit       0.002294
 **** Fit       0.002258
 **** Fit       0.002036
 **** Fit      -0.021959
 **** Fit      -0.023107
 **** Fit      -0.022333
 **** Fit      -0.019974
 **** Fit      -0.016531
 **** Fit      -0.012503
 **** Fit      -0.008371
 **** Fit      -0.004480
 **** Fit      -0.001168
 **** Fit       0.001114
 **** Fit       0.002247
 **** Fit       0.002650
 **** Fit       0.002811
 **** Fit       0.002943
 **** Fit       0.003060
 **** Fit       0.003112
 **** Fit      -0.029091
 **** Fit      -0.025196
 **** Fit      -0.020625
 **** Fit      -0.015627
 **** Fit      -0.010516
 **** Fit       0.003447
 **** Fit       0.003434
 **** Fit       0.003578
 **** Fit      -0.026897
 **** Fit      -0.020588
 **** Fit      -0.013998
 **** Fit       0.003785
 **** Fit       0.003963
 **** Fit      -0.025618
 **** Fit       0.005618
 **** Fit       0.005606
 **** Fit       0.005300
 **** Fit       0.004747
 **** Fit       0.005749
 **** Fit       0.006291
 **** Fit       0.006552
 **** Fit       0.006500
 **** Fit       0.006149
 **** Fit       0.005547
 **** Fit       0.004762
 **** Fit       0.003870
 **** Fit       0.006015
 **** Fit       0.006821
 **** Fit       0.007349
 **** Fit       0.007551
 **** Fit       0.007424
 **** Fit       0.007000
 **** Fit       0.006328
 **** Fit       0.005472
 **** Fit       0.004497
 **** Fit       0.003470
 **** Fit       0.006438
 **** Fit       0.007539
 **** Fit       0.008269
 **** Fit       0.008594
 **** Fit       0.008520
 **** Fit       0.008088
 **** Fit       0.007359
 **** Fit       0.006405
 **** Fit       0.005298
 **** Fit       0.004107
 **** Fit       0.002897
 **** Fit       0.006827
 **** Fit       0.008298
 **** Fit       0.009272
 **** Fit       0.009735
 **** Fit       0.009708
 **** Fit       0.009247
 **** Fit       0.008431
 **** Fit       0.007348
 **** Fit       0.006083
 **** Fit       0.004713
 **** Fit       0.003305
 **** Fit       0.001918
 **** Fit       0.000609
 **** Fit       0.008531
 **** Fit       0.010059
 **** Fit       0.010904
 **** Fit       0.011090
 **** Fit       0.010685
 **** Fit       0.009798
 **** Fit       0.008549
 **** Fit       0.007056
 **** Fit       0.005423
 **** Fit       0.003735
 **** Fit       0.002060
 **** Fit       0.000452
 **** Fit      -0.001042
 **** Fit       0.009037
 **** Fit       0.011201
 **** Fit       0.012376
 **** Fit       0.012583
 **** Fit       0.011931
 **** Fit       0.010610
 **** Fit       0.008828
 **** Fit       0.006775
 **** Fit       0.004601
 **** Fit       0.002422
 **** Fit       0.000323
 **** Fit      -0.001637
 **** Fit      -0.003420
 **** Fit       0.011282
 **** Fit       0.013609
 **** Fit       0.011785
 **** Fit       0.009242
 **** Fit       0.006339
 **** Fit       0.003332
 **** Fit       0.000403
 **** Fit      -0.002330
 **** Fit      -0.004796
 **** Fit      -0.006961
 **** Fit       0.005105
 **** Fit       0.000862
 **** Fit       0.038530
 **** Fit       0.043414
 **** Fit       0.044680
 **** Fit       0.045752
 **** Fit       0.051531
 **** Fit       0.051769
 **** Fit       0.057995
 **** Fit       0.000408
 **** Fit      -0.002719
 **** Fit       0.014133
 **** Fit       0.056841
 **** Fit       0.055691
 **** Fit       0.055448
 **** Fit       0.052978
 **** Fit       0.051333
 **** Fit       0.053278
 **** Fit       0.051437
 **** Fit       0.050149
 **** Fit       0.048847
 **** Fit       0.050524
 **** Fit       0.049688
 **** Fit       0.048935
 **** Fit       0.048169
 **** Fit       0.047006
 **** Fit       0.045008
 **** Fit       0.042017
 **** Fit       0.045890
 **** Fit       0.046786
 **** Fit       0.047005
 **** Fit       0.046919
 **** Fit       0.046511
 **** Fit       0.045624
 **** Fit       0.044218
 **** Fit       0.042646
 **** Fit       0.041796
 **** Fit       0.042747
 **** Fit      -0.007666
 **** Fit       0.005630
 **** Fit       0.018103
 **** Fit       0.028502
 **** Fit       0.036035
 **** Fit       0.040685
 **** Fit       0.043216
 **** Fit       0.044514
 **** Fit       0.045126
 **** Fit       0.045248
 **** Fit       0.044937
 **** Fit       0.044377
 **** Fit       0.044069
 **** Fit       0.044748
 **** Fit       0.046966
 **** Fit      -0.005690
 **** Fit       0.001106
 **** Fit       0.010792
 **** Fit       0.020709
 **** Fit       0.029159
 **** Fit       0.035353
 **** Fit       0.039362
 **** Fit       0.041761
 **** Fit       0.043129
 **** Fit       0.043822
 **** Fit       0.044084
 **** Fit       0.044250
 **** Fit       0.044809
 **** Fit       0.046165
 **** Fit       0.044940
 **** Fit       0.015090
 **** Fit       0.008540
 **** Fit       0.007792
 **** Fit       0.012443
 **** Fit       0.019923
 **** Fit       0.027530
 **** Fit       0.033632
 **** Fit       0.037809
 **** Fit       0.040399
 **** Fit       0.041902
 **** Fit       0.042755
 **** Fit       0.043389
 **** Fit       0.044161
 **** Fit       0.041159
 **** Fit       0.038843
 **** Fit       0.032955
 **** Fit       0.024842
 **** Fit       0.019012
 **** Fit       0.019091
 **** Fit       0.024189
 **** Fit       0.030618
 **** Fit       0.035701
 **** Fit       0.038850
 **** Fit       0.040529
 **** Fit       0.041307
 **** Fit       0.037094
 **** Fit       0.032409
 **** Fit       0.026910
 **** Fit       0.028534
 **** Fit       0.034018
 **** Fit       0.037299
 **** Fit       0.032860
 **** Fit       0.039982
 **** Fit       0.036086
 **** Fit       0.030714
 **** Fit       0.046821
 **** Fit       0.046865
 **** Fit       0.045163
 **** Fit       0.041635
 **** Fit       0.036352
 **** Fit       0.029458
 **** Fit       0.044517
 **** Fit       0.047503
 **** Fit       0.049063
 **** Fit       0.049125
 **** Fit       0.047507
 **** Fit       0.044095
 **** Fit       0.038905
 **** Fit       0.032025
 **** Fit       0.039888
 **** Fit       0.046245
 **** Fit       0.048745
 **** Fit       0.049882
 **** Fit       0.049518
 **** Fit       0.047466
 **** Fit       0.043611
 **** Fit       0.037944
 **** Fit       0.030503
 **** Fit       0.042369
 **** Fit       0.047181
 **** Fit       0.048969
 **** Fit       0.049464
 **** Fit       0.048453
 **** Fit       0.045737
 **** Fit       0.041203
 **** Fit       0.034820
 **** Fit       0.026571
 **** Fit       0.016341
 **** Fit       0.040513
 **** Fit       0.044278
 **** Fit       0.047329
 **** Fit       0.048292
 **** Fit       0.048072
 **** Fit       0.046410
 **** Fit       0.043105
 **** Fit       0.038046
 **** Fit       0.031189
 **** Fit       0.022490
 **** Fit       0.011831
 **** Fit      -0.000989
 **** Fit       0.040316
 **** Fit       0.041115
 **** Fit       0.043182
 **** Fit       0.045486
 **** Fit       0.046745
 **** Fit       0.046871
 **** Fit       0.045755
 **** Fit       0.043074
 **** Fit       0.038619
 **** Fit       0.032303
 **** Fit       0.024117
 **** Fit       0.014102
 **** Fit       0.002425
 **** Fit       0.044729
 **** Fit       0.043977
 **** Fit       0.044624
 **** Fit       0.045805
 **** Fit       0.045500
 **** Fit       0.044769
 **** Fit       0.042715
 **** Fit       0.038990
 **** Fit       0.033435
 **** Fit       0.026090
 **** Fit       0.017222
 **** Fit       0.007502
 **** Fit      -0.001524
 **** Fit       0.047229
 **** Fit       0.045602
 **** Fit       0.045208
 **** Fit       0.045425
 **** Fit       0.043659
 **** Fit       0.041986
 **** Fit       0.038732
 **** Fit       0.033601
 **** Fit       0.026742
 **** Fit       0.018889
 **** Fit       0.011667
 **** Fit       0.007755
 **** Fit       0.045966
 **** Fit       0.044914
 **** Fit       0.044370
 **** Fit       0.041253
 **** Fit       0.038304
 **** Fit       0.033206
 **** Fit       0.026544
 **** Fit       0.020699
 **** Fit       0.019462
 **** Fit       0.043523
 **** Fit       0.042687
 **** Fit       0.038276
 **** Fit       0.033486
 **** Fit       0.028342
 **** Fit       0.030288
 **** Fit       0.037051
 **** Fit       0.039727
 **** Fit       0.034665
 -----------------------------------------------------------------
 Leave Link  602 at Wed Sep 18 17:31:00 2019, MaxMem=  1342177280 cpu:             127.0 elap:               2.7

 Test job not archived.
 1\1\GINC-C501-062\SP\RB3LYP\SVP\C54H83Ca1N15O23\JAEBEOMH\18-Sep-2019\0
 \\#b3lyp/svp scf=(tight,noincore) Test #IOP(5/87=12) Density=Current P
 op=(MK,readradii) iop(6/33=2) iop(6/42=6)\\holoCaM_loop3_32.0\\0,1\C,0
 ,37.41,46.66,42.\C,0,37.83,46.43,43.45\O,0,36.96,45.96,44.18\H,0,36.56
 ,47.342,41.972\H,0,38.242,47.094,41.445\H,0,37.127,45.709,41.548\N,0,3
 9.06,46.76,43.86\C,0,39.44,46.73,45.26\C,0,39.08,48.03,45.98\O,0,39.7,
 49.04,45.68\C,0,40.89,46.35,45.52\C,0,41.24,46.29,47.\O,0,40.36,46.55,
 47.85\O,0,42.41,45.99,47.32\H,0,39.76,46.82,43.14\H,0,38.85,45.96,45.7
 5\H,0,41.61,47.05,45.07\H,0,41.09,45.34,45.16\N,0,38.07,47.91,46.84\C,
 0,37.44,49.08,47.42\C,0,38.3,49.81,48.45\O,0,38.47,51.,48.19\C,0,36.06
 ,48.7,47.93\C,0,35.13,49.79,48.46\C,0,33.7,49.26,48.32\C,0,32.64,50.27
 ,48.76\N,0,31.26,49.77,48.85\H,0,37.61,47.03,47.02\H,0,37.32,49.7,46.5
 3\H,0,36.13,48.02,48.78\H,0,35.59,48.13,47.13\H,0,35.17,50.77,47.99\H,
 0,35.43,49.83,49.5\H,0,33.67,48.39,48.97\H,0,33.56,49.04,47.26\H,0,32.
 77,51.13,48.1\H,0,32.88,50.6,49.77\H,0,31.26,48.84,49.25\H,0,30.65,50.
 38,49.38\H,0,30.79,49.67,47.96\N,0,38.74,49.09,49.48\C,0,39.58,49.58,5
 0.56\C,0,41.07,49.54,50.29\O,0,41.81,50.08,51.1\C,0,39.23,48.81,51.83\
 C,0,39.84,47.42,51.98\O,0,40.05,46.76,50.94\O,0,40.03,47.01,53.15\H,0,
 38.34,48.17,49.63\H,0,39.36,50.63,50.76\H,0,38.14,48.87,51.88\H,0,39.6
 3,49.36,52.68\N,0,41.59,48.96,49.2\C,0,42.98,49.11,48.82\C,0,43.85,48.
 07,49.52\O,0,45.04,48.34,49.62\H,0,40.98,48.59,48.49\H,0,43.3,50.08,49
 .2\H,0,43.01,49.18,47.73\N,0,43.38,46.94,50.05\C,0,44.16,45.96,50.79\C
 ,0,44.88,44.93,49.94\O,0,45.43,43.93,50.4\C,0,43.35,45.39,51.95\C,0,42
 .38,44.29,51.51\N,0,42.03,43.32,52.35\O,0,41.96,44.3,50.36\H,0,42.39,4
 6.74,49.99\H,0,44.92,46.58,51.26\H,0,42.91,46.16,52.59\H,0,44.07,44.88
 ,52.6\H,0,42.43,43.09,53.25\H,0,41.27,42.74,52.04\N,0,44.74,45.13,48.6
 2\C,0,45.4,44.23,47.69\C,0,44.65,42.95,47.37\O,0,45.24,41.95,46.98\H,0
 ,44.11,45.89,48.4\H,0,46.36,43.83,48.04\H,0,45.7,44.8,46.81\N,0,43.33,
 42.98,47.62\C,0,42.37,41.93,47.38\C,0,40.99,42.52,47.11\O,0,40.57,43.5
 4,47.64\C,0,42.31,40.99,48.59\C,0,43.56,40.33,49.1\C,0,44.02,40.58,50.
 39\C,0,44.24,39.39,48.31\C,0,45.18,39.97,50.9\C,0,45.32,38.67,48.85\C,
 0,45.85,39.03,50.1\O,0,46.96,38.42,50.62\H,0,42.96,43.84,47.98\H,0,42.
 72,41.28,46.57\H,0,41.62,40.17,48.36\H,0,41.9,41.57,49.42\H,0,43.45,41
 .23,51.04\H,0,43.9,39.14,47.32\H,0,45.68,40.33,51.79\H,0,45.81,37.89,4
 8.28\H,0,47.49,37.87,50.04\N,0,40.2,41.71,46.41\C,0,38.77,41.82,46.16\
 C,0,38.06,40.78,47.\O,0,38.42,39.6,46.98\C,0,38.38,41.62,44.7\C,0,39.0
 1,42.71,43.85\C,0,36.87,41.73,44.5\C,0,38.94,42.44,42.34\H,0,40.62,40.
 83,46.14\H,0,38.51,42.78,46.61\H,0,38.77,40.66,44.37\H,0,40.08,42.8,44
 .05\H,0,38.56,43.69,43.93\H,0,36.42,40.93,45.08\H,0,36.58,42.69,44.92\
 H,0,36.59,41.7,43.44\H,0,39.54,43.19,41.82\H,0,39.3,41.42,42.17\H,0,37
 .92,42.49,41.99\N,0,37.,41.15,47.73\C,0,36.01,40.32,48.39\C,0,34.64,40
 .41,47.72\O,0,34.35,41.34,46.97\C,0,35.89,40.77,49.84\O,0,35.58,42.14,
 49.94\H,0,36.81,42.14,47.82\H,0,36.37,39.3,48.3\H,0,36.79,40.45,50.35\
 H,0,35.12,40.17,50.34\H,0,36.29,42.67,49.57\N,0,33.76,39.47,48.06\C,0,
 32.45,39.45,47.44\C,0,31.68,40.76,47.5\O,0,31.06,41.13,46.51\C,0,31.69
 ,38.29,48.08\H,0,33.94,38.73,48.72\H,0,32.57,39.14,46.4\H,0,32.3,37.4,
 48.22\H,0,31.28,38.57,49.05\H,0,30.88,38.01,47.41\N,0,31.6,41.44,48.65
 \C,0,30.88,42.69,48.8\C,0,31.34,43.76,47.83\O,0,30.63,44.66,47.38\C,0,
 31.09,43.19,50.22\H,0,32.1,41.08,49.45\H,0,29.8,42.53,48.69\H,0,30.9,4
 2.4,50.94\H,0,32.14,43.47,50.23\H,0,30.52,44.1,50.39\N,0,32.62,43.64,4
 7.44\C,0,33.21,44.61,46.54\C,0,33.05,44.29,45.06\O,0,32.85,45.23,44.28
 \C,0,34.72,44.64,46.8\C,0,35.01,45.07,48.23\C,0,36.51,44.97,48.49\O,0,
 37.17,43.91,48.44\O,0,37.2,46.,48.66\H,0,33.13,42.79,47.62\H,0,32.73,4
 5.57,46.68\H,0,35.23,45.45,46.28\H,0,35.17,43.66,46.65\H,0,34.45,44.43
 ,48.9\H,0,34.73,46.12,48.37\N,0,32.89,43.02,44.71\C,0,32.48,42.65,43.3
 7\H,0,31.621,43.252,43.074\H,0,33.302,42.826,42.676\H,0,32.207,41.595,
 43.351\H,0,32.98,42.4,45.51\Ca,0,39.33,44.94,49.45\O,0,37.87,44.65,51.
 61\H,0,38.1,43.94,52.21\H,0,37.07,45.03,51.99\\Version=ES64L-G16RevA.0
 3\State=1-A\HF=-5333.5956402\RMSD=3.762e-09\Dipole=-16.8489359,-2.3162
 286,2.0952902\Quadrupole=17.6614376,12.6220876,-30.2835252,-110.402884
 3,-81.9772625,-16.1207294\PG=C01 [X(C54H83Ca1N15O23)]\\@


 There was a great rattling of the words for the fewness of ideas.
                   -- Charles Baxter in Gryphon
 Job cpu time:       0 days 10 hours 12 minutes 53.6 seconds.
 Elapsed time:       0 days  0 hours 12 minutes 54.6 seconds.
 File lengths (MBytes):  RWF=   1517 Int=      0 D2E=      0 Chk=    171 Scr=      1
 Normal termination of Gaussian 16 at Wed Sep 18 17:31:01 2019.
