 Entering Gaussian System, Link 0=g09
 Initial command:
 /home/pcieplak/g09/g09/l1.exe "/scratch1/pcieplak/holo_23.0/Gau-32424.inp" -scrdir="/scratch1/pcieplak/holo_23.0/"
 Entering Link 1 = /home/pcieplak/g09/g09/l1.exe PID=     32425.
  
 Copyright (c) 1988,1990,1992,1993,1995,1998,2003,2009,2013,
            Gaussian, Inc.  All Rights Reserved.
  
 This is part of the Gaussian(R) 09 program.  It is based on
 the Gaussian(R) 03 system (copyright 2003, Gaussian, Inc.),
 the Gaussian(R) 98 system (copyright 1998, Gaussian, Inc.),
 the Gaussian(R) 94 system (copyright 1995, Gaussian, Inc.),
 the Gaussian 92(TM) system (copyright 1992, Gaussian, Inc.),
 the Gaussian 90(TM) system (copyright 1990, Gaussian, Inc.),
 the Gaussian 88(TM) system (copyright 1988, Gaussian, Inc.),
 the Gaussian 86(TM) system (copyright 1986, Carnegie Mellon
 University), and the Gaussian 82(TM) system (copyright 1983,
 Carnegie Mellon University). Gaussian is a federally registered
 trademark of Gaussian, Inc.
  
 This software contains proprietary and confidential information,
 including trade secrets, belonging to Gaussian, Inc.
  
 This software is provided under written license and may be
 used, copied, transmitted, or stored only in accord with that
 written license.
  
 The following legend is applicable only to US Government
 contracts under FAR:
  
                    RESTRICTED RIGHTS LEGEND
  
 Use, reproduction and disclosure by the US Government is
 subject to restrictions as set forth in subparagraphs (a)
 and (c) of the Commercial Computer Software - Restricted
 Rights clause in FAR 52.227-19.
  
 Gaussian, Inc.
 340 Quinnipiac St., Bldg. 40, Wallingford CT 06492
  
  
 ---------------------------------------------------------------
 Warning -- This program may not be used in any manner that
 competes with the business of Gaussian, Inc. or will provide
 assistance to any competitor of Gaussian, Inc.  The licensee
 of this program is prohibited from giving any competitor of
 Gaussian, Inc. access to this program.  By using this program,
 the user acknowledges that Gaussian, Inc. is engaged in the
 business of creating and licensing software in the field of
 computational chemistry and represents and warrants to the
 licensee that it is not a competitor of Gaussian, Inc. and that
 it will not use this program in any manner prohibited above.
 ---------------------------------------------------------------
  

 Cite this work as:
 Gaussian 09, Revision D.01,
 M. J. Frisch, G. W. Trucks, H. B. Schlegel, G. E. Scuseria, 
 M. A. Robb, J. R. Cheeseman, G. Scalmani, V. Barone, B. Mennucci, 
 G. A. Petersson, H. Nakatsuji, M. Caricato, X. Li, H. P. Hratchian, 
 A. F. Izmaylov, J. Bloino, G. Zheng, J. L. Sonnenberg, M. Hada, 
 M. Ehara, K. Toyota, R. Fukuda, J. Hasegawa, M. Ishida, T. Nakajima, 
 Y. Honda, O. Kitao, H. Nakai, T. Vreven, J. A. Montgomery, Jr., 
 J. E. Peralta, F. Ogliaro, M. Bearpark, J. J. Heyd, E. Brothers, 
 K. N. Kudin, V. N. Staroverov, T. Keith, R. Kobayashi, J. Normand, 
 K. Raghavachari, A. Rendell, J. C. Burant, S. S. Iyengar, J. Tomasi, 
 M. Cossi, N. Rega, J. M. Millam, M. Klene, J. E. Knox, J. B. Cross, 
 V. Bakken, C. Adamo, J. Jaramillo, R. Gomperts, R. E. Stratmann, 
 O. Yazyev, A. J. Austin, R. Cammi, C. Pomelli, J. W. Ochterski, 
 R. L. Martin, K. Morokuma, V. G. Zakrzewski, G. A. Voth, 
 P. Salvador, J. J. Dannenberg, S. Dapprich, A. D. Daniels, 
 O. Farkas, J. B. Foresman, J. V. Ortiz, J. Cioslowski, 
 and D. J. Fox, Gaussian, Inc., Wallingford CT, 2013.
 
 ******************************************
 Gaussian 09:  ES64L-G09RevD.01 24-Apr-2013
                16-Sep-2019 
 ******************************************
 %Nproc=12
 Will use up to   12 processors via shared memory.
 %chk=chk1mol
 %mem=32GB
 ----------------------------------------------------------------------
 #maxdisk=50GB #B3LYP/SVP Density=Current scf=(tight) #IOP(5/87=12)Pop=
 (MK,readradii) iop(6/33=2) iop(6/42=6)
 ----------------------------------------------------------------------
 1/30=1,38=1/1;
 2/12=2,17=6,18=5,40=1/2;
 3/5=18,7=101,11=2,16=1,25=1,30=1,74=-5/1,2,3;
 4//1;
 5/5=2,32=2,38=5,87=12/2;
 6/7=2,8=2,9=2,10=2,15=8,20=101,22=-1,28=1,33=2,42=6/1,2;
 99/5=1,9=1/99;
 ------------
 SOL molecule
 ------------
 Symbolic Z-matrix:
 Charge =  0 Multiplicity = 1
 C                     39.48     42.6      25.47 
 C                     39.74     41.36     26.31 
 O                     39.26     41.24     27.44 
 H                     38.64     43.153    25.89 
 H                     40.368    43.233    25.47 
 H                     39.245    42.304    24.448 
 N                     40.68     40.52     25.86 
 C                     41.22     39.37     26.55 
 C                     42.24     39.82     27.59 
 O                     43.42     39.62     27.3 
 C                     41.67     38.4      25.47 
 C                     42.05     36.99     25.89 
 O                     41.73     36.67     27.06 
 O                     42.77     36.35     25.11 
 H                     40.94     40.7      24.9 
 H                     40.46     38.78     27.07 
 H                     42.56     38.81     24.99 
 H                     40.87     38.43     24.72 
 N                     41.86     40.23     28.8 
 C                     42.73     40.71     29.86 
 C                     43.95     39.86     30.17 
 O                     45.09     40.26     29.96 
 C                     41.96     40.85     31.17 
 C                     41.25     42.2      31.24 
 C                     40.25     42.15     32.39 
 C                     39.4      43.4      32.6 
 N                     40.17     44.51     33.17 
 H                     40.86     40.34     28.89 
 H                     43.19     41.67     29.59 
 H                     42.73     40.82     31.93 
 H                     41.24     40.03     31.21 
 H                     40.71     42.16     30.29 
 H                     41.96     43.01     31.37 
 H                     40.86     41.96     33.27 
 H                     39.55     41.33     32.25 
 H                     38.6      43.09     33.28 
 H                     38.82     43.55     31.69 
 H                     39.66     45.39     33.2 
 H                     40.49     44.38     34.11 
 H                     40.94     44.71     32.54 
 N                     43.71     38.56     30.41 
 C                     44.78     37.62     30.69 
 C                     45.53     37.06     29.49 
 O                     46.41     36.23     29.69 
 C                     44.24     36.5      31.57 
 C                     42.97     35.82     31.11 
 O                     42.61     34.8      31.74 
 O                     42.53     36.08     29.97 
 H                     42.81     38.21     30.69 
 H                     45.48     38.14     31.35 
 H                     43.96     36.86     32.56 
 H                     45.03     35.76     31.71 
 N                     45.12     37.43     28.28 
 C                     45.68     36.87     27.06 
 C                     45.52     35.37     26.87 
 O                     46.46     34.75     26.36 
 H                     44.37     38.1      28.16 
 H                     46.72     37.17     26.95 
 H                     45.17     37.3      26.2 
 N                     44.38     34.85     27.32 
 C                     44.03     33.46     27.53 
 C                     43.44     32.79     26.3 
 O                     43.27     31.57     26.24 
 C                     43.34     33.16     28.86 
 C                     41.82     33.22     28.77 
 N                     41.16     32.51     29.69 
 O                     41.26     33.9      27.92 
 H                     43.73     35.57     27.61 
 H                     45.03     33.06     27.66 
 H                     43.74     33.79     29.66 
 H                     43.6      32.13     29.1 
 H                     41.7      31.99     30.37 
 H                     40.18     32.36     29.54 
 N                     43.17     33.55     25.24 
 C                     42.74     33.11     23.93 
 C                     41.23     33.18     23.73 
 O                     40.81     32.93     22.6 
 H                     43.26     34.55     25.38 
 H                     42.97     32.05     23.81 
 H                     43.19     33.72     23.15 
 N                     40.51     33.53     24.79 
 C                     39.06     33.55     24.9 
 C                     38.57     34.86     25.51 
 O                     39.22     35.43     26.39 
 C                     38.62     32.35     25.73 
 C                     39.11     30.98     25.3 
 C                     39.78     30.22     26.27 
 C                     38.67     30.37     24.12 
 C                     40.06     28.88     25.96 
 C                     38.97     29.04     23.82 
 C                     39.74     28.29     24.73 
 O                     40.       26.99     24.42 
 H                     41.08     33.96     25.51 
 H                     38.55     33.51     23.94 
 H                     37.55     32.4      25.93 
 H                     39.07     32.49     26.71 
 H                     40.01     30.63     27.24 
 H                     38.08     30.91     23.39 
 H                     40.54     28.33     26.76 
 H                     38.63     28.55     22.91 
 H                     39.73     26.77     23.52 
 N                     37.4      35.35     25.09 
 C                     36.62     36.45     25.62 
 C                     35.35     35.9      26.25 
 O                     34.47     35.37     25.58 
 C                     36.32     37.59     24.65 
 C                     37.52     38.15     23.89 
 C                     35.57     38.75     25.31 
 C                     37.21     39.05     22.7 
 H                     37.       34.84     24.32 
 H                     37.23     37.03     26.31 
 H                     35.61     37.26     23.89 
 H                     38.04     37.26     23.56 
 H                     38.12     38.72     24.6 
 H                     35.34     39.45     24.51 
 H                     34.59     38.52     25.73 
 H                     36.16     39.3      26.04 
 H                     36.4      38.6      22.13 
 H                     36.94     40.05     23.03 
 H                     38.11     39.06     22.09 
 N                     35.3      36.17     27.56 
 C                     34.17     35.92     28.44 
 C                     33.2      37.1      28.42 
 O                     33.47     38.23     28.01 
 C                     34.71     35.58     29.83 
 O                     33.78     35.14     30.79 
 H                     36.1      36.5      28.07 
 H                     33.7      35.04     28.01 
 H                     35.09     36.52     30.23 
 H                     35.55     34.91     29.64 
 H                     33.69     34.2      30.59 
 N                     31.98     36.86     28.91 
 C                     30.96     37.86     29.14 
 C                     31.36     38.91     30.17 
 O                     31.15     40.08     29.88 
 C                     29.62     37.22     29.51 
 H                     32.       35.99     29.42 
 H                     30.89     38.42     28.21 
 H                     29.21     36.69     28.66 
 H                     29.67     36.52     30.34 
 H                     28.93     38.02     29.8 
 N                     32.06     38.51     31.24 
 C                     32.56     39.41     32.27 
 C                     33.46     40.46     31.65 
 O                     33.28     41.64     31.93 
 C                     33.38     38.58     33.25 
 H                     32.04     37.57     31.6 
 H                     31.71     39.95     32.69 
 H                     32.76     37.97     33.9 
 H                     34.08     37.94     32.71 
 H                     33.94     39.33     33.81 
 N                     34.35     40.02     30.75 
 C                     35.4      40.77     30.1 
 C                     34.84     41.82     29.15 
 O                     35.46     42.84     28.88 
 C                     36.33     39.8      29.38 
 C                     37.25     39.08     30.35 
 C                     38.17     38.12     29.61 
 O                     37.68     37.06     29.18 
 O                     39.39     38.39     29.61 
 H                     34.35     39.03     30.54 
 H                     36.04     41.26     30.85 
 H                     36.92     40.36     28.65 
 H                     35.75     39.1      28.78 
 H                     36.62     38.53     31.04 
 H                     37.86     39.85     30.82 
 N                     33.66     41.54     28.59 
 C                     32.81     42.41     27.79 
 H                     31.908    42.653    28.352 
 H                     33.349    43.328    27.554 
 H                     32.535    41.901    26.866 
 H                     33.24     40.68     28.89 
 Ca                    40.23     36.08     28.83 
 O                     38.64     33.95     29.24 
 H                     38.31     33.68     30.09 
 H                     37.94     33.73     28.63 
 
 Stoichiometry    C54H83CaN15O23
 Framework group  C1[X(C54H83CaN15O23)]
 Deg. of freedom   522
 Full point group                 C1      NOp   1
 Largest Abelian subgroup         C1      NOp   1
 Largest concise Abelian subgroup C1      NOp   1
                         Standard orientation:                         
 ---------------------------------------------------------------------
 Center     Atomic      Atomic             Coordinates (Angstroms)
 Number     Number       Type             X           Y           Z
 ---------------------------------------------------------------------
      1          6           0        2.152060    3.063449    4.950699
      2          6           0        1.490453    2.709974    3.628529
      3          8           0        2.120082    2.744058    2.568291
      4          1           0        3.234981    3.054539    4.828174
      5          1           0        1.830257    4.056811    5.265196
      6          1           0        1.866365    2.332790    5.706901
      7          7           0        0.158437    2.578784    3.643386
      8          6           0       -0.710765    2.408900    2.500658
      9          6           0       -0.935367    3.751868    1.814734
     10          8           0       -2.040608    4.263986    1.995508
     11          6           0       -1.923765    1.641805    3.000653
     12          6           0       -2.896769    1.094090    1.970035
     13          8           0       -2.492393    1.111042    0.782646
     14          8           0       -4.041884    0.833420    2.366472
     15          1           0       -0.218426    2.507752    4.578549
     16          1           0       -0.311383    1.720382    1.750633
     17          1           0       -2.513951    2.307442    3.632482
     18          1           0       -1.510308    0.870350    3.661948
     19          7           0       -0.057340    4.235934    0.936470
     20          6           0       -0.143750    5.510584    0.244587
     21          6           0       -1.475295    5.835418   -0.409990
     22          8           0       -2.184667    6.755010   -0.016491
     23          6           0        0.909296    5.601079   -0.856097
     24          6           0        2.244436    6.080278   -0.291058
     25          6           0        3.319392    5.836264   -1.344588
     26          6           0        4.745926    6.210967   -0.952545
     27          7           0        4.952574    7.662137   -0.916446
     28          1           0        0.800046    3.703824    0.892327
     29          1           0       -0.028974    6.349162    0.944381
     30          1           0        0.521807    6.357077   -1.526707
     31          1           0        1.007103    4.604438   -1.291459
     32          1           0        2.359952    5.353440    0.517684
     33          1           0        2.198129    7.127251   -0.010338
     34          1           0        2.998659    6.427189   -2.199303
     35          1           0        3.349404    4.785235   -1.621060
     36          1           0        5.382169    5.744741   -1.711708
     37          1           0        5.012078    5.601154   -0.089822
     38          1           0        5.854597    7.938490   -0.535155
     39          1           0        4.906365    8.130286   -1.800528
     40          1           0        4.291281    8.053915   -0.253874
     41          7           0       -1.961583    4.897878   -1.240498
     42          6           0       -3.237864    5.055092   -1.913766
     43          6           0       -4.482782    4.710617   -1.109021
     44          8           0       -5.573679    4.790366   -1.662993
     45          6           0       -3.204651    4.285489   -3.227923
     46          6           0       -2.750032    2.844525   -3.165930
     47          8           0       -2.870991    2.163949   -4.209523
     48          8           0       -2.595790    2.312338   -2.046205
     49          1           0       -1.387779    4.191520   -1.667941
     50          1           0       -3.287340    6.098596   -2.237264
     51          1           0       -2.496035    4.717808   -3.934368
     52          1           0       -4.192583    4.345759   -3.687987
     53          7           0       -4.309314    4.245413    0.124913
     54          6           0       -5.414042    3.771946    0.944062
     55          6           0       -6.200990    2.590689    0.399045
     56          8           0       -7.425145    2.584947    0.570838
     57          1           0       -3.386177    4.171153    0.534918
     58          1           0       -6.074409    4.597699    1.200475
     59          1           0       -5.027603    3.413728    1.896399
     60          7           0       -5.490084    1.680030   -0.262628
     61          6           0       -5.951848    0.600454   -1.111151
     62          6           0       -6.238377   -0.686230   -0.354682
     63          8           0       -6.820258   -1.637203   -0.881906
     64          6           0       -5.205132    0.453902   -2.436269
     65          6           0       -4.029035   -0.511592   -2.354309
     66          7           0       -3.658369   -1.067499   -3.511753
     67          8           0       -3.458830   -0.730058   -1.293348
     68          1           0       -4.495900    1.856353   -0.188421
     69          1           0       -6.910376    1.019793   -1.397996
     70          1           0       -4.920613    1.431692   -2.836115
     71          1           0       -5.921849    0.017614   -3.130581
     72          1           0       -4.171563   -0.817753   -4.347611
     73          1           0       -3.034380   -1.851112   -3.467165
     74          7           0       -5.906624   -0.743822    0.934008
     75          6           0       -6.208379   -1.803464    1.872466
     76          6           0       -5.066308   -2.796896    2.056218
     77          8           0       -5.215077   -3.655281    2.926185
     78          1           0       -5.365300    0.037999    1.285326
     79          1           0       -7.023982   -2.413461    1.480555
     80          1           0       -6.433855   -1.396827    2.855729
     81          7           0       -4.004859   -2.626605    1.275943
     82          6           0       -2.847096   -3.499561    1.163994
     83          6           0       -1.546541   -2.704985    1.238176
     84          8           0       -1.465031   -1.577752    0.743704
     85          6           0       -2.950874   -4.277623   -0.142279
     86          6           0       -4.233187   -5.045340   -0.403399
     87          6           0       -4.898555   -4.765489   -1.606049
     88          6           0       -4.586247   -6.177099    0.339952
     89          6           0       -5.967442   -5.602579   -1.962227
     90          6           0       -5.661893   -6.990945   -0.019965
     91          6           0       -6.415890   -6.662805   -1.163344
     92          8           0       -7.446617   -7.485808   -1.500935
     93          1           0       -3.988229   -1.704339    0.854817
     94          1           0       -2.757548   -4.210943    1.982051
     95          1           0       -2.041839   -4.853773   -0.312885
     96          1           0       -2.931516   -3.529954   -0.931656
     97          1           0       -4.559216   -3.980828   -2.262597
     98          1           0       -4.037796   -6.464047    1.228469
     99          1           0       -6.416666   -5.366584   -2.918994
    100          1           0       -5.944800   -7.877331    0.544023
    101          1           0       -7.626583   -8.142248   -0.816831
    102          7           0       -0.490556   -3.280814    1.820170
    103          6           0        0.889926   -2.842706    1.860561
    104          6           0        1.736071   -3.789496    1.023944
    105          8           0        1.915269   -4.958584    1.348475
    106          6           0        1.487439   -2.630535    3.249252
    107          6           0        0.662924   -1.770318    4.203925
    108          6           0        2.916911   -2.084399    3.204028
    109          6           0        1.067315   -1.807933    5.672683
    110          1           0       -0.697971   -4.166766    2.250364
    111          1           0        0.952536   -1.805250    1.537503
    112          1           0        1.623721   -3.590077    3.750556
    113          1           0       -0.339857   -2.158962    4.082323
    114          1           0        0.733346   -0.738514    3.858350
    115          1           0        3.259467   -2.059689    4.235989
    116          1           0        3.661336   -2.709035    2.708688
    117          1           0        2.989449   -1.064968    2.831205
    118          1           0        1.267419   -2.841166    5.948164
    119          1           0        1.940638   -1.185464    5.850555
    120          1           0        0.203696   -1.453221    6.229945
    121          7           0        2.309857   -3.151113   -0.003060
    122          6           0        3.292139   -3.713449   -0.915584
    123          6           0        4.704026   -3.548382   -0.356096
    124          8           0        5.020894   -2.769342    0.544233
    125          6           0        3.088281   -3.077753   -2.291678
    126          8           0        3.831916   -3.609988   -3.361180
    127          1           0        2.031597   -2.227310   -0.282632
    128          1           0        3.026749   -4.765920   -0.961111
    129          1           0        3.448281   -2.053725   -2.192861
    130          1           0        2.005692   -3.061627   -2.427101
    131          1           0        3.307300   -4.373882   -3.631261
    132          7           0        5.647582   -4.307121   -0.921884
    133          6           0        7.068158   -4.201689   -0.668611
    134          6           0        7.658945   -2.855817   -1.072342
    135          8           0        8.402434   -2.312128   -0.266906
    136          6           0        7.841099   -5.350771   -1.319973
    137          1           0        5.285098   -4.688627   -1.782383
    138          1           0        7.170131   -4.217239    0.414330
    139          1           0        7.606675   -6.286418   -0.828943
    140          1           0        7.645612   -5.479417   -2.381404
    141          1           0        8.911601   -5.146272   -1.208593
    142          7           0        7.204744   -2.277534   -2.192248
    143          6           0        7.633222   -0.968500   -2.665255
    144          6           0        7.359193    0.081364   -1.607146
    145          8           0        8.251337    0.863699   -1.298551
    146          6           0        6.815611   -0.636014   -3.907296
    147          1           0        6.789432   -2.787649   -2.954415
    148          1           0        8.716422   -0.992542   -2.794099
    149          1           0        7.133871   -1.199906   -4.778924
    150          1           0        5.755766   -0.819902   -3.722599
    151          1           0        6.975635    0.435182   -4.036261
    152          7           0        6.162425    0.019044   -1.007512
    153          6           0        5.593469    0.952054   -0.062376
    154          6           0        6.345343    0.944907    1.261721
    155          8           0        6.371342    1.926146    1.992608
    156          6           0        4.116437    0.626337    0.128634
    157          6           0        3.281731    1.092973   -1.050865
    158          6           0        1.812256    0.760116   -0.837677
    159          8           0        1.459688   -0.426109   -0.968702
    160          8           0        1.028504    1.721895   -0.689306
    161          1           0        5.537245   -0.724616   -1.290918
    162          1           0        5.599224    1.970611   -0.480357
    163          1           0        3.769446    1.107582    1.046567
    164          1           0        3.988619   -0.438980    0.316150
    165          1           0        3.653509    0.577934   -1.929510
    166          1           0        3.388511    2.176000   -1.090247
    167          7           0        6.929558   -0.207012    1.602566
    168          6           0        7.845438   -0.464626    2.704473
    169          1           0        8.840752   -0.668516    2.309156
    170          1           0        7.885477    0.408948    3.355784
    171          1           0        7.497677   -1.327430    3.272903
    172          1           0        6.849751   -0.941609    0.924334
    173         20           0       -1.160255    0.415734   -1.080940
    174          8           0       -1.032412   -1.879610   -2.476703
    175          1           0       -0.685066   -1.954886   -3.358738
    176          1           0       -0.797459   -2.702852   -2.055314
 ---------------------------------------------------------------------
 Rotational constants (GHZ):      0.0227374      0.0152552      0.0114061
 Standard basis: SVP (5D, 7F)
 There are  1809 symmetry adapted cartesian basis functions of A   symmetry.
 There are  1717 symmetry adapted basis functions of A   symmetry.
  1717 basis functions,  2922 primitive gaussians,  1809 cartesian basis functions
   358 alpha electrons      358 beta electrons
       nuclear repulsion energy     21606.5306750696 Hartrees.
 NAtoms=  176 NActive=  176 NUniq=  176 SFac= 1.00D+00 NAtFMM=   60 NAOKFM=T Big=T
 Integral buffers will be    131072 words long.
 Raffenetti 2 integral format.
 Two-electron integral symmetry is turned on.
 One-electron integrals computed using PRISM.
 NBasis=  1717 RedAO= T EigKep=  2.68D-04  NBF=  1717
 NBsUse=  1717 1.00D-06 EigRej= -1.00D+00 NBFU=  1717
 ExpMin= 1.98D-02 ExpMax= 3.51D+04 ExpMxC= 5.28D+03 IAcc=3 IRadAn=         5 AccDes= 0.00D+00
 Harris functional with IExCor=  402 and IRadAn=       5 diagonalized for initial guess.
 HarFok:  IExCor=  402 AccDes= 0.00D+00 IRadAn=         5 IDoV= 1 UseB2=F ITyADJ=14
 ICtDFT=  3500011 ScaDFX=  1.000000  1.000000  1.000000  1.000000
 FoFCou: FMM=F IPFlag=           0 FMFlag=      100000 FMFlg1=        2001
         NFxFlg=           0 DoJE=T BraDBF=F KetDBF=T FulRan=T
         wScrn=  0.000000 ICntrl=     500 IOpCl=  0 I1Cent=   200000004 NGrid=           0
         NMat0=    1 NMatS0=      1 NMatT0=    0 NMatD0=    1 NMtDS0=    0 NMtDT0=    0
 Petite list used in FoFCou.
 Requested convergence on RMS density matrix=1.00D-08 within 128 cycles.
 Requested convergence on MAX density matrix=1.00D-06.
 Requested convergence on             energy=1.00D-06.
 No special actions if energy rises.
 EnCoef did     3 forward-backward iterations
 EnCoef did   100 forward-backward iterations
 SCF Done:  E(RB3LYP) =  -5333.59263570     A.U. after   18 cycles
            NFock= 18  Conv=0.54D-08     -V/T= 2.0081

 **********************************************************************

            Population analysis using the SCF density.

 **********************************************************************

 Orbital symmetries:
 BldTbl:  Degeneracy threshold= 1.00D-02
       Occupied  (A) (A) (A) (A) (A) (A) (A) (A) (A) (A) (A) (A)
                 (A) (A) (A) (A) (A) (A) (A) (A) (A) (A) (A) (A)
                 (A) (A) (A) (A) (A) (A) (A) (A) (A) (A) (A) (A)
                 (A) (A) (A) (A) (A) (A) (A) (A) (A) (A) (A) (A)
                 (A) (A) (A) (A) (A) (A) (A) (A) (A) (A) (A) (A)
                 (A) (A) (A) (A) (A) (A) (A) (A) (A) (A) (A) (A)
                 (A) (A) (A) (A) (A) (A) (A) (A) (A) (A) (A) (A)
                 (A) (A) (A) (A) (A) (A) (A) (A) (A) (A) (A) (A)
                 (A) (A) (A) (A) (A) (A) (A) (A) (A) (A) (A) (A)
                 (A) (A) (A) (A) (A) (A) (A) (A) (A) (A) (A) (A)
                 (A) (A) (A) (A) (A) (A) (A) (A) (A) (A) (A) (A)
                 (A) (A) (A) (A) (A) (A) (A) (A) (A) (A) (A) (A)
                 (A) (A) (A) (A) (A) (A) (A) (A) (A) (A) (A) (A)
                 (A) (A) (A) (A) (A) (A) (A) (A) (A) (A) (A) (A)
                 (A) (A) (A) (A) (A) (A) (A) (A) (A) (A) (A) (A)
                 (A) (A) (A) (A) (A) (A) (A) (A) (A) (A) (A) (A)
                 (A) (A) (A) (A) (A) (A) (A) (A) (A) (A) (A) (A)
                 (A) (A) (A) (A) (A) (A) (A) (A) (A) (A) (A) (A)
                 (A) (A) (A) (A) (A) (A) (A) (A) (A) (A) (A) (A)
                 (A) (A) (A) (A) (A) (A) (A) (A) (A) (A) (A) (A)
                 (A) (A) (A) (A) (A) (A) (A) (A) (A) (A) (A) (A)
                 (A) (A) (A) (A) (A) (A) (A) (A) (A) (A) (A) (A)
                 (A) (A) (A) (A) (A) (A) (A) (A) (A) (A) (A) (A)
                 (A) (A) (A) (A) (A) (A) (A) (A) (A) (A) (A) (A)
                 (A) (A) (A) (A) (A) (A) (A) (A) (A) (A) (A) (A)
                 (A) (A) (A) (A) (A) (A) (A) (A) (A) (A) (A) (A)
                 (A) (A) (A) (A) (A) (A) (A) (A) (A) (A) (A) (A)
                 (A) (A) (A) (A) (A) (A) (A) (A) (A) (A) (A) (A)
                 (A) (A) (A) (A) (A) (A) (A) (A) (A) (A) (A) (A)
                 (A) (A) (A) (A) (A) (A) (A) (A) (A) (A)
       Virtual   (A) (A) (A) (A) (A) (A) (A) (A) (A) (A) (A) (A)
                 (A) (A) (A) (A) (A) (A) (A) (A) (A) (A) (A) (A)
                 (A) (A) (A) (A) (A) (A) (A) (A) (A) (A) (A) (A)
                 (A) (A) (A) (A) (A) (A) (A) (A) (A) (A) (A) (A)
                 (A) (A) (A) (A) (A) (A) (A) (A) (A) (A) (A) (A)
                 (A) (A) (A) (A) (A) (A) (A) (A) (A) (A) (A) (A)
                 (A) (A) (A) (A) (A) (A) (A) (A) (A) (A) (A) (A)
                 (A) (A) (A) (A) (A) (A) (A) (A) (A) (A) (A) (A)
                 (A) (A) (A) (A) (A) (A) (A) (A) (A) (A) (A) (A)
                 (A) (A) (A) (A) (A) (A) (A) (A) (A) (A) (A) (A)
                 (A) (A) (A) (A) (A) (A) (A) (A) (A) (A) (A) (A)
                 (A) (A) (A) (A) (A) (A) (A) (A) (A) (A) (A) (A)
                 (A) (A) (A) (A) (A) (A) (A) (A) (A) (A) (A) (A)
                 (A) (A) (A) (A) (A) (A) (A) (A) (A) (A) (A) (A)
                 (A) (A) (A) (A) (A) (A) (A) (A) (A) (A) (A) (A)
                 (A) (A) (A) (A) (A) (A) (A) (A) (A) (A) (A) (A)
                 (A) (A) (A) (A) (A) (A) (A) (A) (A) (A) (A) (A)
                 (A) (A) (A) (A) (A) (A) (A) (A) (A) (A) (A) (A)
                 (A) (A) (A) (A) (A) (A) (A) (A) (A) (A) (A) (A)
                 (A) (A) (A) (A) (A) (A) (A) (A) (A) (A) (A) (A)
                 (A) (A) (A) (A) (A) (A) (A) (A) (A) (A) (A) (A)
                 (A) (A) (A) (A) (A) (A) (A) (A) (A) (A) (A) (A)
                 (A) (A) (A) (A) (A) (A) (A) (A) (A) (A) (A) (A)
                 (A) (A) (A) (A) (A) (A) (A) (A) (A) (A) (A) (A)
                 (A) (A) (A) (A) (A) (A) (A) (A) (A) (A) (A) (A)
                 (A) (A) (A) (A) (A) (A) (A) (A) (A) (A) (A) (A)
                 (A) (A) (A) (A) (A) (A) (A) (A) (A) (A) (A) (A)
                 (A) (A) (A) (A) (A) (A) (A) (A) (A) (A) (A) (A)
                 (A) (A) (A) (A) (A) (A) (A) (A) (A) (A) (A) (A)
                 (A) (A) (A) (A) (A) (A) (A) (A) (A) (A) (A) (A)
                 (A) (A) (A) (A) (A) (A) (A) (A) (A) (A) (A) (A)
                 (A) (A) (A) (A) (A) (A) (A) (A) (A) (A) (A) (A)
                 (A) (A) (A) (A) (A) (A) (A) (A) (A) (A) (A) (A)
                 (A) (A) (A) (A) (A) (A) (A) (A) (A) (A) (A) (A)
                 (A) (A) (A) (A) (A) (A) (A) (A) (A) (A) (A) (A)
                 (A) (A) (A) (A) (A) (A) (A) (A) (A) (A) (A) (A)
                 (A) (A) (A) (A) (A) (A) (A) (A) (A) (A) (A) (A)
                 (A) (A) (A) (A) (A) (A) (A) (A) (A) (A) (A) (A)
                 (A) (A) (A) (A) (A) (A) (A) (A) (A) (A) (A) (A)
                 (A) (A) (A) (A) (A) (A) (A) (A) (A) (A) (A) (A)
                 (A) (A) (A) (A) (A) (A) (A) (A) (A) (A) (A) (A)
                 (A) (A) (A) (A) (A) (A) (A) (A) (A) (A) (A) (A)
                 (A) (A) (A) (A) (A) (A) (A) (A) (A) (A) (A) (A)
                 (A) (A) (A) (A) (A) (A) (A) (A) (A) (A) (A) (A)
                 (A) (A) (A) (A) (A) (A) (A) (A) (A) (A) (A) (A)
                 (A) (A) (A) (A) (A) (A) (A) (A) (A) (A) (A) (A)
                 (A) (A) (A) (A) (A) (A) (A) (A) (A) (A) (A) (A)
                 (A) (A) (A) (A) (A) (A) (A) (A) (A) (A) (A) (A)
                 (A) (A) (A) (A) (A) (A) (A) (A) (A) (A) (A) (A)
                 (A) (A) (A) (A) (A) (A) (A) (A) (A) (A) (A) (A)
                 (A) (A) (A) (A) (A) (A) (A) (A) (A) (A) (A) (A)
                 (A) (A) (A) (A) (A) (A) (A) (A) (A) (A) (A) (A)
                 (A) (A) (A) (A) (A) (A) (A) (A) (A) (A) (A) (A)
                 (A) (A) (A) (A) (A) (A) (A) (A) (A) (A) (A) (A)
                 (A) (A) (A) (A) (A) (A) (A) (A) (A) (A) (A) (A)
                 (A) (A) (A) (A) (A) (A) (A) (A) (A) (A) (A) (A)
                 (A) (A) (A) (A) (A) (A) (A) (A) (A) (A) (A) (A)
                 (A) (A) (A) (A) (A) (A) (A) (A) (A) (A) (A) (A)
                 (A) (A) (A) (A) (A) (A) (A) (A) (A) (A) (A) (A)
                 (A) (A) (A) (A) (A) (A) (A) (A) (A) (A) (A) (A)
                 (A) (A) (A) (A) (A) (A) (A) (A) (A) (A) (A) (A)
                 (A) (A) (A) (A) (A) (A) (A) (A) (A) (A) (A) (A)
                 (A) (A) (A) (A) (A) (A) (A) (A) (A) (A) (A) (A)
                 (A) (A) (A) (A) (A) (A) (A) (A) (A) (A) (A) (A)
                 (A) (A) (A) (A) (A) (A) (A) (A) (A) (A) (A) (A)
                 (A) (A) (A) (A) (A) (A) (A) (A) (A) (A) (A) (A)
                 (A) (A) (A) (A) (A) (A) (A) (A) (A) (A) (A) (A)
                 (A) (A) (A) (A) (A) (A) (A) (A) (A) (A) (A) (A)
                 (A) (A) (A) (A) (A) (A) (A) (A) (A) (A) (A) (A)
                 (A) (A) (A) (A) (A) (A) (A) (A) (A) (A) (A) (A)
                 (A) (A) (A) (A) (A) (A) (A) (A) (A) (A) (A) (A)
                 (A) (A) (A) (A) (A) (A) (A) (A) (A) (A) (A) (A)
                 (A) (A) (A) (A) (A) (A) (A) (A) (A) (A) (A) (A)
                 (A) (A) (A) (A) (A) (A) (A) (A) (A) (A) (A) (A)
                 (A) (A) (A) (A) (A) (A) (A) (A) (A) (A) (A) (A)
                 (A) (A) (A) (A) (A) (A) (A) (A) (A) (A) (A) (A)
                 (A) (A) (A) (A) (A) (A) (A) (A) (A) (A) (A) (A)
                 (A) (A) (A) (A) (A) (A) (A) (A) (A) (A) (A) (A)
                 (A) (A) (A) (A) (A) (A) (A) (A) (A) (A) (A) (A)
                 (A) (A) (A) (A) (A) (A) (A) (A) (A) (A) (A) (A)
                 (A) (A) (A) (A) (A) (A) (A) (A) (A) (A) (A) (A)
                 (A) (A) (A) (A) (A) (A) (A) (A) (A) (A) (A) (A)
                 (A) (A) (A) (A) (A) (A) (A) (A) (A) (A) (A) (A)
                 (A) (A) (A) (A) (A) (A) (A) (A) (A) (A) (A) (A)
                 (A) (A) (A) (A) (A) (A) (A) (A) (A) (A) (A) (A)
                 (A) (A) (A) (A) (A) (A) (A) (A) (A) (A) (A) (A)
                 (A) (A) (A) (A) (A) (A) (A) (A) (A) (A) (A) (A)
                 (A) (A) (A) (A) (A) (A) (A) (A) (A) (A) (A) (A)
                 (A) (A) (A) (A) (A) (A) (A) (A) (A) (A) (A) (A)
                 (A) (A) (A) (A) (A) (A) (A) (A) (A) (A) (A) (A)
                 (A) (A) (A) (A) (A) (A) (A) (A) (A) (A) (A) (A)
                 (A) (A) (A) (A) (A) (A) (A) (A) (A) (A) (A) (A)
                 (A) (A) (A) (A) (A) (A) (A) (A) (A) (A) (A) (A)
                 (A) (A) (A) (A) (A) (A) (A) (A) (A) (A) (A) (A)
                 (A) (A) (A) (A) (A) (A) (A) (A) (A) (A) (A) (A)
                 (A) (A) (A) (A) (A) (A) (A) (A) (A) (A) (A) (A)
                 (A) (A) (A) (A) (A) (A) (A) (A) (A) (A) (A) (A)
                 (A) (A) (A) (A) (A) (A) (A) (A) (A) (A) (A) (A)
                 (A) (A) (A) (A) (A) (A) (A) (A) (A) (A) (A) (A)
                 (A) (A) (A) (A) (A) (A) (A) (A) (A) (A) (A) (A)
                 (A) (A) (A) (A) (A) (A) (A) (A) (A) (A) (A) (A)
                 (A) (A) (A) (A) (A) (A) (A) (A) (A) (A) (A) (A)
                 (A) (A) (A) (A) (A) (A) (A) (A) (A) (A) (A) (A)
                 (A) (A) (A) (A) (A) (A) (A) (A) (A) (A) (A) (A)
                 (A) (A) (A) (A) (A) (A) (A) (A) (A) (A) (A) (A)
                 (A) (A) (A) (A) (A) (A) (A) (A) (A) (A) (A) (A)
                 (A) (A) (A) (A) (A) (A) (A) (A) (A) (A) (A) (A)
                 (A) (A) (A) (A) (A) (A) (A) (A) (A) (A) (A) (A)
                 (A) (A) (A) (A) (A) (A) (A) (A) (A) (A) (A) (A)
                 (A) (A) (A) (A) (A) (A) (A) (A) (A) (A) (A) (A)
                 (A) (A) (A) (A) (A) (A) (A) (A) (A) (A) (A) (A)
                 (A) (A) (A) (A) (A) (A) (A) (A) (A) (A) (A) (A)
                 (A) (A) (A) (A) (A) (A) (A) (A) (A) (A) (A) (A)
                 (A) (A) (A)
 The electronic state is 1-A.
 Alpha  occ. eigenvalues -- -145.36462 -19.20334 -19.20087 -19.14434 -19.12959
 Alpha  occ. eigenvalues --  -19.12539 -19.11341 -19.10895 -19.10815 -19.10650
 Alpha  occ. eigenvalues --  -19.10269 -19.09736 -19.09123 -19.08170 -19.07466
 Alpha  occ. eigenvalues --  -19.07401 -19.04487 -19.04362 -19.04153 -19.03560
 Alpha  occ. eigenvalues --  -19.03135 -19.02872 -19.02117 -19.01873 -15.42237
 Alpha  occ. eigenvalues --  -14.60117 -14.38661 -14.38338 -14.36867 -14.36770
 Alpha  occ. eigenvalues --  -14.36721 -14.35344 -14.35006 -14.34212 -14.32947
 Alpha  occ. eigenvalues --  -14.32352 -14.31094 -14.28872 -14.28125 -14.27993
 Alpha  occ. eigenvalues --  -12.55851 -12.55817 -12.55783 -10.35358 -10.31163
 Alpha  occ. eigenvalues --  -10.30879 -10.29606 -10.29446 -10.29343 -10.29116
 Alpha  occ. eigenvalues --  -10.28476 -10.28470 -10.27915 -10.27550 -10.26948
 Alpha  occ. eigenvalues --  -10.26445 -10.26306 -10.25987 -10.25952 -10.25492
 Alpha  occ. eigenvalues --  -10.24991 -10.23690 -10.23564 -10.23297 -10.23261
 Alpha  occ. eigenvalues --  -10.23154 -10.23079 -10.22631 -10.22558 -10.22445
 Alpha  occ. eigenvalues --  -10.22266 -10.22253 -10.22080 -10.22032 -10.21382
 Alpha  occ. eigenvalues --  -10.21167 -10.20515 -10.19676 -10.19559 -10.19264
 Alpha  occ. eigenvalues --  -10.18753 -10.18587 -10.18368 -10.18241 -10.17524
 Alpha  occ. eigenvalues --  -10.17492 -10.17293 -10.17264 -10.17226 -10.17078
 Alpha  occ. eigenvalues --  -10.17026 -10.16619 -10.16520 -10.16089 -10.15836
 Alpha  occ. eigenvalues --  -10.15179 -10.14316  -1.79236  -1.15066  -1.08011
 Alpha  occ. eigenvalues --   -1.07370  -1.07064  -1.06799  -1.06312  -1.06066
 Alpha  occ. eigenvalues --   -1.05364  -1.04742  -1.04069  -1.03476  -1.03301
 Alpha  occ. eigenvalues --   -1.03033  -1.02566  -1.02029  -1.01517  -1.00550
 Alpha  occ. eigenvalues --   -1.00183  -0.98118  -0.97853  -0.97357  -0.96645
 Alpha  occ. eigenvalues --   -0.96124  -0.96060  -0.95519  -0.95060  -0.94416
 Alpha  occ. eigenvalues --   -0.94323  -0.93673  -0.93292  -0.92062  -0.91978
 Alpha  occ. eigenvalues --   -0.89744  -0.89446  -0.89242  -0.89198  -0.88936
 Alpha  occ. eigenvalues --   -0.88705  -0.87523  -0.86363  -0.85272  -0.84353
 Alpha  occ. eigenvalues --   -0.83457  -0.82894  -0.82576  -0.81800  -0.80836
 Alpha  occ. eigenvalues --   -0.79491  -0.78428  -0.77900  -0.77286  -0.76557
 Alpha  occ. eigenvalues --   -0.74814  -0.74470  -0.74120  -0.73570  -0.73538
 Alpha  occ. eigenvalues --   -0.72372  -0.72314  -0.71936  -0.71780  -0.70358
 Alpha  occ. eigenvalues --   -0.69809  -0.69543  -0.69090  -0.68326  -0.68060
 Alpha  occ. eigenvalues --   -0.66960  -0.66775  -0.65247  -0.64541  -0.64181
 Alpha  occ. eigenvalues --   -0.63833  -0.63318  -0.63175  -0.62956  -0.62182
 Alpha  occ. eigenvalues --   -0.61813  -0.61189  -0.60628  -0.60611  -0.60225
 Alpha  occ. eigenvalues --   -0.59723  -0.59640  -0.59526  -0.58596  -0.57971
 Alpha  occ. eigenvalues --   -0.57224  -0.57067  -0.56905  -0.56696  -0.56619
 Alpha  occ. eigenvalues --   -0.55919  -0.55040  -0.54943  -0.54319  -0.54074
 Alpha  occ. eigenvalues --   -0.53903  -0.53821  -0.53718  -0.53601  -0.53244
 Alpha  occ. eigenvalues --   -0.53026  -0.52655  -0.52460  -0.51901  -0.51658
 Alpha  occ. eigenvalues --   -0.51499  -0.50738  -0.50677  -0.50519  -0.50271
 Alpha  occ. eigenvalues --   -0.49986  -0.49947  -0.49618  -0.49263  -0.49002
 Alpha  occ. eigenvalues --   -0.48679  -0.48578  -0.48449  -0.47949  -0.47613
 Alpha  occ. eigenvalues --   -0.47314  -0.47247  -0.46966  -0.46473  -0.46403
 Alpha  occ. eigenvalues --   -0.46248  -0.46007  -0.45896  -0.45828  -0.45685
 Alpha  occ. eigenvalues --   -0.45520  -0.45445  -0.45208  -0.45093  -0.45041
 Alpha  occ. eigenvalues --   -0.44959  -0.44407  -0.44133  -0.44094  -0.43912
 Alpha  occ. eigenvalues --   -0.43540  -0.43422  -0.43186  -0.43051  -0.43007
 Alpha  occ. eigenvalues --   -0.42786  -0.42704  -0.42675  -0.42455  -0.42209
 Alpha  occ. eigenvalues --   -0.42132  -0.42043  -0.41823  -0.41668  -0.41544
 Alpha  occ. eigenvalues --   -0.41430  -0.41205  -0.41143  -0.41056  -0.40917
 Alpha  occ. eigenvalues --   -0.40602  -0.40439  -0.40378  -0.40294  -0.40221
 Alpha  occ. eigenvalues --   -0.39961  -0.39787  -0.39672  -0.39603  -0.39551
 Alpha  occ. eigenvalues --   -0.39395  -0.39299  -0.39194  -0.38981  -0.38948
 Alpha  occ. eigenvalues --   -0.38869  -0.38690  -0.38620  -0.38246  -0.38036
 Alpha  occ. eigenvalues --   -0.37951  -0.37878  -0.37580  -0.37535  -0.37205
 Alpha  occ. eigenvalues --   -0.37145  -0.37096  -0.36989  -0.36841  -0.36552
 Alpha  occ. eigenvalues --   -0.36446  -0.36220  -0.36062  -0.35958  -0.35869
 Alpha  occ. eigenvalues --   -0.35582  -0.35317  -0.35079  -0.34972  -0.34659
 Alpha  occ. eigenvalues --   -0.34397  -0.34274  -0.34053  -0.33985  -0.33852
 Alpha  occ. eigenvalues --   -0.33653  -0.33446  -0.33040  -0.32650  -0.32156
 Alpha  occ. eigenvalues --   -0.31738  -0.31645  -0.31445  -0.31258  -0.31174
 Alpha  occ. eigenvalues --   -0.30933  -0.30815  -0.30636  -0.30134  -0.30095
 Alpha  occ. eigenvalues --   -0.29102  -0.28969  -0.28775  -0.28352  -0.28286
 Alpha  occ. eigenvalues --   -0.27947  -0.27715  -0.27366  -0.27209  -0.26850
 Alpha  occ. eigenvalues --   -0.26787  -0.26563  -0.26058  -0.25944  -0.25819
 Alpha  occ. eigenvalues --   -0.25443  -0.24784  -0.24691  -0.23700  -0.23543
 Alpha  occ. eigenvalues --   -0.23360  -0.23163  -0.22878  -0.22402  -0.21970
 Alpha  occ. eigenvalues --   -0.21733  -0.21568  -0.21445  -0.20829  -0.20532
 Alpha  occ. eigenvalues --   -0.20469  -0.20406  -0.19253  -0.19078  -0.18344
 Alpha  occ. eigenvalues --   -0.17966  -0.17730  -0.17413
 Alpha virt. eigenvalues --   -0.11547  -0.05678  -0.05258  -0.03828  -0.02767
 Alpha virt. eigenvalues --   -0.02155  -0.00972  -0.00654  -0.00077   0.00448
 Alpha virt. eigenvalues --    0.00642   0.00727   0.00866   0.01196   0.01595
 Alpha virt. eigenvalues --    0.01921   0.02348   0.02352   0.02479   0.02922
 Alpha virt. eigenvalues --    0.02992   0.03182   0.03277   0.03786   0.04026
 Alpha virt. eigenvalues --    0.04881   0.05185   0.05376   0.05620   0.05768
 Alpha virt. eigenvalues --    0.06166   0.06641   0.06762   0.06954   0.07056
 Alpha virt. eigenvalues --    0.07102   0.07517   0.07652   0.07795   0.07914
 Alpha virt. eigenvalues --    0.08091   0.08222   0.08322   0.08372   0.08569
 Alpha virt. eigenvalues --    0.08810   0.09023   0.09256   0.09423   0.09628
 Alpha virt. eigenvalues --    0.09753   0.09795   0.10185   0.10322   0.10517
 Alpha virt. eigenvalues --    0.10871   0.10880   0.11067   0.11222   0.11350
 Alpha virt. eigenvalues --    0.11600   0.11888   0.12097   0.12241   0.12316
 Alpha virt. eigenvalues --    0.12641   0.12918   0.12966   0.13213   0.13290
 Alpha virt. eigenvalues --    0.13534   0.13719   0.13737   0.14170   0.14374
 Alpha virt. eigenvalues --    0.14386   0.14661   0.14768   0.14892   0.15104
 Alpha virt. eigenvalues --    0.15335   0.15468   0.15515   0.15842   0.16074
 Alpha virt. eigenvalues --    0.16101   0.16274   0.16452   0.16689   0.16862
 Alpha virt. eigenvalues --    0.17066   0.17219   0.17516   0.17571   0.17858
 Alpha virt. eigenvalues --    0.18003   0.18242   0.18290   0.18469   0.18679
 Alpha virt. eigenvalues --    0.18898   0.19041   0.19276   0.19531   0.19621
 Alpha virt. eigenvalues --    0.19779   0.19967   0.20142   0.20442   0.20523
 Alpha virt. eigenvalues --    0.20773   0.20861   0.20993   0.21026   0.21203
 Alpha virt. eigenvalues --    0.21395   0.21436   0.21638   0.21929   0.22342
 Alpha virt. eigenvalues --    0.22392   0.22796   0.22981   0.23122   0.23248
 Alpha virt. eigenvalues --    0.23764   0.24004   0.24172   0.24413   0.24785
 Alpha virt. eigenvalues --    0.24819   0.24965   0.25294   0.25512   0.25967
 Alpha virt. eigenvalues --    0.26133   0.26365   0.26563   0.26570   0.26691
 Alpha virt. eigenvalues --    0.26966   0.27084   0.27186   0.27335   0.27885
 Alpha virt. eigenvalues --    0.28087   0.28275   0.28565   0.28659   0.29198
 Alpha virt. eigenvalues --    0.29296   0.29599   0.29840   0.29951   0.30433
 Alpha virt. eigenvalues --    0.30630   0.31031   0.31226   0.31362   0.31534
 Alpha virt. eigenvalues --    0.31818   0.32010   0.32330   0.32363   0.32780
 Alpha virt. eigenvalues --    0.32871   0.33012   0.33128   0.33243   0.33384
 Alpha virt. eigenvalues --    0.34116   0.34290   0.34317   0.34586   0.34954
 Alpha virt. eigenvalues --    0.35304   0.35537   0.35923   0.36064   0.36760
 Alpha virt. eigenvalues --    0.36908   0.37359   0.37441   0.37776   0.38032
 Alpha virt. eigenvalues --    0.38149   0.38569   0.38863   0.39538   0.39617
 Alpha virt. eigenvalues --    0.39795   0.39999   0.40250   0.40436   0.40926
 Alpha virt. eigenvalues --    0.41063   0.41289   0.41526   0.41683   0.41878
 Alpha virt. eigenvalues --    0.41963   0.42173   0.42304   0.42540   0.42840
 Alpha virt. eigenvalues --    0.43126   0.43343   0.43595   0.43843   0.43966
 Alpha virt. eigenvalues --    0.44165   0.44764   0.44912   0.45140   0.45173
 Alpha virt. eigenvalues --    0.45508   0.45699   0.45800   0.46074   0.46404
 Alpha virt. eigenvalues --    0.46451   0.46625   0.46795   0.46918   0.47378
 Alpha virt. eigenvalues --    0.47511   0.47620   0.47868   0.47908   0.48139
 Alpha virt. eigenvalues --    0.48340   0.48713   0.48790   0.48966   0.49106
 Alpha virt. eigenvalues --    0.49510   0.49704   0.49871   0.49911   0.50049
 Alpha virt. eigenvalues --    0.50483   0.50555   0.50694   0.51023   0.51100
 Alpha virt. eigenvalues --    0.51290   0.51622   0.51738   0.51981   0.52047
 Alpha virt. eigenvalues --    0.52189   0.52537   0.52731   0.53005   0.53114
 Alpha virt. eigenvalues --    0.53339   0.53597   0.53707   0.53929   0.54129
 Alpha virt. eigenvalues --    0.54218   0.54389   0.54633   0.54887   0.54977
 Alpha virt. eigenvalues --    0.55170   0.55220   0.55416   0.55656   0.55728
 Alpha virt. eigenvalues --    0.55916   0.56066   0.56110   0.56209   0.56389
 Alpha virt. eigenvalues --    0.56430   0.56630   0.56990   0.57105   0.57462
 Alpha virt. eigenvalues --    0.57777   0.57995   0.58051   0.58103   0.58360
 Alpha virt. eigenvalues --    0.58514   0.58678   0.58830   0.58854   0.59033
 Alpha virt. eigenvalues --    0.59139   0.59295   0.59619   0.59775   0.59872
 Alpha virt. eigenvalues --    0.60131   0.60217   0.60269   0.60506   0.60767
 Alpha virt. eigenvalues --    0.60918   0.61043   0.61202   0.61304   0.61358
 Alpha virt. eigenvalues --    0.61701   0.61712   0.61857   0.61959   0.62163
 Alpha virt. eigenvalues --    0.62406   0.62573   0.62662   0.62816   0.62906
 Alpha virt. eigenvalues --    0.63173   0.63204   0.63348   0.63388   0.63490
 Alpha virt. eigenvalues --    0.63591   0.63637   0.63755   0.63940   0.64057
 Alpha virt. eigenvalues --    0.64167   0.64270   0.64445   0.64552   0.64574
 Alpha virt. eigenvalues --    0.64735   0.64906   0.64996   0.65116   0.65222
 Alpha virt. eigenvalues --    0.65351   0.65448   0.65602   0.65780   0.65894
 Alpha virt. eigenvalues --    0.66022   0.66155   0.66285   0.66300   0.66570
 Alpha virt. eigenvalues --    0.66610   0.66652   0.66873   0.66960   0.66994
 Alpha virt. eigenvalues --    0.67167   0.67336   0.67385   0.67473   0.67598
 Alpha virt. eigenvalues --    0.67682   0.67749   0.67781   0.68086   0.68200
 Alpha virt. eigenvalues --    0.68281   0.68453   0.68733   0.68809   0.68893
 Alpha virt. eigenvalues --    0.69070   0.69202   0.69323   0.69417   0.69536
 Alpha virt. eigenvalues --    0.69593   0.69870   0.70022   0.70211   0.70348
 Alpha virt. eigenvalues --    0.70428   0.70463   0.70653   0.70797   0.70896
 Alpha virt. eigenvalues --    0.70980   0.71036   0.71239   0.71418   0.71487
 Alpha virt. eigenvalues --    0.71634   0.71950   0.72001   0.72241   0.72309
 Alpha virt. eigenvalues --    0.72351   0.72657   0.72875   0.72954   0.72980
 Alpha virt. eigenvalues --    0.73196   0.73312   0.73438   0.73457   0.73750
 Alpha virt. eigenvalues --    0.73799   0.73930   0.74375   0.74493   0.74786
 Alpha virt. eigenvalues --    0.74878   0.75171   0.75358   0.75493   0.75771
 Alpha virt. eigenvalues --    0.75923   0.76009   0.76202   0.76384   0.76692
 Alpha virt. eigenvalues --    0.76792   0.76902   0.77347   0.77626   0.77679
 Alpha virt. eigenvalues --    0.77959   0.77984   0.78256   0.78390   0.78736
 Alpha virt. eigenvalues --    0.79006   0.79230   0.79485   0.79937   0.80221
 Alpha virt. eigenvalues --    0.80409   0.80692   0.81010   0.81314   0.81555
 Alpha virt. eigenvalues --    0.81597   0.82041   0.82302   0.82486   0.82592
 Alpha virt. eigenvalues --    0.83022   0.83213   0.83732   0.83822   0.84142
 Alpha virt. eigenvalues --    0.84377   0.84469   0.84876   0.85053   0.85414
 Alpha virt. eigenvalues --    0.85757   0.85964   0.86440   0.86746   0.86962
 Alpha virt. eigenvalues --    0.87078   0.87557   0.87900   0.88014   0.88083
 Alpha virt. eigenvalues --    0.88431   0.88542   0.89118   0.89374   0.89720
 Alpha virt. eigenvalues --    0.89792   0.90474   0.90672   0.91020   0.91244
 Alpha virt. eigenvalues --    0.91484   0.91692   0.91832   0.92071   0.92178
 Alpha virt. eigenvalues --    0.92929   0.93068   0.93757   0.93865   0.94124
 Alpha virt. eigenvalues --    0.94329   0.94875   0.95209   0.95510   0.95596
 Alpha virt. eigenvalues --    0.95835   0.96076   0.96353   0.96617   0.96700
 Alpha virt. eigenvalues --    0.96933   0.97160   0.97471   0.97693   0.98243
 Alpha virt. eigenvalues --    0.98431   0.98833   0.98954   0.99200   0.99351
 Alpha virt. eigenvalues --    0.99820   1.00289   1.00504   1.00770   1.00848
 Alpha virt. eigenvalues --    1.01284   1.01580   1.01758   1.02179   1.02205
 Alpha virt. eigenvalues --    1.02515   1.02738   1.03194   1.03426   1.03722
 Alpha virt. eigenvalues --    1.04140   1.04729   1.04840   1.05449   1.05488
 Alpha virt. eigenvalues --    1.06023   1.06538   1.06735   1.06892   1.06922
 Alpha virt. eigenvalues --    1.07378   1.07751   1.07909   1.08129   1.08313
 Alpha virt. eigenvalues --    1.08437   1.08615   1.09071   1.09155   1.09591
 Alpha virt. eigenvalues --    1.09711   1.10041   1.10461   1.10615   1.11267
 Alpha virt. eigenvalues --    1.11447   1.11819   1.12135   1.12340   1.12609
 Alpha virt. eigenvalues --    1.12733   1.12811   1.12928   1.13143   1.13736
 Alpha virt. eigenvalues --    1.14064   1.14243   1.14794   1.14965   1.15286
 Alpha virt. eigenvalues --    1.15573   1.15806   1.16065   1.16394   1.16821
 Alpha virt. eigenvalues --    1.17039   1.17181   1.17282   1.17918   1.18219
 Alpha virt. eigenvalues --    1.18501   1.18542   1.18920   1.19364   1.19459
 Alpha virt. eigenvalues --    1.19711   1.20040   1.20362   1.20955   1.21018
 Alpha virt. eigenvalues --    1.21154   1.21492   1.21649   1.21942   1.22008
 Alpha virt. eigenvalues --    1.22307   1.22420   1.22708   1.23285   1.23391
 Alpha virt. eigenvalues --    1.23900   1.24269   1.24533   1.24681   1.24907
 Alpha virt. eigenvalues --    1.25251   1.25658   1.25780   1.25794   1.26167
 Alpha virt. eigenvalues --    1.26274   1.26441   1.26913   1.27113   1.27577
 Alpha virt. eigenvalues --    1.27798   1.28004   1.28143   1.28513   1.28780
 Alpha virt. eigenvalues --    1.29088   1.29366   1.29459   1.29628   1.30229
 Alpha virt. eigenvalues --    1.30460   1.30631   1.30964   1.31167   1.31393
 Alpha virt. eigenvalues --    1.31420   1.31854   1.32194   1.32519   1.32831
 Alpha virt. eigenvalues --    1.32982   1.33250   1.33885   1.34317   1.34434
 Alpha virt. eigenvalues --    1.34830   1.35289   1.35495   1.35627   1.35747
 Alpha virt. eigenvalues --    1.36107   1.36324   1.36630   1.36778   1.37202
 Alpha virt. eigenvalues --    1.37325   1.37403   1.37885   1.38025   1.38139
 Alpha virt. eigenvalues --    1.38304   1.38577   1.38652   1.39097   1.39151
 Alpha virt. eigenvalues --    1.39658   1.39757   1.39869   1.40137   1.40564
 Alpha virt. eigenvalues --    1.40808   1.41039   1.41413   1.41845   1.42036
 Alpha virt. eigenvalues --    1.42298   1.42655   1.43479   1.43588   1.43731
 Alpha virt. eigenvalues --    1.44021   1.44639   1.44762   1.44997   1.45340
 Alpha virt. eigenvalues --    1.45488   1.45914   1.46354   1.46591   1.46844
 Alpha virt. eigenvalues --    1.47213   1.47424   1.47899   1.48157   1.48194
 Alpha virt. eigenvalues --    1.48663   1.48800   1.48949   1.49243   1.49548
 Alpha virt. eigenvalues --    1.49850   1.49958   1.50402   1.50654   1.51019
 Alpha virt. eigenvalues --    1.51292   1.51321   1.51788   1.51909   1.52506
 Alpha virt. eigenvalues --    1.52884   1.53368   1.53523   1.53698   1.53899
 Alpha virt. eigenvalues --    1.54048   1.54440   1.54862   1.55260   1.55382
 Alpha virt. eigenvalues --    1.55787   1.56075   1.56253   1.56789   1.57033
 Alpha virt. eigenvalues --    1.57257   1.57702   1.57982   1.58485   1.58659
 Alpha virt. eigenvalues --    1.58916   1.59164   1.59551   1.59969   1.60115
 Alpha virt. eigenvalues --    1.60611   1.61006   1.61418   1.61905   1.62697
 Alpha virt. eigenvalues --    1.62821   1.62920   1.62996   1.63514   1.63943
 Alpha virt. eigenvalues --    1.64323   1.64670   1.64838   1.65204   1.65324
 Alpha virt. eigenvalues --    1.65498   1.65850   1.66120   1.66399   1.66924
 Alpha virt. eigenvalues --    1.67343   1.67528   1.67952   1.68006   1.68417
 Alpha virt. eigenvalues --    1.68609   1.68645   1.68796   1.68830   1.69226
 Alpha virt. eigenvalues --    1.69405   1.69526   1.69829   1.70126   1.70230
 Alpha virt. eigenvalues --    1.70237   1.70623   1.70881   1.71168   1.71221
 Alpha virt. eigenvalues --    1.71800   1.72213   1.72502   1.72595   1.73060
 Alpha virt. eigenvalues --    1.73286   1.73357   1.73597   1.73860   1.74066
 Alpha virt. eigenvalues --    1.74230   1.74412   1.74666   1.74764   1.74926
 Alpha virt. eigenvalues --    1.75050   1.75241   1.75428   1.75703   1.75762
 Alpha virt. eigenvalues --    1.76075   1.76207   1.76387   1.76700   1.76875
 Alpha virt. eigenvalues --    1.77024   1.77274   1.77530   1.77552   1.77742
 Alpha virt. eigenvalues --    1.77829   1.77980   1.78076   1.78216   1.78314
 Alpha virt. eigenvalues --    1.78511   1.78587   1.78720   1.78818   1.78885
 Alpha virt. eigenvalues --    1.79189   1.79313   1.79387   1.79562   1.79789
 Alpha virt. eigenvalues --    1.79928   1.80236   1.80447   1.80716   1.80800
 Alpha virt. eigenvalues --    1.80871   1.81251   1.81443   1.81647   1.81746
 Alpha virt. eigenvalues --    1.81999   1.82128   1.82332   1.82455   1.82525
 Alpha virt. eigenvalues --    1.82942   1.83036   1.83147   1.83385   1.83678
 Alpha virt. eigenvalues --    1.83887   1.84218   1.84432   1.84662   1.84856
 Alpha virt. eigenvalues --    1.85079   1.85138   1.85376   1.85609   1.85737
 Alpha virt. eigenvalues --    1.85799   1.86055   1.86262   1.86492   1.86707
 Alpha virt. eigenvalues --    1.86829   1.86989   1.87264   1.87370   1.87538
 Alpha virt. eigenvalues --    1.87618   1.87916   1.88124   1.88182   1.88421
 Alpha virt. eigenvalues --    1.88766   1.89104   1.89252   1.89580   1.89749
 Alpha virt. eigenvalues --    1.89909   1.90398   1.90608   1.90770   1.90971
 Alpha virt. eigenvalues --    1.91194   1.91252   1.91583   1.91802   1.91911
 Alpha virt. eigenvalues --    1.92014   1.92306   1.92446   1.92710   1.92854
 Alpha virt. eigenvalues --    1.92929   1.93282   1.93437   1.93670   1.93995
 Alpha virt. eigenvalues --    1.94182   1.94440   1.94450   1.94723   1.94902
 Alpha virt. eigenvalues --    1.95042   1.95530   1.95748   1.95758   1.96063
 Alpha virt. eigenvalues --    1.96266   1.96651   1.96918   1.97018   1.97221
 Alpha virt. eigenvalues --    1.97373   1.97908   1.97945   1.98214   1.98547
 Alpha virt. eigenvalues --    1.98688   1.98745   1.99107   1.99371   1.99512
 Alpha virt. eigenvalues --    1.99845   1.99921   2.00365   2.00713   2.00921
 Alpha virt. eigenvalues --    2.00992   2.01339   2.01542   2.01672   2.01937
 Alpha virt. eigenvalues --    2.02087   2.02391   2.02540   2.02755   2.03078
 Alpha virt. eigenvalues --    2.03404   2.03548   2.03794   2.03929   2.04217
 Alpha virt. eigenvalues --    2.04550   2.04768   2.05103   2.05244   2.05379
 Alpha virt. eigenvalues --    2.05935   2.06109   2.06221   2.06830   2.07006
 Alpha virt. eigenvalues --    2.07204   2.07241   2.07468   2.07795   2.07838
 Alpha virt. eigenvalues --    2.08233   2.08982   2.09097   2.09299   2.09537
 Alpha virt. eigenvalues --    2.09835   2.10042   2.10323   2.10558   2.10750
 Alpha virt. eigenvalues --    2.11066   2.11616   2.12045   2.12621   2.13159
 Alpha virt. eigenvalues --    2.13399   2.13602   2.13840   2.14254   2.14583
 Alpha virt. eigenvalues --    2.14837   2.15042   2.15237   2.15532   2.15862
 Alpha virt. eigenvalues --    2.16211   2.16263   2.16631   2.16889   2.17035
 Alpha virt. eigenvalues --    2.17300   2.17573   2.17927   2.18480   2.18697
 Alpha virt. eigenvalues --    2.18940   2.18959   2.19431   2.19817   2.19991
 Alpha virt. eigenvalues --    2.20138   2.20437   2.20840   2.21078   2.21201
 Alpha virt. eigenvalues --    2.21342   2.21795   2.22491   2.22699   2.22800
 Alpha virt. eigenvalues --    2.23076   2.23324   2.23503   2.23616   2.23894
 Alpha virt. eigenvalues --    2.24226   2.24693   2.24900   2.25226   2.25385
 Alpha virt. eigenvalues --    2.25580   2.26181   2.26541   2.26865   2.26992
 Alpha virt. eigenvalues --    2.27362   2.27734   2.27893   2.28381   2.28588
 Alpha virt. eigenvalues --    2.29276   2.29434   2.29581   2.30095   2.30565
 Alpha virt. eigenvalues --    2.30644   2.30843   2.31200   2.31425   2.31760
 Alpha virt. eigenvalues --    2.32065   2.32163   2.32565   2.32790   2.33257
 Alpha virt. eigenvalues --    2.33541   2.33842   2.34162   2.34279   2.34525
 Alpha virt. eigenvalues --    2.35555   2.35844   2.35921   2.36216   2.36565
 Alpha virt. eigenvalues --    2.36799   2.37111   2.37347   2.37565   2.38186
 Alpha virt. eigenvalues --    2.38779   2.38847   2.39265   2.39639   2.40334
 Alpha virt. eigenvalues --    2.40586   2.40674   2.41117   2.41266   2.41664
 Alpha virt. eigenvalues --    2.41840   2.42354   2.42534   2.42917   2.42959
 Alpha virt. eigenvalues --    2.43472   2.43677   2.44036   2.44383   2.44864
 Alpha virt. eigenvalues --    2.45701   2.45981   2.46025   2.46281   2.46693
 Alpha virt. eigenvalues --    2.46819   2.47085   2.47693   2.48280   2.48442
 Alpha virt. eigenvalues --    2.48903   2.49004   2.49148   2.49605   2.49776
 Alpha virt. eigenvalues --    2.50000   2.50431   2.50534   2.51009   2.51462
 Alpha virt. eigenvalues --    2.51600   2.51818   2.52408   2.52558   2.53036
 Alpha virt. eigenvalues --    2.53272   2.54616   2.54920   2.55183   2.55270
 Alpha virt. eigenvalues --    2.55449   2.55800   2.55920   2.56601   2.56706
 Alpha virt. eigenvalues --    2.56930   2.57049   2.58000   2.58441   2.58895
 Alpha virt. eigenvalues --    2.59265   2.59737   2.59883   2.60142   2.60316
 Alpha virt. eigenvalues --    2.60751   2.60846   2.61008   2.61433   2.61627
 Alpha virt. eigenvalues --    2.62408   2.63032   2.63421   2.63715   2.63849
 Alpha virt. eigenvalues --    2.63968   2.64136   2.64482   2.64862   2.65045
 Alpha virt. eigenvalues --    2.65343   2.65553   2.65686   2.66027   2.66058
 Alpha virt. eigenvalues --    2.66365   2.66489   2.66817   2.67168   2.67690
 Alpha virt. eigenvalues --    2.67899   2.68086   2.68253   2.69112   2.69314
 Alpha virt. eigenvalues --    2.69843   2.69997   2.70136   2.70332   2.70831
 Alpha virt. eigenvalues --    2.71304   2.71628   2.71814   2.72037   2.72186
 Alpha virt. eigenvalues --    2.72342   2.72403   2.72714   2.72857   2.73180
 Alpha virt. eigenvalues --    2.73305   2.73376   2.73870   2.73970   2.74665
 Alpha virt. eigenvalues --    2.74754   2.74961   2.75387   2.75571   2.75642
 Alpha virt. eigenvalues --    2.75924   2.76410   2.76678   2.77029   2.77103
 Alpha virt. eigenvalues --    2.77341   2.77560   2.77829   2.78407   2.78450
 Alpha virt. eigenvalues --    2.78618   2.78656   2.78815   2.79568   2.79823
 Alpha virt. eigenvalues --    2.80096   2.80618   2.80653   2.80769   2.81090
 Alpha virt. eigenvalues --    2.81396   2.81966   2.82386   2.82823   2.83220
 Alpha virt. eigenvalues --    2.83344   2.83476   2.83848   2.83892   2.84208
 Alpha virt. eigenvalues --    2.84898   2.85134   2.85680   2.86137   2.86576
 Alpha virt. eigenvalues --    2.86841   2.87161   2.87500   2.87727   2.88297
 Alpha virt. eigenvalues --    2.88394   2.88550   2.88812   2.88851   2.89095
 Alpha virt. eigenvalues --    2.89383   2.89457   2.89528   2.90489   2.90556
 Alpha virt. eigenvalues --    2.91029   2.91155   2.91445   2.91720   2.91978
 Alpha virt. eigenvalues --    2.92290   2.92314   2.92417   2.92545   2.92947
 Alpha virt. eigenvalues --    2.93433   2.93771   2.93897   2.94015   2.94284
 Alpha virt. eigenvalues --    2.94728   2.94946   2.95150   2.95365   2.95539
 Alpha virt. eigenvalues --    2.95787   2.96424   2.96524   2.97117   2.98140
 Alpha virt. eigenvalues --    2.98414   2.99085   2.99177   2.99897   3.00011
 Alpha virt. eigenvalues --    3.00305   3.00391   3.01417   3.01661   3.01974
 Alpha virt. eigenvalues --    3.02028   3.02351   3.02479   3.03013   3.03192
 Alpha virt. eigenvalues --    3.03337   3.03580   3.03585   3.04204   3.04840
 Alpha virt. eigenvalues --    3.05110   3.05571   3.05839   3.06165   3.06314
 Alpha virt. eigenvalues --    3.06760   3.07549   3.07739   3.07820   3.07988
 Alpha virt. eigenvalues --    3.08187   3.09920   3.10386   3.10623   3.11451
 Alpha virt. eigenvalues --    3.11574   3.12408   3.12903   3.12941   3.13210
 Alpha virt. eigenvalues --    3.13953   3.15147   3.15442   3.15960   3.16089
 Alpha virt. eigenvalues --    3.16174   3.16364   3.16632   3.17605   3.18045
 Alpha virt. eigenvalues --    3.18311   3.18773   3.19284   3.19496   3.19711
 Alpha virt. eigenvalues --    3.19953   3.20149   3.20566   3.21568   3.22408
 Alpha virt. eigenvalues --    3.22510   3.23052   3.23173   3.23716   3.23785
 Alpha virt. eigenvalues --    3.24140   3.24450   3.24907   3.25102   3.25347
 Alpha virt. eigenvalues --    3.25578   3.25814   3.26267   3.27541   3.28715
 Alpha virt. eigenvalues --    3.29008   3.29165   3.29997   3.30936   3.31864
 Alpha virt. eigenvalues --    3.32792   3.33123   3.33390   3.33648   3.34368
 Alpha virt. eigenvalues --    3.36663   3.38119   3.38294   3.38951   3.39795
 Alpha virt. eigenvalues --    3.40289   3.43474   3.43657   3.47622   3.49166
 Alpha virt. eigenvalues --    3.50763   3.51626   3.53639   3.54922   3.55750
 Alpha virt. eigenvalues --    3.55792   3.56289   3.56750   3.59026   3.59466
 Alpha virt. eigenvalues --    3.61343   3.62780   3.63350   3.64193   3.64404
 Alpha virt. eigenvalues --    3.64722   3.65883   3.65920   3.67323   3.67628
 Alpha virt. eigenvalues --    3.68301   3.69216   3.69553   3.69663   3.69812
 Alpha virt. eigenvalues --    3.70172   3.70978   3.72161   3.72398   3.72963
 Alpha virt. eigenvalues --    3.73138   3.74002   3.74528   3.75325   3.76896
 Alpha virt. eigenvalues --    3.77291   3.79792   3.81441   3.81538
          Condensed to atoms (all electrons):
 Mulliken charges:
               1
     1  C    0.034135
     2  C    0.029574
     3  O   -0.307151
     4  H    0.039680
     5  H    0.039184
     6  H    0.024201
     7  N   -0.130646
     8  C    0.107598
     9  C    0.097098
    10  O   -0.292043
    11  C    0.035140
    12  C    0.213182
    13  O   -0.505159
    14  O   -0.367913
    15  H    0.118365
    16  H    0.007290
    17  H    0.007672
    18  H   -0.000368
    19  N   -0.101901
    20  C    0.166343
    21  C    0.025528
    22  O   -0.245027
    23  C   -0.037264
    24  C    0.016727
    25  C   -0.069193
    26  C    0.049958
    27  N    0.083905
    28  H    0.144576
    29  H   -0.010574
    30  H    0.014238
    31  H    0.042588
    32  H    0.034684
    33  H   -0.011071
    34  H    0.008372
    35  H    0.063891
    36  H    0.069013
    37  H    0.107591
    38  H    0.194444
    39  H    0.191368
    40  H    0.189966
    41  N   -0.147672
    42  C    0.160995
    43  C    0.081284
    44  O   -0.284605
    45  C    0.019333
    46  C    0.083304
    47  O   -0.384587
    48  O   -0.458938
    49  H    0.109991
    50  H   -0.002960
    51  H   -0.020266
    52  H    0.038324
    53  N   -0.150927
    54  C    0.212571
    55  C    0.025215
    56  O   -0.292038
    57  H    0.158478
    58  H    0.006983
    59  H    0.024913
    60  N   -0.184493
    61  C    0.170380
    62  C    0.040067
    63  O   -0.306881
    64  C    0.077016
    65  C    0.062933
    66  N   -0.025905
    67  O   -0.345392
    68  H    0.157295
    69  H    0.015313
    70  H    0.080629
    71  H    0.003061
    72  H    0.132446
    73  H    0.098013
    74  N   -0.186306
    75  C    0.253586
    76  C   -0.004515
    77  O   -0.310693
    78  H    0.155021
    79  H    0.034948
    80  H    0.031769
    81  N   -0.145235
    82  C    0.152787
    83  C    0.075935
    84  O   -0.328110
    85  C    0.125921
    86  C    0.017296
    87  C    0.019871
    88  C    0.023529
    89  C   -0.038007
    90  C   -0.065720
    91  C    0.205502
    92  O   -0.198810
    93  H    0.181861
    94  H   -0.010392
    95  H   -0.024092
    96  H   -0.033934
    97  H   -0.052090
    98  H   -0.032992
    99  H   -0.030589
   100  H   -0.046911
   101  H    0.176593
   102  N   -0.117930
   103  C    0.148387
   104  C    0.107839
   105  O   -0.266667
   106  C   -0.106714
   107  C    0.002585
   108  C    0.039074
   109  C    0.042534
   110  H    0.127306
   111  H    0.008365
   112  H   -0.018142
   113  H   -0.002444
   114  H    0.000742
   115  H   -0.015041
   116  H    0.030632
   117  H    0.010095
   118  H    0.004466
   119  H    0.017366
   120  H    0.014559
   121  N   -0.165276
   122  C    0.042748
   123  C    0.089193
   124  O   -0.266185
   125  C    0.229188
   126  O   -0.294136
   127  H    0.148557
   128  H    0.010107
   129  H    0.003711
   130  H   -0.002760
   131  H    0.172436
   132  N   -0.106682
   133  C    0.110536
   134  C    0.064506
   135  O   -0.257162
   136  C    0.048232
   137  H    0.094384
   138  H    0.025987
   139  H    0.034582
   140  H    0.004358
   141  H    0.037393
   142  N   -0.140473
   143  C    0.077520
   144  C    0.032000
   145  O   -0.245867
   146  C    0.040290
   147  H    0.111464
   148  H    0.018382
   149  H    0.029145
   150  H    0.016707
   151  H    0.031123
   152  N   -0.157714
   153  C    0.144906
   154  C    0.064273
   155  O   -0.289821
   156  C   -0.092561
   157  C    0.134789
   158  C    0.137315
   159  O   -0.418129
   160  O   -0.412838
   161  H    0.126356
   162  H   -0.038124
   163  H    0.047166
   164  H    0.019544
   165  H   -0.020756
   166  H   -0.033477
   167  N   -0.155674
   168  C    0.133622
   169  H    0.031139
   170  H    0.026902
   171  H    0.018189
   172  H    0.134079
   173  Ca   1.291602
   174  O   -0.255210
   175  H    0.177015
   176  H    0.188284
 Sum of Mulliken charges =   0.00000
 Mulliken charges with hydrogens summed into heavy atoms:
               1
     1  C    0.137200
     2  C    0.029574
     3  O   -0.307151
     7  N   -0.012281
     8  C    0.114888
     9  C    0.097098
    10  O   -0.292043
    11  C    0.042443
    12  C    0.213182
    13  O   -0.505159
    14  O   -0.367913
    19  N    0.042675
    20  C    0.155769
    21  C    0.025528
    22  O   -0.245027
    23  C    0.019563
    24  C    0.040340
    25  C    0.003070
    26  C    0.226562
    27  N    0.659684
    41  N   -0.037681
    42  C    0.158035
    43  C    0.081284
    44  O   -0.284605
    45  C    0.037391
    46  C    0.083304
    47  O   -0.384587
    48  O   -0.458938
    53  N    0.007551
    54  C    0.244467
    55  C    0.025215
    56  O   -0.292038
    60  N   -0.027198
    61  C    0.185692
    62  C    0.040067
    63  O   -0.306881
    64  C    0.160706
    65  C    0.062933
    66  N    0.204554
    67  O   -0.345392
    74  N   -0.031285
    75  C    0.320303
    76  C   -0.004515
    77  O   -0.310693
    81  N    0.036627
    82  C    0.142395
    83  C    0.075935
    84  O   -0.328110
    85  C    0.067895
    86  C    0.017296
    87  C   -0.032220
    88  C   -0.009463
    89  C   -0.068596
    90  C   -0.112631
    91  C    0.205502
    92  O   -0.022217
   102  N    0.009375
   103  C    0.156751
   104  C    0.107839
   105  O   -0.266667
   106  C   -0.124856
   107  C    0.000883
   108  C    0.064760
   109  C    0.078925
   121  N   -0.016719
   122  C    0.052855
   123  C    0.089193
   124  O   -0.266185
   125  C    0.230138
   126  O   -0.121700
   132  N   -0.012298
   133  C    0.136523
   134  C    0.064506
   135  O   -0.257162
   136  C    0.124565
   142  N   -0.029009
   143  C    0.095901
   144  C    0.032000
   145  O   -0.245867
   146  C    0.117264
   152  N   -0.031358
   153  C    0.106782
   154  C    0.064273
   155  O   -0.289821
   156  C   -0.025851
   157  C    0.080555
   158  C    0.137315
   159  O   -0.418129
   160  O   -0.412838
   167  N   -0.021595
   168  C    0.209853
   173  Ca   1.291602
   174  O    0.110089
 DipInt: DoE/N= T F RetVal/Mat= T F Init=T NMatP=  1 IDeriv=0 Min/MaxMlt=  0  4
 Entering OneElI...
 OneElI was handed  4286741430 working-precision words.
 Multipole integrals L=0 to 4 MinM= 0 MaxM= 0.
 Requested accuracy = 0.1000D-12
 ShPair: Thresh= 1.00D-13 NBox=     0 BxSize= 0.00D+00 RnKept= 2.55D+01
         NSMCal=               327645 NSMKep=              159521
 PrsmSu:  NPrtUS=   1 ThrOK=F IAlg=1 NPAlg=1 LenDen=           0.
 Prism:   IPart=     0 DynPar=F LinDyn=F Incr=         512.
 PRISM was handed  4276714188 working-precision words and159521 shell-pairs
 IPart=  0 NShTot=      159521 NBatch=         449 AvBLen=       355.3
 PrSmSu:  NxtVal=            513.
 Electronic moments (au):
       -716.00000000         15.65194868          3.58879843         -4.55375010
     -52921.23324662     -32389.44504970     -11378.42495296        120.97887459
        -39.05313765          9.67338063    -106009.73472271     -19134.36937220
     -17518.38578997      44165.26120803      91025.59112515      43571.55711776
      -8365.95257724        104.16574111      19539.43051758      -9810.29714357
   -7582396.88926118   -3403717.08638548    -537905.65250671      86267.41368542
     256561.79228112    -799146.37172443      17663.28394814     -66905.84003989
       3530.41866984   -2381100.83470637    -634828.01065056    -331581.20107178
    -175818.87587853     -42185.13233066      33138.98951671
 Electronic spatial extent (au):  <R**2>=          96689.1032
 DipInt: DoE/N= F T RetVal/Mat= T F Init=T NMatP=  1 IDeriv=0 Min/MaxMlt=  0  4
 Nuclear    moments (au):
        716.00000000          0.00000000          0.00000000          0.00000000
      52410.05249864      32122.15553677      10984.47091113          0.00000000
          0.00000000          0.00000000     107473.44100022      20979.01522739
      17543.38591777     -41914.85324829     -90836.99845991     -44031.97035372
       8691.68621638       -134.13895765     -20000.51784562       9670.24766003
    7371604.15132848    3329558.31845568     499556.78773133     -77301.60000878
    -261346.82760426     830696.36092782     -21901.45108688      66656.05550307
      -1010.49625656    2347301.81554988     598434.74347873     307130.39812689
     175269.16870109      36402.94262014     -33582.44772552
 Total      moments (au):
          0.00000000         15.65194868          3.58879843         -4.55375010
       -511.18074798       -267.28951293       -393.95404182        120.97887459
        -39.05313765          9.67338063       1463.70627751       1844.64585519
         25.00012780       2250.40795973        188.59266524       -460.41323597
        325.73363914        -29.97321654       -461.08732803       -140.04948354
    -210792.73793270     -74158.76792980     -38348.86477538       8965.81367664
      -4785.03532314      31549.98920339      -4238.16713874       -249.78453681
       2519.92241329     -33799.01915649     -36393.26717184     -24450.80294489
       -549.70717744      -5782.18971052       -443.45820881
 Traceless Quadrup. (au):
       -120.37264707        123.51858798         -3.14594091        120.97887459
        -39.05313765          9.67338063
 Charge=              0.0000 electrons
 Dipole moment (field-independent basis, Debye):
    X=             39.7833    Y=              9.1218    Z=            -11.5745  Tot=             42.4251
 Quadrupole moment (field-independent basis, Debye-Ang):
   XX=           -687.5556   YY=           -359.5135   ZZ=           -529.8816
   XY=            162.7207   XZ=            -52.5278   YZ=             13.0110
 Traceless Quadrupole moment (field-independent basis, Debye-Ang):
   XX=           -161.9053   YY=            166.1367   ZZ=             -4.2314
   XY=            162.7207   XZ=            -52.5278   YZ=             13.0110
 Octapole moment (field-independent basis, Debye-Ang**2):
  XXX=           1041.8097  YYY=           1312.9478  ZZZ=             17.7941  XYY=           1601.7536
  XXY=            134.2330  XXZ=           -327.7044  XZZ=            231.8446  YZZ=            -21.3338
  YYZ=           -328.1842  XYZ=            -99.6818
 Hexadecapole moment (field-independent basis, Debye-Ang**3):
 XXXX=         -79394.6477 YYYY=         -27931.7462 ZZZZ=         -14444.0204 XXXY=           3376.9551
 XXXZ=          -1802.2736 YYYX=          11883.2380 YYYZ=          -1596.2969 ZZZX=            -94.0808
 ZZZY=            949.1236 XXYY=         -12730.3305 XXZZ=         -13707.4486 YYZZ=          -9209.3442
 XXYZ=           -207.0461 YYXZ=          -2177.8498 ZZXY=           -167.0276
 N-N= 2.160653067507D+04 E-N=-5.569516659859D+04  KE= 5.290507823691D+03
 Leave Link  601 at Mon Sep 16 20:20:24 2019, MaxMem=  4294967296 cpu:        21.9
 FitSet:  NAtFit=   176 NAtPot=   176 NAtFrz=     0 MDM=   180 TotChg=   0.00000
 Merz-Kollman atomic radii used.
 Read replacement radii for each type of atom:
 Rad(20) =   1.700000000000D+00
 Atom Element Radius
    1     6    1.50
    2     6    1.50
    3     8    1.40
    4     1    1.20
    5     1    1.20
    6     1    1.20
    7     7    1.50
    8     6    1.50
    9     6    1.50
   10     8    1.40
   11     6    1.50
   12     6    1.50
   13     8    1.40
   14     8    1.40
   15     1    1.20
   16     1    1.20
   17     1    1.20
   18     1    1.20
   19     7    1.50
   20     6    1.50
   21     6    1.50
   22     8    1.40
   23     6    1.50
   24     6    1.50
   25     6    1.50
   26     6    1.50
   27     7    1.50
   28     1    1.20
   29     1    1.20
   30     1    1.20
   31     1    1.20
   32     1    1.20
   33     1    1.20
   34     1    1.20
   35     1    1.20
   36     1    1.20
   37     1    1.20
   38     1    1.20
   39     1    1.20
   40     1    1.20
   41     7    1.50
   42     6    1.50
   43     6    1.50
   44     8    1.40
   45     6    1.50
   46     6    1.50
   47     8    1.40
   48     8    1.40
   49     1    1.20
   50     1    1.20
   51     1    1.20
   52     1    1.20
   53     7    1.50
   54     6    1.50
   55     6    1.50
   56     8    1.40
   57     1    1.20
   58     1    1.20
   59     1    1.20
   60     7    1.50
   61     6    1.50
   62     6    1.50
   63     8    1.40
   64     6    1.50
   65     6    1.50
   66     7    1.50
   67     8    1.40
   68     1    1.20
   69     1    1.20
   70     1    1.20
   71     1    1.20
   72     1    1.20
   73     1    1.20
   74     7    1.50
   75     6    1.50
   76     6    1.50
   77     8    1.40
   78     1    1.20
   79     1    1.20
   80     1    1.20
   81     7    1.50
   82     6    1.50
   83     6    1.50
   84     8    1.40
   85     6    1.50
   86     6    1.50
   87     6    1.50
   88     6    1.50
   89     6    1.50
   90     6    1.50
   91     6    1.50
   92     8    1.40
   93     1    1.20
   94     1    1.20
   95     1    1.20
   96     1    1.20
   97     1    1.20
   98     1    1.20
   99     1    1.20
  100     1    1.20
  101     1    1.20
  102     7    1.50
  103     6    1.50
  104     6    1.50
  105     8    1.40
  106     6    1.50
  107     6    1.50
  108     6    1.50
  109     6    1.50
  110     1    1.20
  111     1    1.20
  112     1    1.20
  113     1    1.20
  114     1    1.20
  115     1    1.20
  116     1    1.20
  117     1    1.20
  118     1    1.20
  119     1    1.20
  120     1    1.20
  121     7    1.50
  122     6    1.50
  123     6    1.50
  124     8    1.40
  125     6    1.50
  126     8    1.40
  127     1    1.20
  128     1    1.20
  129     1    1.20
  130     1    1.20
  131     1    1.20
  132     7    1.50
  133     6    1.50
  134     6    1.50
  135     8    1.40
  136     6    1.50
  137     1    1.20
  138     1    1.20
  139     1    1.20
  140     1    1.20
  141     1    1.20
  142     7    1.50
  143     6    1.50
  144     6    1.50
  145     8    1.40
  146     6    1.50
  147     1    1.20
  148     1    1.20
  149     1    1.20
  150     1    1.20
  151     1    1.20
  152     7    1.50
  153     6    1.50
  154     6    1.50
  155     8    1.40
  156     6    1.50
  157     6    1.50
  158     6    1.50
  159     8    1.40
  160     8    1.40
  161     1    1.20
  162     1    1.20
  163     1    1.20
  164     1    1.20
  165     1    1.20
  166     1    1.20
  167     7    1.50
  168     6    1.50
  169     1    1.20
  170     1    1.20
  171     1    1.20
  172     1    1.20
  173    20    1.70
  174     8    1.40
  175     1    1.20
  176     1    1.20
 Generate VDW surfaces: Layer= 4 Dens= 6 Start= 1.400 Inc= 0.200

 **********************************************************************

            Electrostatic Properties Using The SCF Density

 **********************************************************************

       Atomic Center    1 is at   2.152060  3.063449  4.950699
       Atomic Center    2 is at   1.490453  2.709974  3.628529
       Atomic Center    3 is at   2.120082  2.744058  2.568291
[...]
 **** Fit       0.040128
 **** Fit       0.041286
 **** Fit       0.041122
 **** Fit       0.039077
 **** Fit       0.035110
 **** Fit       0.029848
 **** Fit       0.024372
 **** Fit       0.019931
 **** Fit       0.036814
 **** Fit       0.037009
 **** Fit       0.035930
 **** Fit       0.033172
 **** Fit       0.029099
 **** Fit       0.024782
 **** Fit       0.021593
 **** Fit       0.033921
 **** Fit       0.032462
 **** Fit       0.029754
 **** Fit       0.026441
 **** Fit       0.023799
 **** Fit       0.022873
 **** Fit       0.029689
 **** Fit       0.027036
 **** Fit       0.025209
 **** Fit       0.018128
 **** Fit       0.018539
 **** Fit       0.017347
 **** Fit       0.019180
 **** Fit       0.020990
 **** Fit       0.020047
 **** Fit       0.022062
 **** Fit       0.026089
 **** Fit       0.028469
 **** Fit       0.027872
 **** Fit       0.026499
 **** Fit       0.023286
 **** Fit       0.022312
 **** Fit       0.024282
 **** Fit       0.025609
 **** Fit       0.025399
 **** Fit       0.024089
 **** Fit       0.027451
 **** Fit       0.028096
 **** Fit       0.027069
 **** Fit       0.029897
 **** Fit       0.031832
 **** Fit       0.030713
 **** Fit       0.022384
 **** Fit       0.018226
 **** Fit       0.015542
 **** Fit       0.012260
 **** Fit       0.009146
 **** Fit       0.015935
 **** Fit       0.013035
 **** Fit       0.010657
 **** Fit       0.013766
 **** Fit       0.019082
 **** Fit       0.009868
 **** Fit       0.024973
 **** Fit       0.016402
 **** Fit       0.032300
 **** Fit       0.023875
 **** Fit       0.039824
 **** Fit       0.030383
 **** Fit       0.045100
 **** Fit       0.039125
 **** Fit       0.034008
 **** Fit       0.044875
 **** Fit       0.053806
 **** Fit       0.040816
 **** Fit       0.047706
 **** Fit       0.050893
 **** Fit       0.039011
 **** Fit       0.043510
 **** Fit       0.039269
 **** Fit       0.035946
 **** Fit       0.035400
 **** Fit       0.026841
 **** Fit       0.028715
 **** Fit       0.034025
 **** Fit       0.032500
 **** Fit       0.030313
 **** Fit       0.027919
 **** Fit       0.026185
 **** Fit       0.025717
 **** Fit       0.026416
 **** Fit       0.027846
 **** Fit       0.029788
 **** Fit       0.032132
 **** Fit       0.032934
 **** Fit       0.031014
 **** Fit       0.028942
 **** Fit       0.027743
 **** Fit       0.028087
 **** Fit       0.029691
 **** Fit       0.032031
 **** Fit       0.032279
 **** Fit       0.030274
 **** Fit       0.029962
 **** Fit       0.031960
 **** Fit       0.031998
 **** Fit       0.049133
 **** Fit       0.047639
 **** Fit      -0.017392
 **** Fit      -0.001269
 **** Fit      -0.000627
 **** Fit      -0.002071
 **** Fit      -0.001163
 **** Fit      -0.000567
 **** Fit      -0.000153
 **** Fit      -0.003573
 **** Fit      -0.003032
 **** Fit       0.000024
 **** Fit       0.000019
 **** Fit       0.000150
 **** Fit      -0.000100
 **** Fit      -0.005060
 **** Fit      -0.004160
 **** Fit       0.000428
 **** Fit       0.000317
 **** Fit       0.000285
 **** Fit       0.000067
 **** Fit      -0.007283
 **** Fit      -0.006138
 **** Fit      -0.004785
 **** Fit       0.000701
 **** Fit       0.000573
 **** Fit       0.000447
 **** Fit       0.000257
 **** Fit       0.000047
 **** Fit      -0.009393
 **** Fit      -0.007814
 **** Fit      -0.006267
 **** Fit       0.000792
 **** Fit       0.000643
 **** Fit       0.000535
 **** Fit       0.000418
 **** Fit       0.000085
 **** Fit      -0.000155
 **** Fit      -0.000450
 **** Fit      -0.014254
 **** Fit      -0.011925
 **** Fit      -0.009835
 **** Fit      -0.008033
 **** Fit       0.000554
 **** Fit       0.000448
 **** Fit       0.000369
 **** Fit       0.000259
 **** Fit      -0.000211
 **** Fit      -0.000492
 **** Fit      -0.000847
 **** Fit      -0.018029
 **** Fit      -0.014747
 **** Fit      -0.012193
 **** Fit      -0.010229
 **** Fit       0.000258
 **** Fit       0.000148
 **** Fit       0.000113
 **** Fit       0.000077
 **** Fit      -0.000020
 **** Fit      -0.000607
 **** Fit      -0.000947
 **** Fit      -0.001389
 **** Fit      -0.001915
 **** Fit      -0.019861
 **** Fit      -0.016201
 **** Fit      -0.000260
 **** Fit      -0.000401
 **** Fit      -0.000403
 **** Fit      -0.000345
 **** Fit      -0.000319
 **** Fit      -0.000395
 **** Fit      -0.002043
 **** Fit      -0.002684
 **** Fit      -0.003441
 **** Fit      -0.001078
 **** Fit      -0.001281
 **** Fit      -0.001272
 **** Fit      -0.003649
 **** Fit      -0.004550
 **** Fit      -0.005653
 **** Fit      -0.002210
 **** Fit      -0.002586
 **** Fit      -0.002653
 **** Fit      -0.006081
 **** Fit      -0.007404
 **** Fit      -0.009165
 **** Fit      -0.004288
 **** Fit      -0.004721
 **** Fit      -0.009533
 **** Fit      -0.011493
 **** Fit      -0.014318
 **** Fit      -0.006335
 **** Fit      -0.007580
 **** Fit      -0.012246
 **** Fit      -0.014325
 **** Fit      -0.017211
 **** Fit      -0.016309
 **** Fit      -0.018683
 **** Fit      -0.021896
 **** Fit      -0.022110
 **** Fit      -0.024862
 **** Fit      -0.000811
 **** Fit      -0.001092
 **** Fit      -0.000764
 **** Fit      -0.000691
 **** Fit      -0.000688
 **** Fit      -0.001381
 **** Fit      -0.001644
 **** Fit      -0.002099
 **** Fit      -0.001708
 **** Fit      -0.001505
 **** Fit      -0.001346
 **** Fit      -0.001290
 **** Fit      -0.002173
 **** Fit      -0.002426
 **** Fit      -0.002901
 **** Fit      -0.003622
 **** Fit      -0.003498
 **** Fit      -0.003240
 **** Fit      -0.002879
 **** Fit      -0.002523
 **** Fit      -0.002253
 **** Fit      -0.002124
 **** Fit      -0.003303
 **** Fit      -0.003532
 **** Fit      -0.004009
 **** Fit      -0.004757
 **** Fit      -0.005813
 **** Fit      -0.005666
 **** Fit      -0.005096
 **** Fit      -0.004482
 **** Fit      -0.003935
 **** Fit      -0.003529
 **** Fit      -0.003308
 **** Fit      -0.004902
 **** Fit      -0.005106
 **** Fit      -0.005603
 **** Fit      -0.006410
 **** Fit      -0.007558
 **** Fit      -0.009112
 **** Fit      -0.009792
 **** Fit      -0.008870
 **** Fit      -0.007813
 **** Fit      -0.006805
 **** Fit      -0.005961
 **** Fit      -0.005343
 **** Fit      -0.004985
 **** Fit      -0.007131
 **** Fit      -0.007318
 **** Fit      -0.007898
 **** Fit      -0.008878
 **** Fit      -0.010283
 **** Fit      -0.012170
 **** Fit      -0.012192
 **** Fit      -0.010402
 **** Fit      -0.008976
 **** Fit      -0.007953
 **** Fit      -0.007340
 **** Fit      -0.010191
 **** Fit      -0.010362
 **** Fit      -0.011099
 **** Fit      -0.012394
 **** Fit      -0.014258
 **** Fit      -0.016725
 **** Fit      -0.013450
 **** Fit      -0.011678
 **** Fit      -0.010614
 **** Fit      -0.014341
 **** Fit      -0.014479
 **** Fit      -0.015449
 **** Fit      -0.017213
 **** Fit      -0.019756
 **** Fit      -0.023053
 **** Fit      -0.016908
 **** Fit      -0.015107
 **** Fit      -0.019908
 **** Fit      -0.020033
 **** Fit      -0.021560
 **** Fit      -0.024397
 **** Fit      -0.027348
 **** Fit      -0.002137
 **** Fit      -0.001295
 **** Fit      -0.002170
 **** Fit      -0.003270
 **** Fit      -0.003257
 **** Fit      -0.002207
 **** Fit      -0.001323
 **** Fit      -0.000705
 **** Fit      -0.001302
 **** Fit      -0.002363
 **** Fit      -0.003740
 **** Fit      -0.004908
 **** Fit      -0.005264
 **** Fit      -0.004696
 **** Fit      -0.003567
 **** Fit      -0.000510
 **** Fit      -0.000355
 **** Fit      -0.000822
 **** Fit      -0.001598
 **** Fit      -0.002771
 **** Fit      -0.004313
 **** Fit      -0.005979
 **** Fit      -0.007311
 **** Fit      -0.007868
 **** Fit      -0.007528
 **** Fit      -0.006525
 **** Fit      -0.000100
 **** Fit      -0.000241
 **** Fit      -0.000668
 **** Fit      -0.001312
 **** Fit      -0.002294
 **** Fit      -0.003715
 **** Fit      -0.005586
 **** Fit      -0.007743
 **** Fit      -0.009802
 **** Fit      -0.011238
 **** Fit      -0.011654
 **** Fit      -0.011024
 **** Fit      -0.009669
 **** Fit      -0.000365
 **** Fit      -0.000797
 **** Fit      -0.001391
 **** Fit      -0.002273
 **** Fit      -0.003586
 **** Fit      -0.005453
 **** Fit      -0.007909
 **** Fit      -0.010816
 **** Fit      -0.013771
 **** Fit      -0.016136
 **** Fit      -0.017268
 **** Fit      -0.016892
 **** Fit      -0.015277
 **** Fit      -0.013012
 **** Fit      -0.001190
 **** Fit      -0.001761
 **** Fit      -0.002562
 **** Fit      -0.003746
 **** Fit      -0.005479
 **** Fit      -0.007915
 **** Fit      -0.011134
 **** Fit      -0.015049
 **** Fit      -0.002518
 **** Fit      -0.003364
 **** Fit      -0.004602
 **** Fit      -0.006449
 **** Fit      -0.009148
 **** Fit      -0.012932
 **** Fit      -0.017935
 **** Fit      -0.003599
 **** Fit      -0.004511
 **** Fit      -0.005804
 **** Fit      -0.007731
 **** Fit      -0.010606
 **** Fit      -0.014804
 **** Fit      -0.006153
 **** Fit      -0.007600
 **** Fit      -0.009746
 **** Fit      -0.012995
 **** Fit      -0.017887
 **** Fit      -0.010342
 **** Fit      -0.013096
 **** Fit      -0.017393
 **** Fit      -0.017900
 **** Fit      -0.000637
 **** Fit      -0.000136
 **** Fit      -0.001520
 **** Fit      -0.001250
 **** Fit      -0.000459
 **** Fit       0.000021
 **** Fit      -0.002638
 **** Fit      -0.001992
 **** Fit      -0.001161
 **** Fit      -0.000379
 **** Fit       0.000206
 **** Fit       0.000494
 **** Fit       0.000492
 **** Fit      -0.003748
 **** Fit      -0.002901
 **** Fit      -0.002032
 **** Fit      -0.001210
 **** Fit      -0.000454
 **** Fit       0.000177
 **** Fit       0.000605
 **** Fit       0.000802
 **** Fit       0.000816
 **** Fit       0.000722
 **** Fit      -0.004563
 **** Fit      -0.003565
 **** Fit      -0.002665
 **** Fit      -0.001821
 **** Fit      -0.000998
 **** Fit      -0.000236
 **** Fit       0.000377
 **** Fit       0.000772
 **** Fit       0.000944
 **** Fit       0.000953
 **** Fit       0.000885
 **** Fit      -0.006166
 **** Fit      -0.005033
 **** Fit      -0.004055
 **** Fit      -0.003146
 **** Fit      -0.002215
 **** Fit      -0.001265
 **** Fit      -0.000385
 **** Fit       0.000312
 **** Fit       0.000751
 **** Fit       0.000933
 **** Fit       0.000927
 **** Fit       0.000837
 **** Fit      -0.005049
 **** Fit      -0.004000
 **** Fit      -0.002866
 **** Fit      -0.001713
 **** Fit      -0.000669
 **** Fit       0.000132
 **** Fit       0.000616
 **** Fit       0.000793
 **** Fit       0.000747
 **** Fit       0.000597
 **** Fit       0.000458
 **** Fit      -0.006234
 **** Fit      -0.004797
 **** Fit      -0.003263
 **** Fit      -0.001792
 **** Fit      -0.000596
 **** Fit       0.000178
 **** Fit       0.000505
 **** Fit       0.000474
 **** Fit       0.000238
 **** Fit      -0.000034
 **** Fit      -0.007558
 **** Fit      -0.005555
 **** Fit      -0.003496
 **** Fit      -0.001721
 **** Fit      -0.000498
 **** Fit       0.000082
 **** Fit       0.000102
 **** Fit      -0.000240
 **** Fit      -0.000711
 **** Fit      -0.010006
 **** Fit      -0.007050
 **** Fit      -0.004176
 **** Fit      -0.001941
 **** Fit      -0.000655
 **** Fit      -0.000322
 **** Fit      -0.000704
 **** Fit      -0.001454
 **** Fit      -0.002229
 **** Fit      -0.007040
 **** Fit      -0.003356
 **** Fit      -0.001304
 **** Fit      -0.000919
 **** Fit      -0.001743
 **** Fit      -0.003119
 **** Fit       0.007642
 **** Fit       0.017977
 **** Fit       0.012985
 **** Fit       0.007123
 **** Fit       0.029710
 **** Fit       0.025133
 **** Fit       0.019980
 **** Fit       0.013700
 **** Fit       0.005768
 **** Fit       0.034831
 **** Fit       0.028563
 **** Fit       0.021994
 **** Fit       0.014467
 **** Fit       0.004816
 **** Fit       0.024533
 **** Fit       0.015233
 **** Fit       0.003452
 **** Fit       0.017096
 **** Fit       0.035042
 **** Fit       0.039005
 **** Fit       0.039033
 **** Fit       0.042373
 **** Fit       0.047025
 **** Fit       0.052315
 **** Fit       0.044642
 **** Fit       0.035063
 **** Fit       0.034626
 **** Fit       0.063232
 **** Fit       0.040568
 **** Fit       0.038089
 **** Fit       0.036419
 **** Fit       0.035046
 **** Fit       0.032982
 **** Fit       0.047217
 **** Fit       0.050685
 **** Fit       0.054564
 **** Fit       0.058522
 **** Fit       0.062282
 **** Fit       0.048551
 **** Fit       0.044923
 **** Fit       0.041810
 **** Fit       0.039037
 **** Fit       0.036314
 **** Fit       0.033090
 **** Fit       0.028537
 **** Fit       0.021786
 **** Fit       0.012588
 **** Fit       0.045548
 **** Fit       0.047940
 **** Fit       0.051043
 **** Fit       0.054400
 **** Fit       0.057626
 **** Fit       0.060221
 **** Fit       0.061410
 **** Fit       0.048079
 **** Fit       0.044719
 **** Fit       0.041485
 **** Fit       0.038137
 **** Fit       0.034263
 **** Fit       0.029300
 **** Fit       0.022781
 **** Fit       0.014969
 **** Fit       0.044954
 **** Fit       0.046908
 **** Fit       0.049577
 **** Fit       0.052451
 **** Fit       0.055014
 **** Fit       0.056633
 **** Fit       0.056631
 **** Fit       0.054751
 **** Fit       0.051585
 **** Fit       0.046988
 **** Fit       0.043773
 **** Fit       0.040301
 **** Fit       0.036347
 **** Fit       0.031583
 **** Fit       0.025874
 **** Fit       0.019827
 **** Fit       0.015238
 **** Fit       0.043996
 **** Fit       0.045753
 **** Fit       0.048048
 **** Fit       0.050404
 **** Fit       0.052238
 **** Fit       0.052933
 **** Fit       0.052097
 **** Fit       0.049912
 **** Fit       0.045376
 **** Fit       0.042104
 **** Fit       0.038213
 **** Fit       0.033651
 **** Fit       0.028658
 **** Fit       0.024365
 **** Fit       0.022769
 **** Fit       0.041752
 **** Fit       0.043646
 **** Fit       0.045751
 **** Fit       0.047802
 **** Fit       0.049184
 **** Fit       0.049288
 **** Fit       0.047910
 **** Fit       0.043400
 **** Fit       0.039765
 **** Fit       0.035310
 **** Fit       0.031148
 **** Fit       0.029498
 **** Fit       0.031757
 **** Fit       0.036030
 **** Fit       0.039676
 **** Fit       0.042419
 **** Fit       0.044684
 **** Fit       0.046021
 **** Fit       0.045644
 **** Fit       0.041238
 **** Fit       0.037189
 **** Fit       0.034797
 **** Fit       0.037233
 **** Fit       0.040875
 **** Fit       0.042740
 **** Fit       0.039094
 **** Fit       0.046125
 **** Fit       0.042568
 **** Fit       0.047173
 **** Fit       0.039686
 **** Fit       0.044681
 **** Fit       0.049922
 **** Fit       0.055678
 **** Fit       0.035556
 **** Fit       0.040292
 **** Fit       0.045366
 **** Fit       0.050794
 **** Fit       0.056735
 **** Fit       0.037633
 **** Fit       0.041532
 **** Fit       0.046146
 **** Fit       0.051285
 **** Fit       0.056933
 **** Fit       0.045363
 **** Fit       0.049713
 **** Fit       0.054822
 **** Fit       0.060479
 -----------------------------------------------------------------
 Leave Link  602 at Mon Sep 16 20:20:37 2019, MaxMem=  4294967296 cpu:       155.8

 Test job not archived.
 1\1\GINC-N006\SP\RB3LYP\SVP\C54H83Ca1N15O23\PCIEPLAK\16-Sep-2019\0\\#m
 axdisk=50GB #B3LYP/SVP Density=Current scf=(tight) #IOP(5/87=12)Pop=(M
 K,readradii) iop(6/33=2) iop(6/42=6)\\SOL molecule\\0,1\C,0,39.48,42.6
 ,25.47\C,0,39.74,41.36,26.31\O,0,39.26,41.24,27.44\H,0,38.64,43.153,25
 .89\H,0,40.368,43.233,25.47\H,0,39.245,42.304,24.448\N,0,40.68,40.52,2
 5.86\C,0,41.22,39.37,26.55\C,0,42.24,39.82,27.59\O,0,43.42,39.62,27.3\
 C,0,41.67,38.4,25.47\C,0,42.05,36.99,25.89\O,0,41.73,36.67,27.06\O,0,4
 2.77,36.35,25.11\H,0,40.94,40.7,24.9\H,0,40.46,38.78,27.07\H,0,42.56,3
 8.81,24.99\H,0,40.87,38.43,24.72\N,0,41.86,40.23,28.8\C,0,42.73,40.71,
 29.86\C,0,43.95,39.86,30.17\O,0,45.09,40.26,29.96\C,0,41.96,40.85,31.1
 7\C,0,41.25,42.2,31.24\C,0,40.25,42.15,32.39\C,0,39.4,43.4,32.6\N,0,40
 .17,44.51,33.17\H,0,40.86,40.34,28.89\H,0,43.19,41.67,29.59\H,0,42.73,
 40.82,31.93\H,0,41.24,40.03,31.21\H,0,40.71,42.16,30.29\H,0,41.96,43.0
 1,31.37\H,0,40.86,41.96,33.27\H,0,39.55,41.33,32.25\H,0,38.6,43.09,33.
 28\H,0,38.82,43.55,31.69\H,0,39.66,45.39,33.2\H,0,40.49,44.38,34.11\H,
 0,40.94,44.71,32.54\N,0,43.71,38.56,30.41\C,0,44.78,37.62,30.69\C,0,45
 .53,37.06,29.49\O,0,46.41,36.23,29.69\C,0,44.24,36.5,31.57\C,0,42.97,3
 5.82,31.11\O,0,42.61,34.8,31.74\O,0,42.53,36.08,29.97\H,0,42.81,38.21,
 30.69\H,0,45.48,38.14,31.35\H,0,43.96,36.86,32.56\H,0,45.03,35.76,31.7
 1\N,0,45.12,37.43,28.28\C,0,45.68,36.87,27.06\C,0,45.52,35.37,26.87\O,
 0,46.46,34.75,26.36\H,0,44.37,38.1,28.16\H,0,46.72,37.17,26.95\H,0,45.
 17,37.3,26.2\N,0,44.38,34.85,27.32\C,0,44.03,33.46,27.53\C,0,43.44,32.
 79,26.3\O,0,43.27,31.57,26.24\C,0,43.34,33.16,28.86\C,0,41.82,33.22,28
 .77\N,0,41.16,32.51,29.69\O,0,41.26,33.9,27.92\H,0,43.73,35.57,27.61\H
 ,0,45.03,33.06,27.66\H,0,43.74,33.79,29.66\H,0,43.6,32.13,29.1\H,0,41.
 7,31.99,30.37\H,0,40.18,32.36,29.54\N,0,43.17,33.55,25.24\C,0,42.74,33
 .11,23.93\C,0,41.23,33.18,23.73\O,0,40.81,32.93,22.6\H,0,43.26,34.55,2
 5.38\H,0,42.97,32.05,23.81\H,0,43.19,33.72,23.15\N,0,40.51,33.53,24.79
 \C,0,39.06,33.55,24.9\C,0,38.57,34.86,25.51\O,0,39.22,35.43,26.39\C,0,
 38.62,32.35,25.73\C,0,39.11,30.98,25.3\C,0,39.78,30.22,26.27\C,0,38.67
 ,30.37,24.12\C,0,40.06,28.88,25.96\C,0,38.97,29.04,23.82\C,0,39.74,28.
 29,24.73\O,0,40.,26.99,24.42\H,0,41.08,33.96,25.51\H,0,38.55,33.51,23.
 94\H,0,37.55,32.4,25.93\H,0,39.07,32.49,26.71\H,0,40.01,30.63,27.24\H,
 0,38.08,30.91,23.39\H,0,40.54,28.33,26.76\H,0,38.63,28.55,22.91\H,0,39
 .73,26.77,23.52\N,0,37.4,35.35,25.09\C,0,36.62,36.45,25.62\C,0,35.35,3
 5.9,26.25\O,0,34.47,35.37,25.58\C,0,36.32,37.59,24.65\C,0,37.52,38.15,
 23.89\C,0,35.57,38.75,25.31\C,0,37.21,39.05,22.7\H,0,37.,34.84,24.32\H
 ,0,37.23,37.03,26.31\H,0,35.61,37.26,23.89\H,0,38.04,37.26,23.56\H,0,3
 8.12,38.72,24.6\H,0,35.34,39.45,24.51\H,0,34.59,38.52,25.73\H,0,36.16,
 39.3,26.04\H,0,36.4,38.6,22.13\H,0,36.94,40.05,23.03\H,0,38.11,39.06,2
 2.09\N,0,35.3,36.17,27.56\C,0,34.17,35.92,28.44\C,0,33.2,37.1,28.42\O,
 0,33.47,38.23,28.01\C,0,34.71,35.58,29.83\O,0,33.78,35.14,30.79\H,0,36
 .1,36.5,28.07\H,0,33.7,35.04,28.01\H,0,35.09,36.52,30.23\H,0,35.55,34.
 91,29.64\H,0,33.69,34.2,30.59\N,0,31.98,36.86,28.91\C,0,30.96,37.86,29
 .14\C,0,31.36,38.91,30.17\O,0,31.15,40.08,29.88\C,0,29.62,37.22,29.51\
 H,0,32.,35.99,29.42\H,0,30.89,38.42,28.21\H,0,29.21,36.69,28.66\H,0,29
 .67,36.52,30.34\H,0,28.93,38.02,29.8\N,0,32.06,38.51,31.24\C,0,32.56,3
 9.41,32.27\C,0,33.46,40.46,31.65\O,0,33.28,41.64,31.93\C,0,33.38,38.58
 ,33.25\H,0,32.04,37.57,31.6\H,0,31.71,39.95,32.69\H,0,32.76,37.97,33.9
 \H,0,34.08,37.94,32.71\H,0,33.94,39.33,33.81\N,0,34.35,40.02,30.75\C,0
 ,35.4,40.77,30.1\C,0,34.84,41.82,29.15\O,0,35.46,42.84,28.88\C,0,36.33
 ,39.8,29.38\C,0,37.25,39.08,30.35\C,0,38.17,38.12,29.61\O,0,37.68,37.0
 6,29.18\O,0,39.39,38.39,29.61\H,0,34.35,39.03,30.54\H,0,36.04,41.26,30
 .85\H,0,36.92,40.36,28.65\H,0,35.75,39.1,28.78\H,0,36.62,38.53,31.04\H
 ,0,37.86,39.85,30.82\N,0,33.66,41.54,28.59\C,0,32.81,42.41,27.79\H,0,3
 1.908,42.653,28.352\H,0,33.349,43.328,27.554\H,0,32.535,41.901,26.866\
 H,0,33.24,40.68,28.89\Ca,0,40.23,36.08,28.83\O,0,38.64,33.95,29.24\H,0
 ,38.31,33.68,30.09\H,0,37.94,33.73,28.63\\Version=ES64L-G09RevD.01\Sta
 te=1-A\HF=-5333.5926357\RMSD=5.357e-09\Dipole=-9.8101198,9.1743835,9.9
 0918\Quadrupole=-138.2699566,93.7373283,44.5326283,104.2362166,12.2961
 094,71.9178131\PG=C01 [X(C54H83Ca1N15O23)]\\@


 THE UNDERLYING PHYSICAL LAWS NECESSARY FOR THE 
 MATHEMATICAL THEORY OF A LARGE PART OF PHYSICS AND THE
 WHOLE OF CHEMISTRY ARE THUS COMPLETELY KNOWN, AND THE
 DIFFICULTY IS ONLY THAT THE EXACT APPLICATION OF THESE
 LAWS LEADS TO EQUATIONS MUCH TOO COMPLICATED 
 TO BE SOLUBLE.

                                        -- P. A. M. DIRAC, 1929
 Job cpu time:       0 days 15 hours  9 minutes 15.6 seconds.
 File lengths (MBytes):  RWF=   1513 Int=      0 D2E=      0 Chk=    103 Scr=      1
 Normal termination of Gaussian 09 at Mon Sep 16 20:20:38 2019.
