 Entering Gaussian System, Link 0=g16
 Initial command:
 /home1/apps/gaussian/16rA.03/g16/l1.exe "/scratch/01990/pengzhi/4328695/Gau-34703.inp" -scrdir="/scratch/01990/pengzhi/4328695/"
 Entering Link 1 = /home1/apps/gaussian/16rA.03/g16/l1.exe PID=     34704.
  
 Copyright (c) 1988,1990,1992,1993,1995,1998,2003,2009,2016,
            Gaussian, Inc.  All Rights Reserved.
  
 This is part of the Gaussian(R) 16 program.  It is based on
 the Gaussian(R) 09 system (copyright 2009, Gaussian, Inc.),
 the Gaussian(R) 03 system (copyright 2003, Gaussian, Inc.),
 the Gaussian(R) 98 system (copyright 1998, Gaussian, Inc.),
 the Gaussian(R) 94 system (copyright 1995, Gaussian, Inc.),
 the Gaussian 92(TM) system (copyright 1992, Gaussian, Inc.),
 the Gaussian 90(TM) system (copyright 1990, Gaussian, Inc.),
 the Gaussian 88(TM) system (copyright 1988, Gaussian, Inc.),
 the Gaussian 86(TM) system (copyright 1986, Carnegie Mellon
 University), and the Gaussian 82(TM) system (copyright 1983,
 Carnegie Mellon University). Gaussian is a federally registered
 trademark of Gaussian, Inc.
  
 This software contains proprietary and confidential information,
 including trade secrets, belonging to Gaussian, Inc.
  
 This software is provided under written license and may be
 used, copied, transmitted, or stored only in accord with that
 written license.
  
 The following legend is applicable only to US Government
 contracts under FAR:
  
                    RESTRICTED RIGHTS LEGEND
  
 Use, reproduction and disclosure by the US Government is
 subject to restrictions as set forth in subparagraphs (a)
 and (c) of the Commercial Computer Software - Restricted
 Rights clause in FAR 52.227-19.
  
 Gaussian, Inc.
 340 Quinnipiac St., Bldg. 40, Wallingford CT 06492
  
  
 ---------------------------------------------------------------
 Warning -- This program may not be used in any manner that
 competes with the business of Gaussian, Inc. or will provide
 assistance to any competitor of Gaussian, Inc.  The licensee
 of this program is prohibited from giving any competitor of
 Gaussian, Inc. access to this program.  By using this program,
 the user acknowledges that Gaussian, Inc. is engaged in the
 business of creating and licensing software in the field of
 computational chemistry and represents and warrants to the
 licensee that it is not a competitor of Gaussian, Inc. and that
 it will not use this program in any manner prohibited above.
 ---------------------------------------------------------------
  

 Cite this work as:
 Gaussian 16, Revision A.03,
 M. J. Frisch, G. W. Trucks, H. B. Schlegel, G. E. Scuseria, 
 M. A. Robb, J. R. Cheeseman, G. Scalmani, V. Barone, 
 G. A. Petersson, H. Nakatsuji, X. Li, M. Caricato, A. V. Marenich, 
 J. Bloino, B. G. Janesko, R. Gomperts, B. Mennucci, H. P. Hratchian, 
 J. V. Ortiz, A. F. Izmaylov, J. L. Sonnenberg, D. Williams-Young, 
 F. Ding, F. Lipparini, F. Egidi, J. Goings, B. Peng, A. Petrone, 
 T. Henderson, D. Ranasinghe, V. G. Zakrzewski, J. Gao, N. Rega, 
 G. Zheng, W. Liang, M. Hada, M. Ehara, K. Toyota, R. Fukuda, 
 J. Hasegawa, M. Ishida, T. Nakajima, Y. Honda, O. Kitao, H. Nakai, 
 T. Vreven, K. Throssell, J. A. Montgomery, Jr., J. E. Peralta, 
 F. Ogliaro, M. J. Bearpark, J. J. Heyd, E. N. Brothers, K. N. Kudin, 
 V. N. Staroverov, T. A. Keith, R. Kobayashi, J. Normand, 
 K. Raghavachari, A. P. Rendell, J. C. Burant, S. S. Iyengar, 
 J. Tomasi, M. Cossi, J. M. Millam, M. Klene, C. Adamo, R. Cammi, 
 J. W. Ochterski, R. L. Martin, K. Morokuma, O. Farkas, 
 J. B. Foresman, and D. J. Fox, Gaussian, Inc., Wallingford CT, 2016.
 
 ******************************************
 Gaussian 16:  ES64L-G16RevA.03 25-Dec-2016
                14-Sep-2019 
 ******************************************
 %chk=holoCaM_loop3_78.0.chk
 %nprocshared=48
 Will use up to   48 processors via shared memory.
 %mem=10GB
 %nosave
 ----------------------------------------------------------------------
 #b3lyp/svp scf=(tight,noincore) Test #IOP(5/87=12) Density=Current Pop
 =(MK,readradii) iop(6/33=2) iop(6/42=6)
 ----------------------------------------------------------------------
 1/30=1,38=1,172=1/1;
 2/12=2,17=6,18=5,40=1/2;
 3/5=18,7=101,11=2,25=1,30=1,74=-5/1,2,3;
 4//1;
 5/5=4,32=2,38=5,87=12/2;
 6/7=2,8=2,9=2,10=2,15=8,20=101,22=-1,28=1,33=2,42=6/1,2;
 99/5=1,9=1/99;
 ------------------
 holoCaM_loop3_78.0
 ------------------
 Symbolic Z-matrix:
 Charge =  0 Multiplicity = 1
 C                     54.42     48.53     26.06 
 C                     54.37     47.54     27.21 
 O                     53.69     47.91     28.17 
 H                     55.397    49.012    26.039 
 H                     54.254    48.004    25.12 
 H                     53.646    49.285    26.196 
 N                     55.12     46.44     27.18 
 C                     55.45     45.58     28.31 
 C                     56.79     46.07     28.86 
 O                     57.51     46.79     28.17 
 C                     55.39     44.1      27.95 
 C                     55.41     43.06     29.07 
 O                     56.41     42.99     29.8 
 O                     54.46     42.29     29.31 
 H                     55.49     46.26     26.26 
 H                     54.71     45.73     29.1 
 H                     56.21     43.91     27.26 
 H                     54.47     43.93     27.39 
 N                     57.17     45.7      30.08 
 C                     58.45     45.96     30.72 
 C                     59.22     44.82     31.37 
 O                     60.31     45.14     31.84 
 C                     58.32     47.17     31.64 
 C                     59.48     48.15     31.77 
 C                     59.27     49.31     32.75 
 C                     60.35     50.38     32.71 
 N                     59.76     51.69     33. 
 H                     56.53     45.07     30.55 
 H                     59.13     46.21     29.9 
 H                     58.12     46.73     32.62 
 H                     57.43     47.75     31.41 
 H                     59.68     48.6      30.8 
 H                     60.32     47.58     32.17 
 H                     59.16     49.       33.79 
 H                     58.33     49.81     32.52 
 H                     60.92     50.34     31.78 
 H                     61.13     50.22     33.46 
 H                     60.46     52.41     33.15 
 H                     59.16     52.05     32.28 
 H                     59.22     51.6      33.85 
 N                     58.83     43.56     31.21 
 C                     59.59     42.39     31.64 
 C                     59.55     41.3      30.58 
 O                     60.5      40.52     30.59 
 C                     59.16     41.98     33.04 
 C                     57.8      41.31     33.16 
 O                     57.13     41.16     32.12 
 O                     57.36     40.87     34.25 
 H                     57.94     43.35     30.8 
 H                     60.65     42.62     31.61 
 H                     59.16     42.86     33.69 
 H                     59.8      41.23     33.51 
 N                     58.64     41.26     29.61 
 C                     58.79     40.4      28.45 
 C                     58.28     39.       28.76 
 O                     58.32     38.08     27.96 
 H                     57.9      41.95     29.62 
 H                     59.79     40.47     28.03 
 H                     58.27     40.94     27.66 
 N                     57.59     38.86     29.89 
 C                     57.02     37.67     30.5 
 C                     55.8      37.12     29.77 
 O                     55.43     35.98     30.03 
 C                     56.68     37.86     31.97 
 C                     55.5      38.78     32.27 
 N                     55.08     38.91     33.53 
 O                     54.94     39.39     31.37 
 H                     57.53     39.77     30.34 
 H                     57.78     36.91     30.36 
 H                     57.52     38.36     32.45 
 H                     56.44     36.9      32.43 
 H                     55.56     38.4      34.25 
 H                     54.51     39.69     33.83 
 N                     55.14     37.86     28.87 
 C                     53.91     37.53     28.17 
 C                     52.6      37.8      28.89 
 O                     51.61     37.16     28.52 
 H                     55.62     38.68     28.54 
 H                     54.01     36.45     27.99 
 H                     53.85     37.93     27.16 
 N                     52.63     38.73     29.85 
 C                     51.47     39.14     30.63 
 C                     51.44     40.63     30.9 
 O                     52.35     41.13     31.56 
 C                     51.37     38.32     31.91 
 C                     51.71     36.85     31.83 
 C                     52.96     36.36     32.25 
 C                     50.85     35.95     31.18 
 C                     53.37     35.04     32.05 
 C                     51.3      34.66     30.88 
 C                     52.5      34.14     31.4 
 O                     52.89     32.86     31.14 
 H                     53.53     39.17     29.97 
 H                     50.54     38.95     30.1 
 H                     50.36     38.37     32.3 
 H                     52.06     38.79     32.61 
 H                     53.63     37.14     32.57 
 H                     49.9      36.3      30.79 
 H                     54.35     34.65     32.28 
 H                     50.72     33.95     30.3 
 H                     52.21     32.36     30.67 
 N                     50.51     41.38     30.3 
 C                     50.33     42.78     30.62 
 C                     49.54     42.98     31.9 
 O                     48.52     42.34     32.14 
 C                     49.68     43.54     29.46 
 C                     50.77     43.97     28.5 
 C                     48.83     44.74     29.85 
 C                     50.35     44.33     27.07 
 H                     49.81     40.89     29.76 
 H                     51.27     43.29     30.81 
 H                     49.       42.86     28.95 
 H                     51.42     43.12     28.29 
 H                     51.41     44.74     28.94 
 H                     49.52     45.37     30.4 
 H                     48.56     45.37     29.01 
 H                     47.98     44.36     30.43 
 H                     49.75     43.56     26.59 
 H                     49.72     45.21     27.05 
 H                     51.21     44.62     26.46 
 N                     50.12     43.8      32.78 
 C                     49.73     44.22     34.11 
 C                     49.33     45.69     34.14 
 O                     49.62     46.44     33.21 
 C                     50.87     43.92     35.08 
 O                     51.99     44.73     34.79 
 H                     51.01     44.15     32.45 
 H                     48.86     43.71     34.52 
 H                     51.       42.84     35.05 
 H                     50.62     44.16     36.11 
 H                     52.41     44.45     33.98 
 N                     48.51     46.09     35.1 
 C                     47.89     47.4      35.24 
 C                     48.89     48.53     35.07 
 O                     48.7      49.4      34.23 
 C                     47.14     47.58     36.55 
 H                     48.11     45.37     35.68 
 H                     47.1      47.54     34.5 
 H                     46.19     47.05     36.49 
 H                     47.65     47.14     37.41 
 H                     46.9      48.63     36.69 
 N                     50.1      48.46     35.64 
 C                     51.11     49.49     35.48 
 C                     51.74     49.61     34.1 
 O                     52.17     50.72     33.79 
 C                     52.18     49.19     36.53 
 H                     50.2      47.71     36.3 
 H                     50.6      50.42     35.76 
 H                     52.45     48.14     36.4 
 H                     53.09     49.76     36.36 
 H                     51.62     49.31     37.46 
 N                     51.71     48.58     33.26 
 C                     52.05     48.59     31.85 
 C                     50.91     49.04     30.95 
 O                     51.16     49.78     30. 
 C                     52.53     47.17     31.57 
 C                     53.62     46.62     32.49 
 C                     53.83     45.15     32.18 
 O                     54.73     44.82     31.37 
 O                     53.19     44.23     32.73 
 H                     51.34     47.69     33.55 
 H                     52.83     49.34     31.73 
 H                     52.87     47.15     30.54 
 H                     51.71     46.46     31.64 
 H                     53.42     46.66     33.57 
 H                     54.55     47.18     32.37 
 N                     49.65     48.75     31.3 
 C                     48.47     49.16     30.58 
 H                     47.692    49.443    31.289 
 H                     48.709    50.013    29.945 
 H                     48.115    48.335    29.962 
 H                     49.47     48.11     32.07 
 Ca                    54.84     42.26     31.92 
 O                     53.69     41.26     34.12 
 H                     52.77     41.1      34.33 
 H                     54.07     41.55     34.95 
 
 Stoichiometry    C54H83CaN15O23
 Framework group  C1[X(C54H83CaN15O23)]
 Deg. of freedom   522
 Full point group                 C1      NOp   1
 Largest Abelian subgroup         C1      NOp   1
 Largest concise Abelian subgroup C1      NOp   1
                         Standard orientation:                         
 ---------------------------------------------------------------------
 Center     Atomic      Atomic             Coordinates (Angstroms)
 Number     Number       Type             X           Y           Z
 ---------------------------------------------------------------------
      1          6           0        3.675362    3.000095    5.720578
      2          6           0        2.979911    2.448322    4.488914
      3          8           0        3.694955    1.740570    3.775683
      4          1           0        3.876221    4.061563    5.578333
      5          1           0        3.033978    2.865108    6.591346
      6          1           0        4.615247    2.470739    5.875482
      7          7           0        1.740886    2.834133    4.189970
      8          6           0        1.066849    2.680544    2.906426
      9          6           0        1.295333    3.978348    2.130734
     10          8           0        1.654594    4.993351    2.725377
     11          6           0       -0.389071    2.256796    3.062421
     12          6           0       -1.155743    1.761562    1.836307
     13          8           0       -1.333937    2.542630    0.889744
     14          8           0       -1.592506    0.600054    1.721694
     15          1           0        1.293102    3.299565    4.963638
     16          1           0        1.555482    1.883607    2.340450
     17          1           0       -0.916245    3.098369    3.507890
     18          1           0       -0.424709    1.448602    3.793485
     19          7           0        1.089794    3.998746    0.816565
     20          6           0        1.133986    5.155998   -0.063442
     21          6           0       -0.013112    5.422151   -1.026940
     22          8           0        0.102900    6.450543   -1.690530
     23          6           0        2.494401    5.218013   -0.751066
     24          6           0        3.149273    6.569156   -1.012708
     25          6           0        4.494840    6.530306   -1.746220
     26          6           0        5.221661    7.864533   -1.813087
     27          7           0        6.669812    7.641966   -1.772826
     28          1           0        0.751475    3.126156    0.427299
     29          1           0        1.033164    6.019713    0.600735
     30          1           0        2.323982    4.718756   -1.707987
     31          1           0        3.225938    4.596690   -0.240958
     32          1           0        3.331134    7.069487   -0.064027
     33          1           0        2.473759    7.114870   -1.673296
     34          1           0        4.436177    6.142426   -2.764015
     35          1           0        5.163546    5.838613   -1.235443
     36          1           0        4.852958    8.560454   -1.057341
     37          1           0        5.018801    8.409177   -2.739753
     38          1           0        7.200848    8.481747   -1.981794
     39          1           0        7.021577    7.319224   -0.889594
     40          1           0        6.891976    6.950905   -2.476586
     41          7           0       -1.136518    4.716336   -0.955636
     42          6           0       -2.353068    5.005285   -1.709237
     43          6           0       -3.584094    4.845189   -0.830462
     44          8           0       -4.563860    5.505026   -1.170572
     45          6           0       -2.352727    4.220953   -3.012242
     46          6           0       -2.613420    2.726743   -2.901447
     47          8           0       -2.789563    2.248233   -1.764344
     48          8           0       -2.700385    1.981971   -3.907951
     49          1           0       -1.187939    3.896585   -0.381472
     50          1           0       -2.413672    6.072260   -1.897097
     51          1           0       -1.391401    4.358257   -3.516127
     52          1           0       -3.133254    4.513257   -3.718172
     53          7           0       -3.580671    4.160914    0.310745
     54          6           0       -4.662773    4.265121    1.272981
     55          6           0       -5.794549    3.318140    0.900812
     56          8           0       -6.833739    3.234536    1.534131
     57          1           0       -2.735995    3.667822    0.569943
     58          1           0       -4.936678    5.301508    1.452362
     59          1           0       -4.175179    4.083277    2.229686
     60          7           0       -5.525613    2.419602   -0.044124
     61          6           0       -6.383832    1.422142   -0.661890
     62          6           0       -6.735592    0.252762    0.250587
     63          8           0       -7.667308   -0.477302   -0.070368
     64          6           0       -5.825184    0.885324   -1.970454
     65          6           0       -4.592434   -0.006799   -1.855381
     66          7           0       -4.111655   -0.597125   -2.951405
     67          8           0       -4.050178   -0.185104   -0.773778
     68          1           0       -4.560179    2.546713   -0.337344
     69          1           0       -7.325645    1.937648   -0.810354
     70          1           0       -5.472730    1.730304   -2.560187
     71          1           0       -6.580349    0.292744   -2.489468
     72          1           0       -4.574487   -0.430937   -3.827229
     73          1           0       -3.167975   -0.958418   -2.998683
     74          7           0       -6.044691    0.018867    1.373596
     75          6           0       -6.179837   -1.100882    2.289946
     76          6           0       -5.445210   -2.383978    1.941538
     77          8           0       -5.869747   -3.431194    2.441245
     78          1           0       -5.457793    0.771149    1.691907
     79          1           0       -7.262782   -1.290698    2.290490
     80          1           0       -5.986438   -0.851557    3.331163
     81          7           0       -4.382795   -2.261610    1.139228
     82          6           0       -3.542360   -3.374136    0.717262
     83          6           0       -2.071724   -3.015071    0.670351
     84          8           0       -1.701537   -2.137988   -0.108999
     85          6           0       -4.038382   -3.947089   -0.604286
     86          6           0       -5.532016   -4.045018   -0.810118
     87          6           0       -6.233178   -3.095125   -1.575019
     88          6           0       -6.291413   -4.994530   -0.107379
     89          6           0       -7.626711   -3.061026   -1.661066
     90          6           0       -7.686679   -4.895492   -0.102432
     91          6           0       -8.383541   -4.019914   -0.955982
     92          8           0       -9.746005   -3.981647   -0.974078
     93          1           0       -4.173918   -1.310933    0.873553
     94          1           0       -3.588398   -4.203166    1.419038
     95          1           0       -3.654353   -4.952030   -0.735875
     96          1           0       -3.632140   -3.292538   -1.374695
     97          1           0       -5.603960   -2.297521   -1.932249
     98          1           0       -5.793763   -5.709837    0.538980
     99          1           0       -8.201641   -2.299531   -2.166022
    100          1           0       -8.324376   -5.539728    0.493558
    101          1           0      -10.137563   -4.678473   -0.431479
    102          7           0       -1.242515   -3.555063    1.569362
    103          6           0        0.191431   -3.372378    1.497069
    104          6           0        0.837404   -4.292787    0.478215
    105          8           0        0.541582   -5.481758    0.397975
    106          6           0        0.847103   -3.542593    2.870685
    107          6           0        0.783480   -2.215534    3.598329
    108          6           0        2.277812   -4.059861    2.860476
    109          6           0        0.948172   -2.237254    5.122568
    110          1           0       -1.633365   -4.254667    2.185390
    111          1           0        0.470135   -2.376682    1.164331
    112          1           0        0.277350   -4.284820    3.426905
    113          1           0       -0.229102   -1.816549    3.530577
    114          1           0        1.434748   -1.471346    3.131279
    115          1           0        2.805639   -3.330390    2.256513
    116          1           0        2.776418   -3.971566    3.819120
    117          1           0        2.251714   -5.076433    2.449135
    118          1           0        0.278696   -2.936486    5.618730
    119          1           0        1.938367   -2.565835    5.411096
    120          1           0        0.880621   -1.232143    5.547997
    121          7           0        1.638661   -3.672135   -0.391255
    122          6           0        2.399929   -4.162224   -1.521602
    123          6           0        3.899052   -4.111237   -1.253590
    124          8           0        4.349503   -3.445889   -0.323050
    125          6           0        2.015842   -3.362130   -2.763707
    126          8           0        2.436865   -2.020171   -2.635310
    127          1           0        1.675706   -2.673437   -0.234002
    128          1           0        2.222277   -5.204051   -1.782631
    129          1           0        0.954950   -3.551758   -2.914536
    130          1           0        2.511384   -3.717923   -3.663068
    131          1           0        1.903475   -1.557710   -1.993029
    132          7           0        4.678425   -4.941445   -1.929854
    133          6           0        6.104524   -5.164199   -1.738221
    134          6           0        6.882853   -3.863148   -1.652949
    135          8           0        7.587927   -3.629378   -0.679901
    136          6           0        6.727259   -6.058565   -2.798084
    137          1           0        4.215167   -5.635926   -2.493670
    138          1           0        6.293018   -5.725954   -0.821596
    139          1           0        6.457995   -7.093724   -2.590859
    140          1           0        6.350708   -5.869775   -3.805987
    141          1           0        7.809844   -6.001371   -2.731461
    142          7           0        6.618991   -2.855381   -2.494783
    143          6           0        7.302147   -1.576179   -2.435294
    144          6           0        6.980107   -0.693201   -1.238490
    145          8           0        7.858120    0.093624   -0.887634
    146          6           0        6.951906   -0.856618   -3.737970
    147          1           0        6.014827   -3.104773   -3.256944
    148          1           0        8.368334   -1.833449   -2.456669
    149          1           0        5.863600   -0.887547   -3.821249
    150          1           0        7.223650    0.195624   -3.708971
    151          1           0        7.393712   -1.519674   -4.485007
    152          7           0        5.846910   -0.867283   -0.565468
    153          6           0        5.489343   -0.282919    0.712994
    154          6           0        6.029200   -1.052010    1.908466
    155          8           0        6.476495   -0.423375    2.866247
    156          6           0        3.967375   -0.197648    0.673700
    157          6           0        3.349737    0.491476   -0.543111
    158          6           0        1.843859    0.314502   -0.497146
    159          8           0        1.139911    1.212330    0.025695
    160          8           0        1.247103   -0.658137   -1.003461
    161          1           0        5.157617   -1.529532   -0.880748
    162          1           0        5.974649    0.690973    0.749226
    163          1           0        3.656815    0.307125    1.582357
    164          1           0        3.520257   -1.187985    0.700485
    165          1           0        3.653181    0.114526   -1.529940
    166          1           0        3.616805    1.550221   -0.568296
    167          7           0        6.147891   -2.383729    1.827000
    168          6           0        6.695893   -3.235597    2.853116
    169          1           0        7.304019   -4.014024    2.392368
    170          1           0        7.315388   -2.642774    3.525977
    171          1           0        5.884102   -3.695561    3.417034
    172          1           0        5.741500   -2.883840    1.039832
    173         20           0       -1.200696    0.461361   -0.883042
    174          8           0       -1.414830   -1.320293   -2.868578
    175          1           0       -1.288258   -2.268981   -2.877075
    176          1           0       -1.073451   -1.033464   -3.716274
 ---------------------------------------------------------------------
 Rotational constants (GHZ):           0.0226232           0.0148193           0.0112647
 Standard basis: SVP (5D, 7F)
 There are  1809 symmetry adapted cartesian basis functions of A   symmetry.
 There are  1717 symmetry adapted basis functions of A   symmetry.
  1717 basis functions,  2922 primitive gaussians,  1809 cartesian basis functions
   358 alpha electrons      358 beta electrons
       nuclear repulsion energy     21511.1601911118 Hartrees.
 NAtoms=  176 NActive=  176 NUniq=  176 SFac= 1.00D+00 NAtFMM=   60 NAOKFM=T Big=T
 Integral buffers will be    131072 words long.
 Raffenetti 2 integral format.
 Two-electron integral symmetry is turned on.
 One-electron integrals computed using PRISM.
 NBasis=  1717 RedAO= T EigKep=  2.89D-04  NBF=  1717
 NBsUse=  1717 1.00D-06 EigRej= -1.00D+00 NBFU=  1717
 ExpMin= 1.98D-02 ExpMax= 3.51D+04 ExpMxC= 5.28D+03 IAcc=3 IRadAn=         5 AccDes= 0.00D+00
 Harris functional with IExCor=  402 and IRadAn=       5 diagonalized for initial guess.
 HarFok:  IExCor=  402 AccDes= 0.00D+00 IRadAn=         5 IDoV= 1 UseB2=F ITyADJ=14
 ICtDFT=  3500011 ScaDFX=  1.000000  1.000000  1.000000  1.000000
 FoFCou: FMM=F IPFlag=           0 FMFlag=      100000 FMFlg1=        2001
         NFxFlg=           0 DoJE=T BraDBF=F KetDBF=T FulRan=T
         wScrn=  0.000000 ICntrl=       500 IOpCl=  0 I1Cent=   200000004 NGrid=           0
         NMat0=    1 NMatS0=      1 NMatT0=    0 NMatD0=    1 NMtDS0=    0 NMtDT0=    0
 Petite list used in FoFCou.
 Requested convergence on RMS density matrix=1.00D-08 within 128 cycles.
 Requested convergence on MAX density matrix=1.00D-06.
 Requested convergence on             energy=1.00D-06.
 No special actions if energy rises.
 EnCoef did     1 forward-backward iterations
 SCF Done:  E(RB3LYP) =  -5333.58073366     A.U. after   16 cycles
            NFock= 16  Conv=0.24D-08     -V/T= 2.0081
 SCF density gives NOpUse=  1 NOpAll=  1.
 Hyperfine terms turned off by default for NAtoms > 100.

 **********************************************************************

            Population analysis using the SCF density.

 **********************************************************************

 Orbital symmetries:
 BldTbl:  Degeneracy threshold= 1.00D-02
       Occupied  (A) (A) (A) (A) (A) (A) (A) (A) (A) (A) (A) (A)
                 (A) (A) (A) (A) (A) (A) (A) (A) (A) (A) (A) (A)
                 (A) (A) (A) (A) (A) (A) (A) (A) (A) (A) (A) (A)
                 (A) (A) (A) (A) (A) (A) (A) (A) (A) (A) (A) (A)
                 (A) (A) (A) (A) (A) (A) (A) (A) (A) (A) (A) (A)
                 (A) (A) (A) (A) (A) (A) (A) (A) (A) (A) (A) (A)
                 (A) (A) (A) (A) (A) (A) (A) (A) (A) (A) (A) (A)
                 (A) (A) (A) (A) (A) (A) (A) (A) (A) (A) (A) (A)
                 (A) (A) (A) (A) (A) (A) (A) (A) (A) (A) (A) (A)
                 (A) (A) (A) (A) (A) (A) (A) (A) (A) (A) (A) (A)
                 (A) (A) (A) (A) (A) (A) (A) (A) (A) (A) (A) (A)
                 (A) (A) (A) (A) (A) (A) (A) (A) (A) (A) (A) (A)
                 (A) (A) (A) (A) (A) (A) (A) (A) (A) (A) (A) (A)
                 (A) (A) (A) (A) (A) (A) (A) (A) (A) (A) (A) (A)
                 (A) (A) (A) (A) (A) (A) (A) (A) (A) (A) (A) (A)
                 (A) (A) (A) (A) (A) (A) (A) (A) (A) (A) (A) (A)
                 (A) (A) (A) (A) (A) (A) (A) (A) (A) (A) (A) (A)
                 (A) (A) (A) (A) (A) (A) (A) (A) (A) (A) (A) (A)
                 (A) (A) (A) (A) (A) (A) (A) (A) (A) (A) (A) (A)
                 (A) (A) (A) (A) (A) (A) (A) (A) (A) (A) (A) (A)
                 (A) (A) (A) (A) (A) (A) (A) (A) (A) (A) (A) (A)
                 (A) (A) (A) (A) (A) (A) (A) (A) (A) (A) (A) (A)
                 (A) (A) (A) (A) (A) (A) (A) (A) (A) (A) (A) (A)
                 (A) (A) (A) (A) (A) (A) (A) (A) (A) (A) (A) (A)
                 (A) (A) (A) (A) (A) (A) (A) (A) (A) (A) (A) (A)
                 (A) (A) (A) (A) (A) (A) (A) (A) (A) (A) (A) (A)
                 (A) (A) (A) (A) (A) (A) (A) (A) (A) (A) (A) (A)
                 (A) (A) (A) (A) (A) (A) (A) (A) (A) (A) (A) (A)
                 (A) (A) (A) (A) (A) (A) (A) (A) (A) (A) (A) (A)
                 (A) (A) (A) (A) (A) (A) (A) (A) (A) (A)
       Virtual   (A) (A) (A) (A) (A) (A) (A) (A) (A) (A) (A) (A)
                 (A) (A) (A) (A) (A) (A) (A) (A) (A) (A) (A) (A)
                 (A) (A) (A) (A) (A) (A) (A) (A) (A) (A) (A) (A)
                 (A) (A) (A) (A) (A) (A) (A) (A) (A) (A) (A) (A)
                 (A) (A) (A) (A) (A) (A) (A) (A) (A) (A) (A) (A)
                 (A) (A) (A) (A) (A) (A) (A) (A) (A) (A) (A) (A)
                 (A) (A) (A) (A) (A) (A) (A) (A) (A) (A) (A) (A)
                 (A) (A) (A) (A) (A) (A) (A) (A) (A) (A) (A) (A)
                 (A) (A) (A) (A) (A) (A) (A) (A) (A) (A) (A) (A)
                 (A) (A) (A) (A) (A) (A) (A) (A) (A) (A) (A) (A)
                 (A) (A) (A) (A) (A) (A) (A) (A) (A) (A) (A) (A)
                 (A) (A) (A) (A) (A) (A) (A) (A) (A) (A) (A) (A)
                 (A) (A) (A) (A) (A) (A) (A) (A) (A) (A) (A) (A)
                 (A) (A) (A) (A) (A) (A) (A) (A) (A) (A) (A) (A)
                 (A) (A) (A) (A) (A) (A) (A) (A) (A) (A) (A) (A)
                 (A) (A) (A) (A) (A) (A) (A) (A) (A) (A) (A) (A)
                 (A) (A) (A) (A) (A) (A) (A) (A) (A) (A) (A) (A)
                 (A) (A) (A) (A) (A) (A) (A) (A) (A) (A) (A) (A)
                 (A) (A) (A) (A) (A) (A) (A) (A) (A) (A) (A) (A)
                 (A) (A) (A) (A) (A) (A) (A) (A) (A) (A) (A) (A)
                 (A) (A) (A) (A) (A) (A) (A) (A) (A) (A) (A) (A)
                 (A) (A) (A) (A) (A) (A) (A) (A) (A) (A) (A) (A)
                 (A) (A) (A) (A) (A) (A) (A) (A) (A) (A) (A) (A)
                 (A) (A) (A) (A) (A) (A) (A) (A) (A) (A) (A) (A)
                 (A) (A) (A) (A) (A) (A) (A) (A) (A) (A) (A) (A)
                 (A) (A) (A) (A) (A) (A) (A) (A) (A) (A) (A) (A)
                 (A) (A) (A) (A) (A) (A) (A) (A) (A) (A) (A) (A)
                 (A) (A) (A) (A) (A) (A) (A) (A) (A) (A) (A) (A)
                 (A) (A) (A) (A) (A) (A) (A) (A) (A) (A) (A) (A)
                 (A) (A) (A) (A) (A) (A) (A) (A) (A) (A) (A) (A)
                 (A) (A) (A) (A) (A) (A) (A) (A) (A) (A) (A) (A)
                 (A) (A) (A) (A) (A) (A) (A) (A) (A) (A) (A) (A)
                 (A) (A) (A) (A) (A) (A) (A) (A) (A) (A) (A) (A)
                 (A) (A) (A) (A) (A) (A) (A) (A) (A) (A) (A) (A)
                 (A) (A) (A) (A) (A) (A) (A) (A) (A) (A) (A) (A)
                 (A) (A) (A) (A) (A) (A) (A) (A) (A) (A) (A) (A)
                 (A) (A) (A) (A) (A) (A) (A) (A) (A) (A) (A) (A)
                 (A) (A) (A) (A) (A) (A) (A) (A) (A) (A) (A) (A)
                 (A) (A) (A) (A) (A) (A) (A) (A) (A) (A) (A) (A)
                 (A) (A) (A) (A) (A) (A) (A) (A) (A) (A) (A) (A)
                 (A) (A) (A) (A) (A) (A) (A) (A) (A) (A) (A) (A)
                 (A) (A) (A) (A) (A) (A) (A) (A) (A) (A) (A) (A)
                 (A) (A) (A) (A) (A) (A) (A) (A) (A) (A) (A) (A)
                 (A) (A) (A) (A) (A) (A) (A) (A) (A) (A) (A) (A)
                 (A) (A) (A) (A) (A) (A) (A) (A) (A) (A) (A) (A)
                 (A) (A) (A) (A) (A) (A) (A) (A) (A) (A) (A) (A)
                 (A) (A) (A) (A) (A) (A) (A) (A) (A) (A) (A) (A)
                 (A) (A) (A) (A) (A) (A) (A) (A) (A) (A) (A) (A)
                 (A) (A) (A) (A) (A) (A) (A) (A) (A) (A) (A) (A)
                 (A) (A) (A) (A) (A) (A) (A) (A) (A) (A) (A) (A)
                 (A) (A) (A) (A) (A) (A) (A) (A) (A) (A) (A) (A)
                 (A) (A) (A) (A) (A) (A) (A) (A) (A) (A) (A) (A)
                 (A) (A) (A) (A) (A) (A) (A) (A) (A) (A) (A) (A)
                 (A) (A) (A) (A) (A) (A) (A) (A) (A) (A) (A) (A)
                 (A) (A) (A) (A) (A) (A) (A) (A) (A) (A) (A) (A)
                 (A) (A) (A) (A) (A) (A) (A) (A) (A) (A) (A) (A)
                 (A) (A) (A) (A) (A) (A) (A) (A) (A) (A) (A) (A)
                 (A) (A) (A) (A) (A) (A) (A) (A) (A) (A) (A) (A)
                 (A) (A) (A) (A) (A) (A) (A) (A) (A) (A) (A) (A)
                 (A) (A) (A) (A) (A) (A) (A) (A) (A) (A) (A) (A)
                 (A) (A) (A) (A) (A) (A) (A) (A) (A) (A) (A) (A)
                 (A) (A) (A) (A) (A) (A) (A) (A) (A) (A) (A) (A)
                 (A) (A) (A) (A) (A) (A) (A) (A) (A) (A) (A) (A)
                 (A) (A) (A) (A) (A) (A) (A) (A) (A) (A) (A) (A)
                 (A) (A) (A) (A) (A) (A) (A) (A) (A) (A) (A) (A)
                 (A) (A) (A) (A) (A) (A) (A) (A) (A) (A) (A) (A)
                 (A) (A) (A) (A) (A) (A) (A) (A) (A) (A) (A) (A)
                 (A) (A) (A) (A) (A) (A) (A) (A) (A) (A) (A) (A)
                 (A) (A) (A) (A) (A) (A) (A) (A) (A) (A) (A) (A)
                 (A) (A) (A) (A) (A) (A) (A) (A) (A) (A) (A) (A)
                 (A) (A) (A) (A) (A) (A) (A) (A) (A) (A) (A) (A)
                 (A) (A) (A) (A) (A) (A) (A) (A) (A) (A) (A) (A)
                 (A) (A) (A) (A) (A) (A) (A) (A) (A) (A) (A) (A)
                 (A) (A) (A) (A) (A) (A) (A) (A) (A) (A) (A) (A)
                 (A) (A) (A) (A) (A) (A) (A) (A) (A) (A) (A) (A)
                 (A) (A) (A) (A) (A) (A) (A) (A) (A) (A) (A) (A)
                 (A) (A) (A) (A) (A) (A) (A) (A) (A) (A) (A) (A)
                 (A) (A) (A) (A) (A) (A) (A) (A) (A) (A) (A) (A)
                 (A) (A) (A) (A) (A) (A) (A) (A) (A) (A) (A) (A)
                 (A) (A) (A) (A) (A) (A) (A) (A) (A) (A) (A) (A)
                 (A) (A) (A) (A) (A) (A) (A) (A) (A) (A) (A) (A)
                 (A) (A) (A) (A) (A) (A) (A) (A) (A) (A) (A) (A)
                 (A) (A) (A) (A) (A) (A) (A) (A) (A) (A) (A) (A)
                 (A) (A) (A) (A) (A) (A) (A) (A) (A) (A) (A) (A)
                 (A) (A) (A) (A) (A) (A) (A) (A) (A) (A) (A) (A)
                 (A) (A) (A) (A) (A) (A) (A) (A) (A) (A) (A) (A)
                 (A) (A) (A) (A) (A) (A) (A) (A) (A) (A) (A) (A)
                 (A) (A) (A) (A) (A) (A) (A) (A) (A) (A) (A) (A)
                 (A) (A) (A) (A) (A) (A) (A) (A) (A) (A) (A) (A)
                 (A) (A) (A) (A) (A) (A) (A) (A) (A) (A) (A) (A)
                 (A) (A) (A) (A) (A) (A) (A) (A) (A) (A) (A) (A)
                 (A) (A) (A) (A) (A) (A) (A) (A) (A) (A) (A) (A)
                 (A) (A) (A) (A) (A) (A) (A) (A) (A) (A) (A) (A)
                 (A) (A) (A) (A) (A) (A) (A) (A) (A) (A) (A) (A)
                 (A) (A) (A) (A) (A) (A) (A) (A) (A) (A) (A) (A)
                 (A) (A) (A) (A) (A) (A) (A) (A) (A) (A) (A) (A)
                 (A) (A) (A) (A) (A) (A) (A) (A) (A) (A) (A) (A)
                 (A) (A) (A) (A) (A) (A) (A) (A) (A) (A) (A) (A)
                 (A) (A) (A) (A) (A) (A) (A) (A) (A) (A) (A) (A)
                 (A) (A) (A) (A) (A) (A) (A) (A) (A) (A) (A) (A)
                 (A) (A) (A) (A) (A) (A) (A) (A) (A) (A) (A) (A)
                 (A) (A) (A) (A) (A) (A) (A) (A) (A) (A) (A) (A)
                 (A) (A) (A) (A) (A) (A) (A) (A) (A) (A) (A) (A)
                 (A) (A) (A) (A) (A) (A) (A) (A) (A) (A) (A) (A)
                 (A) (A) (A) (A) (A) (A) (A) (A) (A) (A) (A) (A)
                 (A) (A) (A) (A) (A) (A) (A) (A) (A) (A) (A) (A)
                 (A) (A) (A) (A) (A) (A) (A) (A) (A) (A) (A) (A)
                 (A) (A) (A) (A) (A) (A) (A) (A) (A) (A) (A) (A)
                 (A) (A) (A) (A) (A) (A) (A) (A) (A) (A) (A) (A)
                 (A) (A) (A) (A) (A) (A) (A) (A) (A) (A) (A) (A)
                 (A) (A) (A) (A) (A) (A) (A) (A) (A) (A) (A) (A)
                 (A) (A) (A) (A) (A) (A) (A) (A) (A) (A) (A) (A)
                 (A) (A) (A) (A) (A) (A) (A) (A) (A) (A) (A) (A)
                 (A) (A) (A)
 The electronic state is 1-A.
 Alpha  occ. eigenvalues -- -145.38307 -19.20823 -19.13143 -19.12958 -19.11570
 Alpha  occ. eigenvalues --  -19.11458 -19.11315 -19.10141 -19.09738 -19.09330
 Alpha  occ. eigenvalues --  -19.08680 -19.08151 -19.07558 -19.07267 -19.07029
 Alpha  occ. eigenvalues --  -19.06424 -19.06421 -19.05839 -19.05549 -19.05522
 Alpha  occ. eigenvalues --  -19.05206 -19.05076 -19.04935 -19.03325 -15.44002
 Alpha  occ. eigenvalues --  -14.59612 -14.39424 -14.36922 -14.36444 -14.35935
 Alpha  occ. eigenvalues --  -14.33501 -14.33278 -14.33134 -14.32657 -14.32580
 Alpha  occ. eigenvalues --  -14.32289 -14.31498 -14.31189 -14.31106 -14.30672
 Alpha  occ. eigenvalues --  -12.57635 -12.57589 -12.57558 -10.35455 -10.31431
 Alpha  occ. eigenvalues --  -10.29493 -10.29433 -10.29049 -10.28104 -10.27583
 Alpha  occ. eigenvalues --  -10.27503 -10.27165 -10.26667 -10.26380 -10.26161
 Alpha  occ. eigenvalues --  -10.25932 -10.25756 -10.25503 -10.25451 -10.24844
 Alpha  occ. eigenvalues --  -10.24513 -10.24379 -10.24289 -10.24176 -10.23825
 Alpha  occ. eigenvalues --  -10.23572 -10.23020 -10.22753 -10.22696 -10.22182
 Alpha  occ. eigenvalues --  -10.22150 -10.21969 -10.21345 -10.20905 -10.20763
 Alpha  occ. eigenvalues --  -10.20387 -10.20378 -10.20255 -10.20053 -10.19384
 Alpha  occ. eigenvalues --  -10.18810 -10.18669 -10.18649 -10.18042 -10.17793
 Alpha  occ. eigenvalues --  -10.17759 -10.17139 -10.17000 -10.16682 -10.16676
 Alpha  occ. eigenvalues --  -10.16261 -10.16014 -10.15710 -10.15621 -10.15320
 Alpha  occ. eigenvalues --  -10.15179 -10.14992  -1.80813  -1.14917  -1.08591
 Alpha  occ. eigenvalues --   -1.08562  -1.08219  -1.06750  -1.06541  -1.06051
 Alpha  occ. eigenvalues --   -1.04212  -1.03833  -1.02675  -1.02331  -1.01933
 Alpha  occ. eigenvalues --   -1.01506  -1.01499  -1.00810  -1.00648  -1.00635
 Alpha  occ. eigenvalues --   -0.99755  -0.99412  -0.99097  -0.98939  -0.98391
 Alpha  occ. eigenvalues --   -0.98053  -0.98043  -0.95980  -0.95063  -0.93208
 Alpha  occ. eigenvalues --   -0.93054  -0.92657  -0.91732  -0.90695  -0.90653
 Alpha  occ. eigenvalues --   -0.90094  -0.89668  -0.89551  -0.89167  -0.88973
 Alpha  occ. eigenvalues --   -0.88615  -0.88289  -0.87803  -0.87177  -0.86765
 Alpha  occ. eigenvalues --   -0.82300  -0.81478  -0.81356  -0.81222  -0.78781
 Alpha  occ. eigenvalues --   -0.77984  -0.77594  -0.77331  -0.76855  -0.76201
 Alpha  occ. eigenvalues --   -0.75837  -0.74998  -0.74000  -0.73298  -0.72845
 Alpha  occ. eigenvalues --   -0.71957  -0.71302  -0.70622  -0.70443  -0.70262
 Alpha  occ. eigenvalues --   -0.69958  -0.69053  -0.68760  -0.68516  -0.67143
 Alpha  occ. eigenvalues --   -0.66686  -0.65518  -0.65468  -0.64942  -0.64249
 Alpha  occ. eigenvalues --   -0.63863  -0.63483  -0.63330  -0.62051  -0.61450
 Alpha  occ. eigenvalues --   -0.60961  -0.60372  -0.59612  -0.59575  -0.59050
 Alpha  occ. eigenvalues --   -0.58704  -0.58401  -0.58381  -0.57659  -0.57211
 Alpha  occ. eigenvalues --   -0.56896  -0.56667  -0.56213  -0.55990  -0.55940
 Alpha  occ. eigenvalues --   -0.55792  -0.55412  -0.54912  -0.54862  -0.54693
 Alpha  occ. eigenvalues --   -0.54565  -0.54476  -0.54212  -0.53757  -0.52893
 Alpha  occ. eigenvalues --   -0.52681  -0.52092  -0.51760  -0.51583  -0.51102
 Alpha  occ. eigenvalues --   -0.50932  -0.50246  -0.50204  -0.49961  -0.49770
 Alpha  occ. eigenvalues --   -0.49603  -0.49411  -0.49154  -0.48819  -0.48513
 Alpha  occ. eigenvalues --   -0.48290  -0.48105  -0.47900  -0.47416  -0.47402
 Alpha  occ. eigenvalues --   -0.46822  -0.46712  -0.46498  -0.46403  -0.46259
 Alpha  occ. eigenvalues --   -0.46118  -0.45840  -0.45449  -0.45236  -0.45098
 Alpha  occ. eigenvalues --   -0.44960  -0.44841  -0.44624  -0.44467  -0.44412
 Alpha  occ. eigenvalues --   -0.44122  -0.43950  -0.43824  -0.43772  -0.43648
 Alpha  occ. eigenvalues --   -0.43303  -0.43263  -0.43044  -0.42777  -0.42697
 Alpha  occ. eigenvalues --   -0.42454  -0.42385  -0.42321  -0.42087  -0.41955
 Alpha  occ. eigenvalues --   -0.41885  -0.41690  -0.41600  -0.41521  -0.41407
 Alpha  occ. eigenvalues --   -0.41314  -0.41165  -0.40994  -0.40696  -0.40584
 Alpha  occ. eigenvalues --   -0.40497  -0.40309  -0.39999  -0.39925  -0.39877
 Alpha  occ. eigenvalues --   -0.39579  -0.39555  -0.39460  -0.39389  -0.39199
 Alpha  occ. eigenvalues --   -0.39020  -0.38820  -0.38483  -0.38382  -0.38346
 Alpha  occ. eigenvalues --   -0.38252  -0.38065  -0.38028  -0.37948  -0.37651
 Alpha  occ. eigenvalues --   -0.37513  -0.37476  -0.37353  -0.37320  -0.36876
 Alpha  occ. eigenvalues --   -0.36858  -0.36688  -0.36603  -0.36418  -0.36259
 Alpha  occ. eigenvalues --   -0.35999  -0.35894  -0.35729  -0.35455  -0.35383
 Alpha  occ. eigenvalues --   -0.35099  -0.34975  -0.34906  -0.34490  -0.34420
 Alpha  occ. eigenvalues --   -0.34319  -0.34259  -0.34062  -0.33824  -0.33663
 Alpha  occ. eigenvalues --   -0.33315  -0.33261  -0.33108  -0.32997  -0.32798
 Alpha  occ. eigenvalues --   -0.32787  -0.32725  -0.32267  -0.31964  -0.31511
 Alpha  occ. eigenvalues --   -0.30535  -0.30184  -0.30163  -0.29588  -0.29208
 Alpha  occ. eigenvalues --   -0.29058  -0.28486  -0.28365  -0.28029  -0.27766
 Alpha  occ. eigenvalues --   -0.27155  -0.26306  -0.26298  -0.26101  -0.25960
 Alpha  occ. eigenvalues --   -0.25819  -0.25598  -0.25352  -0.25211  -0.24988
 Alpha  occ. eigenvalues --   -0.24890  -0.24575  -0.24355  -0.24008  -0.23683
 Alpha  occ. eigenvalues --   -0.23441  -0.23417  -0.23258  -0.23048  -0.22980
 Alpha  occ. eigenvalues --   -0.22548  -0.22229  -0.21900  -0.21654  -0.21474
 Alpha  occ. eigenvalues --   -0.21214  -0.21154  -0.20644  -0.20529  -0.20365
 Alpha  occ. eigenvalues --   -0.20014  -0.19051  -0.18698
 Alpha virt. eigenvalues --   -0.11208  -0.05313  -0.04823  -0.02557  -0.01428
 Alpha virt. eigenvalues --   -0.01251  -0.00299  -0.00105   0.00842   0.00890
 Alpha virt. eigenvalues --    0.01269   0.01601   0.01976   0.02163   0.02517
 Alpha virt. eigenvalues --    0.02708   0.03175   0.03528   0.03800   0.04130
 Alpha virt. eigenvalues --    0.04325   0.04781   0.04867   0.04927   0.05149
 Alpha virt. eigenvalues --    0.05272   0.05528   0.05624   0.05766   0.06052
 Alpha virt. eigenvalues --    0.06134   0.06274   0.06512   0.06782   0.07131
 Alpha virt. eigenvalues --    0.07266   0.07428   0.07568   0.07803   0.07993
 Alpha virt. eigenvalues --    0.08293   0.08343   0.08609   0.08825   0.08908
 Alpha virt. eigenvalues --    0.09236   0.09619   0.09711   0.10037   0.10561
 Alpha virt. eigenvalues --    0.10874   0.11096   0.11389   0.11403   0.11551
 Alpha virt. eigenvalues --    0.11689   0.11727   0.11850   0.12164   0.12236
 Alpha virt. eigenvalues --    0.12515   0.12573   0.12811   0.12915   0.13214
 Alpha virt. eigenvalues --    0.13309   0.13493   0.13774   0.13955   0.14136
 Alpha virt. eigenvalues --    0.14330   0.14366   0.14484   0.14621   0.14670
 Alpha virt. eigenvalues --    0.14965   0.15014   0.15258   0.15314   0.15540
 Alpha virt. eigenvalues --    0.15675   0.15918   0.16101   0.16262   0.16430
 Alpha virt. eigenvalues --    0.16637   0.16829   0.16856   0.17018   0.17289
 Alpha virt. eigenvalues --    0.17509   0.17598   0.17831   0.18170   0.18227
 Alpha virt. eigenvalues --    0.18310   0.18371   0.18576   0.18816   0.18986
 Alpha virt. eigenvalues --    0.19285   0.19423   0.19689   0.19867   0.19964
 Alpha virt. eigenvalues --    0.20448   0.20526   0.20551   0.20805   0.20996
 Alpha virt. eigenvalues --    0.21062   0.21299   0.21547   0.21672   0.21944
 Alpha virt. eigenvalues --    0.22001   0.22192   0.22473   0.22718   0.23012
 Alpha virt. eigenvalues --    0.23368   0.23557   0.23710   0.24033   0.24070
 Alpha virt. eigenvalues --    0.24229   0.24655   0.24721   0.24832   0.25125
 Alpha virt. eigenvalues --    0.25224   0.25329   0.25552   0.25820   0.25943
 Alpha virt. eigenvalues --    0.26218   0.26476   0.26738   0.26794   0.27343
 Alpha virt. eigenvalues --    0.27454   0.27537   0.27834   0.28087   0.28232
 Alpha virt. eigenvalues --    0.28310   0.28431   0.28552   0.28677   0.28840
 Alpha virt. eigenvalues --    0.29207   0.29493   0.29913   0.30145   0.30371
 Alpha virt. eigenvalues --    0.30508   0.30884   0.31119   0.31523   0.31598
 Alpha virt. eigenvalues --    0.31822   0.31875   0.32310   0.32841   0.32982
 Alpha virt. eigenvalues --    0.33270   0.33401   0.33587   0.33941   0.34337
 Alpha virt. eigenvalues --    0.34571   0.34814   0.35250   0.35400   0.35628
 Alpha virt. eigenvalues --    0.35881   0.36247   0.36573   0.36811   0.37186
 Alpha virt. eigenvalues --    0.37313   0.37516   0.37877   0.37945   0.38218
 Alpha virt. eigenvalues --    0.38333   0.38606   0.38906   0.39486   0.39683
 Alpha virt. eigenvalues --    0.40323   0.40435   0.40761   0.41230   0.41423
 Alpha virt. eigenvalues --    0.41482   0.41738   0.41812   0.42111   0.42376
 Alpha virt. eigenvalues --    0.42435   0.42789   0.42981   0.43041   0.43296
 Alpha virt. eigenvalues --    0.43472   0.43718   0.44099   0.44467   0.44623
 Alpha virt. eigenvalues --    0.44834   0.45373   0.45441   0.45605   0.45773
 Alpha virt. eigenvalues --    0.45980   0.46102   0.46262   0.46473   0.46841
 Alpha virt. eigenvalues --    0.46903   0.47042   0.47136   0.47326   0.47562
 Alpha virt. eigenvalues --    0.47712   0.47891   0.48169   0.48196   0.48345
 Alpha virt. eigenvalues --    0.48458   0.48604   0.48918   0.49175   0.49317
 Alpha virt. eigenvalues --    0.49623   0.49708   0.50021   0.50200   0.50424
 Alpha virt. eigenvalues --    0.50449   0.50611   0.50817   0.51117   0.51165
 Alpha virt. eigenvalues --    0.51709   0.51813   0.52049   0.52125   0.52189
 Alpha virt. eigenvalues --    0.52572   0.52595   0.52789   0.52917   0.52973
 Alpha virt. eigenvalues --    0.53105   0.53311   0.53435   0.53513   0.53757
 Alpha virt. eigenvalues --    0.54060   0.54137   0.54464   0.54543   0.54876
 Alpha virt. eigenvalues --    0.55089   0.55189   0.55754   0.55840   0.55946
 Alpha virt. eigenvalues --    0.56023   0.56374   0.56460   0.56803   0.56872
 Alpha virt. eigenvalues --    0.57011   0.57132   0.57455   0.57507   0.57639
 Alpha virt. eigenvalues --    0.57770   0.57959   0.58168   0.58356   0.58530
 Alpha virt. eigenvalues --    0.58633   0.58715   0.58906   0.59375   0.59562
 Alpha virt. eigenvalues --    0.59633   0.59709   0.59852   0.60156   0.60210
 Alpha virt. eigenvalues --    0.60399   0.60582   0.60655   0.60800   0.60923
 Alpha virt. eigenvalues --    0.61081   0.61234   0.61420   0.61722   0.61813
 Alpha virt. eigenvalues --    0.62041   0.62083   0.62190   0.62326   0.62438
 Alpha virt. eigenvalues --    0.62609   0.62891   0.62953   0.63081   0.63190
 Alpha virt. eigenvalues --    0.63252   0.63574   0.63643   0.63869   0.63949
 Alpha virt. eigenvalues --    0.64075   0.64267   0.64373   0.64607   0.64661
 Alpha virt. eigenvalues --    0.64925   0.64958   0.65088   0.65272   0.65347
 Alpha virt. eigenvalues --    0.65424   0.65588   0.65702   0.65767   0.65936
 Alpha virt. eigenvalues --    0.66048   0.66206   0.66273   0.66360   0.66463
 Alpha virt. eigenvalues --    0.66520   0.66682   0.66737   0.66770   0.66958
 Alpha virt. eigenvalues --    0.67070   0.67257   0.67301   0.67495   0.67525
 Alpha virt. eigenvalues --    0.67677   0.67748   0.67855   0.67901   0.68020
 Alpha virt. eigenvalues --    0.68087   0.68243   0.68302   0.68436   0.68496
 Alpha virt. eigenvalues --    0.68572   0.68703   0.68758   0.68852   0.69038
 Alpha virt. eigenvalues --    0.69239   0.69280   0.69345   0.69404   0.69598
 Alpha virt. eigenvalues --    0.69709   0.69834   0.69943   0.70006   0.70130
 Alpha virt. eigenvalues --    0.70231   0.70389   0.70454   0.70531   0.70667
 Alpha virt. eigenvalues --    0.70825   0.70934   0.70947   0.71242   0.71390
 Alpha virt. eigenvalues --    0.71614   0.71718   0.71772   0.71848   0.72033
 Alpha virt. eigenvalues --    0.72097   0.72452   0.72583   0.72926   0.73083
 Alpha virt. eigenvalues --    0.73199   0.73409   0.73603   0.73649   0.73815
 Alpha virt. eigenvalues --    0.74166   0.74216   0.74347   0.74534   0.74926
 Alpha virt. eigenvalues --    0.75054   0.75291   0.75602   0.75908   0.76006
 Alpha virt. eigenvalues --    0.76135   0.76300   0.76684   0.76924   0.77070
 Alpha virt. eigenvalues --    0.77198   0.77281   0.77569   0.77988   0.78111
 Alpha virt. eigenvalues --    0.78287   0.78567   0.78680   0.78956   0.79293
 Alpha virt. eigenvalues --    0.79413   0.79705   0.79801   0.80249   0.80493
 Alpha virt. eigenvalues --    0.80747   0.80903   0.81271   0.81438   0.81789
 Alpha virt. eigenvalues --    0.82072   0.82271   0.82434   0.82583   0.82888
 Alpha virt. eigenvalues --    0.83305   0.83686   0.83818   0.84136   0.84385
 Alpha virt. eigenvalues --    0.84572   0.84756   0.84869   0.84944   0.85531
 Alpha virt. eigenvalues --    0.85688   0.85877   0.86312   0.86530   0.86677
 Alpha virt. eigenvalues --    0.87050   0.87371   0.87802   0.88085   0.88549
 Alpha virt. eigenvalues --    0.88798   0.89197   0.89552   0.90021   0.90406
 Alpha virt. eigenvalues --    0.90467   0.90671   0.91009   0.91200   0.91707
 Alpha virt. eigenvalues --    0.92008   0.92447   0.92638   0.92790   0.93248
 Alpha virt. eigenvalues --    0.93410   0.93674   0.94031   0.94328   0.94560
 Alpha virt. eigenvalues --    0.94632   0.94888   0.95195   0.95316   0.95550
 Alpha virt. eigenvalues --    0.95875   0.95991   0.96291   0.96677   0.96943
 Alpha virt. eigenvalues --    0.97301   0.97587   0.97683   0.97758   0.98197
 Alpha virt. eigenvalues --    0.98503   0.98641   0.99142   0.99590   0.99848
 Alpha virt. eigenvalues --    1.00293   1.00471   1.00779   1.00810   1.01071
 Alpha virt. eigenvalues --    1.01792   1.01857   1.02268   1.02882   1.03163
 Alpha virt. eigenvalues --    1.03467   1.03532   1.04131   1.04325   1.05106
 Alpha virt. eigenvalues --    1.05169   1.05425   1.05466   1.05998   1.06328
 Alpha virt. eigenvalues --    1.06610   1.06865   1.07218   1.07290   1.07761
 Alpha virt. eigenvalues --    1.07934   1.08376   1.08517   1.08569   1.08921
 Alpha virt. eigenvalues --    1.09072   1.09424   1.09664   1.10076   1.10473
 Alpha virt. eigenvalues --    1.10695   1.11058   1.11099   1.11574   1.12117
 Alpha virt. eigenvalues --    1.12445   1.12747   1.12877   1.13241   1.13436
 Alpha virt. eigenvalues --    1.13576   1.13649   1.13959   1.14580   1.14728
 Alpha virt. eigenvalues --    1.14934   1.15072   1.15356   1.15463   1.15848
 Alpha virt. eigenvalues --    1.16028   1.16237   1.16538   1.16839   1.17024
 Alpha virt. eigenvalues --    1.17348   1.17525   1.17885   1.18113   1.18469
 Alpha virt. eigenvalues --    1.18584   1.18942   1.19296   1.19539   1.19571
 Alpha virt. eigenvalues --    1.20037   1.20119   1.20490   1.20809   1.20933
 Alpha virt. eigenvalues --    1.21635   1.21825   1.22472   1.22896   1.22974
 Alpha virt. eigenvalues --    1.23123   1.23476   1.23742   1.23925   1.24276
 Alpha virt. eigenvalues --    1.24696   1.24913   1.25043   1.25497   1.25766
 Alpha virt. eigenvalues --    1.26237   1.26311   1.26734   1.26814   1.26913
 Alpha virt. eigenvalues --    1.27264   1.27524   1.27627   1.27799   1.28231
 Alpha virt. eigenvalues --    1.28336   1.28570   1.29053   1.29087   1.29454
 Alpha virt. eigenvalues --    1.29648   1.30177   1.30390   1.30582   1.30664
 Alpha virt. eigenvalues --    1.30884   1.31201   1.31383   1.31725   1.31887
 Alpha virt. eigenvalues --    1.32209   1.32325   1.32683   1.32909   1.33131
 Alpha virt. eigenvalues --    1.33230   1.33302   1.33937   1.34249   1.34298
 Alpha virt. eigenvalues --    1.34472   1.34904   1.35165   1.35948   1.36164
 Alpha virt. eigenvalues --    1.36227   1.36354   1.36939   1.37273   1.37565
 Alpha virt. eigenvalues --    1.37610   1.38133   1.38332   1.38690   1.38848
 Alpha virt. eigenvalues --    1.39093   1.39281   1.39461   1.39799   1.40093
 Alpha virt. eigenvalues --    1.40391   1.40682   1.40712   1.40829   1.41016
 Alpha virt. eigenvalues --    1.41465   1.41723   1.41936   1.42216   1.42437
 Alpha virt. eigenvalues --    1.42666   1.42831   1.43205   1.43358   1.43717
 Alpha virt. eigenvalues --    1.43953   1.44710   1.44931   1.45047   1.45495
 Alpha virt. eigenvalues --    1.45911   1.45912   1.46680   1.47073   1.47346
 Alpha virt. eigenvalues --    1.47647   1.48021   1.48267   1.48728   1.48837
 Alpha virt. eigenvalues --    1.49018   1.49220   1.49430   1.49707   1.50069
 Alpha virt. eigenvalues --    1.50558   1.50777   1.51027   1.51281   1.51570
 Alpha virt. eigenvalues --    1.51930   1.52074   1.52386   1.52971   1.53497
 Alpha virt. eigenvalues --    1.53715   1.53841   1.54016   1.54221   1.54526
 Alpha virt. eigenvalues --    1.54856   1.55190   1.55293   1.55663   1.55788
 Alpha virt. eigenvalues --    1.55890   1.56537   1.56636   1.56686   1.57240
 Alpha virt. eigenvalues --    1.57514   1.57927   1.58255   1.58804   1.59277
 Alpha virt. eigenvalues --    1.59609   1.60138   1.60541   1.60958   1.61098
 Alpha virt. eigenvalues --    1.61342   1.61577   1.61805   1.61872   1.62076
 Alpha virt. eigenvalues --    1.62342   1.62665   1.62749   1.63125   1.63418
 Alpha virt. eigenvalues --    1.63918   1.64165   1.64252   1.64851   1.65166
 Alpha virt. eigenvalues --    1.65316   1.65419   1.65800   1.65930   1.66051
 Alpha virt. eigenvalues --    1.66383   1.66651   1.66921   1.67705   1.68448
 Alpha virt. eigenvalues --    1.68523   1.68711   1.69206   1.69576   1.69661
 Alpha virt. eigenvalues --    1.69956   1.70046   1.70567   1.70645   1.70850
 Alpha virt. eigenvalues --    1.71065   1.71214   1.71512   1.71731   1.72340
 Alpha virt. eigenvalues --    1.72936   1.72983   1.73288   1.73431   1.73642
 Alpha virt. eigenvalues --    1.73823   1.74180   1.74313   1.74679   1.74832
 Alpha virt. eigenvalues --    1.74990   1.75247   1.75266   1.75368   1.75576
 Alpha virt. eigenvalues --    1.76005   1.76083   1.76394   1.76586   1.76638
 Alpha virt. eigenvalues --    1.76940   1.77040   1.77317   1.77449   1.77672
 Alpha virt. eigenvalues --    1.77723   1.77906   1.78341   1.78646   1.78876
 Alpha virt. eigenvalues --    1.79026   1.79254   1.79309   1.79396   1.79687
 Alpha virt. eigenvalues --    1.79882   1.80009   1.80104   1.80222   1.80385
 Alpha virt. eigenvalues --    1.80482   1.80533   1.80603   1.80768   1.80995
 Alpha virt. eigenvalues --    1.81113   1.81218   1.81276   1.81558   1.81615
 Alpha virt. eigenvalues --    1.81863   1.81989   1.82151   1.82219   1.82455
 Alpha virt. eigenvalues --    1.82597   1.82674   1.82949   1.82990   1.83331
 Alpha virt. eigenvalues --    1.83563   1.83828   1.83866   1.83990   1.84195
 Alpha virt. eigenvalues --    1.84356   1.84553   1.84648   1.84943   1.85193
 Alpha virt. eigenvalues --    1.85458   1.85545   1.85862   1.86000   1.86059
 Alpha virt. eigenvalues --    1.86457   1.86766   1.86943   1.87212   1.87501
 Alpha virt. eigenvalues --    1.87570   1.87766   1.87889   1.87953   1.88208
 Alpha virt. eigenvalues --    1.88432   1.88657   1.88803   1.89256   1.89493
 Alpha virt. eigenvalues --    1.89511   1.89751   1.89931   1.90148   1.90232
 Alpha virt. eigenvalues --    1.90425   1.90749   1.90815   1.91248   1.91348
 Alpha virt. eigenvalues --    1.91539   1.91797   1.91972   1.92101   1.92300
 Alpha virt. eigenvalues --    1.92776   1.92826   1.93216   1.93290   1.93448
 Alpha virt. eigenvalues --    1.93712   1.93789   1.94068   1.94193   1.94368
 Alpha virt. eigenvalues --    1.94671   1.94821   1.94935   1.95060   1.95471
 Alpha virt. eigenvalues --    1.95518   1.95753   1.95912   1.96266   1.96333
 Alpha virt. eigenvalues --    1.96458   1.96750   1.96863   1.97171   1.97483
 Alpha virt. eigenvalues --    1.97943   1.98116   1.98155   1.98451   1.98925
 Alpha virt. eigenvalues --    1.99012   1.99445   1.99496   1.99638   2.00157
 Alpha virt. eigenvalues --    2.00632   2.00804   2.01149   2.01199   2.01514
 Alpha virt. eigenvalues --    2.01624   2.01861   2.02012   2.02169   2.02400
 Alpha virt. eigenvalues --    2.02657   2.03041   2.03084   2.03454   2.03731
 Alpha virt. eigenvalues --    2.03972   2.04137   2.04374   2.04419   2.04650
 Alpha virt. eigenvalues --    2.04967   2.05104   2.05634   2.05921   2.06097
 Alpha virt. eigenvalues --    2.06158   2.06414   2.06678   2.06842   2.07285
 Alpha virt. eigenvalues --    2.07345   2.07803   2.08018   2.08435   2.08762
 Alpha virt. eigenvalues --    2.08949   2.09031   2.09458   2.09658   2.09820
 Alpha virt. eigenvalues --    2.10352   2.10643   2.10977   2.11444   2.11863
 Alpha virt. eigenvalues --    2.12057   2.12204   2.12376   2.12832   2.13362
 Alpha virt. eigenvalues --    2.13539   2.13991   2.14300   2.14666   2.14827
 Alpha virt. eigenvalues --    2.15076   2.15280   2.15443   2.15492   2.15777
 Alpha virt. eigenvalues --    2.15910   2.16037   2.16466   2.17000   2.17247
 Alpha virt. eigenvalues --    2.17600   2.17768   2.18031   2.18164   2.18429
 Alpha virt. eigenvalues --    2.18561   2.19186   2.19902   2.20090   2.20243
 Alpha virt. eigenvalues --    2.20639   2.20699   2.20774   2.21007   2.21257
 Alpha virt. eigenvalues --    2.21311   2.21661   2.21749   2.21887   2.22410
 Alpha virt. eigenvalues --    2.22530   2.22575   2.22848   2.23591   2.23841
 Alpha virt. eigenvalues --    2.24083   2.24388   2.24770   2.24879   2.25332
 Alpha virt. eigenvalues --    2.25655   2.25757   2.25858   2.26542   2.26773
 Alpha virt. eigenvalues --    2.27218   2.28057   2.28168   2.28604   2.29364
 Alpha virt. eigenvalues --    2.29807   2.30001   2.30851   2.30970   2.31154
 Alpha virt. eigenvalues --    2.31914   2.32415   2.32735   2.33217   2.33280
 Alpha virt. eigenvalues --    2.33495   2.33918   2.34059   2.34232   2.34590
 Alpha virt. eigenvalues --    2.34785   2.34966   2.35193   2.35331   2.36139
 Alpha virt. eigenvalues --    2.36255   2.36629   2.36666   2.37188   2.37433
 Alpha virt. eigenvalues --    2.37518   2.37809   2.37926   2.38119   2.38288
 Alpha virt. eigenvalues --    2.38685   2.39654   2.40405   2.40533   2.41143
 Alpha virt. eigenvalues --    2.41238   2.41273   2.41533   2.41844   2.42056
 Alpha virt. eigenvalues --    2.42266   2.42459   2.43420   2.43821   2.44255
 Alpha virt. eigenvalues --    2.44932   2.45212   2.45317   2.45540   2.45792
 Alpha virt. eigenvalues --    2.46229   2.46578   2.46979   2.47409   2.47576
 Alpha virt. eigenvalues --    2.47804   2.48301   2.48546   2.48686   2.49039
 Alpha virt. eigenvalues --    2.49470   2.49555   2.49656   2.49965   2.50221
 Alpha virt. eigenvalues --    2.50365   2.50977   2.51350   2.51938   2.52208
 Alpha virt. eigenvalues --    2.52647   2.52720   2.52878   2.53175   2.53209
 Alpha virt. eigenvalues --    2.53304   2.53818   2.54063   2.54355   2.54710
 Alpha virt. eigenvalues --    2.54861   2.55180   2.55914   2.55968   2.56116
 Alpha virt. eigenvalues --    2.56619   2.57082   2.57585   2.58471   2.58720
 Alpha virt. eigenvalues --    2.59110   2.59225   2.59360   2.60906   2.60962
 Alpha virt. eigenvalues --    2.61258   2.61688   2.61731   2.61846   2.62200
 Alpha virt. eigenvalues --    2.62265   2.62698   2.62895   2.62986   2.63097
 Alpha virt. eigenvalues --    2.63229   2.63326   2.64073   2.64173   2.64540
 Alpha virt. eigenvalues --    2.65353   2.65562   2.65887   2.66309   2.66485
 Alpha virt. eigenvalues --    2.66541   2.67030   2.67348   2.67546   2.67811
 Alpha virt. eigenvalues --    2.68050   2.68569   2.68680   2.68864   2.69112
 Alpha virt. eigenvalues --    2.69840   2.70230   2.70482   2.71125   2.71544
 Alpha virt. eigenvalues --    2.71901   2.72110   2.72246   2.72434   2.72635
 Alpha virt. eigenvalues --    2.73195   2.73295   2.73561   2.73875   2.73998
 Alpha virt. eigenvalues --    2.74039   2.74322   2.74415   2.74539   2.74929
 Alpha virt. eigenvalues --    2.75139   2.75471   2.75912   2.76212   2.76471
 Alpha virt. eigenvalues --    2.76919   2.77080   2.77254   2.77442   2.77652
 Alpha virt. eigenvalues --    2.77963   2.78191   2.78272   2.78845   2.79012
 Alpha virt. eigenvalues --    2.79231   2.79458   2.79751   2.79954   2.80218
 Alpha virt. eigenvalues --    2.80628   2.80963   2.81188   2.81487   2.81756
 Alpha virt. eigenvalues --    2.81902   2.82149   2.82272   2.82443   2.83071
 Alpha virt. eigenvalues --    2.83522   2.83723   2.84032   2.84070   2.84167
 Alpha virt. eigenvalues --    2.84803   2.85325   2.85592   2.85855   2.86153
 Alpha virt. eigenvalues --    2.86310   2.86707   2.87215   2.87711   2.87892
 Alpha virt. eigenvalues --    2.88190   2.88717   2.89128   2.89606   2.89719
 Alpha virt. eigenvalues --    2.89816   2.90292   2.90785   2.91091   2.91230
 Alpha virt. eigenvalues --    2.91409   2.91510   2.92106   2.92679   2.92754
 Alpha virt. eigenvalues --    2.93037   2.93347   2.93517   2.93595   2.93756
 Alpha virt. eigenvalues --    2.94777   2.94811   2.95087   2.95239   2.95458
 Alpha virt. eigenvalues --    2.95935   2.96240   2.96281   2.96398   2.97162
 Alpha virt. eigenvalues --    2.97362   2.97818   2.98524   2.98875   2.98916
 Alpha virt. eigenvalues --    2.99387   2.99536   3.00045   3.00261   3.00622
 Alpha virt. eigenvalues --    3.00721   3.00899   3.01757   3.01793   3.02206
 Alpha virt. eigenvalues --    3.02735   3.02845   3.03046   3.03276   3.03385
 Alpha virt. eigenvalues --    3.03630   3.03976   3.04067   3.04443   3.04812
 Alpha virt. eigenvalues --    3.05297   3.05358   3.05713   3.06179   3.06887
 Alpha virt. eigenvalues --    3.07804   3.08024   3.08614   3.09175   3.09949
 Alpha virt. eigenvalues --    3.10816   3.10966   3.11660   3.12282   3.12473
 Alpha virt. eigenvalues --    3.12802   3.13319   3.13768   3.13878   3.14277
 Alpha virt. eigenvalues --    3.14889   3.15332   3.16198   3.16467   3.16620
 Alpha virt. eigenvalues --    3.17296   3.17471   3.17683   3.17815   3.17848
 Alpha virt. eigenvalues --    3.18058   3.19093   3.19227   3.19467   3.19670
 Alpha virt. eigenvalues --    3.20483   3.20601   3.20758   3.20943   3.21211
 Alpha virt. eigenvalues --    3.21503   3.21969   3.22048   3.22756   3.23095
 Alpha virt. eigenvalues --    3.23237   3.23609   3.23732   3.23945   3.24369
 Alpha virt. eigenvalues --    3.24700   3.25127   3.25437   3.25983   3.26440
 Alpha virt. eigenvalues --    3.27054   3.27152   3.27596   3.27971   3.30482
 Alpha virt. eigenvalues --    3.31605   3.32720   3.33587   3.34371   3.35028
 Alpha virt. eigenvalues --    3.36268   3.36902   3.38335   3.38745   3.39978
 Alpha virt. eigenvalues --    3.42027   3.42634   3.45618   3.47675   3.51285
 Alpha virt. eigenvalues --    3.51451   3.54513   3.55044   3.57220   3.58005
 Alpha virt. eigenvalues --    3.58535   3.58955   3.59064   3.59939   3.60152
 Alpha virt. eigenvalues --    3.60485   3.60780   3.61257   3.62144   3.63421
 Alpha virt. eigenvalues --    3.65752   3.67069   3.67200   3.68265   3.68329
 Alpha virt. eigenvalues --    3.69194   3.69800   3.70137   3.70527   3.70673
 Alpha virt. eigenvalues --    3.70828   3.71078   3.71226   3.71698   3.71973
 Alpha virt. eigenvalues --    3.72990   3.73055   3.73800   3.74502   3.74565
 Alpha virt. eigenvalues --    3.78667   3.81356   3.83257   3.99699
          Condensed to atoms (all electrons):
 Mulliken charges:
               1
     1  C    0.044309
     2  C    0.000446
     3  O   -0.277444
     4  H    0.032730
     5  H    0.002365
     6  H    0.038850
     7  N   -0.100705
     8  C    0.081494
     9  C    0.050630
    10  O   -0.307241
    11  C    0.145216
    12  C    0.107821
    13  O   -0.441153
    14  O   -0.383490
    15  H    0.108558
    16  H    0.039700
    17  H   -0.010986
    18  H    0.007851
    19  N   -0.124124
    20  C    0.121385
    21  C    0.055701
    22  O   -0.309674
    23  C    0.059501
    24  C    0.036050
    25  C   -0.065415
    26  C    0.049524
    27  N    0.070381
    28  H    0.139538
    29  H    0.024636
    30  H   -0.011881
    31  H    0.007406
    32  H    0.010604
    33  H    0.038680
    34  H    0.032928
    35  H    0.004174
    36  H    0.077709
    37  H    0.069690
    38  H    0.187685
    39  H    0.195033
    40  H    0.196635
    41  N   -0.140671
    42  C    0.164421
    43  C    0.044170
    44  O   -0.288478
    45  C    0.099793
    46  C    0.040381
    47  O   -0.471735
    48  O   -0.381863
    49  H    0.133442
    50  H    0.014822
    51  H    0.006457
    52  H    0.023487
    53  N   -0.188203
    54  C    0.218268
    55  C    0.022845
    56  O   -0.287663
    57  H    0.140445
    58  H    0.021712
    59  H    0.010151
    60  N   -0.172595
    61  C    0.198877
    62  C    0.041639
    63  O   -0.275310
    64  C    0.079001
    65  C    0.057564
    66  N   -0.024382
    67  O   -0.331139
    68  H    0.154035
    69  H    0.018355
    70  H    0.053741
    71  H    0.031768
    72  H    0.112288
    73  H    0.080125
    74  N   -0.132194
    75  C    0.188459
    76  C    0.061725
    77  O   -0.302811
    78  H    0.126720
    79  H    0.033538
    80  H    0.028211
    81  N   -0.132118
    82  C    0.173939
    83  C    0.124853
    84  O   -0.358137
    85  C    0.167230
    86  C   -0.078176
    87  C    0.025406
    88  C    0.033701
    89  C    0.037335
    90  C   -0.036584
    91  C    0.129119
    92  O   -0.199087
    93  H    0.154625
    94  H   -0.026860
    95  H   -0.011383
    96  H   -0.037197
    97  H   -0.077522
    98  H   -0.040001
    99  H   -0.031142
   100  H   -0.059151
   101  H    0.173310
   102  N   -0.088896
   103  C    0.188829
   104  C   -0.010458
   105  O   -0.279163
   106  C   -0.156618
   107  C   -0.002127
   108  C    0.134457
   109  C    0.036431
   110  H    0.136696
   111  H    0.001027
   112  H   -0.024078
   113  H    0.011213
   114  H    0.014218
   115  H   -0.009204
   116  H    0.010315
   117  H    0.024761
   118  H    0.001796
   119  H   -0.007014
   120  H    0.011258
   121  N   -0.117373
   122  C    0.080075
   123  C    0.103679
   124  O   -0.283694
   125  C    0.276798
   126  O   -0.354521
   127  H    0.134358
   128  H    0.001987
   129  H   -0.024204
   130  H   -0.027623
   131  H    0.165727
   132  N   -0.099050
   133  C    0.112658
   134  C    0.029721
   135  O   -0.252673
   136  C    0.021819
   137  H    0.116316
   138  H    0.021020
   139  H    0.023375
   140  H    0.011052
   141  H    0.044379
   142  N   -0.139248
   143  C    0.096416
   144  C    0.074352
   145  O   -0.294209
   146  C    0.029816
   147  H    0.100916
   148  H    0.025397
   149  H    0.011297
   150  H    0.026260
   151  H    0.016267
   152  N   -0.139358
   153  C    0.165403
   154  C    0.079092
   155  O   -0.272700
   156  C   -0.069951
   157  C    0.123789
   158  C    0.137519
   159  O   -0.408466
   160  O   -0.440140
   161  H    0.132781
   162  H   -0.002542
   163  H    0.053060
   164  H    0.009538
   165  H   -0.002219
   166  H   -0.015625
   167  N   -0.168478
   168  C    0.129764
   169  H    0.015230
   170  H    0.031577
   171  H    0.005866
   172  H    0.132421
   173  Ca   1.282538
   174  O   -0.248967
   175  H    0.204041
   176  H    0.194617
 Sum of Mulliken charges =  -0.00000
 Mulliken charges with hydrogens summed into heavy atoms:
               1
     1  C    0.118255
     2  C    0.000446
     3  O   -0.277444
     7  N    0.007853
     8  C    0.121194
     9  C    0.050630
    10  O   -0.307241
    11  C    0.142081
    12  C    0.107821
    13  O   -0.441153
    14  O   -0.383490
    19  N    0.015413
    20  C    0.146021
    21  C    0.055701
    22  O   -0.309674
    23  C    0.055026
    24  C    0.085335
    25  C   -0.028313
    26  C    0.196924
    27  N    0.649734
    41  N   -0.007229
    42  C    0.179244
    43  C    0.044170
    44  O   -0.288478
    45  C    0.129737
    46  C    0.040381
    47  O   -0.471735
    48  O   -0.381863
    53  N   -0.047758
    54  C    0.250130
    55  C    0.022845
    56  O   -0.287663
    60  N   -0.018560
    61  C    0.217232
    62  C    0.041639
    63  O   -0.275310
    64  C    0.164510
    65  C    0.057564
    66  N    0.168030
    67  O   -0.331139
    74  N   -0.005474
    75  C    0.250208
    76  C    0.061725
    77  O   -0.302811
    81  N    0.022507
    82  C    0.147079
    83  C    0.124853
    84  O   -0.358137
    85  C    0.118650
    86  C   -0.078176
    87  C   -0.052115
    88  C   -0.006301
    89  C    0.006193
    90  C   -0.095735
    91  C    0.129119
    92  O   -0.025777
   102  N    0.047800
   103  C    0.189856
   104  C   -0.010458
   105  O   -0.279163
   106  C   -0.180696
   107  C    0.023304
   108  C    0.160329
   109  C    0.042470
   121  N    0.016985
   122  C    0.082061
   123  C    0.103679
   124  O   -0.283694
   125  C    0.224971
   126  O   -0.188794
   132  N    0.017266
   133  C    0.133678
   134  C    0.029721
   135  O   -0.252673
   136  C    0.100625
   142  N   -0.038332
   143  C    0.121814
   144  C    0.074352
   145  O   -0.294209
   146  C    0.083640
   152  N   -0.006577
   153  C    0.162861
   154  C    0.079092
   155  O   -0.272700
   156  C   -0.007353
   157  C    0.105945
   158  C    0.137519
   159  O   -0.408466
   160  O   -0.440140
   167  N   -0.036057
   168  C    0.182438
   173  Ca   1.282538
   174  O    0.149691
 DipInt: DoE/N= T F RetVal/Mat= T F Init=T NMatP=  1 IDeriv=0 Min/MaxMlt=  0  4
 Entering OneElI...
 OneElI was handed  1333951383 working-precision words.
 Multipole integrals L=0 to 4 MinM= 0 MaxM= 0.
 Requested accuracy = 0.1000D-12
 ShPair: Thresh= 1.00D-13 NBox=     0 BxSize= 0.00D+00 RnKept= 2.55D+01
         NSMCal=               327645 NSMKep=              156308
 PrmmSu-InSpLW:  IPartL=    0 NPrtUS=    1 NPrtUL=    1 DoSpLW=F IThBeg=    0 IThEnd=    0 NThAct=    1.
 PrsmSu:  NPrtUS=   1 ThrOK=F IAlg=1 NPAlg=1 LenDen=           0 ISkipM=0 DoSpLW=F IThBeg=    0 IThEnd=    0.
 Prism:   IPart=     0 DynPar=F LinDyn=F Incr=         512.
 PRISM was handed  1324049095 working-precision words and156308 shell-pairs
 IPart=  0 NShTot=      156308 NBatch=         357 AvBLen=       437.8
 PrsmSu-ThDecC:  IPartSL=    0    0 NPrtUSL=    1    1 IThBeg=    0 IThEnd=    0 CPU=   -1 GPU=   -1 NThAct=    1.
 PrSmSu:  NxtVal=            513.
 Electronic moments (au):
       -716.00000000         12.51498368          4.84314069         -5.79605334
     -54268.11912224     -32296.06353188     -11891.98686761        146.25463740
        -73.83514422        -10.58314136      35139.09375075     -74443.70597114
     -24732.85170293     -45869.21535679      97291.20610212      38021.56285888
     -29251.00990687      -4599.47884030      26857.82855515     -11547.11401721
   -8260267.34962143   -3167021.86332711    -569356.87758442    -376448.79468285
     266226.75322175    -520538.83758049     208088.98006630    -132340.41964578
     -61715.08424930   -2450250.26240729    -725643.04724817    -441430.14677739
    -148353.28766857     229956.88332590      28323.02041592
 Electronic spatial extent (au):  <R**2>=          98456.1695
 DipInt: DoE/N= F T RetVal/Mat= T F Init=T NMatP=  1 IDeriv=0 Min/MaxMlt=  0  4
 Nuclear    moments (au):
        716.00000000         -0.00000000         -0.00000000         -0.00000000
      53830.83503113      32022.75455851      11499.58240341         -0.00000000
         -0.00000000          0.00000000     -33383.28636620      76278.58995586
      24689.81738127      48705.28353317     -95850.93522134     -38959.73680629
      29505.90358034       4593.61521365     -27543.81805573      11115.88354995
    8063167.16622374    3088607.44096691     529555.62303040     405260.47652683
    -276702.14137519     554254.50105842    -214322.62261810     130711.28925639
      62936.94715292    2430760.51202380     688868.69879880     418651.15980058
     142543.77177839    -240505.25932647     -27513.36893860
 Total      moments (au):
         -0.00000000         12.51498368          4.84314069         -5.79605334
       -437.28409111       -273.30897337       -392.40446420        146.25463740
        -73.83514422        -10.58314136       1755.80738456       1834.88398472
        -43.03432166       2836.06817638       1440.27088078       -938.17394741
        254.89367348         -5.86362665       -685.98950058       -431.23046726
    -197100.18339768     -78414.42236020     -39801.25455402      28811.68184398
     -10475.38815344      33715.66347793      -6233.64255180      -1629.13038939
       1221.86290362     -19489.75038349     -36774.34844937     -22778.98697681
      -5809.51589018     -10548.37600057        809.65147732
 Traceless Quadrup. (au):
        -69.61824822         94.35686953        -24.73862131        146.25463740
        -73.83514422        -10.58314136
 Charge=             -0.0000 electrons
 Dipole moment (field-independent basis, Debye):
    X=             31.8099    Y=             12.3100    Z=            -14.7321  Tot=             37.1543
 Quadrupole moment (field-independent basis, Debye-Ang):
   XX=           -588.1621   YY=           -367.6099   ZZ=           -527.7974
   XY=            196.7175   XZ=            -99.3108   YZ=            -14.2347
 Traceless Quadrupole moment (field-independent basis, Debye-Ang):
   XX=            -93.6389   YY=            126.9132   ZZ=            -33.2743
   XY=            196.7175   XZ=            -99.3108   YZ=            -14.2347
 Octapole moment (field-independent basis, Debye-Ang**2):
  XXX=           1249.7161  YYY=           1305.9997  ZZZ=            -30.6302  XYY=           2018.6041
  XXY=           1025.1293  XXZ=           -667.7561  XZZ=            181.4235  YZZ=             -4.1735
  YYZ=           -488.2609  XYZ=           -306.9332
 Hexadecapole moment (field-independent basis, Debye-Ang**3):
 XXXX=         -74237.3803 YYYY=         -29534.6316 ZZZZ=         -14991.0610 XXXY=          10851.8609
 XXXZ=          -3945.5335 YYYX=          12698.9356 YYYZ=          -2347.8887 ZZZX=           -613.6086
 ZZZY=            460.2122 XXYY=          -7340.7746 XXZZ=         -13850.9830 YYZZ=          -8579.6588
 XXYZ=          -2188.1423 YYXZ=          -3973.0242 ZZXY=            304.9536
 N-N= 2.151116019111D+04 E-N=-5.550606833217D+04  KE= 5.290816892326D+03
 Leave Link  601 at Sat Sep 14 22:37:50 2019, MaxMem=  1342177280 cpu:              43.5 elap:               1.1
 FitSet:  NAtFit=   176 NAtPot=   176 NAtFrz=     0 MDM=   180 TotChg=   0.00000
 Merz-Kollman atomic radii used.
 Read replacement radii for each type of atom:
 Rad(20) =   1.700000000000D+00
 Atom Element Radius
    1     6    1.50
    2     6    1.50
    3     8    1.40
    4     1    1.20
    5     1    1.20
    6     1    1.20
    7     7    1.50
    8     6    1.50
    9     6    1.50
   10     8    1.40
   11     6    1.50
   12     6    1.50
   13     8    1.40
   14     8    1.40
   15     1    1.20
   16     1    1.20
   17     1    1.20
   18     1    1.20
   19     7    1.50
   20     6    1.50
   21     6    1.50
   22     8    1.40
   23     6    1.50
   24     6    1.50
   25     6    1.50
   26     6    1.50
   27     7    1.50
   28     1    1.20
   29     1    1.20
   30     1    1.20
   31     1    1.20
   32     1    1.20
   33     1    1.20
   34     1    1.20
   35     1    1.20
   36     1    1.20
   37     1    1.20
   38     1    1.20
   39     1    1.20
   40     1    1.20
   41     7    1.50
   42     6    1.50
   43     6    1.50
   44     8    1.40
   45     6    1.50
   46     6    1.50
   47     8    1.40
   48     8    1.40
   49     1    1.20
   50     1    1.20
   51     1    1.20
   52     1    1.20
   53     7    1.50
   54     6    1.50
   55     6    1.50
   56     8    1.40
   57     1    1.20
   58     1    1.20
   59     1    1.20
   60     7    1.50
   61     6    1.50
   62     6    1.50
   63     8    1.40
   64     6    1.50
   65     6    1.50
   66     7    1.50
   67     8    1.40
   68     1    1.20
   69     1    1.20
   70     1    1.20
   71     1    1.20
   72     1    1.20
   73     1    1.20
   74     7    1.50
   75     6    1.50
   76     6    1.50
   77     8    1.40
   78     1    1.20
   79     1    1.20
   80     1    1.20
   81     7    1.50
   82     6    1.50
   83     6    1.50
   84     8    1.40
   85     6    1.50
   86     6    1.50
   87     6    1.50
   88     6    1.50
   89     6    1.50
   90     6    1.50
   91     6    1.50
   92     8    1.40
   93     1    1.20
   94     1    1.20
   95     1    1.20
   96     1    1.20
   97     1    1.20
   98     1    1.20
   99     1    1.20
  100     1    1.20
  101     1    1.20
  102     7    1.50
  103     6    1.50
  104     6    1.50
  105     8    1.40
  106     6    1.50
  107     6    1.50
  108     6    1.50
  109     6    1.50
  110     1    1.20
  111     1    1.20
  112     1    1.20
  113     1    1.20
  114     1    1.20
  115     1    1.20
  116     1    1.20
  117     1    1.20
  118     1    1.20
  119     1    1.20
  120     1    1.20
  121     7    1.50
  122     6    1.50
  123     6    1.50
  124     8    1.40
  125     6    1.50
  126     8    1.40
  127     1    1.20
  128     1    1.20
  129     1    1.20
  130     1    1.20
  131     1    1.20
  132     7    1.50
  133     6    1.50
  134     6    1.50
  135     8    1.40
  136     6    1.50
  137     1    1.20
  138     1    1.20
  139     1    1.20
  140     1    1.20
  141     1    1.20
  142     7    1.50
  143     6    1.50
  144     6    1.50
  145     8    1.40
  146     6    1.50
  147     1    1.20
  148     1    1.20
  149     1    1.20
  150     1    1.20
  151     1    1.20
  152     7    1.50
  153     6    1.50
  154     6    1.50
  155     8    1.40
  156     6    1.50
  157     6    1.50
  158     6    1.50
  159     8    1.40
  160     8    1.40
  161     1    1.20
  162     1    1.20
  163     1    1.20
  164     1    1.20
  165     1    1.20
  166     1    1.20
  167     7    1.50
  168     6    1.50
  169     1    1.20
  170     1    1.20
  171     1    1.20
  172     1    1.20
  173    20    1.70
  174     8    1.40
[...]
 **** Fit      -0.048610
 **** Fit      -0.046775
 **** Fit      -0.044675
 **** Fit      -0.042633
 **** Fit      -0.041055
 **** Fit      -0.047642
 **** Fit      -0.049162
 **** Fit      -0.053702
 **** Fit      -0.054416
 **** Fit      -0.054364
 **** Fit      -0.053387
 **** Fit      -0.051462
 **** Fit      -0.048716
 **** Fit      -0.045416
 **** Fit      -0.052467
 **** Fit       0.018301
 **** Fit       0.017410
 **** Fit       0.020308
 **** Fit       0.020595
 **** Fit       0.021684
 **** Fit       0.021703
 **** Fit       0.020753
 **** Fit       0.019307
 **** Fit       0.017977
 **** Fit       0.019552
 **** Fit       0.018591
 **** Fit       0.017406
 **** Fit       0.016618
 **** Fit       0.016560
 **** Fit       0.015437
 **** Fit       0.014256
 **** Fit       0.017821
 **** Fit       0.020469
 **** Fit       0.017680
 **** Fit       0.018855
 **** Fit       0.022058
 **** Fit       0.017140
 **** Fit       0.018307
 **** Fit       0.021032
 **** Fit       0.016350
 **** Fit       0.018353
 **** Fit       0.021898
 **** Fit       0.012837
 **** Fit       0.015520
 **** Fit       0.018593
 **** Fit       0.010271
 **** Fit       0.013937
 **** Fit       0.015051
 **** Fit       0.022417
 **** Fit      -0.039336
 **** Fit      -0.038493
 **** Fit      -0.036093
 **** Fit      -0.030411
 **** Fit      -0.026893
 **** Fit      -0.025906
 **** Fit      -0.027637
 **** Fit      -0.047898
 **** Fit      -0.038860
 **** Fit      -0.030517
 **** Fit      -0.023521
 **** Fit      -0.018396
 **** Fit      -0.015543
 **** Fit      -0.015171
 **** Fit      -0.017209
 **** Fit      -0.021271
 **** Fit      -0.028214
 **** Fit      -0.019647
 **** Fit      -0.012839
 **** Fit      -0.008165
 **** Fit      -0.005857
 **** Fit      -0.005903
 **** Fit      -0.007978
 **** Fit      -0.011483
 **** Fit      -0.017572
 **** Fit      -0.009082
 **** Fit      -0.002870
 **** Fit       0.000884
 **** Fit       0.002203
 **** Fit       0.001417
 **** Fit      -0.000862
 **** Fit      -0.005085
 **** Fit       0.002073
 **** Fit       0.006369
 **** Fit       0.008005
 **** Fit       0.007529
 **** Fit      -0.001251
 **** Fit       0.006158
 **** Fit       0.010270
 **** Fit       0.011637
 **** Fit       0.001062
 **** Fit       0.008179
 **** Fit       0.011868
 **** Fit       0.005215
 **** Fit       0.010285
 **** Fit       0.007146
 **** Fit       0.018015
 **** Fit       0.019267
 **** Fit       0.019919
 **** Fit       0.018360
 **** Fit       0.018633
 **** Fit       0.018343
 **** Fit       0.017373
 **** Fit       0.016001
 **** Fit       0.014545
 **** Fit       0.012896
 **** Fit       0.016885
 **** Fit       0.016297
 **** Fit       0.014997
 **** Fit       0.013097
 **** Fit       0.010470
 **** Fit       0.014410
 **** Fit       0.013218
 **** Fit       0.010732
 **** Fit       0.006412
 **** Fit       0.010825
 **** Fit       0.008048
 **** Fit      -0.018341
 **** Fit      -0.016630
 **** Fit      -0.006029
 **** Fit       0.002810
 **** Fit       0.010582
 **** Fit       0.016415
 **** Fit       0.013742
 **** Fit       0.021069
 **** Fit       0.009481
 **** Fit       0.018043
 **** Fit       0.025495
 **** Fit       0.014087
 **** Fit       0.022080
 **** Fit       0.028788
 **** Fit       0.018060
 **** Fit       0.024686
 **** Fit       0.030011
 **** Fit       0.033114
 **** Fit       0.021473
 **** Fit       0.026620
 **** Fit       0.030131
 **** Fit       0.031158
 **** Fit       0.023023
 **** Fit       0.026493
 **** Fit       0.028084
 **** Fit       0.027384
 **** Fit       0.023120
 **** Fit       0.024786
 **** Fit       0.024394
 **** Fit       0.022390
 **** Fit      -0.048897
 **** Fit      -0.049709
 **** Fit      -0.052419
 **** Fit      -0.018932
 **** Fit      -0.021931
 **** Fit      -0.019103
 **** Fit      -0.016693
 **** Fit      -0.016568
 **** Fit      -0.025756
 **** Fit      -0.022657
 **** Fit      -0.014238
 **** Fit      -0.014692
 **** Fit      -0.015926
 **** Fit      -0.030649
 **** Fit      -0.026909
 **** Fit      -0.012642
 **** Fit      -0.013191
 **** Fit      -0.014143
 **** Fit      -0.035396
 **** Fit      -0.030069
 **** Fit      -0.011334
 **** Fit      -0.011867
 **** Fit      -0.012679
 **** Fit      -0.013787
 **** Fit      -0.036133
 **** Fit      -0.029416
 **** Fit      -0.010002
 **** Fit      -0.010362
 **** Fit      -0.010893
 **** Fit      -0.011639
 **** Fit      -0.012605
 **** Fit      -0.013777
 **** Fit      -0.036898
 **** Fit      -0.009056
 **** Fit      -0.009392
 **** Fit      -0.009881
 **** Fit      -0.010569
 **** Fit      -0.011471
 **** Fit      -0.012572
 **** Fit      -0.013842
 **** Fit      -0.036236
 **** Fit      -0.008259
 **** Fit      -0.008558
 **** Fit      -0.009002
 **** Fit      -0.009643
 **** Fit      -0.010500
 **** Fit      -0.011565
 **** Fit      -0.012804
 **** Fit      -0.014183
 **** Fit      -0.030414
 **** Fit      -0.007506
 **** Fit      -0.007736
 **** Fit      -0.008111
 **** Fit      -0.008684
 **** Fit      -0.009488
 **** Fit      -0.010526
 **** Fit      -0.011772
 **** Fit      -0.013182
 **** Fit      -0.014717
 **** Fit      -0.006811
 **** Fit      -0.006964
 **** Fit      -0.007268
 **** Fit      -0.012217
 **** Fit      -0.013817
 **** Fit      -0.015522
 **** Fit      -0.017327
 **** Fit      -0.006117
 **** Fit      -0.006162
 **** Fit      -0.016546
 **** Fit      -0.018542
 **** Fit      -0.022404
 **** Fit      -0.005544
 **** Fit      -0.005363
 **** Fit      -0.020031
 **** Fit      -0.024609
 **** Fit      -0.027398
 **** Fit      -0.030641
 **** Fit      -0.005265
 **** Fit      -0.004706
 **** Fit      -0.027534
 **** Fit      -0.030389
 **** Fit      -0.033624
 **** Fit      -0.037511
 **** Fit      -0.042366
 **** Fit      -0.007382
 **** Fit      -0.005547
 **** Fit      -0.004335
 **** Fit      -0.003676
 **** Fit      -0.031560
 **** Fit      -0.034484
 **** Fit      -0.037741
 **** Fit      -0.041590
 **** Fit      -0.006147
 **** Fit      -0.004055
 **** Fit      -0.002829
 **** Fit      -0.040109
 **** Fit      -0.043223
 **** Fit      -0.002956
 **** Fit      -0.008324
 **** Fit      -0.009209
 **** Fit      -0.010411
 **** Fit      -0.006860
 **** Fit      -0.007408
 **** Fit      -0.008258
 **** Fit      -0.009396
 **** Fit      -0.010803
 **** Fit      -0.012459
 **** Fit      -0.005659
 **** Fit      -0.005816
 **** Fit      -0.006304
 **** Fit      -0.007110
 **** Fit      -0.008213
 **** Fit      -0.009589
 **** Fit      -0.011218
 **** Fit      -0.013086
 **** Fit      -0.015180
 **** Fit      -0.018925
 **** Fit      -0.004670
 **** Fit      -0.004776
 **** Fit      -0.005249
 **** Fit      -0.006061
 **** Fit      -0.007178
 **** Fit      -0.008566
 **** Fit      -0.010199
 **** Fit      -0.012060
 **** Fit      -0.014135
 **** Fit      -0.016422
 **** Fit      -0.020927
 **** Fit      -0.023892
 **** Fit      -0.003640
 **** Fit      -0.003607
 **** Fit      -0.004029
 **** Fit      -0.004857
 **** Fit      -0.006032
 **** Fit      -0.007501
 **** Fit      -0.009223
 **** Fit      -0.011166
 **** Fit      -0.013312
 **** Fit      -0.015653
 **** Fit      -0.018188
 **** Fit      -0.023802
 **** Fit      -0.027162
 **** Fit      -0.002379
 **** Fit      -0.002408
 **** Fit      -0.003069
 **** Fit      -0.004258
 **** Fit      -0.005861
 **** Fit      -0.007786
 **** Fit      -0.009968
 **** Fit      -0.012364
 **** Fit      -0.014951
 **** Fit      -0.017716
 **** Fit      -0.020662
 **** Fit      -0.028025
 **** Fit      -0.031925
 **** Fit      -0.001139
 **** Fit      -0.000922
 **** Fit      -0.001737
 **** Fit      -0.003371
 **** Fit      -0.005583
 **** Fit      -0.008184
 **** Fit      -0.011055
 **** Fit      -0.014131
 **** Fit      -0.017374
 **** Fit      -0.020769
 **** Fit      -0.024315
 **** Fit      -0.005570
 **** Fit      -0.009208
 **** Fit      -0.013109
 **** Fit      -0.017169
 **** Fit      -0.021343
 **** Fit      -0.022077
 **** Fit      -0.021106
 **** Fit      -0.024584
 **** Fit      -0.025940
 **** Fit      -0.023177
 **** Fit      -0.019950
 **** Fit      -0.019156
 **** Fit      -0.020329
 **** Fit      -0.023669
 **** Fit      -0.027583
 **** Fit      -0.030662
 **** Fit      -0.031089
 **** Fit      -0.028443
 **** Fit      -0.016922
 **** Fit      -0.016940
 **** Fit      -0.018072
 **** Fit      -0.019792
 **** Fit      -0.022818
 **** Fit      -0.026705
 **** Fit      -0.031185
 **** Fit      -0.035453
 **** Fit      -0.038155
 **** Fit      -0.038040
 **** Fit      -0.035013
 **** Fit      -0.015267
 **** Fit      -0.016126
 **** Fit      -0.017601
 **** Fit      -0.019533
 **** Fit      -0.022419
 **** Fit      -0.026190
 **** Fit      -0.030919
 **** Fit      -0.036438
 **** Fit      -0.042104
 **** Fit      -0.041626
 **** Fit      -0.014667
 **** Fit      -0.015798
 **** Fit      -0.017379
 **** Fit      -0.019585
 **** Fit      -0.022417
 **** Fit      -0.026139
 **** Fit      -0.030963
 **** Fit      -0.037037
 **** Fit      -0.014509
 **** Fit      -0.015786
 **** Fit      -0.017433
 **** Fit      -0.019977
 **** Fit      -0.022715
 **** Fit      -0.026288
 **** Fit      -0.030964
 **** Fit      -0.037049
 **** Fit      -0.014806
 **** Fit      -0.016178
 **** Fit      -0.017857
 **** Fit      -0.020746
 **** Fit      -0.023552
 **** Fit      -0.027222
 **** Fit      -0.032084
 **** Fit      -0.038575
 **** Fit      -0.016787
 **** Fit      -0.018556
 **** Fit      -0.021934
 **** Fit      -0.024761
 **** Fit      -0.028438
 **** Fit      -0.033315
 **** Fit      -0.039891
 **** Fit      -0.017846
 **** Fit      -0.019697
 **** Fit      -0.023597
 **** Fit      -0.026492
 **** Fit      -0.030237
 **** Fit      -0.035203
 **** Fit      -0.041936
 **** Fit      -0.021277
 **** Fit      -0.025810
 **** Fit      -0.028902
 **** Fit      -0.032915
 **** Fit      -0.038280
 **** Fit      -0.031996
 **** Fit      -0.036324
 **** Fit      -0.042144
 **** Fit      -0.015547
 **** Fit      -0.017728
 **** Fit      -0.014816
 **** Fit      -0.013204
 **** Fit      -0.013784
 **** Fit      -0.020429
 **** Fit      -0.016966
 **** Fit      -0.013791
 **** Fit      -0.011920
 **** Fit      -0.011261
 **** Fit      -0.011454
 **** Fit      -0.012354
 **** Fit      -0.023761
 **** Fit      -0.019604
 **** Fit      -0.015488
 **** Fit      -0.012352
 **** Fit      -0.010588
 **** Fit      -0.009867
 **** Fit      -0.009695
 **** Fit      -0.009862
 **** Fit      -0.010352
 **** Fit      -0.011187
 **** Fit      -0.026100
 **** Fit      -0.020783
 **** Fit      -0.008366
 **** Fit      -0.008462
 **** Fit      -0.008611
 **** Fit      -0.008895
 **** Fit      -0.009377
 **** Fit      -0.010087
 **** Fit      -0.025842
 **** Fit      -0.007451
 **** Fit      -0.007693
 **** Fit      -0.007846
 **** Fit      -0.008088
 **** Fit      -0.008490
 **** Fit      -0.009075
 **** Fit      -0.007195
 **** Fit      -0.007273
 **** Fit      -0.007315
 **** Fit      -0.007469
 **** Fit      -0.007782
 **** Fit      -0.007166
 **** Fit      -0.006972
 **** Fit      -0.006924
 **** Fit      -0.007068
 **** Fit      -0.007400
 **** Fit      -0.006936
 **** Fit      -0.006613
 **** Fit      -0.006541
 **** Fit      -0.006704
 **** Fit      -0.007471
 **** Fit      -0.006677
 **** Fit      -0.006240
 **** Fit      -0.006127
 **** Fit      -0.006807
 **** Fit      -0.006026
 **** Fit      -0.006223
 **** Fit       0.020063
 **** Fit       0.021466
 **** Fit       0.019035
 **** Fit       0.023704
 **** Fit       0.022277
 **** Fit       0.019362
 **** Fit       0.024002
 **** Fit       0.024254
 **** Fit       0.022689
 **** Fit       0.019254
 **** Fit       0.026109
 **** Fit       0.023428
 **** Fit       0.018835
 **** Fit       0.019868
 **** Fit       0.026201
 **** Fit       0.027207
 **** Fit       0.030671
 **** Fit       0.027163
 **** Fit       0.029748
 **** Fit       0.033288
 **** Fit       0.037245
 **** Fit       0.015903
 **** Fit       0.019533
 **** Fit       0.018763
 **** Fit       0.021680
 **** Fit       0.024521
 **** Fit       0.021309
 **** Fit       0.024369
 **** Fit       0.027404
 **** Fit       0.016993
 **** Fit       0.019688
 **** Fit       0.022660
 **** Fit       0.025700
 **** Fit       0.028745
 **** Fit       0.031904
 **** Fit       0.020071
 **** Fit       0.021775
 **** Fit       0.024146
 **** Fit       0.026847
 **** Fit       0.029684
 **** Fit       0.032593
 **** Fit       0.025059
 **** Fit       0.026701
 **** Fit       0.029012
 **** Fit       0.031652
 **** Fit       0.034426
 **** Fit       0.037215
 **** Fit       0.029608
 **** Fit       0.031272
 **** Fit       0.033538
 **** Fit       0.036065
 **** Fit       0.038591
 **** Fit       0.033490
 **** Fit       0.034957
 **** Fit       0.037133
 **** Fit       0.039542
 **** Fit       0.041793
 **** Fit       0.043676
 **** Fit       0.038179
 **** Fit       0.040316
 **** Fit       0.042973
 **** Fit       0.021249
 **** Fit       0.026572
 **** Fit       0.021515
 **** Fit       0.023835
 **** Fit       0.023220
 **** Fit       0.018543
 **** Fit       0.020333
 **** Fit       0.022119
 **** Fit       0.021760
 **** Fit       0.018316
 **** Fit       0.010539
 **** Fit       0.022311
 **** Fit       0.022324
 **** Fit       0.022778
 **** Fit       0.022322
 **** Fit       0.019899
 **** Fit       0.014546
 **** Fit       0.026476
 **** Fit       0.025206
 **** Fit       0.023933
 **** Fit       0.021506
 **** Fit       0.016905
 **** Fit       0.009312
 **** Fit       0.038745
 **** Fit       0.040956
 **** Fit       0.041759
 **** Fit       0.041053
 **** Fit       0.038962
 **** Fit       0.035774
 **** Fit       0.032050
 **** Fit       0.028703
 **** Fit       0.028483
 **** Fit       0.026369
 **** Fit       0.023809
 **** Fit       0.019879
 **** Fit       0.013884
 **** Fit       0.005792
 **** Fit       0.005812
 **** Fit       0.014726
 **** Fit       0.021203
 **** Fit       0.025617
 **** Fit       0.029158
 **** Fit       0.032458
 **** Fit       0.035389
 **** Fit       0.037482
 **** Fit       0.038341
 **** Fit       0.037837
 **** Fit       0.036114
 **** Fit       0.033580
 **** Fit       0.030862
 **** Fit       0.028957
 **** Fit       0.026141
 **** Fit       0.022441
 **** Fit       0.017292
 **** Fit       0.010972
 **** Fit       0.005322
 **** Fit       0.003271
 **** Fit       0.006262
 **** Fit       0.012504
 **** Fit       0.018983
 **** Fit       0.024175
 **** Fit       0.028233
 **** Fit       0.031550
 **** Fit       0.034015
 **** Fit       0.035258
 **** Fit       0.035086
 **** Fit       0.033662
 **** Fit       0.031460
 **** Fit       0.028339
 **** Fit       0.024687
 **** Fit       0.019870
 **** Fit       0.014940
 **** Fit       0.012874
 **** Fit       0.015491
 **** Fit       0.020701
 **** Fit       0.025702
 **** Fit       0.029545
 **** Fit       0.031877
 **** Fit       0.032314
 **** Fit       0.030955
 **** Fit       0.026946
 **** Fit       0.022503
 **** Fit       0.019830
 **** Fit       0.022853
 **** Fit       0.027386
 **** Fit       0.029063
 **** Fit       0.025034
 -----------------------------------------------------------------
 Leave Link  602 at Sat Sep 14 22:37:52 2019, MaxMem=  1342177280 cpu:             105.4 elap:               2.2

 Test job not archived.
 1\1\GINC-C488-083\SP\RB3LYP\SVP\C54H83Ca1N15O23\PENGZHI\14-Sep-2019\0\
 \#b3lyp/svp scf=(tight,noincore) Test #IOP(5/87=12) Density=Current Po
 p=(MK,readradii) iop(6/33=2) iop(6/42=6)\\holoCaM_loop3_78.0\\0,1\C,0,
 54.42,48.53,26.06\C,0,54.37,47.54,27.21\O,0,53.69,47.91,28.17\H,0,55.3
 97,49.012,26.039\H,0,54.254,48.004,25.12\H,0,53.646,49.285,26.196\N,0,
 55.12,46.44,27.18\C,0,55.45,45.58,28.31\C,0,56.79,46.07,28.86\O,0,57.5
 1,46.79,28.17\C,0,55.39,44.1,27.95\C,0,55.41,43.06,29.07\O,0,56.41,42.
 99,29.8\O,0,54.46,42.29,29.31\H,0,55.49,46.26,26.26\H,0,54.71,45.73,29
 .1\H,0,56.21,43.91,27.26\H,0,54.47,43.93,27.39\N,0,57.17,45.7,30.08\C,
 0,58.45,45.96,30.72\C,0,59.22,44.82,31.37\O,0,60.31,45.14,31.84\C,0,58
 .32,47.17,31.64\C,0,59.48,48.15,31.77\C,0,59.27,49.31,32.75\C,0,60.35,
 50.38,32.71\N,0,59.76,51.69,33.\H,0,56.53,45.07,30.55\H,0,59.13,46.21,
 29.9\H,0,58.12,46.73,32.62\H,0,57.43,47.75,31.41\H,0,59.68,48.6,30.8\H
 ,0,60.32,47.58,32.17\H,0,59.16,49.,33.79\H,0,58.33,49.81,32.52\H,0,60.
 92,50.34,31.78\H,0,61.13,50.22,33.46\H,0,60.46,52.41,33.15\H,0,59.16,5
 2.05,32.28\H,0,59.22,51.6,33.85\N,0,58.83,43.56,31.21\C,0,59.59,42.39,
 31.64\C,0,59.55,41.3,30.58\O,0,60.5,40.52,30.59\C,0,59.16,41.98,33.04\
 C,0,57.8,41.31,33.16\O,0,57.13,41.16,32.12\O,0,57.36,40.87,34.25\H,0,5
 7.94,43.35,30.8\H,0,60.65,42.62,31.61\H,0,59.16,42.86,33.69\H,0,59.8,4
 1.23,33.51\N,0,58.64,41.26,29.61\C,0,58.79,40.4,28.45\C,0,58.28,39.,28
 .76\O,0,58.32,38.08,27.96\H,0,57.9,41.95,29.62\H,0,59.79,40.47,28.03\H
 ,0,58.27,40.94,27.66\N,0,57.59,38.86,29.89\C,0,57.02,37.67,30.5\C,0,55
 .8,37.12,29.77\O,0,55.43,35.98,30.03\C,0,56.68,37.86,31.97\C,0,55.5,38
 .78,32.27\N,0,55.08,38.91,33.53\O,0,54.94,39.39,31.37\H,0,57.53,39.77,
 30.34\H,0,57.78,36.91,30.36\H,0,57.52,38.36,32.45\H,0,56.44,36.9,32.43
 \H,0,55.56,38.4,34.25\H,0,54.51,39.69,33.83\N,0,55.14,37.86,28.87\C,0,
 53.91,37.53,28.17\C,0,52.6,37.8,28.89\O,0,51.61,37.16,28.52\H,0,55.62,
 38.68,28.54\H,0,54.01,36.45,27.99\H,0,53.85,37.93,27.16\N,0,52.63,38.7
 3,29.85\C,0,51.47,39.14,30.63\C,0,51.44,40.63,30.9\O,0,52.35,41.13,31.
 56\C,0,51.37,38.32,31.91\C,0,51.71,36.85,31.83\C,0,52.96,36.36,32.25\C
 ,0,50.85,35.95,31.18\C,0,53.37,35.04,32.05\C,0,51.3,34.66,30.88\C,0,52
 .5,34.14,31.4\O,0,52.89,32.86,31.14\H,0,53.53,39.17,29.97\H,0,50.54,38
 .95,30.1\H,0,50.36,38.37,32.3\H,0,52.06,38.79,32.61\H,0,53.63,37.14,32
 .57\H,0,49.9,36.3,30.79\H,0,54.35,34.65,32.28\H,0,50.72,33.95,30.3\H,0
 ,52.21,32.36,30.67\N,0,50.51,41.38,30.3\C,0,50.33,42.78,30.62\C,0,49.5
 4,42.98,31.9\O,0,48.52,42.34,32.14\C,0,49.68,43.54,29.46\C,0,50.77,43.
 97,28.5\C,0,48.83,44.74,29.85\C,0,50.35,44.33,27.07\H,0,49.81,40.89,29
 .76\H,0,51.27,43.29,30.81\H,0,49.,42.86,28.95\H,0,51.42,43.12,28.29\H,
 0,51.41,44.74,28.94\H,0,49.52,45.37,30.4\H,0,48.56,45.37,29.01\H,0,47.
 98,44.36,30.43\H,0,49.75,43.56,26.59\H,0,49.72,45.21,27.05\H,0,51.21,4
 4.62,26.46\N,0,50.12,43.8,32.78\C,0,49.73,44.22,34.11\C,0,49.33,45.69,
 34.14\O,0,49.62,46.44,33.21\C,0,50.87,43.92,35.08\O,0,51.99,44.73,34.7
 9\H,0,51.01,44.15,32.45\H,0,48.86,43.71,34.52\H,0,51.,42.84,35.05\H,0,
 50.62,44.16,36.11\H,0,52.41,44.45,33.98\N,0,48.51,46.09,35.1\C,0,47.89
 ,47.4,35.24\C,0,48.89,48.53,35.07\O,0,48.7,49.4,34.23\C,0,47.14,47.58,
 36.55\H,0,48.11,45.37,35.68\H,0,47.1,47.54,34.5\H,0,46.19,47.05,36.49\
 H,0,47.65,47.14,37.41\H,0,46.9,48.63,36.69\N,0,50.1,48.46,35.64\C,0,51
 .11,49.49,35.48\C,0,51.74,49.61,34.1\O,0,52.17,50.72,33.79\C,0,52.18,4
 9.19,36.53\H,0,50.2,47.71,36.3\H,0,50.6,50.42,35.76\H,0,52.45,48.14,36
 .4\H,0,53.09,49.76,36.36\H,0,51.62,49.31,37.46\N,0,51.71,48.58,33.26\C
 ,0,52.05,48.59,31.85\C,0,50.91,49.04,30.95\O,0,51.16,49.78,30.\C,0,52.
 53,47.17,31.57\C,0,53.62,46.62,32.49\C,0,53.83,45.15,32.18\O,0,54.73,4
 4.82,31.37\O,0,53.19,44.23,32.73\H,0,51.34,47.69,33.55\H,0,52.83,49.34
 ,31.73\H,0,52.87,47.15,30.54\H,0,51.71,46.46,31.64\H,0,53.42,46.66,33.
 57\H,0,54.55,47.18,32.37\N,0,49.65,48.75,31.3\C,0,48.47,49.16,30.58\H,
 0,47.692,49.443,31.289\H,0,48.709,50.013,29.945\H,0,48.115,48.335,29.9
 62\H,0,49.47,48.11,32.07\Ca,0,54.84,42.26,31.92\O,0,53.69,41.26,34.12\
 H,0,52.77,41.1,34.33\H,0,54.07,41.55,34.95\\Version=ES64L-G16RevA.03\S
 tate=1-A\HF=-5333.5807337\RMSD=2.364e-09\Dipole=2.6859288,12.458951,7.
 1578899\Quadrupole=2.331472,6.4547436,-8.7862156,180.7181041,9.9606698
 ,36.2575937\PG=C01 [X(C54H83Ca1N15O23)]\\@


 PERICLES, SOPHOCLES,
 PELOPONESIAN WAR,
 FRENCH VERBS, LATIN VERBS
 H2SO4.
 Job cpu time:       0 days  7 hours 28 minutes 54.2 seconds.
 Elapsed time:       0 days  0 hours  9 minutes 27.5 seconds.
 File lengths (MBytes):  RWF=   1517 Int=      0 D2E=      0 Chk=    171 Scr=      1
 Normal termination of Gaussian 16 at Sat Sep 14 22:37:53 2019.
