 Entering Gaussian System, Link 0=g16
 Initial command:
 /home1/apps/gaussian/16rA.03/g16/l1.exe "/scratch/01990/pengzhi/4328665/Gau-329700.inp" -scrdir="/scratch/01990/pengzhi/4328665/"
 Entering Link 1 = /home1/apps/gaussian/16rA.03/g16/l1.exe PID=    329705.
  
 Copyright (c) 1988,1990,1992,1993,1995,1998,2003,2009,2016,
            Gaussian, Inc.  All Rights Reserved.
  
 This is part of the Gaussian(R) 16 program.  It is based on
 the Gaussian(R) 09 system (copyright 2009, Gaussian, Inc.),
 the Gaussian(R) 03 system (copyright 2003, Gaussian, Inc.),
 the Gaussian(R) 98 system (copyright 1998, Gaussian, Inc.),
 the Gaussian(R) 94 system (copyright 1995, Gaussian, Inc.),
 the Gaussian 92(TM) system (copyright 1992, Gaussian, Inc.),
 the Gaussian 90(TM) system (copyright 1990, Gaussian, Inc.),
 the Gaussian 88(TM) system (copyright 1988, Gaussian, Inc.),
 the Gaussian 86(TM) system (copyright 1986, Carnegie Mellon
 University), and the Gaussian 82(TM) system (copyright 1983,
 Carnegie Mellon University). Gaussian is a federally registered
 trademark of Gaussian, Inc.
  
 This software contains proprietary and confidential information,
 including trade secrets, belonging to Gaussian, Inc.
  
 This software is provided under written license and may be
 used, copied, transmitted, or stored only in accord with that
 written license.
  
 The following legend is applicable only to US Government
 contracts under FAR:
  
                    RESTRICTED RIGHTS LEGEND
  
 Use, reproduction and disclosure by the US Government is
 subject to restrictions as set forth in subparagraphs (a)
 and (c) of the Commercial Computer Software - Restricted
 Rights clause in FAR 52.227-19.
  
 Gaussian, Inc.
 340 Quinnipiac St., Bldg. 40, Wallingford CT 06492
  
  
 ---------------------------------------------------------------
 Warning -- This program may not be used in any manner that
 competes with the business of Gaussian, Inc. or will provide
 assistance to any competitor of Gaussian, Inc.  The licensee
 of this program is prohibited from giving any competitor of
 Gaussian, Inc. access to this program.  By using this program,
 the user acknowledges that Gaussian, Inc. is engaged in the
 business of creating and licensing software in the field of
 computational chemistry and represents and warrants to the
 licensee that it is not a competitor of Gaussian, Inc. and that
 it will not use this program in any manner prohibited above.
 ---------------------------------------------------------------
  

 Cite this work as:
 Gaussian 16, Revision A.03,
 M. J. Frisch, G. W. Trucks, H. B. Schlegel, G. E. Scuseria, 
 M. A. Robb, J. R. Cheeseman, G. Scalmani, V. Barone, 
 G. A. Petersson, H. Nakatsuji, X. Li, M. Caricato, A. V. Marenich, 
 J. Bloino, B. G. Janesko, R. Gomperts, B. Mennucci, H. P. Hratchian, 
 J. V. Ortiz, A. F. Izmaylov, J. L. Sonnenberg, D. Williams-Young, 
 F. Ding, F. Lipparini, F. Egidi, J. Goings, B. Peng, A. Petrone, 
 T. Henderson, D. Ranasinghe, V. G. Zakrzewski, J. Gao, N. Rega, 
 G. Zheng, W. Liang, M. Hada, M. Ehara, K. Toyota, R. Fukuda, 
 J. Hasegawa, M. Ishida, T. Nakajima, Y. Honda, O. Kitao, H. Nakai, 
 T. Vreven, K. Throssell, J. A. Montgomery, Jr., J. E. Peralta, 
 F. Ogliaro, M. J. Bearpark, J. J. Heyd, E. N. Brothers, K. N. Kudin, 
 V. N. Staroverov, T. A. Keith, R. Kobayashi, J. Normand, 
 K. Raghavachari, A. P. Rendell, J. C. Burant, S. S. Iyengar, 
 J. Tomasi, M. Cossi, J. M. Millam, M. Klene, C. Adamo, R. Cammi, 
 J. W. Ochterski, R. L. Martin, K. Morokuma, O. Farkas, 
 J. B. Foresman, and D. J. Fox, Gaussian, Inc., Wallingford CT, 2016.
 
 ******************************************
 Gaussian 16:  ES64L-G16RevA.03 25-Dec-2016
                14-Sep-2019 
 ******************************************
 %chk=holoCaM_loop3_66.0.chk
 %nprocshared=48
 Will use up to   48 processors via shared memory.
 %mem=10GB
 %nosave
 ----------------------------------------------------------------------
 #b3lyp/svp scf=(tight,noincore) Test #IOP(5/87=12) Density=Current Pop
 =(MK,readradii) iop(6/33=2) iop(6/42=6)
 ----------------------------------------------------------------------
 1/30=1,38=1,172=1/1;
 2/12=2,17=6,18=5,40=1/2;
 3/5=18,7=101,11=2,25=1,30=1,74=-5/1,2,3;
 4//1;
 5/5=4,32=2,38=5,87=12/2;
 6/7=2,8=2,9=2,10=2,15=8,20=101,22=-1,28=1,33=2,42=6/1,2;
 99/5=1,9=1/99;
 ------------------
 holoCaM_loop3_66.0
 ------------------
 Symbolic Z-matrix:
 Charge =  0 Multiplicity = 1
 C                     87.4      60.8      5.219 
 C                     88.82     61.01     4.699 
 O                     89.48     60.06     4.289 
 H                     86.714    60.714    4.376 
 H                     87.361    59.887    5.813 
 H                     87.11     61.649    5.838 
 N                     89.28     62.26     4.739 
 C                     90.65     62.65     4.449 
 C                     91.62     62.18     5.529 
 O                     91.25     62.21     6.699 
 C                     90.84     64.14     4.219 
 C                     91.98     64.46     3.269 
 O                     91.77     64.95     2.139 
 O                     93.13     64.       3.449 
 H                     88.59     62.96     4.979 
 H                     90.96     62.13     3.539 
 H                     91.01     64.6      5.189 
 H                     89.89     64.46     3.779 
 N                     92.81     61.72     5.129 
 C                     93.92     61.29     5.949 
 C                     95.18     62.14     5.929 
 O                     96.17     61.88     6.609 
 C                     94.22     59.81     5.699 
 C                     93.05     58.84     5.799 
 C                     93.26     57.37     5.439 
 C                     94.21     56.72     6.449 
 N                     94.76     55.4      6.119 
 H                     92.86     61.64     4.119 
 H                     93.63     61.38     6.999 
 H                     94.97     59.41     6.379 
 H                     94.67     59.61     4.739 
 H                     92.3      59.18     5.089 
 H                     92.59     58.99     6.779 
 H                     93.68     57.29     4.439 
 H                     92.32     56.82     5.499 
 H                     93.59     56.62     7.349 
 H                     94.97     57.39     6.849 
 H                     94.16     54.87     5.489 
 H                     95.61     55.5      5.589 
 H                     94.95     54.76     6.879 
 N                     95.31     63.19     5.109 
 C                     96.52     63.94     4.839 
 C                     96.34     65.44     4.719 
 O                     97.38     66.11     4.789 
 C                     97.21     63.39     3.599 
 C                     96.33     63.48     2.359 
 O                     96.12     62.45     1.689 
 O                     95.75     64.54     2.039 
 H                     94.54     63.25     4.459 
 H                     97.29     63.79     5.609 
 H                     97.29     62.32     3.829 
 H                     98.17     63.86     3.379 
 N                     95.1      65.87     4.499 
 C                     94.64     67.24     4.389 
 C                     94.56     67.95     3.039 
 O                     94.1      69.08     2.919 
 H                     94.36     65.2      4.369 
 H                     95.3      67.84     5.009 
 H                     93.7      67.47     4.899 
 N                     94.89     67.23     1.969 
 C                     95.38     67.86     0.759 
 C                     94.28     68.34    -0.171 
 O                     94.57     68.81    -1.271 
 C                     96.44     66.98     0.109 
 C                     95.85     65.95    -0.841 
 N                     96.66     65.54    -1.811 
 O                     94.75     65.46    -0.581 
 H                     95.09     66.26     2.179 
 H                     95.91     68.72     1.169 
 H                     97.07     66.54     0.879 
 H                     96.98     67.66    -0.561 
 H                     97.62     65.83    -1.711 
 H                     96.45     64.7     -2.341 
 N                     93.       68.19     0.169 
 C                     91.8      68.66    -0.491 
 C                     91.18     67.71    -1.511 
 O                     90.27     68.04    -2.271 
 H                     92.93     68.       1.159 
 H                     91.96     69.63    -0.981 
 H                     91.11     68.89     0.319 
 N                     91.69     66.48    -1.551 
 C                     91.36     65.46    -2.531 
 C                     91.2      64.13    -1.821 
 O                     91.98     63.81    -0.931 
 C                     92.47     65.33    -3.581 
 C                     92.71     66.62    -4.321 
 C                     94.       67.15    -4.341 
 C                     91.71     67.27    -5.061 
 C                     94.31     68.38    -4.941 
 C                     92.03     68.46    -5.711 
 C                     93.33     69.01    -5.731 
 O                     93.54     70.21    -6.351 
 H                     92.44     66.26    -0.911 
 H                     90.4      65.76    -2.931 
 H                     92.17     64.54    -4.261 
 H                     93.4      65.03    -3.101 
 H                     94.69     66.62    -3.701 
 H                     90.79     66.72    -5.161 
 H                     95.29     68.77    -4.731 
 H                     91.25     69.01    -6.221 
 H                     92.79     70.51    -6.881 
 N                     90.32     63.24    -2.291 
 C                     90.1      61.84    -1.981 
 C                     90.7      60.97    -3.071 
 O                     90.53     61.15    -4.281 
 C                     88.64     61.65    -1.561 
 C                     88.44     62.24    -0.161 
 C                     88.18     60.21    -1.721 
 C                     88.91     61.47     1.059 
 H                     89.86     63.51    -3.151 
 H                     90.7      61.56    -1.121 
 H                     88.04     62.24    -2.241 
 H                     87.37     62.41    -0.061 
 H                     88.7      63.3     -0.211 
 H                     87.3      60.1     -1.081 
 H                     88.05     59.96    -2.771 
 H                     88.99     59.57    -1.351 
 H                     88.31     61.83     1.899 
 H                     88.59     60.42     1.039 
 H                     89.97     61.67     1.199 
 N                     91.49     60.      -2.601 
 C                     92.24     58.98    -3.291 
 C                     91.76     57.58    -2.931 
 O                     91.       57.4     -1.981 
 C                     93.71     59.21    -2.951 
 O                     93.79     58.75    -1.611 
 H                     91.58     60.05    -1.601 
 H                     92.11     59.09    -4.371 
 H                     94.13     60.2     -3.141 
 H                     94.18     58.41    -3.521 
 H                     93.83     59.52    -1.041 
 N                     92.03     56.59    -3.791 
 C                     91.55     55.23    -3.751 
 C                     92.13     54.5     -2.551 
 O                     91.49     53.62    -1.971 
 C                     91.79     54.53    -5.081 
 H                     92.65     56.87    -4.541 
 H                     90.48     55.31    -3.561 
 H                     91.14     53.65    -5.071 
 H                     91.56     55.26    -5.861 
 H                     92.85     54.31    -5.201 
 N                     93.38     54.68    -2.131 
 C                     93.88     54.22    -0.851 
 C                     93.15     54.8      0.359 
 O                     92.81     54.01     1.229 
 C                     95.36     54.55    -0.681 
 H                     93.94     55.36    -2.621 
 H                     93.82     53.13    -0.871 
 H                     95.44     55.63    -0.671 
 H                     95.78     54.09     0.219 
 H                     95.87     54.15    -1.551 
 N                     92.83     56.1      0.309 
 C                     91.86     56.59     1.269 
 C                     90.45     56.04     1.119 
 O                     89.74     55.95     2.119 
 C                     91.77     58.12     1.199 
 C                     92.94     58.94     1.719 
 C                     92.86     60.39     1.249 
 O                     93.03     61.23     2.149 
 O                     92.77     60.71     0.039 
 H                     93.15     56.69    -0.441 
 H                     92.21     56.47     2.299 
 H                     90.93     58.43     1.819 
 H                     91.49     58.4      0.179 
 H                     93.83     58.47     1.319 
 H                     92.95     58.92     2.809 
 N                     89.97     55.74    -0.091 
 C                     88.64     55.21    -0.251 
 H                     87.97     56.004   -0.581 
 H                     88.653    54.414   -0.995 
 H                     88.29     54.812    0.701 
 H                     90.39     56.32    -0.811 
 Ca                    93.71     63.43     0.88 
 O                     95.21     62.32    -1.091 
 H                     95.27     62.31    -2.041 
 H                     95.97     61.82    -0.791 
 
 Stoichiometry    C54H83CaN15O23
 Framework group  C1[X(C54H83CaN15O23)]
 Deg. of freedom   522
 Full point group                 C1      NOp   1
 Largest Abelian subgroup         C1      NOp   1
 Largest concise Abelian subgroup C1      NOp   1
                         Standard orientation:                         
 ---------------------------------------------------------------------
 Center     Atomic      Atomic             Coordinates (Angstroms)
 Number     Number       Type             X           Y           Z
 ---------------------------------------------------------------------
      1          6           0        2.508925    3.089487    5.949411
      2          6           0        2.015865    2.939661    4.512280
      3          8           0        2.796545    2.639852    3.614030
      4          1           0        2.616672    2.102877    6.400667
      5          1           0        3.473442    3.597053    5.952458
      6          1           0        1.788812    3.673995    6.521992
      7          7           0        0.718724    3.168793    4.310724
      8          6           0        0.081518    3.241318    3.006191
      9          6           0        0.497660    4.489977    2.234261
     10          8           0        0.652037    5.536589    2.856733
     11          6           0       -1.435318    3.159540    3.046440
     12          6           0       -2.035781    2.533083    1.800849
     13          8           0       -2.601128    1.419483    1.837934
     14          8           0       -1.753723    2.953694    0.656284
     15          1           0        0.170261    3.280708    5.153555
     16          1           0        0.444986    2.400789    2.409530
     17          1           0       -1.812129    4.169429    3.186220
     18          1           0       -1.640163    2.526043    3.915473
     19          7           0        0.712062    4.358323    0.921097
     20          6           0        1.038671    5.391244   -0.035877
     21          6           0       -0.003300    5.728425   -1.089966
     22          8           0        0.161437    6.607849   -1.932329
     23          6           0        2.414969    5.126158   -0.651047
     24          6           0        3.568354    4.880363    0.312845
     25          6           0        4.937974    4.487781   -0.239078
     26          6           0        5.526571    5.652301   -1.040667
     27          7           0        6.696602    5.379909   -1.883655
     28          1           0        0.675933    3.386780    0.631614
     29          1           0        1.108465    6.344635    0.494099
     30          1           0        2.756289    5.939070   -1.289462
     31          1           0        2.436383    4.291264   -1.334123
     32          1           0        3.282726    4.034545    0.933496
     33          1           0        3.599727    5.729030    1.000799
     34          1           0        4.842375    3.614635   -0.880386
     35          1           0        5.637549    4.285293    0.572891
     36          1           0        5.820909    6.369091   -0.263508
     37          1           0        4.787203    6.264933   -1.554981
     38          1           0        7.248239    4.591804   -1.548412
     39          1           0        6.403627    5.076687   -2.797779
     40          1           0        7.373369    6.120678   -2.012296
     41          7           0       -1.140898    5.032526   -1.205706
     42          6           0       -2.102943    5.109132   -2.286493
     43          6           0       -3.557474    5.045845   -1.865618
     44          8           0       -4.377415    5.405931   -2.722026
     45          6           0       -1.806980    4.038112   -3.326455
     46          6           0       -1.881965    2.631686   -2.746416
     47          8           0       -0.907895    1.866299   -2.885234
     48          8           0       -2.860547    2.250561   -2.068536
     49          1           0       -1.142284    4.222094   -0.603877
     50          1           0       -2.000634    6.030043   -2.877894
     51          1           0       -0.746283    4.211535   -3.547917
     52          1           0       -2.448214    4.085274   -4.208211
     53          7           0       -3.799598    4.562986   -0.649426
     54          6           0       -5.079757    4.433925    0.017759
     55          6           0       -5.905346    3.152471   -0.078572
     56          8           0       -6.951146    2.998345    0.542272
     57          1           0       -3.035052    4.216703   -0.093585
     58          1           0       -5.710924    5.231213   -0.364288
     59          1           0       -5.097859    4.717339    1.074143
     60          7           0       -5.365831    2.148928   -0.767067
     61          6           0       -6.191438    1.134628   -1.392103
     62          6           0       -6.580317    0.000749   -0.460228
     63          8           0       -7.204676   -0.965195   -0.898553
     64          6           0       -5.570139    0.702714   -2.714199
     65          6           0       -4.563412   -0.425020   -2.552288
     66          7           0       -4.395954   -1.196746   -3.620697
     67          8           0       -3.875445   -0.468281   -1.531245
     68          1           0       -4.424959    2.338155   -1.089485
     69          1           0       -7.078497    1.713978   -1.649162
     70          1           0       -5.160471    1.571478   -3.224907
     71          1           0       -6.396071    0.226713   -3.256564
     72          1           0       -4.826910   -0.851128   -4.463623
     73          1           0       -3.593501   -1.814339   -3.693150
     74          7           0       -6.187978    0.013616    0.813508
     75          6           0       -6.522242   -0.883326    1.899907
     76          6           0       -5.596454   -2.080937    2.089496
     77          8           0       -5.851369   -3.014193    2.850189
     78          1           0       -5.885846    0.943688    1.068030
     79          1           0       -7.551505   -1.257482    1.814909
     80          1           0       -6.549629   -0.249358    2.784461
     81          7           0       -4.477603   -2.076225    1.366482
     82          6           0       -3.526377   -3.170045    1.274682
     83          6           0       -2.120814   -2.605838    1.342971
     84          8           0       -1.840745   -1.577177    0.737730
     85          6           0       -3.691070   -3.929400   -0.047345
     86          6           0       -5.073645   -4.506051   -0.206281
     87          6           0       -5.806639   -4.182182   -1.347871
     88          6           0       -5.625614   -5.421006    0.703823
     89          6           0       -7.127060   -4.610274   -1.553359
     90          6           0       -6.913703   -5.897699    0.470181
     91          6           0       -7.667952   -5.570151   -0.677304
     92          8           0       -8.944695   -6.043515   -0.797103
     93          1           0       -4.317058   -1.290528    0.752149
     94          1           0       -3.705754   -3.768472    2.158598
     95          1           0       -2.938745   -4.710675   -0.058191
     96          1           0       -3.498356   -3.260668   -0.884578
     97          1           0       -5.332204   -3.430734   -1.961740
     98          1           0       -4.946169   -5.773693    1.460703
     99          1           0       -7.647787   -4.146895   -2.372336
    100          1           0       -7.379336   -6.543511    1.203061
    101          1           0       -9.172121   -6.717528   -0.143357
    102          7           0       -1.153397   -3.329147    1.915971
    103          6           0        0.288496   -3.171298    1.938941
    104          6           0        0.928871   -4.139093    0.960017
    105          8           0        0.652626   -5.340465    0.883895
    106          6           0        0.757945   -3.126652    3.395555
    107          6           0        0.359451   -1.780595    4.009909
    108          6           0        2.228810   -3.484204    3.535241
    109          6           0        1.166399   -0.535415    3.692796
    110          1           0       -1.433605   -4.255230    2.212542
    111          1           0        0.555613   -2.212291    1.506560
    112          1           0        0.205719   -3.891427    3.925336
    113          1           0        0.378267   -1.929367    5.087552
    114          1           0       -0.728088   -1.698773    3.944615
    115          1           0        2.548092   -3.082257    4.500952
    116          1           0        2.384662   -4.548544    3.377789
    117          1           0        2.763064   -2.972587    2.725661
    118          1           0        0.999936    0.157523    4.521848
    119          1           0        2.246569   -0.698791    3.801617
    120          1           0        0.811579   -0.132840    2.746627
    121          7           0        1.800626   -3.556545    0.131416
    122          6           0        2.605743   -4.110502   -0.928734
    123          6           0        4.095436   -3.966553   -0.645722
    124          8           0        4.496414   -3.240019    0.261948
    125          6           0        2.175503   -3.413963   -2.216804
    126          8           0        2.754816   -2.126177   -2.076789
    127          1           0        1.842227   -2.563047    0.279166
    128          1           0        2.405315   -5.180836   -1.026786
    129          1           0        1.115701   -3.433886   -2.479529
    130          1           0        2.823271   -3.904708   -2.941625
    131          1           0        2.053049   -1.515079   -1.845526
    132          7           0        4.931732   -4.798352   -1.279219
    133          6           0        6.348471   -4.961830   -1.060759
    134          6           0        7.096083   -3.707088   -1.480283
    135          8           0        8.125067   -3.355062   -0.899189
    136          6           0        6.855695   -6.237535   -1.717872
    137          1           0        4.476639   -5.358301   -1.989605
    138          1           0        6.465050   -5.029184    0.020570
    139          1           0        7.826256   -6.440076   -1.255283
    140          1           0        6.095085   -7.001502   -1.538913
    141          1           0        6.885452   -6.113739   -2.799625
    142          7           0        6.759304   -2.989001   -2.549034
    143          6           0        7.263592   -1.658641   -2.824421
    144          6           0        6.941584   -0.624350   -1.747410
    145          8           0        7.863771    0.086297   -1.371707
    146          6           0        6.715714   -1.117978   -4.141885
    147          1           0        5.949066   -3.285837   -3.070094
    148          1           0        8.340466   -1.762244   -2.971756
    149          1           0        5.644323   -1.019908   -4.017773
    150          1           0        7.193049   -0.174912   -4.426098
    151          1           0        6.932974   -1.864118   -4.898902
    152          7           0        5.713508   -0.666208   -1.213578
    153          6           0        5.492697    0.062597    0.020394
    154          6           0        6.247027   -0.456006    1.234947
    155          8           0        6.556815    0.336718    2.122539
    156          6           0        3.999286    0.071246    0.371890
    157          6           0        3.058362    0.908033   -0.480253
    158          6           0        1.599639    0.526467   -0.242901
    159          8           0        0.842716    1.492895   -0.049034
    160          8           0        1.172983   -0.646753   -0.369859
    161          1           0        5.003414   -1.278219   -1.579923
    162          1           0        5.661679    1.136600   -0.105155
    163          1           0        3.897945    0.490320    1.371993
    164          1           0        3.662966   -0.966035    0.462096
    165          1           0        3.331646    0.703812   -1.508168
    166          1           0        3.191194    1.965051   -0.248585
    167          7           0        6.492317   -1.762458    1.367292
    168          6           0        7.212889   -2.270287    2.506716
    169          1           0        6.508891   -2.699722    3.219604
    170          1           0        7.913155   -3.038900    2.180862
    171          1           0        7.760844   -1.457485    2.982433
    172          1           0        5.778835   -2.322073    0.910155
    173         20           0       -1.560181    0.567595   -0.580701
    174          8           0       -0.924443   -1.053240   -2.662929
    175          1           0       -1.024547   -1.959777   -2.935639
    176          1           0       -0.526709   -0.612450   -3.414669
 ---------------------------------------------------------------------
 Rotational constants (GHZ):           0.0230739           0.0151198           0.0115453
 Standard basis: SVP (5D, 7F)
 There are  1809 symmetry adapted cartesian basis functions of A   symmetry.
 There are  1717 symmetry adapted basis functions of A   symmetry.
  1717 basis functions,  2922 primitive gaussians,  1809 cartesian basis functions
   358 alpha electrons      358 beta electrons
       nuclear repulsion energy     21651.0506750237 Hartrees.
 NAtoms=  176 NActive=  176 NUniq=  176 SFac= 1.00D+00 NAtFMM=   60 NAOKFM=T Big=T
 Integral buffers will be    131072 words long.
 Raffenetti 2 integral format.
 Two-electron integral symmetry is turned on.
 One-electron integrals computed using PRISM.
 NBasis=  1717 RedAO= T EigKep=  3.14D-04  NBF=  1717
 NBsUse=  1717 1.00D-06 EigRej= -1.00D+00 NBFU=  1717
 ExpMin= 1.98D-02 ExpMax= 3.51D+04 ExpMxC= 5.28D+03 IAcc=3 IRadAn=         5 AccDes= 0.00D+00
 Harris functional with IExCor=  402 and IRadAn=       5 diagonalized for initial guess.
 HarFok:  IExCor=  402 AccDes= 0.00D+00 IRadAn=         5 IDoV= 1 UseB2=F ITyADJ=14
 ICtDFT=  3500011 ScaDFX=  1.000000  1.000000  1.000000  1.000000
 FoFCou: FMM=F IPFlag=           0 FMFlag=      100000 FMFlg1=        2001
         NFxFlg=           0 DoJE=T BraDBF=F KetDBF=T FulRan=T
         wScrn=  0.000000 ICntrl=       500 IOpCl=  0 I1Cent=   200000004 NGrid=           0
         NMat0=    1 NMatS0=      1 NMatT0=    0 NMatD0=    1 NMtDS0=    0 NMtDT0=    0
 Petite list used in FoFCou.
 Requested convergence on RMS density matrix=1.00D-08 within 128 cycles.
 Requested convergence on MAX density matrix=1.00D-06.
 Requested convergence on             energy=1.00D-06.
 No special actions if energy rises.
 EnCoef did     2 forward-backward iterations
 SCF Done:  E(RB3LYP) =  -5333.60888034     A.U. after   15 cycles
            NFock= 15  Conv=0.52D-08     -V/T= 2.0081
 SCF density gives NOpUse=  1 NOpAll=  1.
 Hyperfine terms turned off by default for NAtoms > 100.

 **********************************************************************

            Population analysis using the SCF density.

 **********************************************************************

 Orbital symmetries:
 BldTbl:  Degeneracy threshold= 1.00D-02
       Occupied  (A) (A) (A) (A) (A) (A) (A) (A) (A) (A) (A) (A)
                 (A) (A) (A) (A) (A) (A) (A) (A) (A) (A) (A) (A)
                 (A) (A) (A) (A) (A) (A) (A) (A) (A) (A) (A) (A)
                 (A) (A) (A) (A) (A) (A) (A) (A) (A) (A) (A) (A)
                 (A) (A) (A) (A) (A) (A) (A) (A) (A) (A) (A) (A)
                 (A) (A) (A) (A) (A) (A) (A) (A) (A) (A) (A) (A)
                 (A) (A) (A) (A) (A) (A) (A) (A) (A) (A) (A) (A)
                 (A) (A) (A) (A) (A) (A) (A) (A) (A) (A) (A) (A)
                 (A) (A) (A) (A) (A) (A) (A) (A) (A) (A) (A) (A)
                 (A) (A) (A) (A) (A) (A) (A) (A) (A) (A) (A) (A)
                 (A) (A) (A) (A) (A) (A) (A) (A) (A) (A) (A) (A)
                 (A) (A) (A) (A) (A) (A) (A) (A) (A) (A) (A) (A)
                 (A) (A) (A) (A) (A) (A) (A) (A) (A) (A) (A) (A)
                 (A) (A) (A) (A) (A) (A) (A) (A) (A) (A) (A) (A)
                 (A) (A) (A) (A) (A) (A) (A) (A) (A) (A) (A) (A)
                 (A) (A) (A) (A) (A) (A) (A) (A) (A) (A) (A) (A)
                 (A) (A) (A) (A) (A) (A) (A) (A) (A) (A) (A) (A)
                 (A) (A) (A) (A) (A) (A) (A) (A) (A) (A) (A) (A)
                 (A) (A) (A) (A) (A) (A) (A) (A) (A) (A) (A) (A)
                 (A) (A) (A) (A) (A) (A) (A) (A) (A) (A) (A) (A)
                 (A) (A) (A) (A) (A) (A) (A) (A) (A) (A) (A) (A)
                 (A) (A) (A) (A) (A) (A) (A) (A) (A) (A) (A) (A)
                 (A) (A) (A) (A) (A) (A) (A) (A) (A) (A) (A) (A)
                 (A) (A) (A) (A) (A) (A) (A) (A) (A) (A) (A) (A)
                 (A) (A) (A) (A) (A) (A) (A) (A) (A) (A) (A) (A)
                 (A) (A) (A) (A) (A) (A) (A) (A) (A) (A) (A) (A)
                 (A) (A) (A) (A) (A) (A) (A) (A) (A) (A) (A) (A)
                 (A) (A) (A) (A) (A) (A) (A) (A) (A) (A) (A) (A)
                 (A) (A) (A) (A) (A) (A) (A) (A) (A) (A) (A) (A)
                 (A) (A) (A) (A) (A) (A) (A) (A) (A) (A)
       Virtual   (A) (A) (A) (A) (A) (A) (A) (A) (A) (A) (A) (A)
                 (A) (A) (A) (A) (A) (A) (A) (A) (A) (A) (A) (A)
                 (A) (A) (A) (A) (A) (A) (A) (A) (A) (A) (A) (A)
                 (A) (A) (A) (A) (A) (A) (A) (A) (A) (A) (A) (A)
                 (A) (A) (A) (A) (A) (A) (A) (A) (A) (A) (A) (A)
                 (A) (A) (A) (A) (A) (A) (A) (A) (A) (A) (A) (A)
                 (A) (A) (A) (A) (A) (A) (A) (A) (A) (A) (A) (A)
                 (A) (A) (A) (A) (A) (A) (A) (A) (A) (A) (A) (A)
                 (A) (A) (A) (A) (A) (A) (A) (A) (A) (A) (A) (A)
                 (A) (A) (A) (A) (A) (A) (A) (A) (A) (A) (A) (A)
                 (A) (A) (A) (A) (A) (A) (A) (A) (A) (A) (A) (A)
                 (A) (A) (A) (A) (A) (A) (A) (A) (A) (A) (A) (A)
                 (A) (A) (A) (A) (A) (A) (A) (A) (A) (A) (A) (A)
                 (A) (A) (A) (A) (A) (A) (A) (A) (A) (A) (A) (A)
                 (A) (A) (A) (A) (A) (A) (A) (A) (A) (A) (A) (A)
                 (A) (A) (A) (A) (A) (A) (A) (A) (A) (A) (A) (A)
                 (A) (A) (A) (A) (A) (A) (A) (A) (A) (A) (A) (A)
                 (A) (A) (A) (A) (A) (A) (A) (A) (A) (A) (A) (A)
                 (A) (A) (A) (A) (A) (A) (A) (A) (A) (A) (A) (A)
                 (A) (A) (A) (A) (A) (A) (A) (A) (A) (A) (A) (A)
                 (A) (A) (A) (A) (A) (A) (A) (A) (A) (A) (A) (A)
                 (A) (A) (A) (A) (A) (A) (A) (A) (A) (A) (A) (A)
                 (A) (A) (A) (A) (A) (A) (A) (A) (A) (A) (A) (A)
                 (A) (A) (A) (A) (A) (A) (A) (A) (A) (A) (A) (A)
                 (A) (A) (A) (A) (A) (A) (A) (A) (A) (A) (A) (A)
                 (A) (A) (A) (A) (A) (A) (A) (A) (A) (A) (A) (A)
                 (A) (A) (A) (A) (A) (A) (A) (A) (A) (A) (A) (A)
                 (A) (A) (A) (A) (A) (A) (A) (A) (A) (A) (A) (A)
                 (A) (A) (A) (A) (A) (A) (A) (A) (A) (A) (A) (A)
                 (A) (A) (A) (A) (A) (A) (A) (A) (A) (A) (A) (A)
                 (A) (A) (A) (A) (A) (A) (A) (A) (A) (A) (A) (A)
                 (A) (A) (A) (A) (A) (A) (A) (A) (A) (A) (A) (A)
                 (A) (A) (A) (A) (A) (A) (A) (A) (A) (A) (A) (A)
                 (A) (A) (A) (A) (A) (A) (A) (A) (A) (A) (A) (A)
                 (A) (A) (A) (A) (A) (A) (A) (A) (A) (A) (A) (A)
                 (A) (A) (A) (A) (A) (A) (A) (A) (A) (A) (A) (A)
                 (A) (A) (A) (A) (A) (A) (A) (A) (A) (A) (A) (A)
                 (A) (A) (A) (A) (A) (A) (A) (A) (A) (A) (A) (A)
                 (A) (A) (A) (A) (A) (A) (A) (A) (A) (A) (A) (A)
                 (A) (A) (A) (A) (A) (A) (A) (A) (A) (A) (A) (A)
                 (A) (A) (A) (A) (A) (A) (A) (A) (A) (A) (A) (A)
                 (A) (A) (A) (A) (A) (A) (A) (A) (A) (A) (A) (A)
                 (A) (A) (A) (A) (A) (A) (A) (A) (A) (A) (A) (A)
                 (A) (A) (A) (A) (A) (A) (A) (A) (A) (A) (A) (A)
                 (A) (A) (A) (A) (A) (A) (A) (A) (A) (A) (A) (A)
                 (A) (A) (A) (A) (A) (A) (A) (A) (A) (A) (A) (A)
                 (A) (A) (A) (A) (A) (A) (A) (A) (A) (A) (A) (A)
                 (A) (A) (A) (A) (A) (A) (A) (A) (A) (A) (A) (A)
                 (A) (A) (A) (A) (A) (A) (A) (A) (A) (A) (A) (A)
                 (A) (A) (A) (A) (A) (A) (A) (A) (A) (A) (A) (A)
                 (A) (A) (A) (A) (A) (A) (A) (A) (A) (A) (A) (A)
                 (A) (A) (A) (A) (A) (A) (A) (A) (A) (A) (A) (A)
                 (A) (A) (A) (A) (A) (A) (A) (A) (A) (A) (A) (A)
                 (A) (A) (A) (A) (A) (A) (A) (A) (A) (A) (A) (A)
                 (A) (A) (A) (A) (A) (A) (A) (A) (A) (A) (A) (A)
                 (A) (A) (A) (A) (A) (A) (A) (A) (A) (A) (A) (A)
                 (A) (A) (A) (A) (A) (A) (A) (A) (A) (A) (A) (A)
                 (A) (A) (A) (A) (A) (A) (A) (A) (A) (A) (A) (A)
                 (A) (A) (A) (A) (A) (A) (A) (A) (A) (A) (A) (A)
                 (A) (A) (A) (A) (A) (A) (A) (A) (A) (A) (A) (A)
                 (A) (A) (A) (A) (A) (A) (A) (A) (A) (A) (A) (A)
                 (A) (A) (A) (A) (A) (A) (A) (A) (A) (A) (A) (A)
                 (A) (A) (A) (A) (A) (A) (A) (A) (A) (A) (A) (A)
                 (A) (A) (A) (A) (A) (A) (A) (A) (A) (A) (A) (A)
                 (A) (A) (A) (A) (A) (A) (A) (A) (A) (A) (A) (A)
                 (A) (A) (A) (A) (A) (A) (A) (A) (A) (A) (A) (A)
                 (A) (A) (A) (A) (A) (A) (A) (A) (A) (A) (A) (A)
                 (A) (A) (A) (A) (A) (A) (A) (A) (A) (A) (A) (A)
                 (A) (A) (A) (A) (A) (A) (A) (A) (A) (A) (A) (A)
                 (A) (A) (A) (A) (A) (A) (A) (A) (A) (A) (A) (A)
                 (A) (A) (A) (A) (A) (A) (A) (A) (A) (A) (A) (A)
                 (A) (A) (A) (A) (A) (A) (A) (A) (A) (A) (A) (A)
                 (A) (A) (A) (A) (A) (A) (A) (A) (A) (A) (A) (A)
                 (A) (A) (A) (A) (A) (A) (A) (A) (A) (A) (A) (A)
                 (A) (A) (A) (A) (A) (A) (A) (A) (A) (A) (A) (A)
                 (A) (A) (A) (A) (A) (A) (A) (A) (A) (A) (A) (A)
                 (A) (A) (A) (A) (A) (A) (A) (A) (A) (A) (A) (A)
                 (A) (A) (A) (A) (A) (A) (A) (A) (A) (A) (A) (A)
                 (A) (A) (A) (A) (A) (A) (A) (A) (A) (A) (A) (A)
                 (A) (A) (A) (A) (A) (A) (A) (A) (A) (A) (A) (A)
                 (A) (A) (A) (A) (A) (A) (A) (A) (A) (A) (A) (A)
                 (A) (A) (A) (A) (A) (A) (A) (A) (A) (A) (A) (A)
                 (A) (A) (A) (A) (A) (A) (A) (A) (A) (A) (A) (A)
                 (A) (A) (A) (A) (A) (A) (A) (A) (A) (A) (A) (A)
                 (A) (A) (A) (A) (A) (A) (A) (A) (A) (A) (A) (A)
                 (A) (A) (A) (A) (A) (A) (A) (A) (A) (A) (A) (A)
                 (A) (A) (A) (A) (A) (A) (A) (A) (A) (A) (A) (A)
                 (A) (A) (A) (A) (A) (A) (A) (A) (A) (A) (A) (A)
                 (A) (A) (A) (A) (A) (A) (A) (A) (A) (A) (A) (A)
                 (A) (A) (A) (A) (A) (A) (A) (A) (A) (A) (A) (A)
                 (A) (A) (A) (A) (A) (A) (A) (A) (A) (A) (A) (A)
                 (A) (A) (A) (A) (A) (A) (A) (A) (A) (A) (A) (A)
                 (A) (A) (A) (A) (A) (A) (A) (A) (A) (A) (A) (A)
                 (A) (A) (A) (A) (A) (A) (A) (A) (A) (A) (A) (A)
                 (A) (A) (A) (A) (A) (A) (A) (A) (A) (A) (A) (A)
                 (A) (A) (A) (A) (A) (A) (A) (A) (A) (A) (A) (A)
                 (A) (A) (A) (A) (A) (A) (A) (A) (A) (A) (A) (A)
                 (A) (A) (A) (A) (A) (A) (A) (A) (A) (A) (A) (A)
                 (A) (A) (A) (A) (A) (A) (A) (A) (A) (A) (A) (A)
                 (A) (A) (A) (A) (A) (A) (A) (A) (A) (A) (A) (A)
                 (A) (A) (A) (A) (A) (A) (A) (A) (A) (A) (A) (A)
                 (A) (A) (A) (A) (A) (A) (A) (A) (A) (A) (A) (A)
                 (A) (A) (A) (A) (A) (A) (A) (A) (A) (A) (A) (A)
                 (A) (A) (A) (A) (A) (A) (A) (A) (A) (A) (A) (A)
                 (A) (A) (A) (A) (A) (A) (A) (A) (A) (A) (A) (A)
                 (A) (A) (A) (A) (A) (A) (A) (A) (A) (A) (A) (A)
                 (A) (A) (A) (A) (A) (A) (A) (A) (A) (A) (A) (A)
                 (A) (A) (A) (A) (A) (A) (A) (A) (A) (A) (A) (A)
                 (A) (A) (A) (A) (A) (A) (A) (A) (A) (A) (A) (A)
                 (A) (A) (A) (A) (A) (A) (A) (A) (A) (A) (A) (A)
                 (A) (A) (A) (A) (A) (A) (A) (A) (A) (A) (A) (A)
                 (A) (A) (A) (A) (A) (A) (A) (A) (A) (A) (A) (A)
                 (A) (A) (A) (A) (A) (A) (A) (A) (A) (A) (A) (A)
                 (A) (A) (A)
 The electronic state is 1-A.
 Alpha  occ. eigenvalues -- -145.35182 -19.17123 -19.14834 -19.14446 -19.13929
 Alpha  occ. eigenvalues --  -19.11628 -19.11479 -19.10273 -19.09786 -19.09699
 Alpha  occ. eigenvalues --  -19.08868 -19.08330 -19.07677 -19.06964 -19.06626
 Alpha  occ. eigenvalues --  -19.06604 -19.06447 -19.06443 -19.06105 -19.06004
 Alpha  occ. eigenvalues --  -19.05679 -19.05593 -19.05272 -19.05069 -15.40852
 Alpha  occ. eigenvalues --  -14.57945 -14.39907 -14.37389 -14.37293 -14.36368
 Alpha  occ. eigenvalues --  -14.35539 -14.35447 -14.34232 -14.32756 -14.32527
 Alpha  occ. eigenvalues --  -14.32502 -14.31656 -14.31417 -14.30929 -14.30737
 Alpha  occ. eigenvalues --  -12.54455 -12.54451 -12.54433 -10.33176 -10.32463
 Alpha  occ. eigenvalues --  -10.30212 -10.29744 -10.29520 -10.28448 -10.28205
 Alpha  occ. eigenvalues --  -10.27412 -10.26925 -10.26723 -10.26661 -10.26002
 Alpha  occ. eigenvalues --  -10.25895 -10.25812 -10.25703 -10.25617 -10.25530
 Alpha  occ. eigenvalues --  -10.25514 -10.25040 -10.24840 -10.24600 -10.24485
 Alpha  occ. eigenvalues --  -10.24109 -10.23423 -10.23092 -10.22750 -10.22736
 Alpha  occ. eigenvalues --  -10.22701 -10.22099 -10.21731 -10.21538 -10.21328
 Alpha  occ. eigenvalues --  -10.21151 -10.20827 -10.20156 -10.19838 -10.19645
 Alpha  occ. eigenvalues --  -10.19324 -10.18780 -10.18756 -10.18651 -10.18067
 Alpha  occ. eigenvalues --  -10.17883 -10.17776 -10.17350 -10.17193 -10.17101
 Alpha  occ. eigenvalues --  -10.17023 -10.16899 -10.16801 -10.16790 -10.16676
 Alpha  occ. eigenvalues --  -10.16345 -10.15689  -1.77693  -1.12878  -1.07281
 Alpha  occ. eigenvalues --   -1.05554  -1.05484  -1.05366  -1.04288  -1.04213
 Alpha  occ. eigenvalues --   -1.03899  -1.03697  -1.03133  -1.02928  -1.02698
 Alpha  occ. eigenvalues --   -1.02574  -1.02195  -1.01493  -1.00881  -1.00759
 Alpha  occ. eigenvalues --   -1.00430  -1.00237  -0.99690  -0.99532  -0.99188
 Alpha  occ. eigenvalues --   -0.99160  -0.97816  -0.96761  -0.93643  -0.93381
 Alpha  occ. eigenvalues --   -0.93088  -0.92714  -0.92609  -0.92061  -0.90744
 Alpha  occ. eigenvalues --   -0.90496  -0.90294  -0.90107  -0.89797  -0.89507
 Alpha  occ. eigenvalues --   -0.88944  -0.88367  -0.87781  -0.87472  -0.87286
 Alpha  occ. eigenvalues --   -0.82994  -0.82574  -0.81325  -0.80228  -0.79659
 Alpha  occ. eigenvalues --   -0.78324  -0.77891  -0.77701  -0.77623  -0.77161
 Alpha  occ. eigenvalues --   -0.75531  -0.74364  -0.73716  -0.72548  -0.72062
 Alpha  occ. eigenvalues --   -0.71960  -0.71841  -0.71489  -0.71224  -0.71062
 Alpha  occ. eigenvalues --   -0.70429  -0.69938  -0.69568  -0.68143  -0.67750
 Alpha  occ. eigenvalues --   -0.67115  -0.66260  -0.65950  -0.64477  -0.64398
 Alpha  occ. eigenvalues --   -0.64086  -0.62991  -0.62726  -0.61839  -0.61547
 Alpha  occ. eigenvalues --   -0.60719  -0.60514  -0.60258  -0.60254  -0.59877
 Alpha  occ. eigenvalues --   -0.59424  -0.58793  -0.58557  -0.57798  -0.57716
 Alpha  occ. eigenvalues --   -0.56860  -0.56633  -0.56435  -0.56277  -0.56239
 Alpha  occ. eigenvalues --   -0.55844  -0.55748  -0.55589  -0.55195  -0.54997
 Alpha  occ. eigenvalues --   -0.54645  -0.54435  -0.53971  -0.53814  -0.53684
 Alpha  occ. eigenvalues --   -0.52855  -0.52818  -0.52551  -0.52139  -0.51250
 Alpha  occ. eigenvalues --   -0.51082  -0.50478  -0.50149  -0.50073  -0.49768
 Alpha  occ. eigenvalues --   -0.49725  -0.49251  -0.49107  -0.49052  -0.48725
 Alpha  occ. eigenvalues --   -0.48462  -0.48351  -0.47948  -0.47882  -0.47611
 Alpha  occ. eigenvalues --   -0.47481  -0.47360  -0.47006  -0.46443  -0.46294
 Alpha  occ. eigenvalues --   -0.45949  -0.45733  -0.45595  -0.45558  -0.45341
 Alpha  occ. eigenvalues --   -0.45286  -0.45131  -0.45040  -0.44798  -0.44616
 Alpha  occ. eigenvalues --   -0.44485  -0.44276  -0.44037  -0.43757  -0.43665
 Alpha  occ. eigenvalues --   -0.43588  -0.43489  -0.43257  -0.43008  -0.42993
 Alpha  occ. eigenvalues --   -0.42896  -0.42817  -0.42743  -0.42561  -0.42436
 Alpha  occ. eigenvalues --   -0.42317  -0.41984  -0.41787  -0.41552  -0.41522
 Alpha  occ. eigenvalues --   -0.41419  -0.41290  -0.41197  -0.40878  -0.40814
 Alpha  occ. eigenvalues --   -0.40709  -0.40586  -0.40549  -0.40352  -0.40332
 Alpha  occ. eigenvalues --   -0.39942  -0.39819  -0.39698  -0.39379  -0.39260
 Alpha  occ. eigenvalues --   -0.39206  -0.38921  -0.38842  -0.38768  -0.38735
 Alpha  occ. eigenvalues --   -0.38718  -0.38581  -0.38457  -0.38357  -0.38136
 Alpha  occ. eigenvalues --   -0.38075  -0.38033  -0.37944  -0.37584  -0.37448
 Alpha  occ. eigenvalues --   -0.37406  -0.37327  -0.37184  -0.37069  -0.36793
 Alpha  occ. eigenvalues --   -0.36625  -0.36386  -0.36281  -0.36016  -0.35672
 Alpha  occ. eigenvalues --   -0.35566  -0.35475  -0.35425  -0.35294  -0.35022
 Alpha  occ. eigenvalues --   -0.34726  -0.34587  -0.34337  -0.34274  -0.33999
 Alpha  occ. eigenvalues --   -0.33603  -0.33445  -0.33314  -0.33173  -0.32951
 Alpha  occ. eigenvalues --   -0.32440  -0.32261  -0.32189  -0.32147  -0.32109
 Alpha  occ. eigenvalues --   -0.31973  -0.31168  -0.30922  -0.30848  -0.30321
 Alpha  occ. eigenvalues --   -0.29838  -0.29624  -0.28414  -0.28139  -0.27538
 Alpha  occ. eigenvalues --   -0.27062  -0.27027  -0.26470  -0.26392  -0.26123
 Alpha  occ. eigenvalues --   -0.25938  -0.25769  -0.25399  -0.25205  -0.25122
 Alpha  occ. eigenvalues --   -0.25007  -0.24836  -0.24671  -0.24445  -0.24311
 Alpha  occ. eigenvalues --   -0.24233  -0.23628  -0.23540  -0.23463  -0.23371
 Alpha  occ. eigenvalues --   -0.23225  -0.22886  -0.22715  -0.22554  -0.22033
 Alpha  occ. eigenvalues --   -0.21918  -0.21432  -0.21242  -0.21146  -0.20798
 Alpha  occ. eigenvalues --   -0.20346  -0.20338  -0.20128
 Alpha virt. eigenvalues --   -0.09715  -0.03871  -0.03220  -0.02819  -0.01405
 Alpha virt. eigenvalues --   -0.00649  -0.00418   0.00037   0.00471   0.00545
 Alpha virt. eigenvalues --    0.00841   0.01804   0.02001   0.02408   0.02629
 Alpha virt. eigenvalues --    0.02908   0.03453   0.03604   0.03707   0.04030
 Alpha virt. eigenvalues --    0.04198   0.04246   0.04507   0.04806   0.04894
 Alpha virt. eigenvalues --    0.04989   0.05137   0.05319   0.05493   0.05531
 Alpha virt. eigenvalues --    0.05636   0.06241   0.06381   0.06629   0.07093
 Alpha virt. eigenvalues --    0.07145   0.07397   0.07525   0.07595   0.08210
 Alpha virt. eigenvalues --    0.08356   0.08558   0.08876   0.09253   0.09369
 Alpha virt. eigenvalues --    0.09695   0.09974   0.10180   0.10195   0.10396
 Alpha virt. eigenvalues --    0.10490   0.10513   0.10663   0.10889   0.10939
 Alpha virt. eigenvalues --    0.11225   0.11401   0.11619   0.11751   0.12003
 Alpha virt. eigenvalues --    0.12212   0.12455   0.12684   0.12803   0.12977
 Alpha virt. eigenvalues --    0.13015   0.13248   0.13283   0.13569   0.13716
 Alpha virt. eigenvalues --    0.13930   0.14140   0.14327   0.14639   0.14750
 Alpha virt. eigenvalues --    0.14951   0.14985   0.15065   0.15199   0.15401
 Alpha virt. eigenvalues --    0.15491   0.15662   0.15907   0.16000   0.16147
 Alpha virt. eigenvalues --    0.16346   0.16563   0.16688   0.16833   0.16970
 Alpha virt. eigenvalues --    0.17030   0.17364   0.17565   0.17778   0.17974
 Alpha virt. eigenvalues --    0.18078   0.18229   0.18447   0.18665   0.18839
 Alpha virt. eigenvalues --    0.18917   0.19266   0.19386   0.19458   0.19623
 Alpha virt. eigenvalues --    0.19758   0.19868   0.20183   0.20374   0.20521
 Alpha virt. eigenvalues --    0.20758   0.21007   0.21202   0.21442   0.21658
 Alpha virt. eigenvalues --    0.21803   0.21994   0.22090   0.22337   0.22571
 Alpha virt. eigenvalues --    0.22765   0.22951   0.23185   0.23277   0.23449
 Alpha virt. eigenvalues --    0.23665   0.24117   0.24333   0.24499   0.24732
 Alpha virt. eigenvalues --    0.24768   0.24915   0.25068   0.25278   0.25602
 Alpha virt. eigenvalues --    0.25784   0.26015   0.26239   0.26356   0.26665
 Alpha virt. eigenvalues --    0.26781   0.27307   0.27557   0.27611   0.27950
 Alpha virt. eigenvalues --    0.28237   0.28318   0.28428   0.28637   0.29132
 Alpha virt. eigenvalues --    0.29377   0.29526   0.29754   0.30316   0.30392
 Alpha virt. eigenvalues --    0.30582   0.30775   0.31162   0.31505   0.31608
 Alpha virt. eigenvalues --    0.31976   0.32144   0.32245   0.32340   0.32423
 Alpha virt. eigenvalues --    0.32674   0.32973   0.33338   0.33397   0.33527
 Alpha virt. eigenvalues --    0.33889   0.34562   0.34714   0.34997   0.35345
 Alpha virt. eigenvalues --    0.35737   0.36097   0.36548   0.36847   0.37083
 Alpha virt. eigenvalues --    0.37111   0.37454   0.37807   0.37963   0.38305
 Alpha virt. eigenvalues --    0.38449   0.38645   0.38927   0.39180   0.39473
 Alpha virt. eigenvalues --    0.40106   0.40201   0.40415   0.40682   0.40957
 Alpha virt. eigenvalues --    0.41203   0.41685   0.41761   0.41881   0.42021
 Alpha virt. eigenvalues --    0.42520   0.42715   0.42898   0.43140   0.43327
 Alpha virt. eigenvalues --    0.43478   0.43717   0.43868   0.44182   0.44300
 Alpha virt. eigenvalues --    0.44466   0.44834   0.44917   0.45136   0.45317
 Alpha virt. eigenvalues --    0.45522   0.45770   0.45850   0.46165   0.46249
 Alpha virt. eigenvalues --    0.46384   0.46532   0.46649   0.47017   0.47198
 Alpha virt. eigenvalues --    0.47451   0.47557   0.47840   0.48020   0.48188
 Alpha virt. eigenvalues --    0.48292   0.48457   0.48918   0.49211   0.49353
 Alpha virt. eigenvalues --    0.49499   0.49675   0.49774   0.49996   0.50207
 Alpha virt. eigenvalues --    0.50262   0.50467   0.50749   0.50958   0.51097
 Alpha virt. eigenvalues --    0.51271   0.51563   0.51931   0.52191   0.52261
 Alpha virt. eigenvalues --    0.52565   0.52644   0.52778   0.53048   0.53289
 Alpha virt. eigenvalues --    0.53449   0.53581   0.53706   0.53820   0.54295
 Alpha virt. eigenvalues --    0.54330   0.54516   0.54695   0.54857   0.54976
 Alpha virt. eigenvalues --    0.55222   0.55563   0.55626   0.55729   0.55851
 Alpha virt. eigenvalues --    0.55917   0.56184   0.56432   0.56544   0.56900
 Alpha virt. eigenvalues --    0.57079   0.57279   0.57500   0.57744   0.57986
 Alpha virt. eigenvalues --    0.58128   0.58226   0.58454   0.58627   0.58795
 Alpha virt. eigenvalues --    0.58966   0.59027   0.59177   0.59410   0.59705
 Alpha virt. eigenvalues --    0.59893   0.60089   0.60265   0.60313   0.60434
 Alpha virt. eigenvalues --    0.60742   0.60845   0.60945   0.61134   0.61203
 Alpha virt. eigenvalues --    0.61476   0.61512   0.61872   0.61922   0.62023
 Alpha virt. eigenvalues --    0.62079   0.62268   0.62444   0.62517   0.62572
 Alpha virt. eigenvalues --    0.62735   0.62860   0.62998   0.63121   0.63235
 Alpha virt. eigenvalues --    0.63336   0.63498   0.63579   0.63717   0.63917
 Alpha virt. eigenvalues --    0.63958   0.64130   0.64243   0.64265   0.64477
 Alpha virt. eigenvalues --    0.64632   0.64718   0.64873   0.64927   0.64996
 Alpha virt. eigenvalues --    0.65050   0.65177   0.65424   0.65547   0.65750
 Alpha virt. eigenvalues --    0.65792   0.65883   0.66061   0.66204   0.66265
 Alpha virt. eigenvalues --    0.66393   0.66449   0.66592   0.66667   0.66800
 Alpha virt. eigenvalues --    0.66919   0.66965   0.67032   0.67131   0.67188
 Alpha virt. eigenvalues --    0.67293   0.67447   0.67515   0.67636   0.67753
 Alpha virt. eigenvalues --    0.67847   0.67985   0.68095   0.68129   0.68245
 Alpha virt. eigenvalues --    0.68405   0.68449   0.68552   0.68634   0.68697
 Alpha virt. eigenvalues --    0.68824   0.69030   0.69044   0.69224   0.69238
 Alpha virt. eigenvalues --    0.69410   0.69533   0.69662   0.69829   0.69875
 Alpha virt. eigenvalues --    0.69981   0.70038   0.70204   0.70322   0.70516
 Alpha virt. eigenvalues --    0.70564   0.70714   0.70942   0.71029   0.71263
 Alpha virt. eigenvalues --    0.71513   0.71685   0.71806   0.71967   0.72013
 Alpha virt. eigenvalues --    0.72147   0.72233   0.72339   0.72574   0.72852
 Alpha virt. eigenvalues --    0.72930   0.73239   0.73401   0.73458   0.73664
 Alpha virt. eigenvalues --    0.73898   0.74026   0.74119   0.74277   0.74641
 Alpha virt. eigenvalues --    0.74886   0.75044   0.75165   0.75264   0.75663
 Alpha virt. eigenvalues --    0.75971   0.76012   0.76265   0.76647   0.76940
 Alpha virt. eigenvalues --    0.77066   0.77467   0.77677   0.77779   0.78010
 Alpha virt. eigenvalues --    0.78183   0.78275   0.78751   0.78780   0.79169
 Alpha virt. eigenvalues --    0.79590   0.79798   0.79956   0.80019   0.80366
 Alpha virt. eigenvalues --    0.80885   0.81067   0.81357   0.81474   0.81542
 Alpha virt. eigenvalues --    0.81719   0.82215   0.82407   0.82564   0.82816
 Alpha virt. eigenvalues --    0.83241   0.83470   0.83634   0.83841   0.84131
 Alpha virt. eigenvalues --    0.84571   0.84697   0.84967   0.85045   0.85197
 Alpha virt. eigenvalues --    0.85473   0.85762   0.86252   0.86489   0.86734
 Alpha virt. eigenvalues --    0.87075   0.87232   0.87358   0.87628   0.88161
 Alpha virt. eigenvalues --    0.88370   0.88678   0.88954   0.89387   0.89832
 Alpha virt. eigenvalues --    0.89896   0.90008   0.90772   0.91114   0.91333
 Alpha virt. eigenvalues --    0.91980   0.92213   0.92314   0.92437   0.92802
 Alpha virt. eigenvalues --    0.93056   0.93379   0.93958   0.94070   0.94154
 Alpha virt. eigenvalues --    0.94471   0.94849   0.94910   0.95465   0.95973
 Alpha virt. eigenvalues --    0.96179   0.96624   0.96820   0.96978   0.97189
 Alpha virt. eigenvalues --    0.97512   0.97529   0.97829   0.98531   0.98727
 Alpha virt. eigenvalues --    0.98983   0.99116   0.99231   0.99618   0.99652
 Alpha virt. eigenvalues --    0.99872   1.00351   1.00513   1.01019   1.01063
 Alpha virt. eigenvalues --    1.01362   1.01574   1.01837   1.01988   1.02539
 Alpha virt. eigenvalues --    1.02932   1.03226   1.03567   1.03861   1.04024
 Alpha virt. eigenvalues --    1.04282   1.04720   1.04791   1.04928   1.05507
 Alpha virt. eigenvalues --    1.05673   1.06000   1.06100   1.06673   1.06893
 Alpha virt. eigenvalues --    1.07212   1.07427   1.07642   1.07991   1.08337
 Alpha virt. eigenvalues --    1.08695   1.08845   1.09154   1.09639   1.09928
 Alpha virt. eigenvalues --    1.10218   1.10647   1.10665   1.10800   1.11115
 Alpha virt. eigenvalues --    1.11454   1.11581   1.12387   1.12596   1.12845
 Alpha virt. eigenvalues --    1.13032   1.13289   1.13692   1.13844   1.14278
 Alpha virt. eigenvalues --    1.14416   1.14836   1.14925   1.15053   1.15688
 Alpha virt. eigenvalues --    1.15828   1.16159   1.16407   1.16583   1.16852
 Alpha virt. eigenvalues --    1.17079   1.17475   1.17790   1.17932   1.18021
 Alpha virt. eigenvalues --    1.18333   1.18949   1.19102   1.19276   1.19654
 Alpha virt. eigenvalues --    1.19698   1.19958   1.20261   1.20434   1.20901
 Alpha virt. eigenvalues --    1.21387   1.21457   1.21787   1.21847   1.22015
 Alpha virt. eigenvalues --    1.22414   1.22801   1.22976   1.23489   1.23512
 Alpha virt. eigenvalues --    1.23835   1.23991   1.24327   1.24412   1.24678
 Alpha virt. eigenvalues --    1.25103   1.25330   1.25588   1.25789   1.26189
 Alpha virt. eigenvalues --    1.26742   1.27015   1.27156   1.27679   1.27782
 Alpha virt. eigenvalues --    1.28142   1.28694   1.28841   1.29174   1.29260
 Alpha virt. eigenvalues --    1.29625   1.29636   1.29828   1.30153   1.30316
 Alpha virt. eigenvalues --    1.30466   1.31007   1.31297   1.31991   1.32451
 Alpha virt. eigenvalues --    1.32538   1.32765   1.32901   1.33221   1.33312
 Alpha virt. eigenvalues --    1.33759   1.33896   1.33936   1.34095   1.34599
 Alpha virt. eigenvalues --    1.34725   1.34889   1.35173   1.35217   1.35786
 Alpha virt. eigenvalues --    1.36172   1.36386   1.36622   1.36773   1.37174
 Alpha virt. eigenvalues --    1.37458   1.37836   1.38098   1.38297   1.38621
 Alpha virt. eigenvalues --    1.38889   1.39152   1.39465   1.39529   1.39818
 Alpha virt. eigenvalues --    1.39914   1.40429   1.40736   1.40978   1.41271
 Alpha virt. eigenvalues --    1.41702   1.41801   1.41970   1.42259   1.42403
 Alpha virt. eigenvalues --    1.42763   1.43094   1.43128   1.43285   1.43606
 Alpha virt. eigenvalues --    1.43933   1.44220   1.44432   1.44761   1.44828
 Alpha virt. eigenvalues --    1.45643   1.45778   1.45958   1.46367   1.46485
 Alpha virt. eigenvalues --    1.46910   1.47055   1.47667   1.47853   1.48022
 Alpha virt. eigenvalues --    1.48392   1.48566   1.48768   1.49169   1.49286
 Alpha virt. eigenvalues --    1.49765   1.49931   1.50283   1.50396   1.51127
 Alpha virt. eigenvalues --    1.51442   1.51616   1.51710   1.51863   1.52536
 Alpha virt. eigenvalues --    1.52663   1.52900   1.53044   1.53236   1.53434
 Alpha virt. eigenvalues --    1.54066   1.54298   1.54557   1.54929   1.55186
 Alpha virt. eigenvalues --    1.55559   1.55683   1.56011   1.56418   1.57274
 Alpha virt. eigenvalues --    1.57551   1.58159   1.58258   1.58540   1.58644
 Alpha virt. eigenvalues --    1.58978   1.59134   1.59756   1.59924   1.59956
 Alpha virt. eigenvalues --    1.60175   1.60337   1.60462   1.60737   1.61008
 Alpha virt. eigenvalues --    1.61308   1.61548   1.62382   1.62708   1.62901
 Alpha virt. eigenvalues --    1.63247   1.63339   1.64121   1.64527   1.64758
 Alpha virt. eigenvalues --    1.65020   1.65126   1.65488   1.65614   1.65787
 Alpha virt. eigenvalues --    1.66199   1.66654   1.66978   1.67607   1.68193
 Alpha virt. eigenvalues --    1.68881   1.68953   1.69124   1.69565   1.69897
 Alpha virt. eigenvalues --    1.70142   1.70594   1.70792   1.70845   1.71045
 Alpha virt. eigenvalues --    1.71601   1.72064   1.72374   1.72510   1.72610
 Alpha virt. eigenvalues --    1.72880   1.73108   1.73505   1.73782   1.73905
 Alpha virt. eigenvalues --    1.73947   1.74072   1.74523   1.74636   1.74704
 Alpha virt. eigenvalues --    1.74848   1.74971   1.75190   1.75436   1.75544
 Alpha virt. eigenvalues --    1.75618   1.75777   1.75984   1.76193   1.76681
 Alpha virt. eigenvalues --    1.76879   1.76942   1.77206   1.77249   1.77344
 Alpha virt. eigenvalues --    1.77521   1.77790   1.77875   1.78154   1.78282
 Alpha virt. eigenvalues --    1.78361   1.78550   1.78829   1.78846   1.79135
 Alpha virt. eigenvalues --    1.79319   1.79554   1.79665   1.79739   1.79874
 Alpha virt. eigenvalues --    1.80008   1.80087   1.80222   1.80364   1.80695
 Alpha virt. eigenvalues --    1.80941   1.80970   1.81170   1.81361   1.81421
 Alpha virt. eigenvalues --    1.81466   1.81627   1.81980   1.82154   1.82285
 Alpha virt. eigenvalues --    1.82351   1.82608   1.82753   1.82919   1.83111
 Alpha virt. eigenvalues --    1.83426   1.83611   1.83728   1.84025   1.84155
 Alpha virt. eigenvalues --    1.84282   1.84492   1.84829   1.84883   1.85078
 Alpha virt. eigenvalues --    1.85485   1.85583   1.85699   1.85902   1.86016
 Alpha virt. eigenvalues --    1.86200   1.86284   1.86846   1.86865   1.87036
 Alpha virt. eigenvalues --    1.87213   1.87707   1.87724   1.87904   1.88070
 Alpha virt. eigenvalues --    1.88261   1.88401   1.88498   1.88641   1.88844
 Alpha virt. eigenvalues --    1.89218   1.89480   1.89602   1.89765   1.89947
 Alpha virt. eigenvalues --    1.90197   1.90396   1.90527   1.90638   1.90940
 Alpha virt. eigenvalues --    1.91035   1.91092   1.91147   1.91508   1.91622
 Alpha virt. eigenvalues --    1.91811   1.92131   1.92348   1.92591   1.92878
 Alpha virt. eigenvalues --    1.93127   1.93206   1.93369   1.93646   1.93795
 Alpha virt. eigenvalues --    1.94025   1.94177   1.94373   1.94452   1.94598
 Alpha virt. eigenvalues --    1.94801   1.95076   1.95354   1.95625   1.95727
 Alpha virt. eigenvalues --    1.95773   1.96202   1.96423   1.96702   1.96831
 Alpha virt. eigenvalues --    1.97374   1.97674   1.97815   1.98000   1.98156
 Alpha virt. eigenvalues --    1.98242   1.98719   1.98799   1.98917   1.99230
 Alpha virt. eigenvalues --    1.99292   1.99830   2.00249   2.00404   2.00608
 Alpha virt. eigenvalues --    2.01064   2.01134   2.01418   2.01636   2.01948
 Alpha virt. eigenvalues --    2.02006   2.02105   2.02458   2.02680   2.03236
 Alpha virt. eigenvalues --    2.03344   2.03556   2.04020   2.04452   2.04602
 Alpha virt. eigenvalues --    2.04814   2.05290   2.05336   2.05510   2.05652
 Alpha virt. eigenvalues --    2.05968   2.06327   2.06599   2.06741   2.07011
 Alpha virt. eigenvalues --    2.07202   2.07443   2.07678   2.07717   2.08018
 Alpha virt. eigenvalues --    2.08446   2.08693   2.08882   2.09024   2.09229
 Alpha virt. eigenvalues --    2.09502   2.09714   2.09968   2.10236   2.10462
 Alpha virt. eigenvalues --    2.11044   2.11384   2.11574   2.12053   2.12172
 Alpha virt. eigenvalues --    2.12398   2.12815   2.13239   2.13320   2.13541
 Alpha virt. eigenvalues --    2.13683   2.14090   2.14462   2.14485   2.14877
 Alpha virt. eigenvalues --    2.15375   2.15790   2.15826   2.16287   2.16555
 Alpha virt. eigenvalues --    2.17111   2.17179   2.17340   2.17467   2.17832
 Alpha virt. eigenvalues --    2.17892   2.18071   2.18562   2.18771   2.19003
 Alpha virt. eigenvalues --    2.19108   2.19594   2.19671   2.19926   2.19967
 Alpha virt. eigenvalues --    2.20682   2.21297   2.21478   2.22052   2.22321
 Alpha virt. eigenvalues --    2.22514   2.22667   2.23103   2.23461   2.24070
 Alpha virt. eigenvalues --    2.24723   2.25149   2.25344   2.25570   2.25892
 Alpha virt. eigenvalues --    2.26099   2.26433   2.26850   2.27187   2.27630
 Alpha virt. eigenvalues --    2.27834   2.28716   2.28850   2.29290   2.29615
 Alpha virt. eigenvalues --    2.29775   2.29910   2.30285   2.30779   2.31058
 Alpha virt. eigenvalues --    2.31313   2.31796   2.31937   2.31998   2.32210
 Alpha virt. eigenvalues --    2.32503   2.32856   2.33369   2.33699   2.34077
 Alpha virt. eigenvalues --    2.34438   2.34774   2.34972   2.35393   2.35627
 Alpha virt. eigenvalues --    2.35963   2.36120   2.36172   2.36563   2.36672
 Alpha virt. eigenvalues --    2.37176   2.37334   2.37673   2.37785   2.38255
 Alpha virt. eigenvalues --    2.39225   2.39414   2.39591   2.39919   2.40040
 Alpha virt. eigenvalues --    2.40185   2.40249   2.40818   2.41286   2.41331
 Alpha virt. eigenvalues --    2.41858   2.42186   2.42269   2.42519   2.43377
 Alpha virt. eigenvalues --    2.43705   2.43710   2.44124   2.44848   2.45033
 Alpha virt. eigenvalues --    2.45163   2.45564   2.45727   2.46108   2.46289
 Alpha virt. eigenvalues --    2.46395   2.46907   2.47365   2.47737   2.47977
 Alpha virt. eigenvalues --    2.48306   2.48512   2.48925   2.49370   2.49546
 Alpha virt. eigenvalues --    2.50119   2.50455   2.50682   2.51178   2.51721
 Alpha virt. eigenvalues --    2.52072   2.52631   2.52841   2.52936   2.53174
 Alpha virt. eigenvalues --    2.54148   2.54246   2.54378   2.55282   2.55431
 Alpha virt. eigenvalues --    2.55846   2.56162   2.56861   2.56898   2.57060
 Alpha virt. eigenvalues --    2.57639   2.58036   2.58592   2.59018   2.59235
 Alpha virt. eigenvalues --    2.59838   2.59883   2.59967   2.60303   2.60436
 Alpha virt. eigenvalues --    2.60642   2.60783   2.61232   2.61461   2.61590
 Alpha virt. eigenvalues --    2.62311   2.62911   2.63202   2.63545   2.63899
 Alpha virt. eigenvalues --    2.63996   2.64443   2.64892   2.65191   2.65537
 Alpha virt. eigenvalues --    2.65773   2.65876   2.66010   2.66258   2.66364
 Alpha virt. eigenvalues --    2.66437   2.66630   2.66915   2.67380   2.67925
 Alpha virt. eigenvalues --    2.68330   2.68452   2.68520   2.68738   2.69413
 Alpha virt. eigenvalues --    2.69962   2.70083   2.70433   2.70454   2.70649
 Alpha virt. eigenvalues --    2.70926   2.71032   2.71152   2.71858   2.72067
 Alpha virt. eigenvalues --    2.72423   2.72673   2.72777   2.72835   2.72975
 Alpha virt. eigenvalues --    2.73711   2.73813   2.74114   2.74283   2.74395
 Alpha virt. eigenvalues --    2.74520   2.75031   2.75075   2.75191   2.75390
 Alpha virt. eigenvalues --    2.75845   2.76017   2.76333   2.76621   2.77019
 Alpha virt. eigenvalues --    2.77238   2.77293   2.77673   2.78047   2.78398
 Alpha virt. eigenvalues --    2.78445   2.79068   2.79593   2.79637   2.79958
 Alpha virt. eigenvalues --    2.80388   2.80609   2.80721   2.80925   2.81294
 Alpha virt. eigenvalues --    2.81385   2.81774   2.82025   2.82169   2.82770
 Alpha virt. eigenvalues --    2.82997   2.83078   2.83471   2.83654   2.83790
 Alpha virt. eigenvalues --    2.84203   2.84322   2.84380   2.85308   2.85446
 Alpha virt. eigenvalues --    2.85708   2.85892   2.86255   2.87325   2.87460
 Alpha virt. eigenvalues --    2.88548   2.88999   2.89025   2.89702   2.89909
 Alpha virt. eigenvalues --    2.89989   2.90263   2.90779   2.90984   2.91127
 Alpha virt. eigenvalues --    2.91477   2.91650   2.91744   2.91988   2.92266
 Alpha virt. eigenvalues --    2.92464   2.92738   2.93231   2.93636   2.94013
 Alpha virt. eigenvalues --    2.94269   2.94352   2.94690   2.95261   2.95282
 Alpha virt. eigenvalues --    2.95615   2.95797   2.96068   2.96439   2.96656
 Alpha virt. eigenvalues --    2.97027   2.97179   2.97705   2.97949   2.98028
 Alpha virt. eigenvalues --    2.98234   2.99048   2.99393   2.99596   2.99746
 Alpha virt. eigenvalues --    3.00004   3.00203   3.00475   3.00660   3.00811
 Alpha virt. eigenvalues --    3.01405   3.01502   3.02268   3.02330   3.02544
 Alpha virt. eigenvalues --    3.03017   3.03462   3.03509   3.03729   3.04433
 Alpha virt. eigenvalues --    3.04631   3.04861   3.05298   3.05441   3.05822
 Alpha virt. eigenvalues --    3.06276   3.06747   3.07591   3.08648   3.08895
 Alpha virt. eigenvalues --    3.09681   3.10625   3.10946   3.11021   3.12404
 Alpha virt. eigenvalues --    3.12977   3.13152   3.13724   3.14183   3.14347
 Alpha virt. eigenvalues --    3.15235   3.15447   3.15587   3.15669   3.15920
 Alpha virt. eigenvalues --    3.16665   3.16850   3.17237   3.17378   3.17492
 Alpha virt. eigenvalues --    3.18251   3.18486   3.18700   3.18824   3.19023
 Alpha virt. eigenvalues --    3.19339   3.19505   3.20147   3.20426   3.20843
 Alpha virt. eigenvalues --    3.21298   3.21489   3.21559   3.21612   3.22031
 Alpha virt. eigenvalues --    3.22212   3.23012   3.23841   3.24197   3.25105
 Alpha virt. eigenvalues --    3.25394   3.25577   3.25860   3.26642   3.27124
 Alpha virt. eigenvalues --    3.27446   3.27801   3.28578   3.29299   3.30681
 Alpha virt. eigenvalues --    3.30963   3.31459   3.31784   3.32370   3.32976
 Alpha virt. eigenvalues --    3.33557   3.34322   3.34747   3.37015   3.37150
 Alpha virt. eigenvalues --    3.41042   3.44453   3.48114   3.49830   3.50124
 Alpha virt. eigenvalues --    3.50626   3.51313   3.53137   3.55134   3.55915
 Alpha virt. eigenvalues --    3.57192   3.57538   3.58135   3.58702   3.59814
 Alpha virt. eigenvalues --    3.60669   3.61250   3.62275   3.62774   3.63295
 Alpha virt. eigenvalues --    3.63376   3.66208   3.66968   3.67781   3.68563
 Alpha virt. eigenvalues --    3.68903   3.69509   3.69526   3.69785   3.70325
 Alpha virt. eigenvalues --    3.70449   3.70718   3.70919   3.71169   3.71746
 Alpha virt. eigenvalues --    3.71889   3.72569   3.73485   3.73651   3.73808
 Alpha virt. eigenvalues --    3.75810   3.81030   3.81418   3.84121
          Condensed to atoms (all electrons):
 Mulliken charges:
               1
     1  C    0.057584
     2  C    0.027315
     3  O   -0.293279
     4  H    0.035041
     5  H    0.037465
     6  H   -0.000007
     7  N   -0.100963
     8  C    0.042305
     9  C    0.041296
    10  O   -0.296253
    11  C    0.178846
    12  C    0.087179
    13  O   -0.378518
    14  O   -0.446314
    15  H    0.114091
    16  H    0.018733
    17  H    0.005426
    18  H   -0.000665
    19  N   -0.152165
    20  C    0.205620
    21  C    0.037171
    22  O   -0.305343
    23  C    0.006594
    24  C   -0.008358
    25  C    0.027883
    26  C   -0.026353
    27  N    0.090896
    28  H    0.167654
    29  H    0.018378
    30  H   -0.019955
    31  H   -0.008930
    32  H    0.058794
    33  H    0.008327
    34  H    0.023985
    35  H    0.056918
    36  H    0.059447
    37  H    0.072017
    38  H    0.196176
    39  H    0.190112
    40  H    0.189080
    41  N   -0.144733
    42  C    0.090243
    43  C    0.087050
    44  O   -0.298236
    45  C    0.126706
    46  C    0.063147
    47  O   -0.413678
    48  O   -0.437213
    49  H    0.161492
    50  H    0.023550
    51  H   -0.003245
    52  H    0.018548
    53  N   -0.137650
    54  C    0.208147
    55  C    0.007500
    56  O   -0.299962
    57  H    0.130061
    58  H    0.020189
    59  H    0.016674
    60  N   -0.185292
    61  C    0.146735
    62  C    0.040974
    63  O   -0.290282
    64  C    0.061493
    65  C    0.087450
    66  N   -0.024991
    67  O   -0.341968
    68  H    0.157547
    69  H    0.026386
    70  H    0.064246
    71  H    0.016709
    72  H    0.131086
    73  H    0.114073
    74  N   -0.133557
    75  C    0.212444
    76  C    0.053740
    77  O   -0.297879
    78  H    0.140653
    79  H    0.039376
    80  H    0.031820
    81  N   -0.147374
    82  C    0.086701
    83  C    0.140456
    84  O   -0.371022
    85  C    0.188968
    86  C   -0.062175
    87  C    0.010921
    88  C    0.056586
    89  C   -0.013142
    90  C   -0.036798
    91  C    0.191722
    92  O   -0.209806
    93  H    0.150428
    94  H    0.004552
    95  H   -0.006169
    96  H   -0.035945
    97  H   -0.058925
    98  H   -0.042480
    99  H   -0.028985
   100  H   -0.047134
   101  H    0.177149
   102  N   -0.115816
   103  C    0.138901
   104  C    0.029726
   105  O   -0.289559
   106  C   -0.088544
   107  C    0.002404
   108  C    0.095019
   109  C    0.022169
   110  H    0.125375
   111  H    0.003418
   112  H   -0.028004
   113  H   -0.027421
   114  H   -0.003444
   115  H    0.015210
   116  H    0.012898
   117  H    0.007409
   118  H   -0.001237
   119  H    0.019635
   120  H    0.065189
   121  N   -0.133829
   122  C    0.071583
   123  C    0.109960
   124  O   -0.280173
   125  C    0.303038
   126  O   -0.353847
   127  H    0.157760
   128  H    0.014774
   129  H    0.015284
   130  H   -0.048256
   131  H    0.171998
   132  N   -0.133287
   133  C    0.085874
   134  C    0.050841
   135  O   -0.260223
   136  C    0.070995
   137  H    0.115148
   138  H    0.028877
   139  H    0.060857
   140  H    0.026699
   141  H    0.008888
   142  N   -0.117723
   143  C    0.092326
   144  C    0.073744
   145  O   -0.266330
   146  C    0.037250
   147  H    0.087592
   148  H    0.013438
   149  H    0.005482
   150  H    0.023496
   151  H    0.013282
   152  N   -0.146687
   153  C    0.160066
   154  C    0.046260
   155  O   -0.290786
   156  C   -0.087119
   157  C    0.116294
   158  C    0.166448
   159  O   -0.397107
   160  O   -0.415428
   161  H    0.131663
   162  H   -0.046277
   163  H    0.035695
   164  H    0.011730
   165  H   -0.022006
   166  H   -0.011431
   167  N   -0.164227
   168  C    0.134263
   169  H    0.004459
   170  H    0.013283
   171  H    0.033540
   172  H    0.136947
   173  Ca   1.242949
   174  O   -0.258875
   175  H    0.161783
   176  H    0.181605
 Sum of Mulliken charges =  -0.00000
 Mulliken charges with hydrogens summed into heavy atoms:
               1
     1  C    0.130084
     2  C    0.027315
     3  O   -0.293279
     7  N    0.013128
     8  C    0.061038
     9  C    0.041296
    10  O   -0.296253
    11  C    0.183608
    12  C    0.087179
    13  O   -0.378518
    14  O   -0.446314
    19  N    0.015489
    20  C    0.223999
    21  C    0.037171
    22  O   -0.305343
    23  C   -0.022291
    24  C    0.058763
    25  C    0.108786
    26  C    0.105111
    27  N    0.666264
    41  N    0.016758
    42  C    0.113793
    43  C    0.087050
    44  O   -0.298236
    45  C    0.142009
    46  C    0.063147
    47  O   -0.413678
    48  O   -0.437213
    53  N   -0.007588
    54  C    0.245009
    55  C    0.007500
    56  O   -0.299962
    60  N   -0.027745
    61  C    0.173121
    62  C    0.040974
    63  O   -0.290282
    64  C    0.142448
    65  C    0.087450
    66  N    0.220168
    67  O   -0.341968
    74  N    0.007096
    75  C    0.283640
    76  C    0.053740
    77  O   -0.297879
    81  N    0.003054
    82  C    0.091253
    83  C    0.140456
    84  O   -0.371022
    85  C    0.146854
    86  C   -0.062175
    87  C   -0.048004
    88  C    0.014106
    89  C   -0.042127
    90  C   -0.083931
    91  C    0.191722
    92  O   -0.032656
   102  N    0.009558
   103  C    0.142320
   104  C    0.029726
   105  O   -0.289559
   106  C   -0.116547
   107  C   -0.028460
   108  C    0.130535
   109  C    0.105756
   121  N    0.023931
   122  C    0.086358
   123  C    0.109960
   124  O   -0.280173
   125  C    0.270066
   126  O   -0.181849
   132  N   -0.018138
   133  C    0.114751
   134  C    0.050841
   135  O   -0.260223
   136  C    0.167438
   142  N   -0.030132
   143  C    0.105764
   144  C    0.073744
   145  O   -0.266330
   146  C    0.079510
   152  N   -0.015024
   153  C    0.113789
   154  C    0.046260
   155  O   -0.290786
   156  C   -0.039695
   157  C    0.082857
   158  C    0.166448
   159  O   -0.397107
   160  O   -0.415428
   167  N   -0.027280
   168  C    0.185544
   173  Ca   1.242949
   174  O    0.084513
 DipInt: DoE/N= T F RetVal/Mat= T F Init=T NMatP=  1 IDeriv=0 Min/MaxMlt=  0  4
 Entering OneElI...
 OneElI was handed  1333951383 working-precision words.
 Multipole integrals L=0 to 4 MinM= 0 MaxM= 0.
 Requested accuracy = 0.1000D-12
 ShPair: Thresh= 1.00D-13 NBox=     0 BxSize= 0.00D+00 RnKept= 2.55D+01
         NSMCal=               327645 NSMKep=              160234
 PrmmSu-InSpLW:  IPartL=    0 NPrtUS=    1 NPrtUL=    1 DoSpLW=F IThBeg=    0 IThEnd=    0 NThAct=    1.
 PrsmSu:  NPrtUS=   1 ThrOK=F IAlg=1 NPAlg=1 LenDen=           0 ISkipM=0 DoSpLW=F IThBeg=    0 IThEnd=    0.
 Prism:   IPart=     0 DynPar=F LinDyn=F Incr=         512.
 PRISM was handed  1323899601 working-precision words and160234 shell-pairs
 IPart=  0 NShTot=      160234 NBatch=         366 AvBLen=       437.8
 PrsmSu-ThDecC:  IPartSL=    0    0 NPrtUSL=    1    1 IThBeg=    0 IThEnd=    0 CPU=   -1 GPU=   -1 NThAct=    1.
 PrSmSu:  NxtVal=            513.
 Electronic moments (au):
       -716.00000000          9.91252821         -0.19837921         -5.20216645
     -53025.00142078     -31257.04677598     -11828.70693335         91.81791141
        -56.84388859          6.00590710     -18212.67813065     -19332.77148405
     -22261.28303320      10256.57922758     119694.59154408      50519.51291369
     -15398.33618670     -13074.79308181      11999.80749949     -21959.68923248
   -7800399.19017509   -2673847.77354874    -564114.11658258    -317754.91378608
     312340.51828219    -335073.11302599      72861.70068003     -83369.01032602
     -93479.85620782   -2414511.38841589    -656772.01271723    -416823.74257058
    -111826.69448667      35225.90892608      26599.18649380
 Electronic spatial extent (au):  <R**2>=          96110.7551
 DipInt: DoE/N= F T RetVal/Mat= T F Init=T NMatP=  1 IDeriv=0 Min/MaxMlt=  0  4
 Nuclear    moments (au):
        716.00000000         -0.00000000          0.00000000         -0.00000000
      52603.38199205      30881.41799371      11451.48091585         -0.00000000
         -0.00000000         -0.00000000      19493.41935370      19184.90525322
      22119.66832888      -8756.83050664    -118704.04739677     -51270.74264030
      15602.11959550      12990.78874719     -12227.03634650      21587.92973977
    7605324.27284195    2567224.70938140     527019.46576567     337446.39975747
    -321609.93527479     347777.85342074     -73266.63135204      83473.66464932
      95122.42165460    2382792.82342274     622065.90381380     391843.38076606
     107259.54064350     -42699.96619508     -25852.43889398
 Total      moments (au):
          0.00000000          9.91252821         -0.19837921         -5.20216645
       -421.61942874       -375.62878227       -377.22601750         91.81791141
        -56.84388859          6.00590710       1280.74122304       -147.86623084
       -141.61470432       1499.74872094        990.54414731       -751.22972661
        203.78340880        -84.00433462       -227.22884700       -371.75949271
    -195074.91733314    -106623.06416734     -37094.65081691      19691.48597139
      -9269.41699260      12704.74039476       -404.93067200        104.65432329
       1642.56544679     -31718.56499314     -34706.10890342     -24980.36180452
      -4567.15384317      -7474.05726899        746.74759982
 Traceless Quadrup. (au):
        -30.12801924         15.86262724         14.26539200         91.81791141
        -56.84388859          6.00590710
 Charge=              0.0000 electrons
 Dipole moment (field-independent basis, Debye):
    X=             25.1951    Y=             -0.5042    Z=            -13.2226  Tot=             28.4585
 Quadrupole moment (field-independent basis, Debye-Ang):
   XX=           -567.0926   YY=           -505.2336   ZZ=           -507.3819
   XY=            123.4982   XZ=            -76.4570   YZ=              8.0782
 Traceless Quadrupole moment (field-independent basis, Debye-Ang):
   XX=            -40.5232   YY=             21.3358   ZZ=             19.1874
   XY=            123.4982   XZ=            -76.4570   YZ=              8.0782
 Octapole moment (field-independent basis, Debye-Ang**2):
  XXX=            911.5823  YYY=           -105.2455  ZZZ=           -100.7959  XYY=           1067.4634
  XXY=            705.0312  XXZ=           -534.6964  XZZ=            145.0452  YZZ=            -59.7910
  YYZ=           -161.7327  XYZ=           -264.6041
 Hexadecapole moment (field-independent basis, Debye-Ang**3):
 XXXX=         -73474.5680 YYYY=         -40159.3587 ZZZZ=         -13971.6242 XXXY=           7416.7579
 XXXZ=          -3491.3069 YYYX=           4785.2144 YYYZ=           -152.5163 ZZZX=             39.4178
 ZZZY=            618.6689 XXYY=         -11946.7325 XXZZ=         -13071.9848 YYZZ=          -9408.8021
 XXYZ=          -1720.2091 YYXZ=          -2815.0884 ZZXY=            281.2610
 N-N= 2.165105067502D+04 E-N=-5.578390983791D+04  KE= 5.290537584993D+03
 Leave Link  601 at Sat Sep 14 22:37:17 2019, MaxMem=  1342177280 cpu:              57.2 elap:               1.4
 FitSet:  NAtFit=   176 NAtPot=   176 NAtFrz=     0 MDM=   180 TotChg=   0.00000
 Merz-Kollman atomic radii used.
 Read replacement radii for each type of atom:
 Rad(20) =   1.700000000000D+00
 Atom Element Radius
    1     6    1.50
    2     6    1.50
    3     8    1.40
    4     1    1.20
    5     1    1.20
    6     1    1.20
    7     7    1.50
    8     6    1.50
    9     6    1.50
   10     8    1.40
   11     6    1.50
   12     6    1.50
   13     8    1.40
   14     8    1.40
   15     1    1.20
   16     1    1.20
   17     1    1.20
   18     1    1.20
   19     7    1.50
   20     6    1.50
   21     6    1.50
   22     8    1.40
   23     6    1.50
   24     6    1.50
   25     6    1.50
   26     6    1.50
   27     7    1.50
   28     1    1.20
   29     1    1.20
   30     1    1.20
   31     1    1.20
   32     1    1.20
   33     1    1.20
   34     1    1.20
   35     1    1.20
   36     1    1.20
   37     1    1.20
   38     1    1.20
   39     1    1.20
   40     1    1.20
   41     7    1.50
   42     6    1.50
   43     6    1.50
   44     8    1.40
   45     6    1.50
   46     6    1.50
   47     8    1.40
   48     8    1.40
   49     1    1.20
   50     1    1.20
   51     1    1.20
   52     1    1.20
   53     7    1.50
   54     6    1.50
   55     6    1.50
   56     8    1.40
   57     1    1.20
   58     1    1.20
   59     1    1.20
   60     7    1.50
   61     6    1.50
   62     6    1.50
   63     8    1.40
   64     6    1.50
   65     6    1.50
   66     7    1.50
   67     8    1.40
   68     1    1.20
   69     1    1.20
   70     1    1.20
   71     1    1.20
   72     1    1.20
   73     1    1.20
   74     7    1.50
   75     6    1.50
   76     6    1.50
   77     8    1.40
   78     1    1.20
   79     1    1.20
   80     1    1.20
   81     7    1.50
   82     6    1.50
   83     6    1.50
   84     8    1.40
   85     6    1.50
   86     6    1.50
   87     6    1.50
   88     6    1.50
   89     6    1.50
   90     6    1.50
   91     6    1.50
   92     8    1.40
   93     1    1.20
   94     1    1.20
   95     1    1.20
   96     1    1.20
   97     1    1.20
   98     1    1.20
   99     1    1.20
  100     1    1.20
  101     1    1.20
  102     7    1.50
  103     6    1.50
  104     6    1.50
  105     8    1.40
  106     6    1.50
  107     6    1.50
  108     6    1.50
  109     6    1.50
  110     1    1.20
  111     1    1.20
  112     1    1.20
  113     1    1.20
  114     1    1.20
  115     1    1.20
  116     1    1.20
  117     1    1.20
  118     1    1.20
  119     1    1.20
  120     1    1.20
  121     7    1.50
  122     6    1.50
  123     6    1.50
  124     8    1.40
  125     6    1.50
  126     8    1.40
  127     1    1.20
  128     1    1.20
  129     1    1.20
  130     1    1.20
  131     1    1.20
  132     7    1.50
  133     6    1.50
  134     6    1.50
  135     8    1.40
  136     6    1.50
  137     1    1.20
  138     1    1.20
  139     1    1.20
  140     1    1.20
  141     1    1.20
  142     7    1.50
  143     6    1.50
  144     6    1.50
  145     8    1.40
  146     6    1.50
  147     1    1.20
  148     1    1.20
  149     1    1.20
  150     1    1.20
  151     1    1.20
  152     7    1.50
  153     6    1.50
  154     6    1.50
  155     8    1.40
  156     6    1.50
  157     6    1.50
  158     6    1.50
  159     8    1.40
  160     8    1.40
  161     1    1.20
  162     1    1.20
  163     1    1.20
  164     1    1.20
  165     1    1.20
  166     1    1.20
  167     7    1.50
  168     6    1.50
  169     1    1.20
  170     1    1.20
  171     1    1.20
  172     1    1.20
  173    20    1.70
[...]
 **** Fit      -0.048964
 **** Fit      -0.049193
 **** Fit      -0.046663
 **** Fit      -0.042539
 **** Fit      -0.038417
 **** Fit      -0.035152
 **** Fit      -0.032758
 **** Fit      -0.033807
 **** Fit      -0.034542
 **** Fit      -0.034841
 **** Fit      -0.035068
 **** Fit      -0.035567
 **** Fit      -0.036674
 **** Fit      -0.038702
 **** Fit      -0.041891
 **** Fit      -0.046261
 **** Fit      -0.051254
 **** Fit      -0.047085
 **** Fit      -0.041084
 **** Fit      -0.036256
 **** Fit      -0.032881
 **** Fit      -0.032914
 **** Fit      -0.033463
 **** Fit      -0.033452
 **** Fit      -0.033224
 **** Fit      -0.033097
 **** Fit      -0.033390
 **** Fit      -0.034440
 **** Fit      -0.036602
 **** Fit      -0.040229
 **** Fit      -0.045585
 **** Fit      -0.028807
 **** Fit      -0.032281
 **** Fit      -0.032550
 **** Fit      -0.032200
 **** Fit      -0.031527
 **** Fit      -0.030799
 **** Fit      -0.030291
 **** Fit      -0.030300
 **** Fit      -0.031161
 **** Fit      -0.033247
 **** Fit      -0.036968
 **** Fit      -0.042728
 **** Fit      -0.031992
 **** Fit      -0.031860
 **** Fit      -0.031088
 **** Fit      -0.029922
 **** Fit      -0.028592
 **** Fit      -0.027339
 **** Fit      -0.026429
 **** Fit      -0.026168
 **** Fit      -0.026911
 **** Fit      -0.029067
 **** Fit      -0.033088
 **** Fit      -0.039405
 **** Fit      -0.032074
 **** Fit      -0.031381
 **** Fit      -0.030016
 **** Fit      -0.028191
 **** Fit      -0.026119
 **** Fit      -0.024038
 **** Fit      -0.022221
 **** Fit      -0.020984
 **** Fit      -0.020699
 **** Fit      -0.021818
 **** Fit      -0.024861
 **** Fit      -0.030310
 **** Fit      -0.033052
 **** Fit      -0.032587
 **** Fit      -0.031255
 **** Fit      -0.029221
 **** Fit      -0.026651
 **** Fit      -0.023735
 **** Fit      -0.020702
 **** Fit      -0.017822
 **** Fit      -0.015410
 **** Fit      -0.013820
 **** Fit      -0.034903
 **** Fit      -0.033690
 **** Fit      -0.031596
 **** Fit      -0.028723
 **** Fit      -0.025209
 **** Fit      -0.021237
 **** Fit      -0.017049
 **** Fit      -0.012941
 **** Fit      -0.009254
 **** Fit      -0.037720
 **** Fit      -0.035687
 **** Fit      -0.032659
 **** Fit      -0.028701
 **** Fit      -0.023951
 **** Fit      -0.018615
 **** Fit      -0.012987
 **** Fit      -0.007446
 **** Fit      -0.002409
 **** Fit      -0.038767
 **** Fit      -0.042091
 **** Fit      -0.039207
 **** Fit      -0.035114
 **** Fit      -0.029881
 **** Fit      -0.023680
 **** Fit      -0.016777
 **** Fit      -0.009557
 **** Fit      -0.002528
 **** Fit      -0.023442
 **** Fit      -0.014213
 **** Fit      -0.004922
 **** Fit       0.003608
 **** Fit       0.031815
 **** Fit       0.004618
 **** Fit      -0.006134
 **** Fit       0.000102
 **** Fit       0.001503
 **** Fit       0.019990
 **** Fit       0.030403
 **** Fit       0.041984
 **** Fit       0.039495
 **** Fit       0.040460
 **** Fit       0.037421
 **** Fit       0.030799
 **** Fit       0.021836
 **** Fit       0.011666
 **** Fit       0.033444
 **** Fit       0.034676
 **** Fit       0.032754
 **** Fit       0.027482
 **** Fit       0.019774
 **** Fit       0.010916
 **** Fit       0.002234
 **** Fit      -0.004542
 **** Fit      -0.007053
 **** Fit      -0.003790
 **** Fit       0.003449
 **** Fit       0.028770
 **** Fit       0.029640
 **** Fit       0.028023
 **** Fit       0.023324
 **** Fit       0.016435
 **** Fit       0.009127
 **** Fit       0.003602
 **** Fit       0.002087
 **** Fit       0.005048
 **** Fit       0.009627
 **** Fit       0.025493
 **** Fit       0.023743
 **** Fit       0.018884
 **** Fit       0.012858
 **** Fit       0.009136
 **** Fit       0.009711
 **** Fit       0.012229
 **** Fit       0.021636
 **** Fit       0.020438
 **** Fit       0.015834
 **** Fit       0.013929
 **** Fit       0.015787
 **** Fit       0.019123
 **** Fit       0.017905
 **** Fit      -0.012119
 **** Fit      -0.011717
 **** Fit      -0.013735
 **** Fit      -0.014331
 **** Fit      -0.010390
 **** Fit      -0.011264
 **** Fit      -0.013155
 **** Fit      -0.015403
 **** Fit      -0.017154
 **** Fit      -0.017178
 **** Fit      -0.009031
 **** Fit      -0.009896
 **** Fit      -0.010841
 **** Fit      -0.021235
 **** Fit      -0.020879
 **** Fit      -0.007961
 **** Fit      -0.008656
 **** Fit      -0.009609
 **** Fit      -0.010530
 **** Fit      -0.026533
 **** Fit      -0.025007
 **** Fit      -0.007020
 **** Fit      -0.007643
 **** Fit      -0.008439
 **** Fit      -0.009398
 **** Fit      -0.010407
 **** Fit      -0.033487
 **** Fit      -0.031201
 **** Fit      -0.027246
 **** Fit      -0.005868
 **** Fit      -0.006338
 **** Fit      -0.006936
 **** Fit      -0.007660
 **** Fit      -0.008492
 **** Fit      -0.009407
 **** Fit      -0.010529
 **** Fit      -0.029624
 **** Fit      -0.005091
 **** Fit      -0.005571
 **** Fit      -0.006177
 **** Fit      -0.006907
 **** Fit      -0.007739
 **** Fit      -0.008639
 **** Fit      -0.009572
 **** Fit      -0.010941
 **** Fit      -0.031099
 **** Fit      -0.003952
 **** Fit      -0.004326
 **** Fit      -0.004833
 **** Fit      -0.005471
 **** Fit      -0.006236
 **** Fit      -0.007112
 **** Fit      -0.008062
 **** Fit      -0.009039
 **** Fit      -0.010002
 **** Fit      -0.011674
 **** Fit      -0.028054
 **** Fit      -0.003014
 **** Fit      -0.003391
 **** Fit      -0.003934
 **** Fit      -0.008571
 **** Fit      -0.009664
 **** Fit      -0.010702
 **** Fit      -0.012761
 **** Fit      -0.001876
 **** Fit      -0.002281
 **** Fit      -0.010615
 **** Fit      -0.011738
 **** Fit      -0.014255
 **** Fit      -0.000379
 **** Fit      -0.000329
 **** Fit      -0.000734
 **** Fit      -0.013156
 **** Fit      -0.016254
 **** Fit      -0.017376
 **** Fit       0.000805
 **** Fit       0.001671
 **** Fit       0.001653
 **** Fit      -0.018917
 **** Fit      -0.020074
 **** Fit      -0.021331
 **** Fit       0.000787
 **** Fit      -0.023585
 **** Fit      -0.024818
 **** Fit      -0.026441
 **** Fit      -0.028240
 **** Fit      -0.029412
 **** Fit      -0.031099
 **** Fit      -0.033591
 **** Fit      -0.037246
 **** Fit      -0.034361
 **** Fit      -0.035354
 **** Fit      -0.037121
 **** Fit      -0.039879
 **** Fit      -0.042857
 **** Fit      -0.044636
 **** Fit      -0.009944
 **** Fit      -0.010058
 **** Fit      -0.011796
 **** Fit      -0.011702
 **** Fit      -0.009809
 **** Fit      -0.008422
 **** Fit      -0.008560
 **** Fit      -0.010121
 **** Fit      -0.014851
 **** Fit      -0.013953
 **** Fit      -0.011846
 **** Fit      -0.009683
 **** Fit      -0.008111
 **** Fit      -0.007208
 **** Fit      -0.006990
 **** Fit      -0.007457
 **** Fit      -0.008532
 **** Fit      -0.018368
 **** Fit      -0.016858
 **** Fit      -0.014348
 **** Fit      -0.011731
 **** Fit      -0.009611
 **** Fit      -0.008100
 **** Fit      -0.007018
 **** Fit      -0.006282
 **** Fit      -0.005948
 **** Fit      -0.006054
 **** Fit      -0.006571
 **** Fit      -0.007438
 **** Fit      -0.022309
 **** Fit      -0.019585
 **** Fit      -0.016224
 **** Fit      -0.013064
 **** Fit      -0.010604
 **** Fit      -0.008924
 **** Fit      -0.007728
 **** Fit      -0.006702
 **** Fit      -0.005838
 **** Fit      -0.005268
 **** Fit      -0.005069
 **** Fit      -0.005242
 **** Fit      -0.005740
 **** Fit      -0.006495
 **** Fit      -0.025406
 **** Fit      -0.021005
 **** Fit      -0.016738
 **** Fit      -0.013278
 **** Fit      -0.007268
 **** Fit      -0.006096
 **** Fit      -0.005131
 **** Fit      -0.004522
 **** Fit      -0.004307
 **** Fit      -0.004460
 **** Fit      -0.004925
 **** Fit      -0.027393
 **** Fit      -0.021716
 **** Fit      -0.017014
 **** Fit      -0.005513
 **** Fit      -0.004449
 **** Fit      -0.003805
 **** Fit      -0.003574
 **** Fit      -0.003718
 **** Fit      -0.004172
 **** Fit      -0.022959
 **** Fit      -0.004400
 **** Fit      -0.003393
 **** Fit      -0.002879
 **** Fit      -0.002827
 **** Fit      -0.003178
 **** Fit      -0.004549
 **** Fit      -0.003111
 **** Fit      -0.002228
 **** Fit      -0.001899
 **** Fit      -0.002087
 **** Fit      -0.003603
 **** Fit      -0.001983
 **** Fit      -0.001036
 **** Fit      -0.000788
 **** Fit      -0.004214
 **** Fit      -0.001646
 **** Fit       0.000011
 **** Fit      -0.003828
 **** Fit      -0.004504
 **** Fit      -0.005414
 **** Fit      -0.006490
 **** Fit      -0.007680
 **** Fit      -0.008941
 **** Fit      -0.011132
 **** Fit      -0.002235
 **** Fit      -0.002793
 **** Fit      -0.003636
 **** Fit      -0.004683
 **** Fit      -0.005863
 **** Fit      -0.007125
 **** Fit      -0.008437
 **** Fit      -0.009777
 **** Fit      -0.012408
 **** Fit      -0.000565
 **** Fit      -0.001272
 **** Fit      -0.002327
 **** Fit      -0.003608
 **** Fit      -0.005018
 **** Fit      -0.006488
 **** Fit      -0.007973
 **** Fit      -0.009456
 **** Fit      -0.010932
 **** Fit      -0.014211
 **** Fit      -0.015783
 **** Fit       0.001644
 **** Fit       0.000659
 **** Fit      -0.000753
 **** Fit      -0.002413
 **** Fit      -0.004186
 **** Fit      -0.005981
 **** Fit      -0.007739
 **** Fit      -0.009434
 **** Fit      -0.011065
 **** Fit      -0.012648
 **** Fit      -0.016757
 **** Fit      -0.018419
 **** Fit       0.003770
 **** Fit       0.001792
 **** Fit      -0.000499
 **** Fit      -0.002897
 **** Fit      -0.005272
 **** Fit      -0.007538
 **** Fit      -0.009648
 **** Fit      -0.011595
 **** Fit      -0.013399
 **** Fit      -0.015103
 **** Fit      -0.020366
 **** Fit      -0.022155
 **** Fit      -0.024040
 **** Fit       0.000380
 **** Fit      -0.003184
 **** Fit      -0.006529
 **** Fit      -0.009565
 **** Fit      -0.012255
 **** Fit      -0.014610
 **** Fit      -0.016689
 **** Fit      -0.018576
 **** Fit      -0.025522
 **** Fit      -0.027403
 **** Fit      -0.029430
 **** Fit      -0.008346
 **** Fit      -0.012631
 **** Fit      -0.016212
 **** Fit      -0.019147
 **** Fit      -0.021565
 **** Fit      -0.023632
 **** Fit      -0.015613
 **** Fit      -0.014377
 **** Fit      -0.016921
 **** Fit      -0.018631
 **** Fit      -0.013406
 **** Fit      -0.015525
 **** Fit      -0.018404
 **** Fit      -0.021280
 **** Fit      -0.022693
 **** Fit      -0.012143
 **** Fit      -0.012729
 **** Fit      -0.014472
 **** Fit      -0.016937
 **** Fit      -0.020125
 **** Fit      -0.023686
 **** Fit      -0.026768
 **** Fit      -0.028220
 **** Fit      -0.027309
 **** Fit      -0.011554
 **** Fit      -0.012371
 **** Fit      -0.013899
 **** Fit      -0.016062
 **** Fit      -0.019021
 **** Fit      -0.022826
 **** Fit      -0.027258
 **** Fit      -0.031662
 **** Fit      -0.034920
 **** Fit      -0.011286
 **** Fit      -0.012362
 **** Fit      -0.013746
 **** Fit      -0.015706
 **** Fit      -0.018459
 **** Fit      -0.022202
 **** Fit      -0.027038
 **** Fit      -0.032816
 **** Fit      -0.011353
 **** Fit      -0.012736
 **** Fit      -0.013970
 **** Fit      -0.015709
 **** Fit      -0.018173
 **** Fit      -0.021611
 **** Fit      -0.026283
 **** Fit      -0.032387
 **** Fit      -0.011815
 **** Fit      -0.013542
 **** Fit      -0.014713
 **** Fit      -0.016384
 **** Fit      -0.018802
 **** Fit      -0.022272
 **** Fit      -0.027168
 **** Fit      -0.012664
 **** Fit      -0.014845
 **** Fit      -0.015939
 **** Fit      -0.017516
 **** Fit      -0.019827
 **** Fit      -0.023201
 **** Fit      -0.028080
 **** Fit      -0.014020
 **** Fit      -0.016734
 **** Fit      -0.017777
 **** Fit      -0.019310
 **** Fit      -0.021598
 **** Fit      -0.024997
 **** Fit      -0.030018
 **** Fit      -0.019330
 **** Fit      -0.020374
 **** Fit      -0.021984
 **** Fit      -0.024475
 **** Fit      -0.028285
 **** Fit      -0.023841
 **** Fit      -0.025601
 **** Fit      -0.028443
 **** Fit      -0.032914
 **** Fit      -0.030191
 **** Fit      -0.033362
 **** Fit       0.025529
 **** Fit       0.029216
 **** Fit       0.031595
 **** Fit       0.032630
 **** Fit       0.034585
 **** Fit       0.035711
 **** Fit       0.035751
 **** Fit       0.036822
 **** Fit       0.040441
 **** Fit       0.039399
 **** Fit       0.039773
 **** Fit       0.041263
 **** Fit       0.043623
 **** Fit       0.042540
 **** Fit       0.042931
 **** Fit       0.044420
 **** Fit       0.045834
 **** Fit       0.044904
 **** Fit       0.045277
 **** Fit       0.046524
 **** Fit       0.048469
 **** Fit       0.046749
 **** Fit       0.046522
 **** Fit       0.047165
 **** Fit       0.048157
 **** Fit       0.050271
 **** Fit       0.048070
 **** Fit       0.047354
 **** Fit       0.047487
 **** Fit       0.047887
 **** Fit       0.048044
 **** Fit       0.047695
 **** Fit       0.047105
 **** Fit       0.049285
 **** Fit       0.047960
 **** Fit       0.047584
 **** Fit       0.047599
 **** Fit       0.047551
 **** Fit       0.047419
 **** Fit       0.049891
 **** Fit       0.048619
 **** Fit       0.047714
 **** Fit       0.047422
 **** Fit       0.047368
 **** Fit       0.047443
 **** Fit       0.047698
 **** Fit       0.047272
 **** Fit      -0.000668
 **** Fit       0.010377
 **** Fit       0.001884
 **** Fit       0.022008
 **** Fit       0.018096
 **** Fit       0.012382
 **** Fit       0.004064
 **** Fit       0.024633
 **** Fit       0.020232
 **** Fit       0.014440
 **** Fit       0.006618
 **** Fit       0.042617
 **** Fit       0.037458
 **** Fit       0.032649
 **** Fit       0.028489
 **** Fit       0.026472
 **** Fit       0.021610
 **** Fit       0.015503
 **** Fit       0.007752
 **** Fit       0.043565
 **** Fit       0.039254
 **** Fit       0.034917
 **** Fit       0.030719
 **** Fit       0.027590
 **** Fit       0.022558
 **** Fit       0.016505
 **** Fit       0.009439
 **** Fit       0.002081
 **** Fit       0.008193
 **** Fit       0.016716
 **** Fit       0.046179
 **** Fit       0.043314
 **** Fit       0.039843
 **** Fit       0.036011
 **** Fit       0.031958
 **** Fit       0.028169
 **** Fit       0.022990
 **** Fit       0.017120
 **** Fit       0.011244
 **** Fit       0.006910
 **** Fit       0.005848
 **** Fit       0.008621
 **** Fit       0.014332
 **** Fit       0.021611
 **** Fit       0.029172
 **** Fit       0.035743
 **** Fit       0.040337
 **** Fit       0.042748
 **** Fit       0.043248
 **** Fit       0.042141
 **** Fit       0.039778
 **** Fit       0.036523
 **** Fit       0.032636
 **** Fit       0.028391
 **** Fit       0.022967
 **** Fit       0.017816
 **** Fit       0.015106
 **** Fit       0.016637
 **** Fit       0.021897
 **** Fit       0.028645
 **** Fit       0.034433
 **** Fit       0.037722
 **** Fit       0.038267
 **** Fit       0.036499
 **** Fit       0.033039
 **** Fit       0.028413
 **** Fit       0.023407
 **** Fit       0.023098
 **** Fit       0.028411
 **** Fit       0.033043
 **** Fit       0.032764
 **** Fit       0.028376
 -----------------------------------------------------------------
 Leave Link  602 at Sat Sep 14 22:37:19 2019, MaxMem=  1342177280 cpu:             110.1 elap:               2.3

 Test job not archived.
 1\1\GINC-C492-071\SP\RB3LYP\SVP\C54H83Ca1N15O23\PENGZHI\14-Sep-2019\0\
 \#b3lyp/svp scf=(tight,noincore) Test #IOP(5/87=12) Density=Current Po
 p=(MK,readradii) iop(6/33=2) iop(6/42=6)\\holoCaM_loop3_66.0\\0,1\C,0,
 87.4,60.8,5.219\C,0,88.82,61.01,4.699\O,0,89.48,60.06,4.289\H,0,86.714
 ,60.714,4.376\H,0,87.361,59.887,5.813\H,0,87.11,61.649,5.838\N,0,89.28
 ,62.26,4.739\C,0,90.65,62.65,4.449\C,0,91.62,62.18,5.529\O,0,91.25,62.
 21,6.699\C,0,90.84,64.14,4.219\C,0,91.98,64.46,3.269\O,0,91.77,64.95,2
 .139\O,0,93.13,64.,3.449\H,0,88.59,62.96,4.979\H,0,90.96,62.13,3.539\H
 ,0,91.01,64.6,5.189\H,0,89.89,64.46,3.779\N,0,92.81,61.72,5.129\C,0,93
 .92,61.29,5.949\C,0,95.18,62.14,5.929\O,0,96.17,61.88,6.609\C,0,94.22,
 59.81,5.699\C,0,93.05,58.84,5.799\C,0,93.26,57.37,5.439\C,0,94.21,56.7
 2,6.449\N,0,94.76,55.4,6.119\H,0,92.86,61.64,4.119\H,0,93.63,61.38,6.9
 99\H,0,94.97,59.41,6.379\H,0,94.67,59.61,4.739\H,0,92.3,59.18,5.089\H,
 0,92.59,58.99,6.779\H,0,93.68,57.29,4.439\H,0,92.32,56.82,5.499\H,0,93
 .59,56.62,7.349\H,0,94.97,57.39,6.849\H,0,94.16,54.87,5.489\H,0,95.61,
 55.5,5.589\H,0,94.95,54.76,6.879\N,0,95.31,63.19,5.109\C,0,96.52,63.94
 ,4.839\C,0,96.34,65.44,4.719\O,0,97.38,66.11,4.789\C,0,97.21,63.39,3.5
 99\C,0,96.33,63.48,2.359\O,0,96.12,62.45,1.689\O,0,95.75,64.54,2.039\H
 ,0,94.54,63.25,4.459\H,0,97.29,63.79,5.609\H,0,97.29,62.32,3.829\H,0,9
 8.17,63.86,3.379\N,0,95.1,65.87,4.499\C,0,94.64,67.24,4.389\C,0,94.56,
 67.95,3.039\O,0,94.1,69.08,2.919\H,0,94.36,65.2,4.369\H,0,95.3,67.84,5
 .009\H,0,93.7,67.47,4.899\N,0,94.89,67.23,1.969\C,0,95.38,67.86,0.759\
 C,0,94.28,68.34,-0.171\O,0,94.57,68.81,-1.271\C,0,96.44,66.98,0.109\C,
 0,95.85,65.95,-0.841\N,0,96.66,65.54,-1.811\O,0,94.75,65.46,-0.581\H,0
 ,95.09,66.26,2.179\H,0,95.91,68.72,1.169\H,0,97.07,66.54,0.879\H,0,96.
 98,67.66,-0.561\H,0,97.62,65.83,-1.711\H,0,96.45,64.7,-2.341\N,0,93.,6
 8.19,0.169\C,0,91.8,68.66,-0.491\C,0,91.18,67.71,-1.511\O,0,90.27,68.0
 4,-2.271\H,0,92.93,68.,1.159\H,0,91.96,69.63,-0.981\H,0,91.11,68.89,0.
 319\N,0,91.69,66.48,-1.551\C,0,91.36,65.46,-2.531\C,0,91.2,64.13,-1.82
 1\O,0,91.98,63.81,-0.931\C,0,92.47,65.33,-3.581\C,0,92.71,66.62,-4.321
 \C,0,94.,67.15,-4.341\C,0,91.71,67.27,-5.061\C,0,94.31,68.38,-4.941\C,
 0,92.03,68.46,-5.711\C,0,93.33,69.01,-5.731\O,0,93.54,70.21,-6.351\H,0
 ,92.44,66.26,-0.911\H,0,90.4,65.76,-2.931\H,0,92.17,64.54,-4.261\H,0,9
 3.4,65.03,-3.101\H,0,94.69,66.62,-3.701\H,0,90.79,66.72,-5.161\H,0,95.
 29,68.77,-4.731\H,0,91.25,69.01,-6.221\H,0,92.79,70.51,-6.881\N,0,90.3
 2,63.24,-2.291\C,0,90.1,61.84,-1.981\C,0,90.7,60.97,-3.071\O,0,90.53,6
 1.15,-4.281\C,0,88.64,61.65,-1.561\C,0,88.44,62.24,-0.161\C,0,88.18,60
 .21,-1.721\C,0,88.91,61.47,1.059\H,0,89.86,63.51,-3.151\H,0,90.7,61.56
 ,-1.121\H,0,88.04,62.24,-2.241\H,0,87.37,62.41,-0.061\H,0,88.7,63.3,-0
 .211\H,0,87.3,60.1,-1.081\H,0,88.05,59.96,-2.771\H,0,88.99,59.57,-1.35
 1\H,0,88.31,61.83,1.899\H,0,88.59,60.42,1.039\H,0,89.97,61.67,1.199\N,
 0,91.49,60.,-2.601\C,0,92.24,58.98,-3.291\C,0,91.76,57.58,-2.931\O,0,9
 1.,57.4,-1.981\C,0,93.71,59.21,-2.951\O,0,93.79,58.75,-1.611\H,0,91.58
 ,60.05,-1.601\H,0,92.11,59.09,-4.371\H,0,94.13,60.2,-3.141\H,0,94.18,5
 8.41,-3.521\H,0,93.83,59.52,-1.041\N,0,92.03,56.59,-3.791\C,0,91.55,55
 .23,-3.751\C,0,92.13,54.5,-2.551\O,0,91.49,53.62,-1.971\C,0,91.79,54.5
 3,-5.081\H,0,92.65,56.87,-4.541\H,0,90.48,55.31,-3.561\H,0,91.14,53.65
 ,-5.071\H,0,91.56,55.26,-5.861\H,0,92.85,54.31,-5.201\N,0,93.38,54.68,
 -2.131\C,0,93.88,54.22,-0.851\C,0,93.15,54.8,0.359\O,0,92.81,54.01,1.2
 29\C,0,95.36,54.55,-0.681\H,0,93.94,55.36,-2.621\H,0,93.82,53.13,-0.87
 1\H,0,95.44,55.63,-0.671\H,0,95.78,54.09,0.219\H,0,95.87,54.15,-1.551\
 N,0,92.83,56.1,0.309\C,0,91.86,56.59,1.269\C,0,90.45,56.04,1.119\O,0,8
 9.74,55.95,2.119\C,0,91.77,58.12,1.199\C,0,92.94,58.94,1.719\C,0,92.86
 ,60.39,1.249\O,0,93.03,61.23,2.149\O,0,92.77,60.71,0.039\H,0,93.15,56.
 69,-0.441\H,0,92.21,56.47,2.299\H,0,90.93,58.43,1.819\H,0,91.49,58.4,0
 .179\H,0,93.83,58.47,1.319\H,0,92.95,58.92,2.809\N,0,89.97,55.74,-0.09
 1\C,0,88.64,55.21,-0.251\H,0,87.97,56.004,-0.581\H,0,88.653,54.414,-0.
 995\H,0,88.29,54.812,0.701\H,0,90.39,56.32,-0.811\Ca,0,93.71,63.43,0.8
 8\O,0,95.21,62.32,-1.091\H,0,95.27,62.31,-2.041\H,0,95.97,61.82,-0.791
 \\Version=ES64L-G16RevA.03\State=1-A\HF=-5333.6088803\RMSD=5.208e-09\D
 ipole=3.3091846,-10.6915466,-0.3165959\Quadrupole=-14.5849958,-19.3531
 903,33.9381861,-81.4065174,-8.5171301,-69.3551839\PG=C01 [X(C54H83Ca1N
 15O23)]\\@


 BLESSED ARE THOSE WHO NOUGHT EXPECT,
 FOR THEY SHALL NOT BE DISAPPOINTED..  WALCOT - ODE TO PITT
 Job cpu time:       0 days  7 hours 20 minutes 27.0 seconds.
 Elapsed time:       0 days  0 hours  9 minutes 16.8 seconds.
 File lengths (MBytes):  RWF=   1517 Int=      0 D2E=      0 Chk=    171 Scr=      1
 Normal termination of Gaussian 16 at Sat Sep 14 22:37:20 2019.
