 Entering Gaussian System, Link 0=g16
 Initial command:
 /home1/apps/gaussian/16rA.03/g16/l1.exe "/scratch/04905/jaebeomh/4358722/Gau-93851.inp" -scrdir="/scratch/04905/jaebeomh/4358722/"
 Entering Link 1 = /home1/apps/gaussian/16rA.03/g16/l1.exe PID=     93852.
  
 Copyright (c) 1988,1990,1992,1993,1995,1998,2003,2009,2016,
            Gaussian, Inc.  All Rights Reserved.
  
 This is part of the Gaussian(R) 16 program.  It is based on
 the Gaussian(R) 09 system (copyright 2009, Gaussian, Inc.),
 the Gaussian(R) 03 system (copyright 2003, Gaussian, Inc.),
 the Gaussian(R) 98 system (copyright 1998, Gaussian, Inc.),
 the Gaussian(R) 94 system (copyright 1995, Gaussian, Inc.),
 the Gaussian 92(TM) system (copyright 1992, Gaussian, Inc.),
 the Gaussian 90(TM) system (copyright 1990, Gaussian, Inc.),
 the Gaussian 88(TM) system (copyright 1988, Gaussian, Inc.),
 the Gaussian 86(TM) system (copyright 1986, Carnegie Mellon
 University), and the Gaussian 82(TM) system (copyright 1983,
 Carnegie Mellon University). Gaussian is a federally registered
 trademark of Gaussian, Inc.
  
 This software contains proprietary and confidential information,
 including trade secrets, belonging to Gaussian, Inc.
  
 This software is provided under written license and may be
 used, copied, transmitted, or stored only in accord with that
 written license.
  
 The following legend is applicable only to US Government
 contracts under FAR:
  
                    RESTRICTED RIGHTS LEGEND
  
 Use, reproduction and disclosure by the US Government is
 subject to restrictions as set forth in subparagraphs (a)
 and (c) of the Commercial Computer Software - Restricted
 Rights clause in FAR 52.227-19.
  
 Gaussian, Inc.
 340 Quinnipiac St., Bldg. 40, Wallingford CT 06492
  
  
 ---------------------------------------------------------------
 Warning -- This program may not be used in any manner that
 competes with the business of Gaussian, Inc. or will provide
 assistance to any competitor of Gaussian, Inc.  The licensee
 of this program is prohibited from giving any competitor of
 Gaussian, Inc. access to this program.  By using this program,
 the user acknowledges that Gaussian, Inc. is engaged in the
 business of creating and licensing software in the field of
 computational chemistry and represents and warrants to the
 licensee that it is not a competitor of Gaussian, Inc. and that
 it will not use this program in any manner prohibited above.
 ---------------------------------------------------------------
  

 Cite this work as:
 Gaussian 16, Revision A.03,
 M. J. Frisch, G. W. Trucks, H. B. Schlegel, G. E. Scuseria, 
 M. A. Robb, J. R. Cheeseman, G. Scalmani, V. Barone, 
 G. A. Petersson, H. Nakatsuji, X. Li, M. Caricato, A. V. Marenich, 
 J. Bloino, B. G. Janesko, R. Gomperts, B. Mennucci, H. P. Hratchian, 
 J. V. Ortiz, A. F. Izmaylov, J. L. Sonnenberg, D. Williams-Young, 
 F. Ding, F. Lipparini, F. Egidi, J. Goings, B. Peng, A. Petrone, 
 T. Henderson, D. Ranasinghe, V. G. Zakrzewski, J. Gao, N. Rega, 
 G. Zheng, W. Liang, M. Hada, M. Ehara, K. Toyota, R. Fukuda, 
 J. Hasegawa, M. Ishida, T. Nakajima, Y. Honda, O. Kitao, H. Nakai, 
 T. Vreven, K. Throssell, J. A. Montgomery, Jr., J. E. Peralta, 
 F. Ogliaro, M. J. Bearpark, J. J. Heyd, E. N. Brothers, K. N. Kudin, 
 V. N. Staroverov, T. A. Keith, R. Kobayashi, J. Normand, 
 K. Raghavachari, A. P. Rendell, J. C. Burant, S. S. Iyengar, 
 J. Tomasi, M. Cossi, J. M. Millam, M. Klene, C. Adamo, R. Cammi, 
 J. W. Ochterski, R. L. Martin, K. Morokuma, O. Farkas, 
 J. B. Foresman, and D. J. Fox, Gaussian, Inc., Wallingford CT, 2016.
 
 ******************************************
 Gaussian 16:  ES64L-G16RevA.03 25-Dec-2016
                18-Sep-2019 
 ******************************************
 %chk=holoCaM_loop3_55.0.chk
 %nprocshared=48
 Will use up to   48 processors via shared memory.
 %mem=10GB
 %nosave
 ----------------------------------------------------------------------
 #b3lyp/svp scf=(tight,noincore) Test #IOP(5/87=12) Density=Current Pop
 =(MK,readradii) iop(6/33=2) iop(6/42=6)
 ----------------------------------------------------------------------
 1/30=1,38=1,172=1/1;
 2/12=2,17=6,18=5,40=1/2;
 3/5=18,7=101,11=2,25=1,30=1,74=-5/1,2,3;
 4//1;
 5/5=4,32=2,38=5,87=12/2;
 6/7=2,8=2,9=2,10=2,15=8,20=101,22=-1,28=1,33=2,42=6/1,2;
 99/5=1,9=1/99;
 ------------------
 holoCaM_loop3_55.0
 ------------------
 Symbolic Z-matrix:
 Charge =  0 Multiplicity = 1
 C                     69.87     51.95     90.81 
 C                     70.08     52.54     92.2 
 O                     70.59     51.89     93.11 
 H                     69.142    52.553    90.266 
 H                     70.816    51.948    90.269 
 H                     69.5      50.929    90.9 
 N                     69.5      53.72     92.44 
 C                     69.05     54.35     93.66 
 C                     67.75     53.75     94.16 
 O                     66.72     53.85     93.49 
 C                     68.85     55.81     93.26 
 C                     68.45     56.78     94.36 
 O                     68.36     57.99     94.08 
 O                     68.53     56.46     95.57 
 H                     69.15     54.14     91.59 
 H                     69.77     54.16     94.46 
 H                     68.16     56.01     92.44 
 H                     69.76     56.2      92.81 
 N                     67.72     53.27     95.41 
 C                     66.6      52.45     95.83 
 C                     65.42     53.17     96.45 
 O                     64.26     52.78     96.35 
 C                     67.25     51.26     96.55 
 C                     68.22     50.39     95.76 
 C                     67.66     49.87     94.44 
 C                     68.72     48.97     93.82 
 N                     68.16     48.31     92.63 
 H                     68.47     53.47     96.05 
 H                     66.13     52.05     94.93 
 H                     66.41     50.62     96.8 
 H                     67.75     51.6      97.46 
 H                     68.49     49.61     96.48 
 H                     69.13     50.94     95.54 
 H                     67.41     50.67     93.74 
 H                     66.84     49.17     94.58 
 H                     69.14     48.19     94.45 
 H                     69.55     49.62     93.54 
 H                     67.32     47.82     92.86 
 H                     67.93     49.03     91.96 
 H                     68.78     47.66     92.16 
 N                     65.72     54.33     97.04 
 C                     64.79     55.21     97.72 
 C                     64.67     56.53     96.97 
 O                     63.87     57.38     97.35 
 C                     65.29     55.64     99.09 
 C                     66.66     56.31     99.08 
 O                     67.64     55.7      98.58 
 O                     66.79     57.52     99.34 
 H                     66.71     54.5      97.09 
 H                     63.76     54.85     97.74 
 H                     65.35     54.71     99.64 
 H                     64.6      56.29     99.64 
 N                     65.53     56.8      95.98 
 C                     65.36     57.93     95.1 
 C                     65.68     59.25     95.79 
 O                     64.87     60.17     95.67 
 H                     66.36     56.23     95.86 
 H                     64.3      57.95     94.83 
 H                     65.93     57.83     94.18 
 N                     66.83     59.36     96.46 
 C                     67.46     60.59     96.9 
 C                     68.48     61.22     95.96 
 O                     69.09     62.24     96.28 
 C                     67.9      60.47     98.35 
 C                     69.27     59.8      98.45 
 N                     70.2      60.35     99.23 
 O                     69.66     58.88     97.73 
 H                     67.38     58.52     96.5 
 H                     66.6      61.26     96.98 
 H                     67.14     59.96     98.94 
 H                     68.05     61.46     98.77 
 H                     69.9      61.11     99.84 
 H                     71.06     59.85     99.39 
 N                     68.72     60.67     94.76 
 C                     69.71     61.09     93.79 
 C                     71.09     60.5      94. 
 O                     71.93     60.71     93.12 
 H                     68.34     59.75     94.63 
 H                     69.78     62.18     93.78 
 H                     69.41     60.85     92.77 
 N                     71.39     59.7      95.02 
 C                     72.71     59.18     95.28 
 C                     72.7      57.69     95.59 
 O                     72.02     57.14     96.45 
 C                     73.23     59.85     96.55 
 C                     73.52     61.32     96.44 
 C                     72.59     62.27     96.87 
 C                     74.76     61.73     95.94 
 C                     72.85     63.65     96.82 
 C                     74.96     63.12     95.84 
 C                     74.04     64.12     96.22 
 O                     74.3      65.46     96.22 
 H                     70.67     59.66     95.74 
 H                     73.41     59.35     94.46 
 H                     74.09     59.37     97.04 
 H                     72.47     59.73     97.33 
 H                     71.65     61.88     97.24 
 H                     75.54     60.99     95.89 
 H                     72.16     64.31     97.32 
 H                     75.89     63.47     95.44 
 H                     75.13     65.64     95.77 
 N                     73.61     56.87     95.05 
 C                     73.91     55.5      95.4 
 C                     74.88     55.45     96.57 
 O                     76.04     55.83     96.43 
 C                     74.33     54.63     94.21 
 C                     73.52     54.91     92.94 
 C                     74.1      53.16     94.56 
 C                     74.1      54.24     91.7 
 H                     74.25     57.32     94.41 
 H                     73.06     55.       95.86 
 H                     75.38     54.83     93.99 
 H                     73.59     55.99     92.78 
 H                     72.47     54.66     93.06 
 H                     74.59     52.46     93.89 
 H                     74.45     52.92     95.56 
 H                     73.05     52.88     94.47 
 H                     73.54     54.51     90.81 
 H                     75.09     54.69     91.61 
 H                     74.13     53.15     91.76 
 N                     74.33     54.99     97.69 
 C                     75.17     54.62     98.81 
 C                     75.78     53.25     98.55 
 O                     75.29     52.42     97.8 
 C                     74.41     54.77     100.12 
 O                     73.37     53.81     100.17 
 H                     73.34     54.79     97.81 
 H                     76.       55.34     98.81 
 H                     73.97     55.76     100.19 
 H                     75.02     54.59     101. 
 H                     72.59     53.98     99.63 
 N                     76.86     52.9      99.26 
 C                     77.47     51.59     99.3 
 C                     76.49     50.43     99.45 
 O                     76.61     49.47     98.69 
 C                     78.66     51.53     100.24 
 H                     77.24     53.56     99.92 
 H                     77.78     51.4      98.27 
 H                     79.21     52.47     100.22 
 H                     78.34     51.2      101.23 
 H                     79.4      50.81     99.89 
 N                     75.45     50.55     100.28 
 C                     74.52     49.48     100.59 
 C                     73.56     49.19     99.45 
 O                     73.       48.1      99.36 
 C                     73.81     49.77     101.91 
 H                     75.35     51.42     100.77 
 H                     75.12     48.6      100.81 
 H                     73.57     50.81     102.15 
 H                     72.87     49.22     101.99 
 H                     74.34     49.43     102.8 
 N                     73.41     50.2      98.59 
 C                     72.59     50.12     97.4 
 C                     73.41     49.63     96.21 
 O                     72.86     49.       95.31 
 C                     71.94     51.46     97.07 
 C                     71.1      52.07     98.19 
 C                     70.68     53.5      97.88 
 O                     71.41     54.4      98.37 
 O                     69.75     53.9      97.15 
 H                     73.92     51.05     98.78 
 H                     71.79     49.4      97.56 
 H                     71.39     51.3      96.14 
 H                     72.72     52.15     96.77 
 H                     71.76     51.94     99.05 
 H                     70.24     51.44     98.42 
 N                     74.71     49.93     96.23 
 C                     75.55     49.4      95.17 
 H                     76.522    49.125    95.58 
 H                     75.077    48.519    94.737 
 H                     75.683    50.158    94.398 
 H                     75.09     50.44     97.02 
 Ca                    69.92     56.32     97.73 
 O                     69.44     56.82     100.388 
 H                     69.54     56.59     101.308 
 H                     68.57     57.19     100.318 
 
 Stoichiometry    C54H83CaN15O23
 Framework group  C1[X(C54H83CaN15O23)]
 Deg. of freedom   522
 Full point group                 C1      NOp   1
 Largest Abelian subgroup         C1      NOp   1
 Largest concise Abelian subgroup C1      NOp   1
                         Standard orientation:                         
 ---------------------------------------------------------------------
 Center     Atomic      Atomic             Coordinates (Angstroms)
 Number     Number       Type             X           Y           Z
 ---------------------------------------------------------------------
      1          6           0       -1.800957   -3.513106    5.401575
      2          6           0       -1.541670   -2.792261    4.083450
      3          8           0       -2.458096   -2.461417    3.334180
      4          1           0       -0.878925   -3.983268    5.745569
      5          1           0       -2.142432   -2.795678    6.147425
      6          1           0       -2.564309   -4.276782    5.254829
      7          7           0       -0.268080   -2.720327    3.684458
      8          6           0        0.333570   -2.590050    2.377230
      9          6           0        0.295590   -3.894594    1.604753
     10          8           0        0.914926   -4.878733    2.014254
     11          6           0        1.774510   -2.186643    2.681459
     12          6           0        2.673433   -1.883521    1.493623
     13          8           0        3.828369   -1.473067    1.713279
     14          8           0        2.199195   -1.720266    0.344124
     15          1           0        0.366244   -3.003330    4.418586
     16          1           0       -0.248799   -1.891026    1.771662
     17          1           0        2.355398   -2.858949    3.313181
     18          1           0        1.787032   -1.306561    3.320207
     19          7           0       -0.279103   -3.891268    0.394994
     20          6           0       -0.581082   -5.153508   -0.252122
     21          6           0        0.492517   -5.736680   -1.147944
     22          8           0        0.657933   -6.942527   -1.310022
     23          6           0       -2.015974   -4.980617   -0.769996
     24          6           0       -3.111195   -4.681225    0.246250
     25          6           0       -3.165739   -5.661907    1.413163
     26          6           0       -4.348244   -5.264214    2.285816
     27          7           0       -4.544339   -6.282316    3.329998
     28          1           0       -0.505828   -3.022206   -0.058247
     29          1           0       -0.620778   -5.919435    0.524203
     30          1           0       -2.256510   -5.951283   -1.191479
     31          1           0       -2.044081   -4.213549   -1.547502
     32          1           0       -4.015886   -4.655240   -0.370645
     33          1           0       -2.985068   -3.684116    0.657185
     34          1           0       -2.254371   -5.657549    2.014736
     35          1           0       -3.454493   -6.663687    1.104848
     36          1           0       -5.306260   -5.125157    1.791278
     37          1           0       -4.090643   -4.303653    2.733884
     38          1           0       -4.648392   -7.189491    2.924034
     39          1           0       -3.716859   -6.290599    3.909143
     40          1           0       -5.332686   -6.126306    3.948035
     41          7           0        1.323696   -4.838150   -1.682252
     42          6           0        2.424568   -5.119765   -2.582515
     43          6           0        3.750482   -4.778214   -1.915735
     44          8           0        4.806598   -5.018863   -2.493323
     45          6           0        2.418298   -4.222014   -3.809627
     46          6           0        2.426210   -2.728886   -3.499136
     47          8           0        1.521935   -2.247039   -2.769335
     48          8           0        3.417436   -2.020773   -3.753398
     49          1           0        1.041609   -3.889142   -1.505300
     50          1           0        2.545366   -6.175294   -2.831847
     51          1           0        1.491984   -4.479809   -4.306099
     52          1           0        3.226695   -4.423337   -4.521711
     53          7           0        3.746151   -4.101565   -0.760431
     54          6           0        4.940540   -3.914483    0.026102
     55          6           0        5.893228   -2.906997   -0.604976
     56          8           0        7.079783   -3.222981   -0.700578
     57          1           0        2.894020   -3.657928   -0.435995
     58          1           0        5.450504   -4.882259    0.041814
     59          1           0        4.722152   -3.643132    1.055653
     60          7           0        5.409586   -1.723895   -0.992093
     61          6           0        6.179847   -0.535730   -1.305719
     62          6           0        6.421514    0.451964   -0.171278
     63          8           0        7.028165    1.504779   -0.367380
     64          6           0        5.698197    0.078234   -2.610158
     65          6           0        4.495587    0.990699   -2.371543
     66          7           0        4.485844    2.201397   -2.928244
     67          8           0        3.597281    0.775875   -1.556806
     68          1           0        4.416922   -1.614242   -0.881211
     69          1           0        7.139316   -0.968416   -1.600852
     70          1           0        5.495934   -0.697591   -3.347034
     71          1           0        6.463984    0.736287   -3.009580
     72          1           0        5.216411    2.401171   -3.610932
     73          1           0        3.647638    2.757565   -2.870909
     74          7           0        5.979441    0.178547    1.065619
     75          6           0        6.050365    1.039829    2.227756
     76          6           0        4.900875    2.018542    2.359649
     77          8           0        4.837609    2.672372    3.404926
     78          1           0        5.338585   -0.591607    1.127808
     79          1           0        6.994702    1.588756    2.225211
     80          1           0        6.095392    0.470429    3.156064
     81          7           0        3.927200    2.120531    1.458563
     82          6           0        2.859765    3.088222    1.526069
     83          6           0        1.494175    2.470660    1.261340
     84          8           0        1.187295    1.799542    0.281582
     85          6           0        3.071884    4.091650    0.394550
     86          6           0        4.273253    4.983478    0.530402
     87          6           0        5.468440    4.684284   -0.128622
     88          6           0        4.167488    6.150339    1.293912
     89          6           0        6.594766    5.521286   -0.055722
     90          6           0        5.335016    6.929738    1.401225
     91          6           0        6.576892    6.651922    0.791829
     92          8           0        7.661140    7.480756    0.817163
     93          1           0        4.110801    1.616301    0.592282
     94          1           0        2.813605    3.613832    2.481529
     95          1           0        2.209550    4.721540    0.130508
     96          1           0        3.193690    3.528375   -0.537268
     97          1           0        5.479052    3.762363   -0.696558
     98          1           0        3.176245    6.487729    1.543121
     99          1           0        7.418454    5.314650   -0.719453
    100          1           0        5.296822    7.819081    1.997052
    101          1           0        7.520694    8.196736    1.442820
    102          7           0        0.437702    2.789274    2.019265
    103          6           0       -0.959696    2.503659    1.784529
    104          6           0       -1.572092    3.556059    0.873637
    105          8           0       -1.715902    4.710334    1.269324
    106          6           0       -1.766511    2.245256    3.061900
    107          6           0       -1.005113    1.416051    4.101174
    108          6           0       -3.024327    1.452798    2.706641
    109          6           0       -1.696075    1.377169    5.459099
    110          1           0        0.644572    3.423743    2.778445
    111          1           0       -1.097623    1.628392    1.152878
    112          1           0       -2.013368    3.207074    3.514524
    113          1           0       -0.050620    1.931060    4.244734
    114          1           0       -0.790180    0.412146    3.747087
    115          1           0       -3.775734    1.433808    3.490239
    116          1           0       -3.517008    1.846122    1.821959
    117          1           0       -2.809463    0.394216    2.557519
    118          1           0       -1.099915    0.835888    6.187253
    119          1           0       -1.710328    2.424556    5.764842
    120          1           0       -2.689958    0.925202    5.436263
    121          7           0       -1.887829    3.089688   -0.331066
    122          6           0       -2.723461    3.875165   -1.215172
    123          6           0       -4.177118    3.740062   -0.784791
    124          8           0       -4.611223    2.792872   -0.147700
    125          6           0       -2.427998    3.537201   -2.669366
    126          8           0       -2.842457    2.209182   -2.934486
    127          1           0       -1.654159    2.160545   -0.672521
    128          1           0       -2.438980    4.922111   -1.041176
    129          1           0       -1.362893    3.612407   -2.865569
    130          1           0       -2.964114    4.160545   -3.378536
    131          1           0       -2.285117    1.499881   -2.595128
    132          7           0       -5.046369    4.663265   -1.215023
    133          6           0       -6.484620    4.613975   -1.077897
    134          6           0       -7.116299    3.267976   -1.421069
    135          8           0       -7.928636    2.792020   -0.629126
    136          6           0       -7.171687    5.808497   -1.713788
    137          1           0       -4.705109    5.420530   -1.785716
    138          1           0       -6.657097    4.596707    0.000552
    139          1           0       -6.567301    6.706372   -1.591160
    140          1           0       -7.454126    5.575499   -2.742058
    141          1           0       -8.089628    6.061167   -1.182711
    142          7           0       -6.665636    2.578349   -2.472838
    143          6           0       -7.258901    1.347760   -2.962314
    144          6           0       -6.958237    0.157152   -2.069367
    145          8           0       -7.678249   -0.838431   -2.083441
    146          6           0       -6.861292    1.118254   -4.418279
    147          1           0       -5.907947    2.978323   -2.995263
    148          1           0       -8.331776    1.518320   -3.013778
    149          1           0       -5.859538    1.423580   -4.734611
    150          1           0       -6.956651    0.067538   -4.700064
    151          1           0       -7.507002    1.601929   -5.151571
    152          7           0       -5.882180    0.311656   -1.294493
    153          6           0       -5.448097   -0.672368   -0.325901
    154          6           0       -6.088335   -0.411381    1.034459
    155          8           0       -6.298858   -1.350399    1.798217
    156          6           0       -3.928886   -0.701342   -0.191144
    157          6           0       -3.163953   -0.939558   -1.491233
    158          6           0       -1.666247   -0.723712   -1.324839
    159          8           0       -1.240199    0.413099   -1.655207
    160          8           0       -0.814582   -1.497640   -0.841619
    161          1           0       -5.367603    1.175415   -1.382982
    162          1           0       -5.765891   -1.661783   -0.648492
    163          1           0       -3.715915   -1.435010    0.589480
    164          1           0       -3.611431    0.229698    0.263705
    165          1           0       -3.674470   -0.254090   -2.170648
    166          1           0       -3.384379   -1.927083   -1.898179
    167          7           0       -6.384395    0.860336    1.309203
    168          6           0       -7.085528    1.146276    2.548861
    169          1           0       -7.802999    1.950216    2.383257
    170          1           0       -7.612846    0.253164    2.883023
    171          1           0       -6.367897    1.451422    3.310523
    172          1           0       -6.193615    1.575687    0.616039
    173         20           0        1.199101   -0.148082   -1.429389
    174          8           0        1.514664    0.179702   -4.138326
    175          1           0        1.149051    0.343950   -5.003572
    176          1           0        2.229656   -0.425953   -4.282087
 ---------------------------------------------------------------------
 Rotational constants (GHZ):           0.0226768           0.0158452           0.0122539
 Standard basis: SVP (5D, 7F)
 There are  1809 symmetry adapted cartesian basis functions of A   symmetry.
 There are  1717 symmetry adapted basis functions of A   symmetry.
  1717 basis functions,  2922 primitive gaussians,  1809 cartesian basis functions
   358 alpha electrons      358 beta electrons
       nuclear repulsion energy     21866.0666079844 Hartrees.
 NAtoms=  176 NActive=  176 NUniq=  176 SFac= 1.00D+00 NAtFMM=   60 NAOKFM=T Big=T
 Integral buffers will be    131072 words long.
 Raffenetti 2 integral format.
 Two-electron integral symmetry is turned on.
 One-electron integrals computed using PRISM.
 NBasis=  1717 RedAO= T EigKep=  2.90D-04  NBF=  1717
 NBsUse=  1717 1.00D-06 EigRej= -1.00D+00 NBFU=  1717
 ExpMin= 1.98D-02 ExpMax= 3.51D+04 ExpMxC= 5.28D+03 IAcc=3 IRadAn=         5 AccDes= 0.00D+00
 Harris functional with IExCor=  402 and IRadAn=       5 diagonalized for initial guess.
 HarFok:  IExCor=  402 AccDes= 0.00D+00 IRadAn=         5 IDoV= 1 UseB2=F ITyADJ=14
 ICtDFT=  3500011 ScaDFX=  1.000000  1.000000  1.000000  1.000000
 FoFCou: FMM=F IPFlag=           0 FMFlag=      100000 FMFlg1=        2001
         NFxFlg=           0 DoJE=T BraDBF=F KetDBF=T FulRan=T
         wScrn=  0.000000 ICntrl=       500 IOpCl=  0 I1Cent=   200000004 NGrid=           0
         NMat0=    1 NMatS0=      1 NMatT0=    0 NMatD0=    1 NMtDS0=    0 NMtDT0=    0
 Petite list used in FoFCou.
 Requested convergence on RMS density matrix=1.00D-08 within 128 cycles.
 Requested convergence on MAX density matrix=1.00D-06.
 Requested convergence on             energy=1.00D-06.
 No special actions if energy rises.
 EnCoef did     5 forward-backward iterations
 SCF Done:  E(RB3LYP) =  -5333.64479375     A.U. after   17 cycles
            NFock= 17  Conv=0.67D-08     -V/T= 2.0081
 SCF density gives NOpUse=  1 NOpAll=  1.
 Hyperfine terms turned off by default for NAtoms > 100.

 **********************************************************************

            Population analysis using the SCF density.

 **********************************************************************

 Orbital symmetries:
 BldTbl:  Degeneracy threshold= 1.00D-02
       Occupied  (A) (A) (A) (A) (A) (A) (A) (A) (A) (A) (A) (A)
                 (A) (A) (A) (A) (A) (A) (A) (A) (A) (A) (A) (A)
                 (A) (A) (A) (A) (A) (A) (A) (A) (A) (A) (A) (A)
                 (A) (A) (A) (A) (A) (A) (A) (A) (A) (A) (A) (A)
                 (A) (A) (A) (A) (A) (A) (A) (A) (A) (A) (A) (A)
                 (A) (A) (A) (A) (A) (A) (A) (A) (A) (A) (A) (A)
                 (A) (A) (A) (A) (A) (A) (A) (A) (A) (A) (A) (A)
                 (A) (A) (A) (A) (A) (A) (A) (A) (A) (A) (A) (A)
                 (A) (A) (A) (A) (A) (A) (A) (A) (A) (A) (A) (A)
                 (A) (A) (A) (A) (A) (A) (A) (A) (A) (A) (A) (A)
                 (A) (A) (A) (A) (A) (A) (A) (A) (A) (A) (A) (A)
                 (A) (A) (A) (A) (A) (A) (A) (A) (A) (A) (A) (A)
                 (A) (A) (A) (A) (A) (A) (A) (A) (A) (A) (A) (A)
                 (A) (A) (A) (A) (A) (A) (A) (A) (A) (A) (A) (A)
                 (A) (A) (A) (A) (A) (A) (A) (A) (A) (A) (A) (A)
                 (A) (A) (A) (A) (A) (A) (A) (A) (A) (A) (A) (A)
                 (A) (A) (A) (A) (A) (A) (A) (A) (A) (A) (A) (A)
                 (A) (A) (A) (A) (A) (A) (A) (A) (A) (A) (A) (A)
                 (A) (A) (A) (A) (A) (A) (A) (A) (A) (A) (A) (A)
                 (A) (A) (A) (A) (A) (A) (A) (A) (A) (A) (A) (A)
                 (A) (A) (A) (A) (A) (A) (A) (A) (A) (A) (A) (A)
                 (A) (A) (A) (A) (A) (A) (A) (A) (A) (A) (A) (A)
                 (A) (A) (A) (A) (A) (A) (A) (A) (A) (A) (A) (A)
                 (A) (A) (A) (A) (A) (A) (A) (A) (A) (A) (A) (A)
                 (A) (A) (A) (A) (A) (A) (A) (A) (A) (A) (A) (A)
                 (A) (A) (A) (A) (A) (A) (A) (A) (A) (A) (A) (A)
                 (A) (A) (A) (A) (A) (A) (A) (A) (A) (A) (A) (A)
                 (A) (A) (A) (A) (A) (A) (A) (A) (A) (A) (A) (A)
                 (A) (A) (A) (A) (A) (A) (A) (A) (A) (A) (A) (A)
                 (A) (A) (A) (A) (A) (A) (A) (A) (A) (A)
       Virtual   (A) (A) (A) (A) (A) (A) (A) (A) (A) (A) (A) (A)
                 (A) (A) (A) (A) (A) (A) (A) (A) (A) (A) (A) (A)
                 (A) (A) (A) (A) (A) (A) (A) (A) (A) (A) (A) (A)
                 (A) (A) (A) (A) (A) (A) (A) (A) (A) (A) (A) (A)
                 (A) (A) (A) (A) (A) (A) (A) (A) (A) (A) (A) (A)
                 (A) (A) (A) (A) (A) (A) (A) (A) (A) (A) (A) (A)
                 (A) (A) (A) (A) (A) (A) (A) (A) (A) (A) (A) (A)
                 (A) (A) (A) (A) (A) (A) (A) (A) (A) (A) (A) (A)
                 (A) (A) (A) (A) (A) (A) (A) (A) (A) (A) (A) (A)
                 (A) (A) (A) (A) (A) (A) (A) (A) (A) (A) (A) (A)
                 (A) (A) (A) (A) (A) (A) (A) (A) (A) (A) (A) (A)
                 (A) (A) (A) (A) (A) (A) (A) (A) (A) (A) (A) (A)
                 (A) (A) (A) (A) (A) (A) (A) (A) (A) (A) (A) (A)
                 (A) (A) (A) (A) (A) (A) (A) (A) (A) (A) (A) (A)
                 (A) (A) (A) (A) (A) (A) (A) (A) (A) (A) (A) (A)
                 (A) (A) (A) (A) (A) (A) (A) (A) (A) (A) (A) (A)
                 (A) (A) (A) (A) (A) (A) (A) (A) (A) (A) (A) (A)
                 (A) (A) (A) (A) (A) (A) (A) (A) (A) (A) (A) (A)
                 (A) (A) (A) (A) (A) (A) (A) (A) (A) (A) (A) (A)
                 (A) (A) (A) (A) (A) (A) (A) (A) (A) (A) (A) (A)
                 (A) (A) (A) (A) (A) (A) (A) (A) (A) (A) (A) (A)
                 (A) (A) (A) (A) (A) (A) (A) (A) (A) (A) (A) (A)
                 (A) (A) (A) (A) (A) (A) (A) (A) (A) (A) (A) (A)
                 (A) (A) (A) (A) (A) (A) (A) (A) (A) (A) (A) (A)
                 (A) (A) (A) (A) (A) (A) (A) (A) (A) (A) (A) (A)
                 (A) (A) (A) (A) (A) (A) (A) (A) (A) (A) (A) (A)
                 (A) (A) (A) (A) (A) (A) (A) (A) (A) (A) (A) (A)
                 (A) (A) (A) (A) (A) (A) (A) (A) (A) (A) (A) (A)
                 (A) (A) (A) (A) (A) (A) (A) (A) (A) (A) (A) (A)
                 (A) (A) (A) (A) (A) (A) (A) (A) (A) (A) (A) (A)
                 (A) (A) (A) (A) (A) (A) (A) (A) (A) (A) (A) (A)
                 (A) (A) (A) (A) (A) (A) (A) (A) (A) (A) (A) (A)
                 (A) (A) (A) (A) (A) (A) (A) (A) (A) (A) (A) (A)
                 (A) (A) (A) (A) (A) (A) (A) (A) (A) (A) (A) (A)
                 (A) (A) (A) (A) (A) (A) (A) (A) (A) (A) (A) (A)
                 (A) (A) (A) (A) (A) (A) (A) (A) (A) (A) (A) (A)
                 (A) (A) (A) (A) (A) (A) (A) (A) (A) (A) (A) (A)
                 (A) (A) (A) (A) (A) (A) (A) (A) (A) (A) (A) (A)
                 (A) (A) (A) (A) (A) (A) (A) (A) (A) (A) (A) (A)
                 (A) (A) (A) (A) (A) (A) (A) (A) (A) (A) (A) (A)
                 (A) (A) (A) (A) (A) (A) (A) (A) (A) (A) (A) (A)
                 (A) (A) (A) (A) (A) (A) (A) (A) (A) (A) (A) (A)
                 (A) (A) (A) (A) (A) (A) (A) (A) (A) (A) (A) (A)
                 (A) (A) (A) (A) (A) (A) (A) (A) (A) (A) (A) (A)
                 (A) (A) (A) (A) (A) (A) (A) (A) (A) (A) (A) (A)
                 (A) (A) (A) (A) (A) (A) (A) (A) (A) (A) (A) (A)
                 (A) (A) (A) (A) (A) (A) (A) (A) (A) (A) (A) (A)
                 (A) (A) (A) (A) (A) (A) (A) (A) (A) (A) (A) (A)
                 (A) (A) (A) (A) (A) (A) (A) (A) (A) (A) (A) (A)
                 (A) (A) (A) (A) (A) (A) (A) (A) (A) (A) (A) (A)
                 (A) (A) (A) (A) (A) (A) (A) (A) (A) (A) (A) (A)
                 (A) (A) (A) (A) (A) (A) (A) (A) (A) (A) (A) (A)
                 (A) (A) (A) (A) (A) (A) (A) (A) (A) (A) (A) (A)
                 (A) (A) (A) (A) (A) (A) (A) (A) (A) (A) (A) (A)
                 (A) (A) (A) (A) (A) (A) (A) (A) (A) (A) (A) (A)
                 (A) (A) (A) (A) (A) (A) (A) (A) (A) (A) (A) (A)
                 (A) (A) (A) (A) (A) (A) (A) (A) (A) (A) (A) (A)
                 (A) (A) (A) (A) (A) (A) (A) (A) (A) (A) (A) (A)
                 (A) (A) (A) (A) (A) (A) (A) (A) (A) (A) (A) (A)
                 (A) (A) (A) (A) (A) (A) (A) (A) (A) (A) (A) (A)
                 (A) (A) (A) (A) (A) (A) (A) (A) (A) (A) (A) (A)
                 (A) (A) (A) (A) (A) (A) (A) (A) (A) (A) (A) (A)
                 (A) (A) (A) (A) (A) (A) (A) (A) (A) (A) (A) (A)
                 (A) (A) (A) (A) (A) (A) (A) (A) (A) (A) (A) (A)
                 (A) (A) (A) (A) (A) (A) (A) (A) (A) (A) (A) (A)
                 (A) (A) (A) (A) (A) (A) (A) (A) (A) (A) (A) (A)
                 (A) (A) (A) (A) (A) (A) (A) (A) (A) (A) (A) (A)
                 (A) (A) (A) (A) (A) (A) (A) (A) (A) (A) (A) (A)
                 (A) (A) (A) (A) (A) (A) (A) (A) (A) (A) (A) (A)
                 (A) (A) (A) (A) (A) (A) (A) (A) (A) (A) (A) (A)
                 (A) (A) (A) (A) (A) (A) (A) (A) (A) (A) (A) (A)
                 (A) (A) (A) (A) (A) (A) (A) (A) (A) (A) (A) (A)
                 (A) (A) (A) (A) (A) (A) (A) (A) (A) (A) (A) (A)
                 (A) (A) (A) (A) (A) (A) (A) (A) (A) (A) (A) (A)
                 (A) (A) (A) (A) (A) (A) (A) (A) (A) (A) (A) (A)
                 (A) (A) (A) (A) (A) (A) (A) (A) (A) (A) (A) (A)
                 (A) (A) (A) (A) (A) (A) (A) (A) (A) (A) (A) (A)
                 (A) (A) (A) (A) (A) (A) (A) (A) (A) (A) (A) (A)
                 (A) (A) (A) (A) (A) (A) (A) (A) (A) (A) (A) (A)
                 (A) (A) (A) (A) (A) (A) (A) (A) (A) (A) (A) (A)
                 (A) (A) (A) (A) (A) (A) (A) (A) (A) (A) (A) (A)
                 (A) (A) (A) (A) (A) (A) (A) (A) (A) (A) (A) (A)
                 (A) (A) (A) (A) (A) (A) (A) (A) (A) (A) (A) (A)
                 (A) (A) (A) (A) (A) (A) (A) (A) (A) (A) (A) (A)
                 (A) (A) (A) (A) (A) (A) (A) (A) (A) (A) (A) (A)
                 (A) (A) (A) (A) (A) (A) (A) (A) (A) (A) (A) (A)
                 (A) (A) (A) (A) (A) (A) (A) (A) (A) (A) (A) (A)
                 (A) (A) (A) (A) (A) (A) (A) (A) (A) (A) (A) (A)
                 (A) (A) (A) (A) (A) (A) (A) (A) (A) (A) (A) (A)
                 (A) (A) (A) (A) (A) (A) (A) (A) (A) (A) (A) (A)
                 (A) (A) (A) (A) (A) (A) (A) (A) (A) (A) (A) (A)
                 (A) (A) (A) (A) (A) (A) (A) (A) (A) (A) (A) (A)
                 (A) (A) (A) (A) (A) (A) (A) (A) (A) (A) (A) (A)
                 (A) (A) (A) (A) (A) (A) (A) (A) (A) (A) (A) (A)
                 (A) (A) (A) (A) (A) (A) (A) (A) (A) (A) (A) (A)
                 (A) (A) (A) (A) (A) (A) (A) (A) (A) (A) (A) (A)
                 (A) (A) (A) (A) (A) (A) (A) (A) (A) (A) (A) (A)
                 (A) (A) (A) (A) (A) (A) (A) (A) (A) (A) (A) (A)
                 (A) (A) (A) (A) (A) (A) (A) (A) (A) (A) (A) (A)
                 (A) (A) (A) (A) (A) (A) (A) (A) (A) (A) (A) (A)
                 (A) (A) (A) (A) (A) (A) (A) (A) (A) (A) (A) (A)
                 (A) (A) (A) (A) (A) (A) (A) (A) (A) (A) (A) (A)
                 (A) (A) (A) (A) (A) (A) (A) (A) (A) (A) (A) (A)
                 (A) (A) (A) (A) (A) (A) (A) (A) (A) (A) (A) (A)
                 (A) (A) (A) (A) (A) (A) (A) (A) (A) (A) (A) (A)
                 (A) (A) (A) (A) (A) (A) (A) (A) (A) (A) (A) (A)
                 (A) (A) (A) (A) (A) (A) (A) (A) (A) (A) (A) (A)
                 (A) (A) (A) (A) (A) (A) (A) (A) (A) (A) (A) (A)
                 (A) (A) (A) (A) (A) (A) (A) (A) (A) (A) (A) (A)
                 (A) (A) (A) (A) (A) (A) (A) (A) (A) (A) (A) (A)
                 (A) (A) (A) (A) (A) (A) (A) (A) (A) (A) (A) (A)
                 (A) (A) (A) (A) (A) (A) (A) (A) (A) (A) (A) (A)
                 (A) (A) (A) (A) (A) (A) (A) (A) (A) (A) (A) (A)
                 (A) (A) (A)
 The electronic state is 1-A.
 Alpha  occ. eigenvalues -- -145.35838 -19.15855 -19.13823 -19.13369 -19.13090
 Alpha  occ. eigenvalues --  -19.12570 -19.11999 -19.11958 -19.11854 -19.11510
 Alpha  occ. eigenvalues --  -19.11458 -19.10975 -19.09192 -19.08717 -19.08180
 Alpha  occ. eigenvalues --  -19.06403 -19.06399 -19.06224 -19.05970 -19.04338
 Alpha  occ. eigenvalues --  -19.04130 -19.03814 -19.03612 -19.03486 -15.41706
 Alpha  occ. eigenvalues --  -14.56785 -14.39335 -14.37625 -14.37454 -14.37130
 Alpha  occ. eigenvalues --  -14.36905 -14.36634 -14.34994 -14.33993 -14.33560
 Alpha  occ. eigenvalues --  -14.33141 -14.31515 -14.31123 -14.30034 -14.29706
 Alpha  occ. eigenvalues --  -12.55302 -12.55265 -12.55264 -10.31981 -10.31818
 Alpha  occ. eigenvalues --  -10.30942 -10.30911 -10.30866 -10.30402 -10.30213
 Alpha  occ. eigenvalues --  -10.29106 -10.27970 -10.26942 -10.26582 -10.26475
 Alpha  occ. eigenvalues --  -10.25946 -10.25926 -10.25735 -10.25539 -10.25326
 Alpha  occ. eigenvalues --  -10.25301 -10.25144 -10.24638 -10.24478 -10.24319
 Alpha  occ. eigenvalues --  -10.23621 -10.23484 -10.23380 -10.23217 -10.22549
 Alpha  occ. eigenvalues --  -10.22498 -10.22447 -10.22400 -10.22153 -10.21905
 Alpha  occ. eigenvalues --  -10.20866 -10.20513 -10.20225 -10.20225 -10.20046
 Alpha  occ. eigenvalues --  -10.19955 -10.19778 -10.19656 -10.19470 -10.19460
 Alpha  occ. eigenvalues --  -10.18711 -10.18437 -10.18375 -10.18250 -10.18169
 Alpha  occ. eigenvalues --  -10.18082 -10.17814 -10.17522 -10.17442 -10.17008
 Alpha  occ. eigenvalues --  -10.16943 -10.14836  -1.78774  -1.12204  -1.08369
 Alpha  occ. eigenvalues --   -1.07568  -1.06670  -1.06355  -1.05706  -1.05547
 Alpha  occ. eigenvalues --   -1.04769  -1.04584  -1.04571  -1.04202  -1.03631
 Alpha  occ. eigenvalues --   -1.02114  -1.01741  -1.01595  -1.00857  -1.00366
 Alpha  occ. eigenvalues --   -1.00180  -1.00069  -0.99444  -0.99317  -0.98661
 Alpha  occ. eigenvalues --   -0.97363  -0.96246  -0.96063  -0.95856  -0.94523
 Alpha  occ. eigenvalues --   -0.94017  -0.93813  -0.93486  -0.92299  -0.91358
 Alpha  occ. eigenvalues --   -0.91221  -0.90786  -0.89651  -0.89539  -0.88897
 Alpha  occ. eigenvalues --   -0.88376  -0.87823  -0.87146  -0.87030  -0.85817
 Alpha  occ. eigenvalues --   -0.83838  -0.82437  -0.81601  -0.80360  -0.80278
 Alpha  occ. eigenvalues --   -0.79254  -0.78761  -0.78360  -0.77667  -0.76539
 Alpha  occ. eigenvalues --   -0.75629  -0.74943  -0.74788  -0.73497  -0.73421
 Alpha  occ. eigenvalues --   -0.73207  -0.72712  -0.71525  -0.71343  -0.70901
 Alpha  occ. eigenvalues --   -0.69981  -0.69718  -0.68605  -0.68182  -0.68153
 Alpha  occ. eigenvalues --   -0.67687  -0.66417  -0.66354  -0.65473  -0.64922
 Alpha  occ. eigenvalues --   -0.64680  -0.62996  -0.62647  -0.62292  -0.61630
 Alpha  occ. eigenvalues --   -0.61489  -0.61313  -0.61254  -0.60359  -0.60176
 Alpha  occ. eigenvalues --   -0.59384  -0.59367  -0.58920  -0.58183  -0.57964
 Alpha  occ. eigenvalues --   -0.57905  -0.57131  -0.56930  -0.56697  -0.56163
 Alpha  occ. eigenvalues --   -0.55927  -0.55418  -0.55301  -0.55151  -0.54851
 Alpha  occ. eigenvalues --   -0.54633  -0.54323  -0.54177  -0.53618  -0.53592
 Alpha  occ. eigenvalues --   -0.53550  -0.53292  -0.53170  -0.52439  -0.52086
 Alpha  occ. eigenvalues --   -0.51959  -0.51355  -0.50890  -0.50664  -0.50078
 Alpha  occ. eigenvalues --   -0.50012  -0.49724  -0.49585  -0.49464  -0.49182
 Alpha  occ. eigenvalues --   -0.48999  -0.48814  -0.48399  -0.48224  -0.47907
 Alpha  occ. eigenvalues --   -0.47891  -0.47736  -0.47526  -0.47443  -0.47324
 Alpha  occ. eigenvalues --   -0.46949  -0.46545  -0.46446  -0.46275  -0.46067
 Alpha  occ. eigenvalues --   -0.45683  -0.45628  -0.45477  -0.45214  -0.45076
 Alpha  occ. eigenvalues --   -0.45004  -0.44903  -0.44788  -0.44599  -0.44381
 Alpha  occ. eigenvalues --   -0.44063  -0.44032  -0.43637  -0.43537  -0.43398
 Alpha  occ. eigenvalues --   -0.43377  -0.43275  -0.43093  -0.42929  -0.42545
 Alpha  occ. eigenvalues --   -0.42417  -0.42377  -0.42171  -0.42138  -0.41863
 Alpha  occ. eigenvalues --   -0.41793  -0.41703  -0.41587  -0.41506  -0.41338
 Alpha  occ. eigenvalues --   -0.41106  -0.40882  -0.40815  -0.40681  -0.40553
 Alpha  occ. eigenvalues --   -0.40270  -0.40169  -0.40132  -0.40081  -0.39905
 Alpha  occ. eigenvalues --   -0.39887  -0.39808  -0.39462  -0.39442  -0.39227
 Alpha  occ. eigenvalues --   -0.39094  -0.38837  -0.38713  -0.38552  -0.38355
 Alpha  occ. eigenvalues --   -0.38274  -0.38214  -0.38177  -0.37923  -0.37890
 Alpha  occ. eigenvalues --   -0.37815  -0.37455  -0.37369  -0.37296  -0.36997
 Alpha  occ. eigenvalues --   -0.36809  -0.36594  -0.36150  -0.35936  -0.35903
 Alpha  occ. eigenvalues --   -0.35783  -0.35643  -0.35441  -0.35223  -0.35034
 Alpha  occ. eigenvalues --   -0.34845  -0.34745  -0.34437  -0.34348  -0.34094
 Alpha  occ. eigenvalues --   -0.34041  -0.33674  -0.33524  -0.33368  -0.33157
 Alpha  occ. eigenvalues --   -0.33098  -0.32755  -0.32520  -0.32203  -0.31943
 Alpha  occ. eigenvalues --   -0.31884  -0.31130  -0.30796  -0.30266  -0.30032
 Alpha  occ. eigenvalues --   -0.29787  -0.29602  -0.29552  -0.29382  -0.29294
 Alpha  occ. eigenvalues --   -0.29023  -0.28966  -0.28668  -0.27864  -0.27689
 Alpha  occ. eigenvalues --   -0.27537  -0.27412  -0.27220  -0.26872  -0.26149
 Alpha  occ. eigenvalues --   -0.25518  -0.25001  -0.24628  -0.24506  -0.24380
 Alpha  occ. eigenvalues --   -0.24159  -0.24069  -0.23930  -0.23874  -0.23406
 Alpha  occ. eigenvalues --   -0.23096  -0.22980  -0.22327  -0.22120  -0.21709
 Alpha  occ. eigenvalues --   -0.21583  -0.21524  -0.21170  -0.20430  -0.19891
 Alpha  occ. eigenvalues --   -0.19142  -0.18793  -0.18227
 Alpha virt. eigenvalues --   -0.09392  -0.03883  -0.02964  -0.02481  -0.01629
 Alpha virt. eigenvalues --   -0.01150  -0.00632  -0.00555  -0.00335   0.00116
 Alpha virt. eigenvalues --    0.00425   0.00830   0.01282   0.01409   0.01663
 Alpha virt. eigenvalues --    0.01825   0.01895   0.02982   0.03798   0.03948
 Alpha virt. eigenvalues --    0.04060   0.04276   0.04442   0.04619   0.04748
 Alpha virt. eigenvalues --    0.04830   0.05025   0.05335   0.05517   0.05568
 Alpha virt. eigenvalues --    0.05715   0.06005   0.06675   0.06786   0.07064
 Alpha virt. eigenvalues --    0.07164   0.07402   0.07664   0.07818   0.07919
 Alpha virt. eigenvalues --    0.08070   0.08124   0.08304   0.08423   0.08753
 Alpha virt. eigenvalues --    0.09266   0.09613   0.09746   0.09880   0.10149
 Alpha virt. eigenvalues --    0.10303   0.10640   0.10813   0.10896   0.11121
 Alpha virt. eigenvalues --    0.11451   0.11583   0.11653   0.11825   0.12086
 Alpha virt. eigenvalues --    0.12168   0.12340   0.12688   0.12778   0.13029
 Alpha virt. eigenvalues --    0.13059   0.13239   0.13457   0.13498   0.13519
 Alpha virt. eigenvalues --    0.13785   0.13919   0.14085   0.14286   0.14371
 Alpha virt. eigenvalues --    0.14470   0.14784   0.14920   0.15042   0.15140
 Alpha virt. eigenvalues --    0.15212   0.15628   0.15803   0.16090   0.16199
 Alpha virt. eigenvalues --    0.16278   0.16364   0.16482   0.16662   0.16875
 Alpha virt. eigenvalues --    0.16905   0.17016   0.17294   0.17366   0.17485
 Alpha virt. eigenvalues --    0.17702   0.18054   0.18235   0.18330   0.18559
 Alpha virt. eigenvalues --    0.18673   0.18745   0.18843   0.19168   0.19442
 Alpha virt. eigenvalues --    0.19640   0.19761   0.19800   0.20272   0.20454
 Alpha virt. eigenvalues --    0.20518   0.20783   0.20830   0.20993   0.21411
 Alpha virt. eigenvalues --    0.21530   0.21701   0.21776   0.22247   0.22434
 Alpha virt. eigenvalues --    0.22663   0.22717   0.23022   0.23098   0.23235
 Alpha virt. eigenvalues --    0.23609   0.23768   0.23964   0.24199   0.24326
 Alpha virt. eigenvalues --    0.24420   0.24607   0.24712   0.25258   0.25466
 Alpha virt. eigenvalues --    0.25728   0.25850   0.26289   0.26413   0.26589
 Alpha virt. eigenvalues --    0.26694   0.26946   0.27139   0.27553   0.27588
 Alpha virt. eigenvalues --    0.27907   0.28261   0.28270   0.28573   0.28672
 Alpha virt. eigenvalues --    0.28947   0.29157   0.29568   0.29876   0.30090
 Alpha virt. eigenvalues --    0.30231   0.30455   0.30783   0.30845   0.31385
 Alpha virt. eigenvalues --    0.31586   0.31610   0.31830   0.31871   0.32073
 Alpha virt. eigenvalues --    0.32607   0.32857   0.33181   0.33493   0.33629
 Alpha virt. eigenvalues --    0.33900   0.34169   0.34250   0.34810   0.35048
 Alpha virt. eigenvalues --    0.35339   0.35704   0.35893   0.36464   0.36677
 Alpha virt. eigenvalues --    0.37284   0.37569   0.37595   0.37637   0.38029
 Alpha virt. eigenvalues --    0.38333   0.38569   0.38865   0.39233   0.39291
 Alpha virt. eigenvalues --    0.39500   0.39797   0.40005   0.40396   0.40509
 Alpha virt. eigenvalues --    0.40653   0.40886   0.41155   0.41486   0.41720
 Alpha virt. eigenvalues --    0.41961   0.42158   0.42483   0.42624   0.42998
 Alpha virt. eigenvalues --    0.43076   0.43209   0.43526   0.43672   0.43929
 Alpha virt. eigenvalues --    0.44256   0.44301   0.44584   0.44676   0.44850
 Alpha virt. eigenvalues --    0.44949   0.45130   0.45505   0.45700   0.45919
 Alpha virt. eigenvalues --    0.46078   0.46207   0.46432   0.46565   0.46848
 Alpha virt. eigenvalues --    0.46875   0.47005   0.47248   0.47316   0.47444
 Alpha virt. eigenvalues --    0.47802   0.47905   0.48028   0.48399   0.48577
 Alpha virt. eigenvalues --    0.48761   0.48995   0.49036   0.49391   0.49436
 Alpha virt. eigenvalues --    0.49502   0.49953   0.50176   0.50319   0.50468
 Alpha virt. eigenvalues --    0.50557   0.50599   0.51063   0.51293   0.51680
 Alpha virt. eigenvalues --    0.51942   0.52328   0.52817   0.52859   0.52955
 Alpha virt. eigenvalues --    0.53347   0.53506   0.53702   0.54038   0.54213
 Alpha virt. eigenvalues --    0.54517   0.54709   0.54845   0.55127   0.55158
 Alpha virt. eigenvalues --    0.55223   0.55571   0.55668   0.55811   0.56004
 Alpha virt. eigenvalues --    0.56119   0.56519   0.56734   0.56770   0.56932
 Alpha virt. eigenvalues --    0.57111   0.57243   0.57331   0.57527   0.57675
 Alpha virt. eigenvalues --    0.57823   0.58173   0.58390   0.58606   0.58800
 Alpha virt. eigenvalues --    0.59068   0.59272   0.59345   0.59549   0.59714
 Alpha virt. eigenvalues --    0.59902   0.59958   0.60000   0.60217   0.60279
 Alpha virt. eigenvalues --    0.60434   0.60585   0.60708   0.60854   0.61018
 Alpha virt. eigenvalues --    0.61064   0.61252   0.61349   0.61438   0.61612
 Alpha virt. eigenvalues --    0.61733   0.62020   0.62095   0.62112   0.62243
 Alpha virt. eigenvalues --    0.62399   0.62519   0.62572   0.62815   0.62856
 Alpha virt. eigenvalues --    0.63079   0.63169   0.63262   0.63319   0.63618
 Alpha virt. eigenvalues --    0.63716   0.63755   0.63859   0.64017   0.64075
 Alpha virt. eigenvalues --    0.64310   0.64313   0.64432   0.64619   0.64706
 Alpha virt. eigenvalues --    0.64773   0.65052   0.65064   0.65219   0.65366
 Alpha virt. eigenvalues --    0.65421   0.65464   0.65587   0.65770   0.65895
 Alpha virt. eigenvalues --    0.66024   0.66075   0.66185   0.66268   0.66394
 Alpha virt. eigenvalues --    0.66477   0.66662   0.66880   0.66947   0.67120
 Alpha virt. eigenvalues --    0.67132   0.67200   0.67473   0.67520   0.67614
 Alpha virt. eigenvalues --    0.67791   0.67916   0.68056   0.68105   0.68251
 Alpha virt. eigenvalues --    0.68334   0.68516   0.68656   0.68727   0.68835
 Alpha virt. eigenvalues --    0.68948   0.69188   0.69223   0.69252   0.69400
 Alpha virt. eigenvalues --    0.69553   0.69657   0.69943   0.69990   0.70099
 Alpha virt. eigenvalues --    0.70163   0.70232   0.70575   0.70618   0.70707
 Alpha virt. eigenvalues --    0.70877   0.71028   0.71152   0.71357   0.71450
 Alpha virt. eigenvalues --    0.71625   0.71729   0.71915   0.72056   0.72253
 Alpha virt. eigenvalues --    0.72299   0.72583   0.72613   0.72845   0.72993
 Alpha virt. eigenvalues --    0.73080   0.73223   0.73347   0.73598   0.73788
 Alpha virt. eigenvalues --    0.73913   0.73999   0.74225   0.74272   0.74608
 Alpha virt. eigenvalues --    0.74786   0.74903   0.75157   0.75254   0.75408
 Alpha virt. eigenvalues --    0.75731   0.76102   0.76330   0.76457   0.76667
 Alpha virt. eigenvalues --    0.76829   0.76991   0.77144   0.77531   0.77805
 Alpha virt. eigenvalues --    0.78038   0.78278   0.78563   0.78853   0.78920
 Alpha virt. eigenvalues --    0.79272   0.79502   0.79931   0.80010   0.80256
 Alpha virt. eigenvalues --    0.80478   0.80713   0.80998   0.81094   0.81231
 Alpha virt. eigenvalues --    0.81499   0.81602   0.81984   0.82219   0.82329
 Alpha virt. eigenvalues --    0.82621   0.83061   0.83251   0.83518   0.83730
 Alpha virt. eigenvalues --    0.83953   0.84221   0.84773   0.84913   0.85232
 Alpha virt. eigenvalues --    0.85875   0.86051   0.86240   0.86731   0.86962
 Alpha virt. eigenvalues --    0.87194   0.87627   0.87751   0.88469   0.88752
 Alpha virt. eigenvalues --    0.89012   0.89426   0.89648   0.89855   0.89901
 Alpha virt. eigenvalues --    0.90162   0.90532   0.90801   0.91202   0.91268
 Alpha virt. eigenvalues --    0.91870   0.92069   0.92233   0.92711   0.93008
 Alpha virt. eigenvalues --    0.93096   0.93582   0.93694   0.93927   0.94450
 Alpha virt. eigenvalues --    0.95026   0.95155   0.95303   0.95765   0.95824
 Alpha virt. eigenvalues --    0.95911   0.96175   0.96710   0.96815   0.97039
 Alpha virt. eigenvalues --    0.97223   0.97338   0.97888   0.97975   0.98225
 Alpha virt. eigenvalues --    0.98561   0.99039   0.99343   0.99442   0.99556
 Alpha virt. eigenvalues --    0.99977   1.00241   1.00371   1.00549   1.01314
 Alpha virt. eigenvalues --    1.01723   1.01849   1.02071   1.02301   1.02608
 Alpha virt. eigenvalues --    1.02755   1.03533   1.03732   1.03868   1.04436
 Alpha virt. eigenvalues --    1.04645   1.04945   1.05449   1.05663   1.05774
 Alpha virt. eigenvalues --    1.06211   1.06411   1.06643   1.06752   1.07023
 Alpha virt. eigenvalues --    1.07376   1.07481   1.07637   1.07813   1.08036
 Alpha virt. eigenvalues --    1.08394   1.08759   1.08877   1.09167   1.09412
 Alpha virt. eigenvalues --    1.09782   1.10114   1.10336   1.10831   1.10875
 Alpha virt. eigenvalues --    1.11206   1.11551   1.11854   1.12025   1.12588
 Alpha virt. eigenvalues --    1.12924   1.13179   1.13344   1.13825   1.14304
 Alpha virt. eigenvalues --    1.14407   1.14752   1.14874   1.15102   1.15330
 Alpha virt. eigenvalues --    1.15713   1.16107   1.16256   1.16517   1.16794
 Alpha virt. eigenvalues --    1.17114   1.17477   1.17766   1.17986   1.18214
 Alpha virt. eigenvalues --    1.18327   1.18729   1.18969   1.19318   1.19364
 Alpha virt. eigenvalues --    1.19646   1.19898   1.20384   1.20554   1.20994
 Alpha virt. eigenvalues --    1.21083   1.21264   1.22007   1.22193   1.22397
 Alpha virt. eigenvalues --    1.22609   1.22936   1.23472   1.23645   1.23796
 Alpha virt. eigenvalues --    1.24047   1.24331   1.24470   1.24743   1.24917
 Alpha virt. eigenvalues --    1.25238   1.25368   1.25416   1.25964   1.26038
 Alpha virt. eigenvalues --    1.26366   1.26782   1.27169   1.27276   1.27367
 Alpha virt. eigenvalues --    1.27581   1.28168   1.28367   1.28807   1.28932
 Alpha virt. eigenvalues --    1.29177   1.29369   1.29998   1.30192   1.30351
 Alpha virt. eigenvalues --    1.30850   1.31257   1.31341   1.31593   1.31931
 Alpha virt. eigenvalues --    1.32065   1.32265   1.32943   1.33147   1.33259
 Alpha virt. eigenvalues --    1.33566   1.33816   1.34184   1.34558   1.34887
 Alpha virt. eigenvalues --    1.35409   1.35501   1.35686   1.35856   1.36063
 Alpha virt. eigenvalues --    1.36348   1.36397   1.36992   1.37019   1.37241
 Alpha virt. eigenvalues --    1.37775   1.38112   1.38257   1.38490   1.38594
 Alpha virt. eigenvalues --    1.38872   1.39117   1.39451   1.39861   1.40274
 Alpha virt. eigenvalues --    1.40489   1.40629   1.40910   1.40934   1.40999
 Alpha virt. eigenvalues --    1.41296   1.41598   1.41876   1.42156   1.42349
 Alpha virt. eigenvalues --    1.42503   1.42898   1.43504   1.43681   1.43754
 Alpha virt. eigenvalues --    1.43836   1.44469   1.44915   1.45005   1.45419
 Alpha virt. eigenvalues --    1.45653   1.45943   1.46316   1.46508   1.46739
 Alpha virt. eigenvalues --    1.47020   1.47185   1.47333   1.47433   1.47511
 Alpha virt. eigenvalues --    1.48305   1.48534   1.48668   1.48954   1.49348
 Alpha virt. eigenvalues --    1.49627   1.49689   1.50251   1.50437   1.51015
 Alpha virt. eigenvalues --    1.51342   1.51744   1.51871   1.52221   1.52344
 Alpha virt. eigenvalues --    1.52468   1.52838   1.52941   1.53064   1.53255
 Alpha virt. eigenvalues --    1.53532   1.54069   1.54819   1.54867   1.54984
 Alpha virt. eigenvalues --    1.55049   1.55409   1.55577   1.55729   1.56175
 Alpha virt. eigenvalues --    1.56814   1.57208   1.57731   1.57975   1.58506
 Alpha virt. eigenvalues --    1.59075   1.59458   1.59750   1.59825   1.60170
 Alpha virt. eigenvalues --    1.60286   1.60644   1.60904   1.61590   1.61827
 Alpha virt. eigenvalues --    1.62000   1.62217   1.62644   1.63389   1.63556
 Alpha virt. eigenvalues --    1.63821   1.64259   1.64682   1.65046   1.65372
 Alpha virt. eigenvalues --    1.65894   1.66107   1.66184   1.66946   1.67034
 Alpha virt. eigenvalues --    1.67246   1.67393   1.67636   1.67880   1.68021
 Alpha virt. eigenvalues --    1.68314   1.68413   1.68973   1.69017   1.69331
 Alpha virt. eigenvalues --    1.69772   1.69962   1.70490   1.70741   1.70919
 Alpha virt. eigenvalues --    1.71390   1.71709   1.71857   1.72410   1.72533
 Alpha virt. eigenvalues --    1.72675   1.72748   1.72995   1.73415   1.73593
 Alpha virt. eigenvalues --    1.73649   1.73794   1.74052   1.74133   1.74256
 Alpha virt. eigenvalues --    1.74462   1.74816   1.74875   1.75120   1.75187
 Alpha virt. eigenvalues --    1.75209   1.75425   1.75637   1.75834   1.76077
 Alpha virt. eigenvalues --    1.76320   1.76432   1.76559   1.76695   1.76801
 Alpha virt. eigenvalues --    1.77050   1.77345   1.77462   1.77702   1.77896
 Alpha virt. eigenvalues --    1.78308   1.78382   1.78518   1.78621   1.78729
 Alpha virt. eigenvalues --    1.78959   1.79246   1.79373   1.79440   1.79811
 Alpha virt. eigenvalues --    1.79989   1.80259   1.80327   1.80552   1.80738
 Alpha virt. eigenvalues --    1.81014   1.81144   1.81300   1.81486   1.81594
 Alpha virt. eigenvalues --    1.81796   1.82107   1.82207   1.82353   1.82557
 Alpha virt. eigenvalues --    1.82644   1.82670   1.82872   1.82927   1.83094
 Alpha virt. eigenvalues --    1.83348   1.83454   1.83915   1.84003   1.84148
 Alpha virt. eigenvalues --    1.84190   1.84332   1.84485   1.84599   1.84823
 Alpha virt. eigenvalues --    1.85000   1.85155   1.85365   1.85449   1.85728
 Alpha virt. eigenvalues --    1.86195   1.86305   1.86525   1.86598   1.86713
 Alpha virt. eigenvalues --    1.86900   1.87128   1.87339   1.87569   1.87870
 Alpha virt. eigenvalues --    1.88159   1.88432   1.88502   1.88701   1.88960
 Alpha virt. eigenvalues --    1.89181   1.89346   1.89628   1.89794   1.89903
 Alpha virt. eigenvalues --    1.90290   1.90483   1.90629   1.90669   1.90825
 Alpha virt. eigenvalues --    1.90894   1.90981   1.91127   1.91485   1.91586
 Alpha virt. eigenvalues --    1.91849   1.91881   1.92441   1.92591   1.92693
 Alpha virt. eigenvalues --    1.92911   1.92973   1.93234   1.93589   1.93744
 Alpha virt. eigenvalues --    1.93951   1.94150   1.94351   1.94559   1.94686
 Alpha virt. eigenvalues --    1.94914   1.95082   1.95247   1.95429   1.95765
 Alpha virt. eigenvalues --    1.95898   1.95985   1.96073   1.96280   1.96598
 Alpha virt. eigenvalues --    1.96703   1.96873   1.97080   1.97301   1.97764
 Alpha virt. eigenvalues --    1.97977   1.98252   1.98324   1.98530   1.98820
 Alpha virt. eigenvalues --    1.99077   1.99227   1.99440   1.99912   2.00228
 Alpha virt. eigenvalues --    2.00230   2.00652   2.00943   2.01054   2.01238
 Alpha virt. eigenvalues --    2.01392   2.01540   2.01636   2.01817   2.02287
 Alpha virt. eigenvalues --    2.02386   2.02710   2.03083   2.03251   2.03572
 Alpha virt. eigenvalues --    2.03824   2.04077   2.04565   2.04772   2.05016
 Alpha virt. eigenvalues --    2.05209   2.05330   2.05885   2.06185   2.06608
 Alpha virt. eigenvalues --    2.06855   2.06904   2.07055   2.07442   2.07559
 Alpha virt. eigenvalues --    2.07619   2.08237   2.08399   2.08843   2.09244
 Alpha virt. eigenvalues --    2.09458   2.09652   2.09825   2.10052   2.10346
 Alpha virt. eigenvalues --    2.10675   2.10858   2.11406   2.11685   2.11940
 Alpha virt. eigenvalues --    2.12164   2.12503   2.12688   2.13066   2.13542
 Alpha virt. eigenvalues --    2.13789   2.13899   2.14129   2.14328   2.14720
 Alpha virt. eigenvalues --    2.15109   2.15635   2.16113   2.16263   2.16607
 Alpha virt. eigenvalues --    2.16826   2.17041   2.17334   2.17596   2.18132
 Alpha virt. eigenvalues --    2.18350   2.18590   2.18904   2.19144   2.19439
 Alpha virt. eigenvalues --    2.19935   2.20108   2.20299   2.20690   2.21238
 Alpha virt. eigenvalues --    2.21524   2.21613   2.21956   2.22100   2.22364
 Alpha virt. eigenvalues --    2.22504   2.22737   2.23099   2.23287   2.23748
 Alpha virt. eigenvalues --    2.24293   2.24601   2.25098   2.25395   2.26131
 Alpha virt. eigenvalues --    2.26165   2.27041   2.27535   2.27798   2.28327
 Alpha virt. eigenvalues --    2.28466   2.28779   2.29127   2.29345   2.29519
 Alpha virt. eigenvalues --    2.30035   2.30309   2.30502   2.30627   2.31211
 Alpha virt. eigenvalues --    2.31378   2.31642   2.31848   2.32701   2.32860
 Alpha virt. eigenvalues --    2.33087   2.33148   2.33552   2.33651   2.34290
 Alpha virt. eigenvalues --    2.34306   2.34857   2.35000   2.35094   2.35667
 Alpha virt. eigenvalues --    2.35833   2.36378   2.36580   2.36858   2.37322
 Alpha virt. eigenvalues --    2.37348   2.37829   2.38223   2.38480   2.38856
 Alpha virt. eigenvalues --    2.38979   2.39483   2.39566   2.39792   2.40399
 Alpha virt. eigenvalues --    2.40556   2.41492   2.41586   2.41915   2.42401
 Alpha virt. eigenvalues --    2.42414   2.42740   2.43043   2.43529   2.43623
 Alpha virt. eigenvalues --    2.44042   2.44315   2.44418   2.44675   2.45097
 Alpha virt. eigenvalues --    2.45377   2.45562   2.45880   2.46154   2.46729
 Alpha virt. eigenvalues --    2.46811   2.47212   2.47318   2.47828   2.48120
 Alpha virt. eigenvalues --    2.49052   2.49169   2.49688   2.49813   2.50031
 Alpha virt. eigenvalues --    2.50297   2.50575   2.51045   2.51208   2.51722
 Alpha virt. eigenvalues --    2.51831   2.52092   2.52599   2.53288   2.53488
 Alpha virt. eigenvalues --    2.54127   2.54234   2.54387   2.54744   2.55378
 Alpha virt. eigenvalues --    2.55540   2.55687   2.56475   2.56606   2.56717
 Alpha virt. eigenvalues --    2.57071   2.57453   2.57706   2.57939   2.58903
 Alpha virt. eigenvalues --    2.59081   2.59236   2.59609   2.60024   2.60139
 Alpha virt. eigenvalues --    2.60373   2.60585   2.60774   2.60875   2.61187
 Alpha virt. eigenvalues --    2.61265   2.61433   2.62206   2.62723   2.62800
 Alpha virt. eigenvalues --    2.63014   2.63056   2.63743   2.64027   2.64189
 Alpha virt. eigenvalues --    2.64663   2.65056   2.65567   2.65734   2.66117
 Alpha virt. eigenvalues --    2.66237   2.66466   2.66976   2.67108   2.67484
 Alpha virt. eigenvalues --    2.68297   2.68546   2.68785   2.68960   2.69005
 Alpha virt. eigenvalues --    2.69121   2.69271   2.69661   2.69891   2.70406
 Alpha virt. eigenvalues --    2.70580   2.70755   2.71198   2.71532   2.71879
 Alpha virt. eigenvalues --    2.72034   2.72076   2.72534   2.72947   2.73231
 Alpha virt. eigenvalues --    2.73469   2.73569   2.73794   2.74186   2.74291
 Alpha virt. eigenvalues --    2.74761   2.74948   2.75366   2.75551   2.75835
 Alpha virt. eigenvalues --    2.76023   2.76101   2.76282   2.76600   2.76846
 Alpha virt. eigenvalues --    2.77075   2.77207   2.77605   2.77923   2.78455
 Alpha virt. eigenvalues --    2.78706   2.78865   2.79322   2.79525   2.79563
 Alpha virt. eigenvalues --    2.79936   2.80585   2.80726   2.80966   2.81527
 Alpha virt. eigenvalues --    2.81562   2.81879   2.82095   2.82427   2.82657
 Alpha virt. eigenvalues --    2.82791   2.83045   2.83474   2.84026   2.84108
 Alpha virt. eigenvalues --    2.84203   2.84341   2.84570   2.85181   2.85610
 Alpha virt. eigenvalues --    2.85753   2.86034   2.86292   2.86618   2.87021
 Alpha virt. eigenvalues --    2.87702   2.87912   2.88145   2.88222   2.88529
 Alpha virt. eigenvalues --    2.88604   2.88874   2.89193   2.89864   2.90058
 Alpha virt. eigenvalues --    2.90311   2.90415   2.90682   2.90954   2.91121
 Alpha virt. eigenvalues --    2.91478   2.91923   2.92214   2.93046   2.93153
 Alpha virt. eigenvalues --    2.93371   2.93922   2.94034   2.94332   2.94942
 Alpha virt. eigenvalues --    2.95150   2.95590   2.96195   2.96473   2.96693
 Alpha virt. eigenvalues --    2.96886   2.97182   2.97267   2.97579   2.97848
 Alpha virt. eigenvalues --    2.97937   2.99002   2.99501   2.99646   2.99722
 Alpha virt. eigenvalues --    2.99816   3.00271   3.00516   3.00927   3.01209
 Alpha virt. eigenvalues --    3.01654   3.02007   3.02302   3.02484   3.02756
 Alpha virt. eigenvalues --    3.02932   3.03080   3.03326   3.03518   3.03868
 Alpha virt. eigenvalues --    3.04195   3.05021   3.05553   3.05964   3.06203
 Alpha virt. eigenvalues --    3.07025   3.07180   3.07561   3.08357   3.08967
 Alpha virt. eigenvalues --    3.09600   3.09807   3.10245   3.10574   3.11194
 Alpha virt. eigenvalues --    3.11375   3.12570   3.13150   3.13330   3.13576
 Alpha virt. eigenvalues --    3.13712   3.14351   3.14572   3.14794   3.15271
 Alpha virt. eigenvalues --    3.16107   3.16465   3.16558   3.16979   3.17078
 Alpha virt. eigenvalues --    3.17432   3.17969   3.18342   3.18961   3.19089
 Alpha virt. eigenvalues --    3.19131   3.19539   3.19961   3.20173   3.20374
 Alpha virt. eigenvalues --    3.20614   3.20754   3.20937   3.21555   3.21720
 Alpha virt. eigenvalues --    3.22022   3.22186   3.22289   3.22393   3.23731
 Alpha virt. eigenvalues --    3.24328   3.25009   3.25367   3.25663   3.26098
 Alpha virt. eigenvalues --    3.26349   3.27100   3.27690   3.29821   3.30216
 Alpha virt. eigenvalues --    3.31238   3.32938   3.33133   3.34015   3.34553
 Alpha virt. eigenvalues --    3.36080   3.36828   3.37369   3.38290   3.40951
 Alpha virt. eigenvalues --    3.42180   3.44039   3.46075   3.52478   3.52950
 Alpha virt. eigenvalues --    3.53115   3.54295   3.55097   3.55202   3.56849
 Alpha virt. eigenvalues --    3.56973   3.57156   3.57601   3.57782   3.58356
 Alpha virt. eigenvalues --    3.58534   3.61209   3.62087   3.62315   3.62707
 Alpha virt. eigenvalues --    3.64284   3.66016   3.66590   3.67540   3.68216
 Alpha virt. eigenvalues --    3.68429   3.68770   3.68980   3.69377   3.69465
 Alpha virt. eigenvalues --    3.70173   3.70431   3.70976   3.71368   3.72158
 Alpha virt. eigenvalues --    3.72596   3.72620   3.73048   3.73865   3.75382
 Alpha virt. eigenvalues --    3.76006   3.81454   3.82885   3.84990
          Condensed to atoms (all electrons):
 Mulliken charges:
               1
     1  C    0.062343
     2  C    0.021065
     3  O   -0.294165
     4  H    0.021674
     5  H    0.056504
     6  H   -0.026432
     7  N   -0.117177
     8  C    0.183128
     9  C    0.039343
    10  O   -0.290753
    11  C    0.040771
    12  C    0.150414
    13  O   -0.368759
    14  O   -0.471930
    15  H    0.121327
    16  H   -0.002317
    17  H    0.013224
    18  H    0.015667
    19  N   -0.164282
    20  C    0.088376
    21  C    0.066549
    22  O   -0.282416
    23  C    0.078011
    24  C    0.006145
    25  C   -0.046908
    26  C    0.002545
    27  N    0.084878
    28  H    0.159571
    29  H   -0.004182
    30  H   -0.007834
    31  H    0.017291
    32  H    0.018987
    33  H    0.040282
    34  H    0.055514
    35  H   -0.000892
    36  H    0.071397
    37  H    0.095549
    38  H    0.176512
    39  H    0.185208
    40  H    0.189796
    41  N   -0.134808
    42  C    0.110496
    43  C    0.044930
    44  O   -0.271151
    45  C    0.151333
    46  C    0.093453
    47  O   -0.480461
    48  O   -0.376716
    49  H    0.134787
    50  H    0.027983
    51  H   -0.017204
    52  H    0.019104
    53  N   -0.182629
    54  C    0.244223
    55  C    0.026947
    56  O   -0.281834
    57  H    0.131826
    58  H    0.001111
    59  H    0.029554
    60  N   -0.154886
    61  C    0.128773
    62  C    0.044715
    63  O   -0.298680
    64  C    0.115569
    65  C    0.064831
    66  N   -0.029330
    67  O   -0.389765
    68  H    0.134351
    69  H    0.032358
    70  H    0.081197
    71  H   -0.004899
    72  H    0.134085
    73  H    0.134628
    74  N   -0.153889
    75  C    0.251492
    76  C    0.017506
    77  O   -0.316579
    78  H    0.131576
    79  H    0.038119
    80  H    0.032741
    81  N   -0.132149
    82  C    0.171916
    83  C    0.157613
    84  O   -0.391733
    85  C    0.092899
    86  C   -0.058639
    87  C    0.019636
    88  C    0.029985
    89  C   -0.028852
    90  C   -0.048514
    91  C    0.190905
    92  O   -0.192818
    93  H    0.153870
    94  H    0.006572
    95  H    0.000221
    96  H   -0.038563
    97  H   -0.035319
    98  H   -0.032131
    99  H   -0.021006
   100  H   -0.055539
   101  H    0.174476
   102  N   -0.110235
   103  C    0.173069
   104  C    0.070370
   105  O   -0.278297
   106  C   -0.088987
   107  C    0.021169
   108  C    0.008111
   109  C    0.036487
   110  H    0.127296
   111  H   -0.021433
   112  H   -0.008339
   113  H   -0.027570
   114  H    0.005535
   115  H    0.002423
   116  H    0.045601
   117  H    0.020732
   118  H   -0.001053
   119  H    0.004032
   120  H    0.016044
   121  N   -0.149026
   122  C    0.063618
   123  C    0.100876
   124  O   -0.283677
   125  C    0.288141
   126  O   -0.374656
   127  H    0.139172
   128  H    0.014824
   129  H    0.014680
   130  H   -0.012875
   131  H    0.186119
   132  N   -0.110849
   133  C    0.087180
   134  C    0.032750
   135  O   -0.267693
   136  C    0.056075
   137  H    0.110258
   138  H    0.019770
   139  H    0.023729
   140  H    0.024822
   141  H    0.040597
   142  N   -0.145598
   143  C    0.114475
   144  C    0.083244
   145  O   -0.273696
   146  C    0.018831
   147  H    0.115972
   148  H    0.024926
   149  H    0.017390
   150  H    0.029338
   151  H    0.012781
   152  N   -0.179472
   153  C    0.147281
   154  C    0.073423
   155  O   -0.309307
   156  C   -0.042827
   157  C    0.117914
   158  C    0.234566
   159  O   -0.499652
   160  O   -0.404763
   161  H    0.142791
   162  H   -0.008931
   163  H    0.033046
   164  H   -0.011290
   165  H   -0.012752
   166  H   -0.002103
   167  N   -0.169243
   168  C    0.136333
   169  H    0.021708
   170  H    0.028470
   171  H    0.009860
   172  H    0.151309
   173  Ca   1.317534
   174  O   -0.307685
   175  H    0.168349
   176  H    0.157275
 Sum of Mulliken charges =  -0.00000
 Mulliken charges with hydrogens summed into heavy atoms:
               1
     1  C    0.114089
     2  C    0.021065
     3  O   -0.294165
     7  N    0.004150
     8  C    0.180811
     9  C    0.039343
    10  O   -0.290753
    11  C    0.069662
    12  C    0.150414
    13  O   -0.368759
    14  O   -0.471930
    19  N   -0.004711
    20  C    0.084194
    21  C    0.066549
    22  O   -0.282416
    23  C    0.087469
    24  C    0.065414
    25  C    0.007713
    26  C    0.169491
    27  N    0.636395
    41  N   -0.000021
    42  C    0.138478
    43  C    0.044930
    44  O   -0.271151
    45  C    0.153233
    46  C    0.093453
    47  O   -0.480461
    48  O   -0.376716
    53  N   -0.050803
    54  C    0.274887
    55  C    0.026947
    56  O   -0.281834
    60  N   -0.020535
    61  C    0.161131
    62  C    0.044715
    63  O   -0.298680
    64  C    0.191866
    65  C    0.064831
    66  N    0.239383
    67  O   -0.389765
    74  N   -0.022313
    75  C    0.322351
    76  C    0.017506
    77  O   -0.316579
    81  N    0.021721
    82  C    0.178488
    83  C    0.157613
    84  O   -0.391733
    85  C    0.054556
    86  C   -0.058639
    87  C   -0.015683
    88  C   -0.002146
    89  C   -0.049858
    90  C   -0.104053
    91  C    0.190905
    92  O   -0.018341
   102  N    0.017061
   103  C    0.151636
   104  C    0.070370
   105  O   -0.278297
   106  C   -0.097326
   107  C   -0.000866
   108  C    0.076866
   109  C    0.055510
   121  N   -0.009854
   122  C    0.078442
   123  C    0.100876
   124  O   -0.283677
   125  C    0.289946
   126  O   -0.188538
   132  N   -0.000591
   133  C    0.106950
   134  C    0.032750
   135  O   -0.267693
   136  C    0.145223
   142  N   -0.029626
   143  C    0.139400
   144  C    0.083244
   145  O   -0.273696
   146  C    0.078341
   152  N   -0.036681
   153  C    0.138351
   154  C    0.073423
   155  O   -0.309307
   156  C   -0.021071
   157  C    0.103060
   158  C    0.234566
   159  O   -0.499652
   160  O   -0.404763
   167  N   -0.017934
   168  C    0.196372
   173  Ca   1.317534
   174  O    0.017939
 DipInt: DoE/N= T F RetVal/Mat= T F Init=T NMatP=  1 IDeriv=0 Min/MaxMlt=  0  4
 Entering OneElI...
 OneElI was handed  1333951383 working-precision words.
 Multipole integrals L=0 to 4 MinM= 0 MaxM= 0.
 Requested accuracy = 0.1000D-12
 ShPair: Thresh= 1.00D-13 NBox=     0 BxSize= 0.00D+00 RnKept= 2.55D+01
         NSMCal=               327645 NSMKep=              163659
 PrmmSu-InSpLW:  IPartL=    0 NPrtUS=    1 NPrtUL=    1 DoSpLW=F IThBeg=    0 IThEnd=    0 NThAct=    1.
 PrsmSu:  NPrtUS=   1 ThrOK=F IAlg=1 NPAlg=1 LenDen=           0 ISkipM=0 DoSpLW=F IThBeg=    0 IThEnd=    0.
 Prism:   IPart=     0 DynPar=F LinDyn=F Incr=         512.
 PRISM was handed  1323754929 working-precision words and163659 shell-pairs
 IPart=  0 NShTot=      163659 NBatch=         373 AvBLen=       438.8
 PrsmSu-ThDecC:  IPartSL=    0    0 NPrtUSL=    1    1 IThBeg=    0 IThEnd=    0 CPU=   -1 GPU=   -1 NThAct=    1.
 PrSmSu:  NxtVal=            513.
 Electronic moments (au):
       -716.00000000        -10.39725417          1.04921571          2.88412103
     -48817.48383049     -30666.29679041     -13188.88900570         89.12798752
        -21.43806054        -99.05100003      48469.93164909      -1342.39097249
     -14059.76237184     -40021.34177516    -105227.45961748      34679.53988205
      16086.94020657      14203.52466530      -9482.19806894     -52533.03578446
   -6498764.19483971   -2994171.17632352    -647123.95278365       6561.31655580
    -421172.65490235    -628624.12470340     -57738.29386373      74701.16383001
      55671.14563184   -2166179.72987831    -707756.89041987    -429649.43180240
      63657.19789139      -5124.13539943      26134.83380458
 Electronic spatial extent (au):  <R**2>=          92672.6696
 DipInt: DoE/N= F T RetVal/Mat= T F Init=T NMatP=  1 IDeriv=0 Min/MaxMlt=  0  4
 Nuclear    moments (au):
        716.00000000          0.00000000          0.00000000         -0.00000000
      48326.88809666      30323.16728048      12830.06968360          0.00000000
         -0.00000000          0.00000000     -49283.32811196       1245.91324928
      14140.38035604      38519.38715900     105360.26509361     -34486.40850141
     -16476.18409307     -14471.30604890      10265.06217763      53016.67507235
    6304903.41717842    2901157.70420754     606390.32952691      -1309.73438656
     420095.34860469     645013.76278746      47355.82865623     -77284.29315811
     -60877.53012265    2129206.26802385     675472.73340518     409676.73561465
     -71408.86519733       2550.32474223     -22637.83573685
 Total      moments (au):
         -0.00000000        -10.39725417          1.04921571          2.88412103
       -490.59573383       -343.12950993       -358.81932210         89.12798752
        -21.43806054        -99.05100003       -813.39646287        -96.47772321
         80.61798420      -1501.95461616        132.80547613        193.13138064
       -389.24388650       -267.78138360        782.86410869        483.63928789
    -193860.77766129     -93013.47211598     -40733.62325674       5251.58216924
      -1077.30629766      16389.63808406     -10382.46520750      -2583.12932810
      -5206.38449081     -36973.46185446     -32284.15701469     -19972.69618774
      -7751.66730594      -2573.81065720       3496.99806773
 Traceless Quadrup. (au):
        -93.08087854         54.38534536         38.69553319         89.12798752
        -21.43806054        -99.05100003
 Charge=             -0.0000 electrons
 Dipole moment (field-independent basis, Debye):
    X=            -26.4272    Y=              2.6668    Z=              7.3307  Tot=             27.5544
 Quadrupole moment (field-independent basis, Debye-Ang):
   XX=           -659.8681   YY=           -461.5209   ZZ=           -482.6243
   XY=            119.8802   XZ=            -28.8349   YZ=           -133.2270
 Traceless Quadrupole moment (field-independent basis, Debye-Ang):
   XX=           -125.1970   YY=             73.1502   ZZ=             52.0468
   XY=            119.8802   XZ=            -28.8349   YZ=           -133.2270
 Octapole moment (field-independent basis, Debye-Ang**2):
  XXX=           -578.9443  YYY=            -68.6691  ZZZ=             57.3808  XYY=          -1069.0334
  XXY=             94.5258  XXZ=            137.4635  XZZ=           -277.0488  YZZ=           -190.5965
  YYZ=            557.2125  XYZ=            344.2358
 Hexadecapole moment (field-independent basis, Debye-Ang**3):
 XXXX=         -73017.2648 YYYY=         -35033.3337 ZZZZ=         -15342.2358 XXXY=           1977.9977
 XXXZ=           -405.7652 YYYX=           6173.1236 YYYZ=          -3910.5343 ZZZX=           -972.9304
 ZZZY=          -1960.9741 XXYY=         -13925.9787 XXZZ=         -12159.7616 YYZZ=          -7522.6751
 XXYZ=          -2919.6496 YYXZ=           -969.4205 ZZXY=           1317.1372
 N-N= 2.186606660798D+04 E-N=-5.621160576156D+04  KE= 5.290633376079D+03
 Leave Link  601 at Wed Sep 18 20:19:43 2019, MaxMem=  1342177280 cpu:              47.9 elap:               1.2
 FitSet:  NAtFit=   176 NAtPot=   176 NAtFrz=     0 MDM=   180 TotChg=   0.00000
 Merz-Kollman atomic radii used.
 Read replacement radii for each type of atom:
 Rad(20) =   1.700000000000D+00
 Atom Element Radius
    1     6    1.50
    2     6    1.50
    3     8    1.40
    4     1    1.20
    5     1    1.20
    6     1    1.20
    7     7    1.50
    8     6    1.50
    9     6    1.50
   10     8    1.40
   11     6    1.50
   12     6    1.50
   13     8    1.40
   14     8    1.40
   15     1    1.20
   16     1    1.20
   17     1    1.20
   18     1    1.20
   19     7    1.50
   20     6    1.50
   21     6    1.50
   22     8    1.40
   23     6    1.50
   24     6    1.50
   25     6    1.50
   26     6    1.50
   27     7    1.50
   28     1    1.20
   29     1    1.20
   30     1    1.20
   31     1    1.20
   32     1    1.20
   33     1    1.20
   34     1    1.20
   35     1    1.20
   36     1    1.20
   37     1    1.20
   38     1    1.20
   39     1    1.20
   40     1    1.20
   41     7    1.50
   42     6    1.50
   43     6    1.50
   44     8    1.40
   45     6    1.50
   46     6    1.50
   47     8    1.40
   48     8    1.40
   49     1    1.20
   50     1    1.20
   51     1    1.20
   52     1    1.20
   53     7    1.50
   54     6    1.50
   55     6    1.50
   56     8    1.40
   57     1    1.20
   58     1    1.20
   59     1    1.20
   60     7    1.50
   61     6    1.50
   62     6    1.50
   63     8    1.40
   64     6    1.50
   65     6    1.50
   66     7    1.50
   67     8    1.40
   68     1    1.20
   69     1    1.20
   70     1    1.20
   71     1    1.20
   72     1    1.20
   73     1    1.20
   74     7    1.50
   75     6    1.50
   76     6    1.50
   77     8    1.40
   78     1    1.20
   79     1    1.20
   80     1    1.20
   81     7    1.50
   82     6    1.50
   83     6    1.50
   84     8    1.40
   85     6    1.50
   86     6    1.50
   87     6    1.50
   88     6    1.50
   89     6    1.50
   90     6    1.50
   91     6    1.50
   92     8    1.40
   93     1    1.20
   94     1    1.20
   95     1    1.20
   96     1    1.20
   97     1    1.20
   98     1    1.20
   99     1    1.20
  100     1    1.20
  101     1    1.20
  102     7    1.50
  103     6    1.50
  104     6    1.50
  105     8    1.40
  106     6    1.50
  107     6    1.50
  108     6    1.50
  109     6    1.50
  110     1    1.20
  111     1    1.20
  112     1    1.20
  113     1    1.20
  114     1    1.20
  115     1    1.20
  116     1    1.20
  117     1    1.20
  118     1    1.20
  119     1    1.20
  120     1    1.20
  121     7    1.50
  122     6    1.50
  123     6    1.50
  124     8    1.40
  125     6    1.50
  126     8    1.40
  127     1    1.20
  128     1    1.20
  129     1    1.20
  130     1    1.20
  131     1    1.20
  132     7    1.50
  133     6    1.50
  134     6    1.50
  135     8    1.40
  136     6    1.50
  137     1    1.20
  138     1    1.20
  139     1    1.20
  140     1    1.20
  141     1    1.20
  142     7    1.50
  143     6    1.50
  144     6    1.50
  145     8    1.40
  146     6    1.50
  147     1    1.20
  148     1    1.20
  149     1    1.20
  150     1    1.20
  151     1    1.20
  152     7    1.50
  153     6    1.50
  154     6    1.50
  155     8    1.40
  156     6    1.50
  157     6    1.50
  158     6    1.50
  159     8    1.40
  160     8    1.40
  161     1    1.20
  162     1    1.20
  163     1    1.20
  164     1    1.20
  165     1    1.20
  166     1    1.20
  167     7    1.50
  168     6    1.50
  169     1    1.20
  170     1    1.20
  171     1    1.20
  172     1    1.20
  173    20    1.70
[...]
 **** Fit       0.012150
 **** Fit      -0.019775
 **** Fit      -0.010010
 **** Fit      -0.000339
 **** Fit       0.008999
 **** Fit      -0.008124
 **** Fit       0.001205
 **** Fit       0.009736
 **** Fit      -0.005018
 **** Fit       0.003910
 **** Fit       0.011697
 **** Fit      -0.005795
 **** Fit       0.003049
 **** Fit       0.010421
 **** Fit      -0.006608
 **** Fit       0.001876
 **** Fit       0.008623
 **** Fit      -0.003738
 **** Fit       0.003728
 **** Fit       0.009347
 **** Fit      -0.000749
 **** Fit       0.005357
 **** Fit       0.000638
 **** Fit       0.005342
 **** Fit       0.005735
 **** Fit       0.000467
 **** Fit       0.005646
 **** Fit       0.004972
 **** Fit       0.001321
 **** Fit       0.004381
 **** Fit       0.004205
 **** Fit       0.003037
 **** Fit       0.002677
 **** Fit       0.013808
 **** Fit       0.003815
 **** Fit       0.008092
 **** Fit       0.011606
 **** Fit       0.014037
 **** Fit       0.001121
 **** Fit       0.004306
 **** Fit       0.007420
 **** Fit       0.009869
 **** Fit       0.011344
 **** Fit       0.011742
 **** Fit       0.001939
 **** Fit       0.003257
 **** Fit       0.005383
 **** Fit       0.007402
 **** Fit       0.008743
 **** Fit       0.009144
 **** Fit       0.008611
 **** Fit       0.003982
 **** Fit       0.004701
 **** Fit       0.005929
 **** Fit       0.006939
 **** Fit       0.007254
 **** Fit       0.006699
 **** Fit       0.005302
 **** Fit       0.003122
 **** Fit       0.000298
 **** Fit      -0.002509
 **** Fit       0.005059
 **** Fit       0.005131
 **** Fit       0.005648
 **** Fit       0.005981
 **** Fit       0.005632
 **** Fit       0.004447
 **** Fit       0.002568
 **** Fit       0.000481
 **** Fit       0.005251
 **** Fit       0.005229
 **** Fit       0.005146
 **** Fit       0.004393
 **** Fit       0.002931
 **** Fit       0.001555
 **** Fit       0.004857
 **** Fit       0.004526
 **** Fit       0.003476
 **** Fit      -0.026822
 **** Fit      -0.031841
 **** Fit      -0.031994
 **** Fit       0.005382
 **** Fit       0.005232
 **** Fit       0.005368
 **** Fit       0.005260
 **** Fit       0.005222
 **** Fit       0.005147
 **** Fit       0.004899
 **** Fit       0.004561
 **** Fit       0.005095
 **** Fit       0.005013
 **** Fit       0.004982
 **** Fit       0.004992
 **** Fit       0.005003
 **** Fit       0.004887
 **** Fit       0.004496
 **** Fit       0.003863
 **** Fit       0.003315
 **** Fit       0.003284
 **** Fit       0.004841
 **** Fit       0.004750
 **** Fit       0.004681
 **** Fit       0.004626
 **** Fit       0.004615
 **** Fit       0.004668
 **** Fit       0.004731
 **** Fit       0.001290
 **** Fit       0.001049
 **** Fit       0.004566
 **** Fit       0.004495
 **** Fit       0.004436
 **** Fit       0.004348
 **** Fit       0.004233
 **** Fit       0.004128
 **** Fit       0.004087
 **** Fit       0.004142
 **** Fit      -0.002196
 **** Fit      -0.002470
 **** Fit      -0.001701
 **** Fit       0.004216
 **** Fit       0.004210
 **** Fit       0.004177
 **** Fit       0.004073
 **** Fit       0.003892
 **** Fit       0.003669
 **** Fit       0.003470
 **** Fit       0.003364
 **** Fit       0.003394
 **** Fit      -0.007994
 **** Fit      -0.007348
 **** Fit       0.003835
 **** Fit       0.003916
 **** Fit       0.003976
 **** Fit       0.002934
 **** Fit       0.002615
 **** Fit       0.002420
 **** Fit       0.002394
 **** Fit       0.003339
 **** Fit       0.003570
 **** Fit       0.003731
 **** Fit       0.001361
 **** Fit       0.001151
 **** Fit       0.002693
 **** Fit       0.003171
 **** Fit       0.003472
 **** Fit      -0.000244
 **** Fit      -0.000449
 **** Fit       0.000931
 **** Fit       0.002047
 **** Fit       0.002865
 **** Fit       0.003324
 **** Fit      -0.002058
 **** Fit      -0.002353
 **** Fit      -0.001833
 **** Fit       0.000212
 **** Fit       0.001922
 **** Fit       0.003030
 **** Fit      -0.004651
 **** Fit      -0.004863
 **** Fit      -0.000346
 **** Fit       0.002153
 **** Fit      -0.007422
 **** Fit      -0.007677
 **** Fit      -0.010781
 **** Fit      -0.010983
 **** Fit      -0.011359
 **** Fit      -0.014872
 **** Fit      -0.014889
 **** Fit      -0.015266
 **** Fit      -0.016185
 **** Fit      -0.020247
 **** Fit      -0.019576
 **** Fit      -0.019518
 **** Fit      -0.020156
 **** Fit      -0.021654
 **** Fit      -0.025803
 **** Fit      -0.024732
 **** Fit      -0.024722
 **** Fit       0.003871
 **** Fit       0.003672
 **** Fit       0.003397
 **** Fit       0.003099
 **** Fit       0.003770
 **** Fit       0.003645
 **** Fit       0.003374
 **** Fit       0.003010
 **** Fit       0.002604
 **** Fit       0.002201
 **** Fit       0.001845
 **** Fit       0.003608
 **** Fit       0.003597
 **** Fit       0.003369
 **** Fit       0.002984
 **** Fit       0.002508
 **** Fit       0.001996
 **** Fit       0.001487
 **** Fit       0.001005
 **** Fit       0.000572
 **** Fit       0.000215
 **** Fit       0.003513
 **** Fit       0.003507
 **** Fit       0.003180
 **** Fit       0.002637
 **** Fit       0.001985
 **** Fit       0.001305
 **** Fit       0.000646
 **** Fit       0.000032
 **** Fit      -0.000532
 **** Fit      -0.001041
 **** Fit      -0.001486
 **** Fit       0.003563
 **** Fit       0.003523
 **** Fit       0.003005
 **** Fit       0.002191
 **** Fit       0.001254
 **** Fit       0.000318
 **** Fit      -0.000546
 **** Fit      -0.001313
 **** Fit      -0.001985
 **** Fit      -0.002580
 **** Fit      -0.003119
 **** Fit      -0.003611
 **** Fit      -0.004052
 **** Fit       0.003925
 **** Fit       0.003607
 **** Fit       0.002576
 **** Fit       0.001190
 **** Fit      -0.000259
 **** Fit      -0.001593
 **** Fit      -0.002730
 **** Fit      -0.003659
 **** Fit      -0.004409
 **** Fit      -0.005028
 **** Fit      -0.005567
 **** Fit      -0.006064
 **** Fit      -0.006546
 **** Fit      -0.001894
 **** Fit      -0.004067
 **** Fit      -0.005777
 **** Fit      -0.007028
 **** Fit      -0.007904
 **** Fit      -0.008516
 **** Fit      -0.008976
 **** Fit      -0.009376
 **** Fit      -0.009780
 **** Fit      -0.010230
 **** Fit      -0.014006
 **** Fit      -0.014111
 **** Fit      -0.014179
 **** Fit      -0.014322
 **** Fit      -0.014605
 **** Fit      -0.020370
 **** Fit      -0.020213
 **** Fit       0.004434
 **** Fit       0.004776
 **** Fit       0.004718
 **** Fit       0.004322
 **** Fit       0.003437
 **** Fit       0.002406
 **** Fit       0.004477
 **** Fit       0.004523
 **** Fit       0.004409
 **** Fit       0.003935
 **** Fit       0.002954
 **** Fit       0.001525
 **** Fit       0.000091
 **** Fit       0.003839
 **** Fit       0.003913
 **** Fit       0.003965
 **** Fit       0.003845
 **** Fit       0.003380
 **** Fit       0.002395
 **** Fit       0.000780
 **** Fit      -0.001351
 **** Fit      -0.003506
 **** Fit      -0.004873
 **** Fit       0.002928
 **** Fit       0.002996
 **** Fit       0.003054
 **** Fit       0.002967
 **** Fit       0.002579
 **** Fit       0.001705
 **** Fit       0.000141
 **** Fit      -0.002258
 **** Fit      -0.005406
 **** Fit       0.001709
 **** Fit       0.001750
 **** Fit       0.001778
 **** Fit       0.001670
 **** Fit       0.001286
 **** Fit       0.000453
 **** Fit      -0.001050
 **** Fit      -0.003479
 **** Fit       0.000161
 **** Fit       0.000162
 **** Fit       0.000129
 **** Fit      -0.000074
 **** Fit      -0.000600
 **** Fit      -0.001649
 **** Fit      -0.003497
 **** Fit      -0.006510
 **** Fit      -0.001752
 **** Fit      -0.001799
 **** Fit      -0.001912
 **** Fit      -0.002236
 **** Fit      -0.002936
 **** Fit      -0.004231
 **** Fit      -0.006442
 **** Fit      -0.004119
 **** Fit      -0.004251
 **** Fit      -0.004580
 **** Fit      -0.005273
 **** Fit      -0.006546
 **** Fit      -0.008715
 **** Fit      -0.007002
 **** Fit      -0.007343
 **** Fit      -0.008089
 **** Fit      -0.009480
 **** Fit      -0.011874
 **** Fit      -0.010337
 **** Fit      -0.010836
 **** Fit      -0.011936
 **** Fit      -0.013956
 **** Fit      -0.017423
 **** Fit      -0.014834
 **** Fit      -0.016308
 **** Fit      -0.018990
 **** Fit      -0.021442
 **** Fit       0.006350
 **** Fit       0.006684
 **** Fit       0.006450
 **** Fit       0.006139
 **** Fit       0.005995
 **** Fit       0.006000
 **** Fit       0.006347
 **** Fit       0.007035
 **** Fit       0.006759
 **** Fit       0.006327
 **** Fit       0.006003
 **** Fit       0.005808
 **** Fit       0.005704
 **** Fit       0.005628
 **** Fit       0.005503
 **** Fit       0.005361
 **** Fit       0.005445
 **** Fit       0.005972
 **** Fit       0.006713
 **** Fit       0.007103
 **** Fit       0.006475
 **** Fit       0.005998
 **** Fit       0.005699
 **** Fit       0.005519
 **** Fit       0.005412
 **** Fit       0.005358
 **** Fit       0.004081
 **** Fit       0.004229
 **** Fit       0.004956
 **** Fit       0.006119
 **** Fit       0.007209
 **** Fit       0.005849
 **** Fit       0.005413
 **** Fit       0.005190
 **** Fit       0.005077
 **** Fit       0.005013
 **** Fit       0.004982
 **** Fit       0.001830
 **** Fit       0.002685
 **** Fit       0.004270
 **** Fit       0.004892
 **** Fit       0.004615
 **** Fit       0.004541
 **** Fit       0.004542
 **** Fit       0.004555
 **** Fit      -0.001475
 **** Fit       0.000355
 **** Fit       0.003737
 **** Fit       0.003716
 **** Fit       0.003842
 **** Fit       0.003986
 **** Fit       0.004092
 **** Fit      -0.005812
 **** Fit       0.002569
 **** Fit       0.002934
 **** Fit       0.003301
 **** Fit       0.003573
 **** Fit       0.001044
 **** Fit       0.001754
 **** Fit       0.002451
 **** Fit      -0.000711
 **** Fit       0.000487
 **** Fit      -0.002159
 **** Fit       0.026473
 **** Fit       0.029980
 **** Fit       0.028536
 **** Fit       0.025657
 **** Fit       0.023783
 **** Fit       0.022785
 **** Fit       0.023169
 **** Fit       0.021859
 **** Fit       0.021430
 **** Fit       0.021324
 **** Fit      -0.005338
 **** Fit      -0.009307
 **** Fit      -0.015250
 **** Fit       0.021478
 **** Fit       0.020911
 **** Fit       0.020789
 **** Fit       0.020970
 **** Fit       0.021011
 **** Fit       0.020322
 **** Fit      -0.000602
 **** Fit      -0.004062
 **** Fit      -0.008653
 **** Fit      -0.014331
 **** Fit       0.019451
 **** Fit       0.019878
 **** Fit       0.020372
 **** Fit       0.021015
 **** Fit      -0.006503
 **** Fit      -0.011383
 **** Fit      -0.016090
 **** Fit       0.016749
 **** Fit       0.018147
 **** Fit       0.019373
 **** Fit      -0.008313
 **** Fit       0.007840
 **** Fit       0.011144
 **** Fit       0.013771
 **** Fit       0.015982
 **** Fit      -0.006627
 **** Fit       0.006273
 **** Fit       0.010013
 **** Fit       0.013142
 **** Fit       0.005968
 **** Fit       0.021321
 **** Fit       0.020474
 **** Fit       0.018413
 **** Fit       0.015281
 **** Fit       0.011843
 **** Fit       0.009041
 **** Fit       0.007142
 **** Fit       0.005639
 **** Fit       0.003889
 **** Fit       0.001443
 **** Fit       0.020727
 **** Fit       0.021519
 **** Fit       0.021956
 **** Fit       0.021807
 **** Fit       0.020818
 **** Fit       0.018909
 **** Fit       0.016364
 **** Fit       0.013787
 **** Fit       0.011665
 **** Fit       0.009969
 **** Fit       0.008296
 **** Fit       0.006239
 **** Fit       0.003560
 **** Fit       0.000209
 **** Fit      -0.003666
 **** Fit       0.019366
 **** Fit       0.020631
 **** Fit       0.021602
 **** Fit       0.022236
 **** Fit       0.022395
 **** Fit       0.021909
 **** Fit       0.020694
 **** Fit       0.018889
 **** Fit       0.016845
 **** Fit       0.014904
 **** Fit       0.013128
 **** Fit       0.011314
 **** Fit       0.009205
 **** Fit       0.006656
 **** Fit       0.003680
 **** Fit       0.000455
 **** Fit      -0.002684
 **** Fit      -0.005325
 **** Fit       0.014920
 **** Fit       0.017025
 **** Fit       0.018789
 **** Fit       0.020235
 **** Fit       0.021377
 **** Fit       0.022193
 **** Fit       0.022603
 **** Fit       0.022497
 **** Fit       0.021808
 **** Fit       0.020588
 **** Fit       0.019026
 **** Fit       0.017336
 **** Fit       0.015606
 **** Fit       0.013763
 **** Fit       0.011684
 **** Fit       0.009306
 **** Fit       0.006679
 **** Fit       0.003968
 **** Fit       0.001416
 **** Fit      -0.000759
 **** Fit      -0.002516
 **** Fit      -0.004073
 **** Fit       0.008476
 **** Fit       0.011524
 **** Fit       0.014221
 **** Fit       0.016537
 **** Fit       0.018485
 **** Fit       0.020081
 **** Fit       0.021326
 **** Fit       0.022185
 **** Fit       0.022586
 **** Fit       0.022449
 **** Fit       0.021754
 **** Fit       0.020589
 **** Fit       0.019107
 **** Fit       0.017420
 **** Fit       0.015537
 **** Fit       0.013419
 **** Fit       0.011073
 **** Fit       0.008601
 **** Fit       0.006183
 **** Fit       0.004011
 **** Fit       0.002182
 **** Fit       0.000677
 **** Fit      -0.000454
 **** Fit       0.010709
 **** Fit       0.013383
 **** Fit       0.015827
 **** Fit       0.017938
 **** Fit       0.019675
 **** Fit       0.021013
 **** Fit       0.021903
 **** Fit       0.022278
 **** Fit       0.022083
 **** Fit       0.021333
 **** Fit       0.020123
 **** Fit       0.018565
 **** Fit       0.016724
 **** Fit       0.014641
 **** Fit       0.012393
 **** Fit       0.010129
 **** Fit       0.008038
 **** Fit       0.006279
 **** Fit       0.004968
 **** Fit       0.004280
 **** Fit       0.004505
 **** Fit       0.005827
 **** Fit       0.008050
 **** Fit       0.012767
 **** Fit       0.015174
 **** Fit       0.017412
 **** Fit       0.019279
 **** Fit       0.020661
 **** Fit       0.021460
 **** Fit       0.021595
 **** Fit       0.021051
 **** Fit       0.019904
 **** Fit       0.018283
 **** Fit       0.016317
 **** Fit       0.014163
 **** Fit       0.012042
 **** Fit       0.010214
 **** Fit       0.008930
 **** Fit       0.008444
 **** Fit       0.008986
 **** Fit       0.010545
 **** Fit       0.014576
 **** Fit       0.016868
 **** Fit       0.018895
 **** Fit       0.020217
 **** Fit       0.020577
 **** Fit       0.019911
 **** Fit       0.018381
 **** Fit       0.016320
 **** Fit       0.014190
 **** Fit       0.012554
 **** Fit       0.011953
 **** Fit       0.012703
 **** Fit       0.016082
 **** Fit       0.018227
 **** Fit       0.019135
 **** Fit       0.018021
 **** Fit       0.015909
 **** Fit       0.014864
 **** Fit       0.017242
 **** Fit      -0.002462
 **** Fit      -0.008297
 **** Fit      -0.000498
 **** Fit      -0.012592
 **** Fit      -0.004495
 **** Fit       0.002439
 **** Fit      -0.006912
 **** Fit       0.000183
 **** Fit      -0.007201
 **** Fit      -0.013185
 **** Fit      -0.013359
 **** Fit      -0.001106
 **** Fit      -0.002842
 **** Fit      -0.006820
 **** Fit      -0.006105
 -----------------------------------------------------------------
 Leave Link  602 at Wed Sep 18 20:19:46 2019, MaxMem=  1342177280 cpu:             119.1 elap:               2.5

 Test job not archived.
 1\1\GINC-C506-091\SP\RB3LYP\SVP\C54H83Ca1N15O23\JAEBEOMH\18-Sep-2019\0
 \\#b3lyp/svp scf=(tight,noincore) Test #IOP(5/87=12) Density=Current P
 op=(MK,readradii) iop(6/33=2) iop(6/42=6)\\holoCaM_loop3_55.0\\0,1\C,0
 ,69.87,51.95,90.81\C,0,70.08,52.54,92.2\O,0,70.59,51.89,93.11\H,0,69.1
 42,52.553,90.266\H,0,70.816,51.948,90.269\H,0,69.5,50.929,90.9\N,0,69.
 5,53.72,92.44\C,0,69.05,54.35,93.66\C,0,67.75,53.75,94.16\O,0,66.72,53
 .85,93.49\C,0,68.85,55.81,93.26\C,0,68.45,56.78,94.36\O,0,68.36,57.99,
 94.08\O,0,68.53,56.46,95.57\H,0,69.15,54.14,91.59\H,0,69.77,54.16,94.4
 6\H,0,68.16,56.01,92.44\H,0,69.76,56.2,92.81\N,0,67.72,53.27,95.41\C,0
 ,66.6,52.45,95.83\C,0,65.42,53.17,96.45\O,0,64.26,52.78,96.35\C,0,67.2
 5,51.26,96.55\C,0,68.22,50.39,95.76\C,0,67.66,49.87,94.44\C,0,68.72,48
 .97,93.82\N,0,68.16,48.31,92.63\H,0,68.47,53.47,96.05\H,0,66.13,52.05,
 94.93\H,0,66.41,50.62,96.8\H,0,67.75,51.6,97.46\H,0,68.49,49.61,96.48\
 H,0,69.13,50.94,95.54\H,0,67.41,50.67,93.74\H,0,66.84,49.17,94.58\H,0,
 69.14,48.19,94.45\H,0,69.55,49.62,93.54\H,0,67.32,47.82,92.86\H,0,67.9
 3,49.03,91.96\H,0,68.78,47.66,92.16\N,0,65.72,54.33,97.04\C,0,64.79,55
 .21,97.72\C,0,64.67,56.53,96.97\O,0,63.87,57.38,97.35\C,0,65.29,55.64,
 99.09\C,0,66.66,56.31,99.08\O,0,67.64,55.7,98.58\O,0,66.79,57.52,99.34
 \H,0,66.71,54.5,97.09\H,0,63.76,54.85,97.74\H,0,65.35,54.71,99.64\H,0,
 64.6,56.29,99.64\N,0,65.53,56.8,95.98\C,0,65.36,57.93,95.1\C,0,65.68,5
 9.25,95.79\O,0,64.87,60.17,95.67\H,0,66.36,56.23,95.86\H,0,64.3,57.95,
 94.83\H,0,65.93,57.83,94.18\N,0,66.83,59.36,96.46\C,0,67.46,60.59,96.9
 \C,0,68.48,61.22,95.96\O,0,69.09,62.24,96.28\C,0,67.9,60.47,98.35\C,0,
 69.27,59.8,98.45\N,0,70.2,60.35,99.23\O,0,69.66,58.88,97.73\H,0,67.38,
 58.52,96.5\H,0,66.6,61.26,96.98\H,0,67.14,59.96,98.94\H,0,68.05,61.46,
 98.77\H,0,69.9,61.11,99.84\H,0,71.06,59.85,99.39\N,0,68.72,60.67,94.76
 \C,0,69.71,61.09,93.79\C,0,71.09,60.5,94.\O,0,71.93,60.71,93.12\H,0,68
 .34,59.75,94.63\H,0,69.78,62.18,93.78\H,0,69.41,60.85,92.77\N,0,71.39,
 59.7,95.02\C,0,72.71,59.18,95.28\C,0,72.7,57.69,95.59\O,0,72.02,57.14,
 96.45\C,0,73.23,59.85,96.55\C,0,73.52,61.32,96.44\C,0,72.59,62.27,96.8
 7\C,0,74.76,61.73,95.94\C,0,72.85,63.65,96.82\C,0,74.96,63.12,95.84\C,
 0,74.04,64.12,96.22\O,0,74.3,65.46,96.22\H,0,70.67,59.66,95.74\H,0,73.
 41,59.35,94.46\H,0,74.09,59.37,97.04\H,0,72.47,59.73,97.33\H,0,71.65,6
 1.88,97.24\H,0,75.54,60.99,95.89\H,0,72.16,64.31,97.32\H,0,75.89,63.47
 ,95.44\H,0,75.13,65.64,95.77\N,0,73.61,56.87,95.05\C,0,73.91,55.5,95.4
 \C,0,74.88,55.45,96.57\O,0,76.04,55.83,96.43\C,0,74.33,54.63,94.21\C,0
 ,73.52,54.91,92.94\C,0,74.1,53.16,94.56\C,0,74.1,54.24,91.7\H,0,74.25,
 57.32,94.41\H,0,73.06,55.,95.86\H,0,75.38,54.83,93.99\H,0,73.59,55.99,
 92.78\H,0,72.47,54.66,93.06\H,0,74.59,52.46,93.89\H,0,74.45,52.92,95.5
 6\H,0,73.05,52.88,94.47\H,0,73.54,54.51,90.81\H,0,75.09,54.69,91.61\H,
 0,74.13,53.15,91.76\N,0,74.33,54.99,97.69\C,0,75.17,54.62,98.81\C,0,75
 .78,53.25,98.55\O,0,75.29,52.42,97.8\C,0,74.41,54.77,100.12\O,0,73.37,
 53.81,100.17\H,0,73.34,54.79,97.81\H,0,76.,55.34,98.81\H,0,73.97,55.76
 ,100.19\H,0,75.02,54.59,101.\H,0,72.59,53.98,99.63\N,0,76.86,52.9,99.2
 6\C,0,77.47,51.59,99.3\C,0,76.49,50.43,99.45\O,0,76.61,49.47,98.69\C,0
 ,78.66,51.53,100.24\H,0,77.24,53.56,99.92\H,0,77.78,51.4,98.27\H,0,79.
 21,52.47,100.22\H,0,78.34,51.2,101.23\H,0,79.4,50.81,99.89\N,0,75.45,5
 0.55,100.28\C,0,74.52,49.48,100.59\C,0,73.56,49.19,99.45\O,0,73.,48.1,
 99.36\C,0,73.81,49.77,101.91\H,0,75.35,51.42,100.77\H,0,75.12,48.6,100
 .81\H,0,73.57,50.81,102.15\H,0,72.87,49.22,101.99\H,0,74.34,49.43,102.
 8\N,0,73.41,50.2,98.59\C,0,72.59,50.12,97.4\C,0,73.41,49.63,96.21\O,0,
 72.86,49.,95.31\C,0,71.94,51.46,97.07\C,0,71.1,52.07,98.19\C,0,70.68,5
 3.5,97.88\O,0,71.41,54.4,98.37\O,0,69.75,53.9,97.15\H,0,73.92,51.05,98
 .78\H,0,71.79,49.4,97.56\H,0,71.39,51.3,96.14\H,0,72.72,52.15,96.77\H,
 0,71.76,51.94,99.05\H,0,70.24,51.44,98.42\N,0,74.71,49.93,96.23\C,0,75
 .55,49.4,95.17\H,0,76.522,49.125,95.58\H,0,75.077,48.519,94.737\H,0,75
 .683,50.158,94.398\H,0,75.09,50.44,97.02\Ca,0,69.92,56.32,97.73\O,0,69
 .44,56.82,100.388\H,0,69.54,56.59,101.308\H,0,68.57,57.19,100.318\\Ver
 sion=ES64L-G16RevA.03\State=1-A\HF=-5333.6447938\RMSD=6.661e-09\Dipole
 =6.0744661,-8.8879633,-1.2754885\Quadrupole=-76.860719,11.6651759,65.1
 95543,96.2465807,49.058339,89.2014106\PG=C01 [X(C54H83Ca1N15O23)]\\@


 WHAT THE SLIME CONTAINS, THE GLOWING REVEALS
 BY THE FLAME'S BRIGHT HUE WHEN YOU IGNITE IT.
   --  LEONARD THURNEYSSER, 1531-1596
 DESCRIBING HIS FLAME PHOTOLYSIS ANALYTIC METHOD
 Job cpu time:       0 days  8 hours 41 minutes 50.6 seconds.
 Elapsed time:       0 days  0 hours 10 minutes 59.4 seconds.
 File lengths (MBytes):  RWF=   1517 Int=      0 D2E=      0 Chk=    171 Scr=      1
 Normal termination of Gaussian 16 at Wed Sep 18 20:19:47 2019.
