 Entering Gaussian System, Link 0=g16
 Initial command:
 /home1/apps/gaussian/16rA.03/g16/l1.exe "/scratch/01990/pengzhi/4328834/Gau-57641.inp" -scrdir="/scratch/01990/pengzhi/4328834/"
 Entering Link 1 = /home1/apps/gaussian/16rA.03/g16/l1.exe PID=     57643.
  
 Copyright (c) 1988,1990,1992,1993,1995,1998,2003,2009,2016,
            Gaussian, Inc.  All Rights Reserved.
  
 This is part of the Gaussian(R) 16 program.  It is based on
 the Gaussian(R) 09 system (copyright 2009, Gaussian, Inc.),
 the Gaussian(R) 03 system (copyright 2003, Gaussian, Inc.),
 the Gaussian(R) 98 system (copyright 1998, Gaussian, Inc.),
 the Gaussian(R) 94 system (copyright 1995, Gaussian, Inc.),
 the Gaussian 92(TM) system (copyright 1992, Gaussian, Inc.),
 the Gaussian 90(TM) system (copyright 1990, Gaussian, Inc.),
 the Gaussian 88(TM) system (copyright 1988, Gaussian, Inc.),
 the Gaussian 86(TM) system (copyright 1986, Carnegie Mellon
 University), and the Gaussian 82(TM) system (copyright 1983,
 Carnegie Mellon University). Gaussian is a federally registered
 trademark of Gaussian, Inc.
  
 This software contains proprietary and confidential information,
 including trade secrets, belonging to Gaussian, Inc.
  
 This software is provided under written license and may be
 used, copied, transmitted, or stored only in accord with that
 written license.
  
 The following legend is applicable only to US Government
 contracts under FAR:
  
                    RESTRICTED RIGHTS LEGEND
  
 Use, reproduction and disclosure by the US Government is
 subject to restrictions as set forth in subparagraphs (a)
 and (c) of the Commercial Computer Software - Restricted
 Rights clause in FAR 52.227-19.
  
 Gaussian, Inc.
 340 Quinnipiac St., Bldg. 40, Wallingford CT 06492
  
  
 ---------------------------------------------------------------
 Warning -- This program may not be used in any manner that
 competes with the business of Gaussian, Inc. or will provide
 assistance to any competitor of Gaussian, Inc.  The licensee
 of this program is prohibited from giving any competitor of
 Gaussian, Inc. access to this program.  By using this program,
 the user acknowledges that Gaussian, Inc. is engaged in the
 business of creating and licensing software in the field of
 computational chemistry and represents and warrants to the
 licensee that it is not a competitor of Gaussian, Inc. and that
 it will not use this program in any manner prohibited above.
 ---------------------------------------------------------------
  

 Cite this work as:
 Gaussian 16, Revision A.03,
 M. J. Frisch, G. W. Trucks, H. B. Schlegel, G. E. Scuseria, 
 M. A. Robb, J. R. Cheeseman, G. Scalmani, V. Barone, 
 G. A. Petersson, H. Nakatsuji, X. Li, M. Caricato, A. V. Marenich, 
 J. Bloino, B. G. Janesko, R. Gomperts, B. Mennucci, H. P. Hratchian, 
 J. V. Ortiz, A. F. Izmaylov, J. L. Sonnenberg, D. Williams-Young, 
 F. Ding, F. Lipparini, F. Egidi, J. Goings, B. Peng, A. Petrone, 
 T. Henderson, D. Ranasinghe, V. G. Zakrzewski, J. Gao, N. Rega, 
 G. Zheng, W. Liang, M. Hada, M. Ehara, K. Toyota, R. Fukuda, 
 J. Hasegawa, M. Ishida, T. Nakajima, Y. Honda, O. Kitao, H. Nakai, 
 T. Vreven, K. Throssell, J. A. Montgomery, Jr., J. E. Peralta, 
 F. Ogliaro, M. J. Bearpark, J. J. Heyd, E. N. Brothers, K. N. Kudin, 
 V. N. Staroverov, T. A. Keith, R. Kobayashi, J. Normand, 
 K. Raghavachari, A. P. Rendell, J. C. Burant, S. S. Iyengar, 
 J. Tomasi, M. Cossi, J. M. Millam, M. Klene, C. Adamo, R. Cammi, 
 J. W. Ochterski, R. L. Martin, K. Morokuma, O. Farkas, 
 J. B. Foresman, and D. J. Fox, Gaussian, Inc., Wallingford CT, 2016.
 
 ******************************************
 Gaussian 16:  ES64L-G16RevA.03 25-Dec-2016
                14-Sep-2019 
 ******************************************
 %chk=holoCaM_loop3_95.0.chk
 %nprocshared=48
 Will use up to   48 processors via shared memory.
 %mem=10GB
 %nosave
 ----------------------------------------------------------------------
 #b3lyp/svp scf=(tight,noincore) Test #IOP(5/87=12) Density=Current Pop
 =(MK,readradii) iop(6/33=2) iop(6/42=6)
 ----------------------------------------------------------------------
 1/30=1,38=1,172=1/1;
 2/12=2,17=6,18=5,40=1/2;
 3/5=18,7=101,11=2,25=1,30=1,74=-5/1,2,3;
 4//1;
 5/5=4,32=2,38=5,87=12/2;
 6/7=2,8=2,9=2,10=2,15=8,20=101,22=-1,28=1,33=2,42=6/1,2;
 99/5=1,9=1/99;
 ------------------
 holoCaM_loop3_95.0
 ------------------
 Symbolic Z-matrix:
 Charge =  0 Multiplicity = 1
 C                     67.1      50.02     91.69 
 C                     67.06     50.9      92.94 
 O                     67.21     50.31     94. 
 H                     68.027    50.203    91.147 
 H                     67.051    48.971    91.982 
 H                     66.251    50.259    91.049 
 N                     66.73     52.18     92.77 
 C                     66.33     53.08     93.83 
 C                     64.9      52.83     94.26 
 O                     63.94     53.16     93.55 
 C                     66.64     54.5      93.35 
 C                     66.02     55.57     94.24 
 O                     65.94     56.73     93.8 
 O                     65.7      55.38     95.43 
 H                     66.56     52.45     91.81 
 H                     66.94     52.9      94.71 
 H                     66.14     54.61     92.39 
 H                     67.71     54.66     93.18 
 N                     64.61     52.33     95.46 
 C                     63.38     51.63     95.78 
 C                     62.25     52.59     96.12 
 O                     61.16     52.46     95.56 
 C                     63.47     50.55     96.85 
 C                     64.43     49.44     96.43 
 C                     64.05     48.59     95.22 
 C                     65.15     47.59     94.86 
 N                     64.91     47.02     93.53 
 H                     65.4      52.24     96.08 
 H                     63.02     51.07     94.91 
 H                     62.5      50.17     97.18 
 H                     63.95     51.02     97.7 
 H                     64.37     48.72     97.24 
 H                     65.46     49.78     96.37 
 H                     63.87     49.23     94.37 
 H                     63.11     48.09     95.44 
 H                     65.03     46.73     95.52 
 H                     66.19     47.94     94.92 
 H                     63.99     46.63     93.41 
 H                     64.95     47.65     92.74 
 H                     65.53     46.23     93.39 
 N                     62.55     53.62     96.92 
 C                     61.68     54.74     97.2 
 C                     61.62     55.76     96.07 
 O                     60.62     56.44     95.85 
 C                     61.93     55.32     98.59 
 C                     63.24     56.07     98.8 
 O                     64.05     56.19     97.86 
 O                     63.42     56.62     99.91 
 H                     63.54     53.63     97.14 
 H                     60.73     54.21     97.23 
 H                     62.07     54.48     99.27 
 H                     61.05     55.91     98.86 
 N                     62.73     55.77     95.34 
 C                     62.84     56.68     94.21 
 C                     63.47     58.06     94.26 
 O                     63.58     58.72     93.23 
 H                     63.58     55.29     95.6 
 H                     61.85     56.89     93.79 
 H                     63.22     56.05     93.4 
 N                     63.81     58.39     95.51 
 C                     64.35     59.66     95.94 
 C                     65.54     60.22     95.17 
 O                     65.9      61.35     95.5 
 C                     64.63     59.6      97.44 
 C                     65.86     58.82     97.87 
 N                     66.22     58.88     99.15 
 O                     66.47     58.07     97.11 
 H                     63.75     57.69     96.24 
 H                     63.61     60.42     95.67 
 H                     63.81     59.23     98.05 
 H                     64.76     60.6      97.87 
 H                     65.61     59.31     99.83 
 H                     66.9      58.27     99.58 
 N                     66.18     59.44     94.3 
 C                     67.35     59.86     93.56 
 C                     68.64     59.13     93.89 
 O                     69.67     59.46     93.3 
 H                     65.87     58.49     94.13 
 H                     67.55     60.93     93.69 
 H                     67.08     59.73     92.51 
 N                     68.59     58.22     94.86 
 C                     69.79     57.58     95.37 
 C                     69.62     56.09     95.66 
 O                     68.7      55.63     96.32 
 C                     70.31     58.33     96.59 
 C                     70.71     59.78     96.44 
 C                     69.69     60.74     96.43 
 C                     72.06     60.12     96.55 
 C                     70.03     62.09     96.34 
 C                     72.38     61.48     96.6 
 C                     71.38     62.46     96.41 
 O                     71.76     63.77     96.38 
 H                     67.7      57.89     95.21 
 H                     70.61     57.69     94.67 
 H                     71.24     57.82     96.87 
 H                     69.6      58.33     97.42 
 H                     68.65     60.44     96.52 
 H                     72.79     59.33     96.54 
 H                     69.29     62.88     96.42 
 H                     73.35     61.86     96.89 
 H                     72.7      63.92     96.35 
 N                     70.62     55.29     95.29 
 C                     70.86     53.98     95.87 
 C                     71.69     54.15     97.14 
 O                     72.87     54.49     97.07 
 C                     71.53     53.13     94.79 
 C                     70.5      52.84     93.7 
 C                     72.1      51.84     95.37 
 C                     70.86     51.96     92.51 
 H                     71.46     55.67     94.88 
 H                     69.94     53.49     96.19 
 H                     72.33     53.74     94.39 
 H                     70.27     53.81     93.24 
 H                     69.65     52.4      94.21 
 H                     72.47     51.18     94.59 
 H                     72.89     52.05     96.09 
 H                     71.31     51.27     95.88 
 H                     70.15     51.99     91.68 
 H                     71.85     52.19     92.11 
 H                     70.85     50.9      92.77 
 N                     71.12     53.83     98.3 
 C                     71.88     53.58     99.5 
 C                     72.52     52.19     99.49 
 O                     72.28     51.38     98.6 
 C                     71.04     53.74     100.77 
 O                     69.94     52.87     100.63 
 H                     70.12     53.7      98.4 
 H                     72.66     54.34     99.62 
 H                     70.51     54.67     100.97 
 H                     71.61     53.41     101.64 
 H                     69.25     53.32     100.14 
 N                     73.44     51.98     100.43 
 C                     74.07     50.69     100.64 
 C                     73.03     49.63     100.96 
 O                     73.12     48.49     100.51 
 C                     75.16     50.76     101.71 
 H                     73.46     52.59     101.23 
 H                     74.57     50.41     99.71 
 H                     75.69     49.82     101.85 
 H                     75.88     51.47     101.29 
 H                     74.83     51.15     102.67 
 N                     72.       50.02     101.72 
 C                     70.86     49.16     101.99 
 C                     70.23     48.58     100.73 
 O                     70.07     47.37     100.58 
 C                     69.89     49.94     102.87 
 H                     72.11     50.9      102.2 
 H                     71.29     48.4      102.65 
 H                     68.87     49.56     102.89 
 H                     70.22     50.28     103.85 
 H                     69.69     50.87     102.34 
 N                     69.91     49.51     99.83 
 C                     69.27     49.24     98.56 
 C                     70.19     48.4      97.68 
 O                     69.86     47.54     96.86 
 C                     68.87     50.46     97.74 
 C                     67.72     51.24     98.37 
 C                     67.53     52.71     98.02 
 O                     68.28     53.59     98.5 
 O                     66.56     53.03     97.3 
 H                     70.02     50.5      100. 
 H                     68.36     48.67     98.73 
 H                     68.69     50.23     96.69 
 H                     69.67     51.19     97.86 
 H                     67.91     51.22     99.44 
 H                     66.82     50.67     98.13 
 N                     71.49     48.69     97.67 
 C                     72.42     48.05     96.77 
 H                     73.364    47.876    97.287 
 H                     72.008    47.097    96.438 
 H                     72.592    48.693    95.907 
 H                     71.81     49.45     98.26 
 Ca                    66.43     55.45     97.85 
 O                     65.63     54.54     100.374 
 H                     66.21     54.07     100.974 
 H                     65.23     55.21     100.914 
 
 Stoichiometry    C54H83CaN15O23
 Framework group  C1[X(C54H83CaN15O23)]
 Deg. of freedom   522
 Full point group                 C1      NOp   1
 Largest Abelian subgroup         C1      NOp   1
 Largest concise Abelian subgroup C1      NOp   1
                         Standard orientation:                         
 ---------------------------------------------------------------------
 Center     Atomic      Atomic             Coordinates (Angstroms)
 Number     Number       Type             X           Y           Z
 ---------------------------------------------------------------------
      1          6           0       -1.579519   -3.990396    5.017429
      2          6           0       -1.205880   -3.258149    3.727968
      3          8           0       -2.085157   -3.210185    2.880164
      4          1           0       -1.698441   -3.267152    5.823929
      5          1           0       -2.515772   -4.529107    4.871530
      6          1           0       -0.790382   -4.696569    5.277017
      7          7           0        0.063111   -2.873081    3.595362
      8          6           0        0.679186   -2.465279    2.351276
      9          6           0        1.012107   -3.657849    1.479932
     10          8           0        1.949597   -4.420646    1.751694
     11          6           0        1.857896   -1.558492    2.713602
     12          6           0        2.769400   -1.276207    1.525799
     13          8           0        3.902820   -0.816162    1.747873
     14          8           0        2.403469   -1.362377    0.336989
     15          1           0        0.655861   -3.086940    4.386760
     16          1           0       -0.020876   -1.865308    1.777825
     17          1           0        2.472347   -2.125786    3.409538
     18          1           0        1.540652   -0.645652    3.228848
     19          7           0        0.371610   -3.884883    0.334367
     20          6           0        0.270130   -5.184161   -0.303504
     21          6           0        1.494672   -5.501219   -1.148531
     22          8           0        2.065836   -6.582967   -0.999553
     23          6           0       -0.991066   -5.447113   -1.115686
     24          6           0       -2.236492   -5.367142   -0.236699
     25          6           0       -2.400475   -6.413756    0.862714
     26          6           0       -3.638171   -6.147206    1.721003
     27          7           0       -3.599057   -6.957067    2.943294
     28          1           0       -0.259800   -3.150823    0.053161
     29          1           0        0.235374   -5.979264    0.449293
     30          1           0       -0.951554   -6.360852   -1.713782
     31          1           0       -1.081271   -4.608159   -1.795259
     32          1           0       -3.050153   -5.617167   -0.910155
     33          1           0       -2.418573   -4.363981    0.138287
     34          1           0       -1.528792   -6.410389    1.498840
     35          1           0       -2.441602   -7.393498    0.393230
     36          1           0       -4.494884   -6.556113    1.183939
     37          1           0       -3.852734   -5.102783    1.987166
     38          1           0       -3.455888   -7.939887    2.780610
     39          1           0       -2.856802   -6.767211    3.603304
     40          1           0       -4.503624   -6.914546    3.399419
     41          7           0        1.969007   -4.516982   -1.921308
     42          6           0        3.222695   -4.551129   -2.640196
     43          6           0        4.438049   -4.310198   -1.753761
     44          8           0        5.537585   -4.802909   -1.996775
     45          6           0        3.169151   -3.713891   -3.915800
     46          6           0        3.115226   -2.200228   -3.746638
     47          8           0        3.118230   -1.697551   -2.605846
     48          8           0        3.153798   -1.500628   -4.783977
     49          1           0        1.447308   -3.659647   -1.775003
     50          1           0        3.218498   -5.599135   -2.933395
     51          1           0        2.201224   -3.896997   -4.381835
     52          1           0        3.990286   -4.044732   -4.557425
     53          7           0        4.145950   -3.575609   -0.685979
     54          6           0        5.190286   -3.256548    0.275614
     55          6           0        6.026392   -1.989803    0.266519
     56          8           0        6.832978   -1.782642    1.169350
     57          1           0        3.270785   -3.086976   -0.560186
     58          1           0        5.954902   -4.041329    0.284638
     59          1           0        4.732642   -3.476833    1.244859
     60          7           0        5.765140   -1.247184   -0.813881
     61          6           0        6.437711   -0.024741   -1.191614
     62          6           0        6.577027    1.062413   -0.132706
     63          8           0        7.247722    2.040451   -0.462872
     64          6           0        5.805397    0.516518   -2.471933
     65          6           0        4.451859    1.189904   -2.328112
     66          7           0        3.947934    1.809802   -3.392718
     67          8           0        3.771738    1.102466   -1.307333
     68          1           0        4.992161   -1.504919   -1.416025
     69          1           0        7.496933   -0.275439   -1.306939
     70          1           0        5.698699   -0.205658   -3.277214
     71          1           0        6.445777    1.261378   -2.958654
     72          1           0        4.386314    1.705874   -4.296278
     73          1           0        2.993282    2.130004   -3.466956
     74          7           0        5.891025    0.957588    1.004534
     75          6           0        5.914393    1.959879    2.047495
     76          6           0        4.604364    2.685680    2.298366
     77          8           0        4.573434    3.560791    3.165040
     78          1           0        5.298285    0.154262    1.180108
     79          1           0        6.670383    2.729765    1.853704
     80          1           0        6.248809    1.428214    2.940690
     81          7           0        3.580056    2.378139    1.506084
     82          6           0        2.332795    3.121389    1.546347
     83          6           0        1.087513    2.246098    1.418918
     84          8           0        0.937863    1.405966    0.544056
     85          6           0        2.345114    4.229577    0.500848
     86          6           0        3.407294    5.301755    0.585745
     87          6           0        4.685602    4.992706    0.103547
     88          6           0        3.024146    6.603173    0.916970
     89          6           0        5.674775    5.976205    0.125151
     90          6           0        3.988874    7.608289    0.800606
     91          6           0        5.328581    7.284571    0.489332
     92          8           0        6.247736    8.292713    0.475017
     93          1           0        3.617603    1.560766    0.911113
     94          1           0        2.250601    3.682294    2.469998
     95          1           0        1.401532    4.771363    0.640568
     96          1           0        2.428033    3.847177   -0.518904
     97          1           0        4.896569    4.010003   -0.308142
     98          1           0        2.028931    6.764780    1.291844
     99          1           0        6.653614    5.822706   -0.318032
    100          1           0        3.762827    8.665504    0.825099
    101          1           0        5.940969    9.127364    0.815974
    102          7           0        0.065808    2.537456    2.223982
    103          6           0       -1.309292    2.158242    1.949395
    104          6           0       -1.939032    3.215528    1.045916
    105          8           0       -2.188379    4.337742    1.483365
    106          6           0       -2.004313    1.991281    3.301012
    107          6           0       -1.434707    0.749006    3.983215
    108          6           0       -3.517404    1.889878    3.140789
    109          6           0       -1.976317    0.289560    5.330682
    110          1           0        0.111270    3.327498    2.849974
    111          1           0       -1.381569    1.223225    1.393139
    112          1           0       -1.752068    2.875512    3.872510
    113          1           0       -0.382819    0.980424    4.196235
    114          1           0       -1.555410   -0.058396    3.269260
    115          1           0       -4.004309    1.652239    4.082782
    116          1           0       -3.929703    2.809130    2.726561
    117          1           0       -3.774202    1.060801    2.465670
    118          1           0       -1.369046   -0.460778    5.842654
    119          1           0       -2.128737    1.122258    6.020887
    120          1           0       -2.930351   -0.230943    5.229709
    121          7           0       -2.286797    2.849915   -0.186272
    122          6           0       -3.211557    3.607494   -0.993114
    123          6           0       -4.663000    3.372179   -0.569156
    124          8           0       -4.955623    2.534499    0.278466
    125          6           0       -3.067207    3.308156   -2.487657
    126          8           0       -3.232406    1.915786   -2.630883
    127          1           0       -1.956368    1.993719   -0.615976
    128          1           0       -2.981793    4.676901   -0.930049
    129          1           0       -2.106564    3.427964   -2.986267
    130          1           0       -3.870119    3.792424   -3.045794
    131          1           0       -2.387922    1.487181   -2.483080
    132          7           0       -5.551269    4.220656   -1.084098
    133          6           0       -6.981151    4.082177   -0.880725
    134          6           0       -7.470682    2.742171   -1.402590
    135          8           0       -8.324406    2.095064   -0.800421
    136          6           0       -7.755594    5.249534   -1.493437
    137          1           0       -5.294629    4.751470   -1.899495
    138          1           0       -7.168183    4.120275    0.194852
    139          1           0       -8.826837    5.203005   -1.308033
    140          1           0       -7.376787    6.118424   -0.945317
    141          1           0       -7.565862    5.415347   -2.551316
    142          7           0       -6.892826    2.295321   -2.523754
    143          6           0       -7.154332    0.970866   -3.061837
    144          6           0       -6.961870   -0.143752   -2.041306
    145          8           0       -7.846873   -0.961526   -1.795920
    146          6           0       -6.316734    0.810998   -4.325393
    147          1           0       -6.357798    2.970749   -3.047626
    148          1           0       -8.185655    1.060989   -3.417296
    149          1           0       -6.160530   -0.214935   -4.654424
    150          1           0       -6.483762    1.488446   -5.160896
    151          1           0       -5.291067    1.028883   -4.031568
    152          7           0       -5.768663   -0.108582   -1.447739
    153          6           0       -5.311004   -1.066154   -0.463358
    154          6           0       -6.175016   -0.979151    0.790561
    155          8           0       -6.488067   -1.900461    1.548247
    156          6           0       -3.863496   -0.920551   -0.011338
    157          6           0       -2.866353   -1.283913   -1.107456
    158          6           0       -1.450972   -0.724591   -1.049522
    159          8           0       -1.215785    0.468671   -1.346361
    160          8           0       -0.514095   -1.503195   -0.770706
    161          1           0       -5.048996    0.554527   -1.699662
    162          1           0       -5.409289   -2.071004   -0.866490
    163          1           0       -3.654311   -1.433412    0.927286
    164          1           0       -3.668022    0.148833    0.062872
    165          1           0       -3.293904   -0.893375   -2.027281
    166          1           0       -2.845969   -2.375551   -1.127722
    167          7           0       -6.540168    0.227033    1.221820
    168          6           0       -7.236717    0.425532    2.470786
    169          1           0       -7.979062    1.214987    2.350843
    170          1           0       -7.735423   -0.499432    2.760459
    171          1           0       -6.523543    0.712320    3.243404
    172          1           0       -6.236299    1.033010    0.686876
    173         20           0        1.391522   -0.173896   -1.652402
    174          8           0        0.251048   -0.728659   -4.148446
    175          1           0       -0.591608   -0.374405   -4.434338
    176          1           0        0.832522   -0.565431   -4.880392
 ---------------------------------------------------------------------
 Rotational constants (GHZ):           0.0228310           0.0160362           0.0122779
 Standard basis: SVP (5D, 7F)
 There are  1809 symmetry adapted cartesian basis functions of A   symmetry.
 There are  1717 symmetry adapted basis functions of A   symmetry.
  1717 basis functions,  2922 primitive gaussians,  1809 cartesian basis functions
   358 alpha electrons      358 beta electrons
       nuclear repulsion energy     21951.8411888926 Hartrees.
 NAtoms=  176 NActive=  176 NUniq=  176 SFac= 1.00D+00 NAtFMM=   60 NAOKFM=T Big=T
 Integral buffers will be    131072 words long.
 Raffenetti 2 integral format.
 Two-electron integral symmetry is turned on.
 One-electron integrals computed using PRISM.
 NBasis=  1717 RedAO= T EigKep=  2.83D-04  NBF=  1717
 NBsUse=  1717 1.00D-06 EigRej= -1.00D+00 NBFU=  1717
 ExpMin= 1.98D-02 ExpMax= 3.51D+04 ExpMxC= 5.28D+03 IAcc=3 IRadAn=         5 AccDes= 0.00D+00
 Harris functional with IExCor=  402 and IRadAn=       5 diagonalized for initial guess.
 HarFok:  IExCor=  402 AccDes= 0.00D+00 IRadAn=         5 IDoV= 1 UseB2=F ITyADJ=14
 ICtDFT=  3500011 ScaDFX=  1.000000  1.000000  1.000000  1.000000
 FoFCou: FMM=F IPFlag=           0 FMFlag=      100000 FMFlg1=        2001
         NFxFlg=           0 DoJE=T BraDBF=F KetDBF=T FulRan=T
         wScrn=  0.000000 ICntrl=       500 IOpCl=  0 I1Cent=   200000004 NGrid=           0
         NMat0=    1 NMatS0=      1 NMatT0=    0 NMatD0=    1 NMtDS0=    0 NMtDT0=    0
 Petite list used in FoFCou.
 Requested convergence on RMS density matrix=1.00D-08 within 128 cycles.
 Requested convergence on MAX density matrix=1.00D-06.
 Requested convergence on             energy=1.00D-06.
 No special actions if energy rises.
 EnCoef did     4 forward-backward iterations
 SCF Done:  E(RB3LYP) =  -5333.58592190     A.U. after   19 cycles
            NFock= 19  Conv=0.29D-08     -V/T= 2.0081
 SCF density gives NOpUse=  1 NOpAll=  1.
 Hyperfine terms turned off by default for NAtoms > 100.

 **********************************************************************

            Population analysis using the SCF density.

 **********************************************************************

 Orbital symmetries:
 BldTbl:  Degeneracy threshold= 1.00D-02
       Occupied  (A) (A) (A) (A) (A) (A) (A) (A) (A) (A) (A) (A)
                 (A) (A) (A) (A) (A) (A) (A) (A) (A) (A) (A) (A)
                 (A) (A) (A) (A) (A) (A) (A) (A) (A) (A) (A) (A)
                 (A) (A) (A) (A) (A) (A) (A) (A) (A) (A) (A) (A)
                 (A) (A) (A) (A) (A) (A) (A) (A) (A) (A) (A) (A)
                 (A) (A) (A) (A) (A) (A) (A) (A) (A) (A) (A) (A)
                 (A) (A) (A) (A) (A) (A) (A) (A) (A) (A) (A) (A)
                 (A) (A) (A) (A) (A) (A) (A) (A) (A) (A) (A) (A)
                 (A) (A) (A) (A) (A) (A) (A) (A) (A) (A) (A) (A)
                 (A) (A) (A) (A) (A) (A) (A) (A) (A) (A) (A) (A)
                 (A) (A) (A) (A) (A) (A) (A) (A) (A) (A) (A) (A)
                 (A) (A) (A) (A) (A) (A) (A) (A) (A) (A) (A) (A)
                 (A) (A) (A) (A) (A) (A) (A) (A) (A) (A) (A) (A)
                 (A) (A) (A) (A) (A) (A) (A) (A) (A) (A) (A) (A)
                 (A) (A) (A) (A) (A) (A) (A) (A) (A) (A) (A) (A)
                 (A) (A) (A) (A) (A) (A) (A) (A) (A) (A) (A) (A)
                 (A) (A) (A) (A) (A) (A) (A) (A) (A) (A) (A) (A)
                 (A) (A) (A) (A) (A) (A) (A) (A) (A) (A) (A) (A)
                 (A) (A) (A) (A) (A) (A) (A) (A) (A) (A) (A) (A)
                 (A) (A) (A) (A) (A) (A) (A) (A) (A) (A) (A) (A)
                 (A) (A) (A) (A) (A) (A) (A) (A) (A) (A) (A) (A)
                 (A) (A) (A) (A) (A) (A) (A) (A) (A) (A) (A) (A)
                 (A) (A) (A) (A) (A) (A) (A) (A) (A) (A) (A) (A)
                 (A) (A) (A) (A) (A) (A) (A) (A) (A) (A) (A) (A)
                 (A) (A) (A) (A) (A) (A) (A) (A) (A) (A) (A) (A)
                 (A) (A) (A) (A) (A) (A) (A) (A) (A) (A) (A) (A)
                 (A) (A) (A) (A) (A) (A) (A) (A) (A) (A) (A) (A)
                 (A) (A) (A) (A) (A) (A) (A) (A) (A) (A) (A) (A)
                 (A) (A) (A) (A) (A) (A) (A) (A) (A) (A) (A) (A)
                 (A) (A) (A) (A) (A) (A) (A) (A) (A) (A)
       Virtual   (A) (A) (A) (A) (A) (A) (A) (A) (A) (A) (A) (A)
                 (A) (A) (A) (A) (A) (A) (A) (A) (A) (A) (A) (A)
                 (A) (A) (A) (A) (A) (A) (A) (A) (A) (A) (A) (A)
                 (A) (A) (A) (A) (A) (A) (A) (A) (A) (A) (A) (A)
                 (A) (A) (A) (A) (A) (A) (A) (A) (A) (A) (A) (A)
                 (A) (A) (A) (A) (A) (A) (A) (A) (A) (A) (A) (A)
                 (A) (A) (A) (A) (A) (A) (A) (A) (A) (A) (A) (A)
                 (A) (A) (A) (A) (A) (A) (A) (A) (A) (A) (A) (A)
                 (A) (A) (A) (A) (A) (A) (A) (A) (A) (A) (A) (A)
                 (A) (A) (A) (A) (A) (A) (A) (A) (A) (A) (A) (A)
                 (A) (A) (A) (A) (A) (A) (A) (A) (A) (A) (A) (A)
                 (A) (A) (A) (A) (A) (A) (A) (A) (A) (A) (A) (A)
                 (A) (A) (A) (A) (A) (A) (A) (A) (A) (A) (A) (A)
                 (A) (A) (A) (A) (A) (A) (A) (A) (A) (A) (A) (A)
                 (A) (A) (A) (A) (A) (A) (A) (A) (A) (A) (A) (A)
                 (A) (A) (A) (A) (A) (A) (A) (A) (A) (A) (A) (A)
                 (A) (A) (A) (A) (A) (A) (A) (A) (A) (A) (A) (A)
                 (A) (A) (A) (A) (A) (A) (A) (A) (A) (A) (A) (A)
                 (A) (A) (A) (A) (A) (A) (A) (A) (A) (A) (A) (A)
                 (A) (A) (A) (A) (A) (A) (A) (A) (A) (A) (A) (A)
                 (A) (A) (A) (A) (A) (A) (A) (A) (A) (A) (A) (A)
                 (A) (A) (A) (A) (A) (A) (A) (A) (A) (A) (A) (A)
                 (A) (A) (A) (A) (A) (A) (A) (A) (A) (A) (A) (A)
                 (A) (A) (A) (A) (A) (A) (A) (A) (A) (A) (A) (A)
                 (A) (A) (A) (A) (A) (A) (A) (A) (A) (A) (A) (A)
                 (A) (A) (A) (A) (A) (A) (A) (A) (A) (A) (A) (A)
                 (A) (A) (A) (A) (A) (A) (A) (A) (A) (A) (A) (A)
                 (A) (A) (A) (A) (A) (A) (A) (A) (A) (A) (A) (A)
                 (A) (A) (A) (A) (A) (A) (A) (A) (A) (A) (A) (A)
                 (A) (A) (A) (A) (A) (A) (A) (A) (A) (A) (A) (A)
                 (A) (A) (A) (A) (A) (A) (A) (A) (A) (A) (A) (A)
                 (A) (A) (A) (A) (A) (A) (A) (A) (A) (A) (A) (A)
                 (A) (A) (A) (A) (A) (A) (A) (A) (A) (A) (A) (A)
                 (A) (A) (A) (A) (A) (A) (A) (A) (A) (A) (A) (A)
                 (A) (A) (A) (A) (A) (A) (A) (A) (A) (A) (A) (A)
                 (A) (A) (A) (A) (A) (A) (A) (A) (A) (A) (A) (A)
                 (A) (A) (A) (A) (A) (A) (A) (A) (A) (A) (A) (A)
                 (A) (A) (A) (A) (A) (A) (A) (A) (A) (A) (A) (A)
                 (A) (A) (A) (A) (A) (A) (A) (A) (A) (A) (A) (A)
                 (A) (A) (A) (A) (A) (A) (A) (A) (A) (A) (A) (A)
                 (A) (A) (A) (A) (A) (A) (A) (A) (A) (A) (A) (A)
                 (A) (A) (A) (A) (A) (A) (A) (A) (A) (A) (A) (A)
                 (A) (A) (A) (A) (A) (A) (A) (A) (A) (A) (A) (A)
                 (A) (A) (A) (A) (A) (A) (A) (A) (A) (A) (A) (A)
                 (A) (A) (A) (A) (A) (A) (A) (A) (A) (A) (A) (A)
                 (A) (A) (A) (A) (A) (A) (A) (A) (A) (A) (A) (A)
                 (A) (A) (A) (A) (A) (A) (A) (A) (A) (A) (A) (A)
                 (A) (A) (A) (A) (A) (A) (A) (A) (A) (A) (A) (A)
                 (A) (A) (A) (A) (A) (A) (A) (A) (A) (A) (A) (A)
                 (A) (A) (A) (A) (A) (A) (A) (A) (A) (A) (A) (A)
                 (A) (A) (A) (A) (A) (A) (A) (A) (A) (A) (A) (A)
                 (A) (A) (A) (A) (A) (A) (A) (A) (A) (A) (A) (A)
                 (A) (A) (A) (A) (A) (A) (A) (A) (A) (A) (A) (A)
                 (A) (A) (A) (A) (A) (A) (A) (A) (A) (A) (A) (A)
                 (A) (A) (A) (A) (A) (A) (A) (A) (A) (A) (A) (A)
                 (A) (A) (A) (A) (A) (A) (A) (A) (A) (A) (A) (A)
                 (A) (A) (A) (A) (A) (A) (A) (A) (A) (A) (A) (A)
                 (A) (A) (A) (A) (A) (A) (A) (A) (A) (A) (A) (A)
                 (A) (A) (A) (A) (A) (A) (A) (A) (A) (A) (A) (A)
                 (A) (A) (A) (A) (A) (A) (A) (A) (A) (A) (A) (A)
                 (A) (A) (A) (A) (A) (A) (A) (A) (A) (A) (A) (A)
                 (A) (A) (A) (A) (A) (A) (A) (A) (A) (A) (A) (A)
                 (A) (A) (A) (A) (A) (A) (A) (A) (A) (A) (A) (A)
                 (A) (A) (A) (A) (A) (A) (A) (A) (A) (A) (A) (A)
                 (A) (A) (A) (A) (A) (A) (A) (A) (A) (A) (A) (A)
                 (A) (A) (A) (A) (A) (A) (A) (A) (A) (A) (A) (A)
                 (A) (A) (A) (A) (A) (A) (A) (A) (A) (A) (A) (A)
                 (A) (A) (A) (A) (A) (A) (A) (A) (A) (A) (A) (A)
                 (A) (A) (A) (A) (A) (A) (A) (A) (A) (A) (A) (A)
                 (A) (A) (A) (A) (A) (A) (A) (A) (A) (A) (A) (A)
                 (A) (A) (A) (A) (A) (A) (A) (A) (A) (A) (A) (A)
                 (A) (A) (A) (A) (A) (A) (A) (A) (A) (A) (A) (A)
                 (A) (A) (A) (A) (A) (A) (A) (A) (A) (A) (A) (A)
                 (A) (A) (A) (A) (A) (A) (A) (A) (A) (A) (A) (A)
                 (A) (A) (A) (A) (A) (A) (A) (A) (A) (A) (A) (A)
                 (A) (A) (A) (A) (A) (A) (A) (A) (A) (A) (A) (A)
                 (A) (A) (A) (A) (A) (A) (A) (A) (A) (A) (A) (A)
                 (A) (A) (A) (A) (A) (A) (A) (A) (A) (A) (A) (A)
                 (A) (A) (A) (A) (A) (A) (A) (A) (A) (A) (A) (A)
                 (A) (A) (A) (A) (A) (A) (A) (A) (A) (A) (A) (A)
                 (A) (A) (A) (A) (A) (A) (A) (A) (A) (A) (A) (A)
                 (A) (A) (A) (A) (A) (A) (A) (A) (A) (A) (A) (A)
                 (A) (A) (A) (A) (A) (A) (A) (A) (A) (A) (A) (A)
                 (A) (A) (A) (A) (A) (A) (A) (A) (A) (A) (A) (A)
                 (A) (A) (A) (A) (A) (A) (A) (A) (A) (A) (A) (A)
                 (A) (A) (A) (A) (A) (A) (A) (A) (A) (A) (A) (A)
                 (A) (A) (A) (A) (A) (A) (A) (A) (A) (A) (A) (A)
                 (A) (A) (A) (A) (A) (A) (A) (A) (A) (A) (A) (A)
                 (A) (A) (A) (A) (A) (A) (A) (A) (A) (A) (A) (A)
                 (A) (A) (A) (A) (A) (A) (A) (A) (A) (A) (A) (A)
                 (A) (A) (A) (A) (A) (A) (A) (A) (A) (A) (A) (A)
                 (A) (A) (A) (A) (A) (A) (A) (A) (A) (A) (A) (A)
                 (A) (A) (A) (A) (A) (A) (A) (A) (A) (A) (A) (A)
                 (A) (A) (A) (A) (A) (A) (A) (A) (A) (A) (A) (A)
                 (A) (A) (A) (A) (A) (A) (A) (A) (A) (A) (A) (A)
                 (A) (A) (A) (A) (A) (A) (A) (A) (A) (A) (A) (A)
                 (A) (A) (A) (A) (A) (A) (A) (A) (A) (A) (A) (A)
                 (A) (A) (A) (A) (A) (A) (A) (A) (A) (A) (A) (A)
                 (A) (A) (A) (A) (A) (A) (A) (A) (A) (A) (A) (A)
                 (A) (A) (A) (A) (A) (A) (A) (A) (A) (A) (A) (A)
                 (A) (A) (A) (A) (A) (A) (A) (A) (A) (A) (A) (A)
                 (A) (A) (A) (A) (A) (A) (A) (A) (A) (A) (A) (A)
                 (A) (A) (A) (A) (A) (A) (A) (A) (A) (A) (A) (A)
                 (A) (A) (A) (A) (A) (A) (A) (A) (A) (A) (A) (A)
                 (A) (A) (A) (A) (A) (A) (A) (A) (A) (A) (A) (A)
                 (A) (A) (A) (A) (A) (A) (A) (A) (A) (A) (A) (A)
                 (A) (A) (A) (A) (A) (A) (A) (A) (A) (A) (A) (A)
                 (A) (A) (A) (A) (A) (A) (A) (A) (A) (A) (A) (A)
                 (A) (A) (A) (A) (A) (A) (A) (A) (A) (A) (A) (A)
                 (A) (A) (A) (A) (A) (A) (A) (A) (A) (A) (A) (A)
                 (A) (A) (A) (A) (A) (A) (A) (A) (A) (A) (A) (A)
                 (A) (A) (A) (A) (A) (A) (A) (A) (A) (A) (A) (A)
                 (A) (A) (A) (A) (A) (A) (A) (A) (A) (A) (A) (A)
                 (A) (A) (A)
 The electronic state is 1-A.
 Alpha  occ. eigenvalues -- -145.39361 -19.18908 -19.16428 -19.14165 -19.13928
 Alpha  occ. eigenvalues --  -19.13645 -19.12727 -19.12342 -19.12308 -19.11790
 Alpha  occ. eigenvalues --  -19.11080 -19.10540 -19.09893 -19.08191 -19.06875
 Alpha  occ. eigenvalues --  -19.06752 -19.06693 -19.05384 -19.04732 -19.04495
 Alpha  occ. eigenvalues --  -19.04345 -19.04263 -19.03678 -19.02873 -15.45117
 Alpha  occ. eigenvalues --  -14.57695 -14.39565 -14.37966 -14.37570 -14.37144
 Alpha  occ. eigenvalues --  -14.36998 -14.36248 -14.36244 -14.33902 -14.32856
 Alpha  occ. eigenvalues --  -14.32129 -14.32108 -14.29760 -14.29332 -14.29004
 Alpha  occ. eigenvalues --  -12.58737 -12.58699 -12.58661 -10.33801 -10.32042
 Alpha  occ. eigenvalues --  -10.31730 -10.31311 -10.30531 -10.30172 -10.29629
 Alpha  occ. eigenvalues --  -10.29054 -10.29021 -10.28350 -10.27145 -10.26531
 Alpha  occ. eigenvalues --  -10.26165 -10.26123 -10.25951 -10.25555 -10.24791
 Alpha  occ. eigenvalues --  -10.24703 -10.24377 -10.23994 -10.23820 -10.23613
 Alpha  occ. eigenvalues --  -10.23195 -10.23127 -10.23122 -10.23119 -10.23099
 Alpha  occ. eigenvalues --  -10.23040 -10.22799 -10.22603 -10.22426 -10.22421
 Alpha  occ. eigenvalues --  -10.21722 -10.20865 -10.20793 -10.20767 -10.19954
 Alpha  occ. eigenvalues --  -10.19695 -10.19571 -10.19209 -10.19205 -10.18595
 Alpha  occ. eigenvalues --  -10.18561 -10.18327 -10.17713 -10.17602 -10.17556
 Alpha  occ. eigenvalues --  -10.17168 -10.17027 -10.17013 -10.16738 -10.16512
 Alpha  occ. eigenvalues --  -10.16123 -10.15515  -1.82062  -1.13097  -1.10166
 Alpha  occ. eigenvalues --   -1.09529  -1.09385  -1.07446  -1.07167  -1.05570
 Alpha  occ. eigenvalues --   -1.05552  -1.05458  -1.05024  -1.04646  -1.04289
 Alpha  occ. eigenvalues --   -1.03389  -1.02922  -1.02469  -1.01642  -1.00445
 Alpha  occ. eigenvalues --   -1.00319  -0.99635  -0.99369  -0.98541  -0.97676
 Alpha  occ. eigenvalues --   -0.97504  -0.96915  -0.96886  -0.95960  -0.94867
 Alpha  occ. eigenvalues --   -0.94379  -0.94011  -0.93213  -0.92997  -0.91978
 Alpha  occ. eigenvalues --   -0.91241  -0.90164  -0.89518  -0.89403  -0.88490
 Alpha  occ. eigenvalues --   -0.87932  -0.87900  -0.87797  -0.86187  -0.85525
 Alpha  occ. eigenvalues --   -0.83109  -0.82557  -0.82007  -0.81842  -0.81490
 Alpha  occ. eigenvalues --   -0.79376  -0.78988  -0.77935  -0.77408  -0.76701
 Alpha  occ. eigenvalues --   -0.76096  -0.74826  -0.74738  -0.74622  -0.73956
 Alpha  occ. eigenvalues --   -0.72522  -0.72234  -0.72049  -0.70818  -0.70321
 Alpha  occ. eigenvalues --   -0.69655  -0.69248  -0.68501  -0.68418  -0.68035
 Alpha  occ. eigenvalues --   -0.67466  -0.66901  -0.66011  -0.65293  -0.65105
 Alpha  occ. eigenvalues --   -0.64218  -0.63325  -0.63153  -0.63015  -0.62406
 Alpha  occ. eigenvalues --   -0.61742  -0.61543  -0.61112  -0.60667  -0.60419
 Alpha  occ. eigenvalues --   -0.60356  -0.60257  -0.60095  -0.58480  -0.57977
 Alpha  occ. eigenvalues --   -0.57745  -0.57328  -0.56919  -0.56730  -0.56343
 Alpha  occ. eigenvalues --   -0.56032  -0.55795  -0.55603  -0.55495  -0.55299
 Alpha  occ. eigenvalues --   -0.54942  -0.54708  -0.54228  -0.54037  -0.53645
 Alpha  occ. eigenvalues --   -0.53447  -0.53224  -0.52861  -0.52420  -0.51915
 Alpha  occ. eigenvalues --   -0.51461  -0.51369  -0.51138  -0.50728  -0.50568
 Alpha  occ. eigenvalues --   -0.50412  -0.50146  -0.49963  -0.49692  -0.49583
 Alpha  occ. eigenvalues --   -0.49440  -0.48989  -0.48845  -0.48505  -0.48107
 Alpha  occ. eigenvalues --   -0.48021  -0.47961  -0.47861  -0.47725  -0.47264
 Alpha  occ. eigenvalues --   -0.47151  -0.47026  -0.46897  -0.46442  -0.46256
 Alpha  occ. eigenvalues --   -0.46043  -0.45614  -0.45549  -0.45278  -0.45063
 Alpha  occ. eigenvalues --   -0.44985  -0.44767  -0.44710  -0.44633  -0.44573
 Alpha  occ. eigenvalues --   -0.44437  -0.44263  -0.43907  -0.43776  -0.43696
 Alpha  occ. eigenvalues --   -0.43452  -0.43320  -0.43290  -0.43208  -0.42937
 Alpha  occ. eigenvalues --   -0.42766  -0.42653  -0.42428  -0.42284  -0.42262
 Alpha  occ. eigenvalues --   -0.41829  -0.41737  -0.41700  -0.41554  -0.41336
 Alpha  occ. eigenvalues --   -0.41090  -0.40813  -0.40780  -0.40642  -0.40610
 Alpha  occ. eigenvalues --   -0.40475  -0.40220  -0.39968  -0.39946  -0.39824
 Alpha  occ. eigenvalues --   -0.39470  -0.39346  -0.39275  -0.39245  -0.39132
 Alpha  occ. eigenvalues --   -0.39074  -0.38859  -0.38786  -0.38610  -0.38511
 Alpha  occ. eigenvalues --   -0.38230  -0.38134  -0.37935  -0.37861  -0.37727
 Alpha  occ. eigenvalues --   -0.37580  -0.37347  -0.37115  -0.36923  -0.36822
 Alpha  occ. eigenvalues --   -0.36769  -0.36709  -0.36487  -0.36219  -0.36045
 Alpha  occ. eigenvalues --   -0.35760  -0.35684  -0.35416  -0.35269  -0.35109
 Alpha  occ. eigenvalues --   -0.34964  -0.34826  -0.34809  -0.34658  -0.34299
 Alpha  occ. eigenvalues --   -0.34092  -0.33969  -0.33593  -0.33402  -0.33341
 Alpha  occ. eigenvalues --   -0.32924  -0.32543  -0.32352  -0.32307  -0.31984
 Alpha  occ. eigenvalues --   -0.31547  -0.31463  -0.31296  -0.30895  -0.30815
 Alpha  occ. eigenvalues --   -0.30628  -0.29894  -0.29683  -0.29556  -0.29231
 Alpha  occ. eigenvalues --   -0.28892  -0.28729  -0.28462  -0.28151  -0.27993
 Alpha  occ. eigenvalues --   -0.27461  -0.27377  -0.27190  -0.26089  -0.26083
 Alpha  occ. eigenvalues --   -0.25474  -0.25371  -0.24591  -0.24106  -0.23718
 Alpha  occ. eigenvalues --   -0.23639  -0.23395  -0.23365  -0.23263  -0.22990
 Alpha  occ. eigenvalues --   -0.22766  -0.22280  -0.22114  -0.21970  -0.21853
 Alpha  occ. eigenvalues --   -0.21661  -0.20349  -0.20080  -0.19910  -0.19495
 Alpha  occ. eigenvalues --   -0.19157  -0.18717  -0.18170
 Alpha virt. eigenvalues --   -0.09976  -0.04784  -0.04025  -0.03685  -0.02655
 Alpha virt. eigenvalues --   -0.01320  -0.01163  -0.00859  -0.00567  -0.00226
 Alpha virt. eigenvalues --   -0.00044   0.00272   0.00427   0.00688   0.01271
 Alpha virt. eigenvalues --    0.01401   0.01646   0.02363   0.02442   0.03290
 Alpha virt. eigenvalues --    0.03463   0.03827   0.04034   0.04213   0.04490
 Alpha virt. eigenvalues --    0.04577   0.04724   0.04800   0.05301   0.05719
 Alpha virt. eigenvalues --    0.05943   0.06189   0.06368   0.06386   0.06426
 Alpha virt. eigenvalues --    0.06684   0.06880   0.06998   0.07131   0.07424
 Alpha virt. eigenvalues --    0.07561   0.07582   0.07926   0.08140   0.08301
 Alpha virt. eigenvalues --    0.08563   0.08653   0.08853   0.09097   0.09327
 Alpha virt. eigenvalues --    0.09380   0.09786   0.10098   0.10248   0.10443
 Alpha virt. eigenvalues --    0.10531   0.10699   0.10896   0.11001   0.11235
 Alpha virt. eigenvalues --    0.11575   0.11801   0.11819   0.12046   0.12311
 Alpha virt. eigenvalues --    0.12451   0.12493   0.12724   0.12930   0.12956
 Alpha virt. eigenvalues --    0.13034   0.13425   0.13507   0.13662   0.13896
 Alpha virt. eigenvalues --    0.14163   0.14193   0.14444   0.14658   0.14801
 Alpha virt. eigenvalues --    0.15175   0.15241   0.15573   0.15662   0.15851
 Alpha virt. eigenvalues --    0.16114   0.16240   0.16282   0.16478   0.16590
 Alpha virt. eigenvalues --    0.16842   0.17067   0.17112   0.17336   0.17450
 Alpha virt. eigenvalues --    0.17615   0.17656   0.18081   0.18163   0.18261
 Alpha virt. eigenvalues --    0.18282   0.18699   0.18796   0.18976   0.19252
 Alpha virt. eigenvalues --    0.19296   0.19490   0.19621   0.19803   0.20078
 Alpha virt. eigenvalues --    0.20239   0.20352   0.20746   0.21003   0.21212
 Alpha virt. eigenvalues --    0.21517   0.21690   0.21879   0.21965   0.22364
 Alpha virt. eigenvalues --    0.22488   0.22789   0.22945   0.23028   0.23213
 Alpha virt. eigenvalues --    0.23341   0.23607   0.23929   0.24066   0.24177
 Alpha virt. eigenvalues --    0.24505   0.24732   0.24957   0.25177   0.25248
 Alpha virt. eigenvalues --    0.25466   0.25840   0.26143   0.26175   0.26374
 Alpha virt. eigenvalues --    0.26426   0.26620   0.27000   0.27147   0.27432
 Alpha virt. eigenvalues --    0.27616   0.27764   0.28077   0.28392   0.28623
 Alpha virt. eigenvalues --    0.28996   0.29562   0.29714   0.30101   0.30187
 Alpha virt. eigenvalues --    0.30398   0.30649   0.30714   0.31303   0.31348
 Alpha virt. eigenvalues --    0.31498   0.31786   0.32193   0.32276   0.32508
 Alpha virt. eigenvalues --    0.32821   0.33016   0.33303   0.33486   0.33568
 Alpha virt. eigenvalues --    0.34197   0.34278   0.34435   0.34632   0.35001
 Alpha virt. eigenvalues --    0.35485   0.35630   0.35926   0.36142   0.36458
 Alpha virt. eigenvalues --    0.36606   0.37047   0.37172   0.37440   0.37514
 Alpha virt. eigenvalues --    0.37850   0.38041   0.38305   0.38690   0.39063
 Alpha virt. eigenvalues --    0.39243   0.39480   0.39559   0.39715   0.40187
 Alpha virt. eigenvalues --    0.40439   0.40563   0.41118   0.41424   0.41633
 Alpha virt. eigenvalues --    0.41997   0.42085   0.42334   0.42678   0.42791
 Alpha virt. eigenvalues --    0.42947   0.43316   0.43418   0.43548   0.43724
 Alpha virt. eigenvalues --    0.44190   0.44655   0.44954   0.45039   0.45309
 Alpha virt. eigenvalues --    0.45478   0.45810   0.46014   0.46235   0.46433
 Alpha virt. eigenvalues --    0.46559   0.46702   0.46875   0.47099   0.47225
 Alpha virt. eigenvalues --    0.47387   0.47503   0.47656   0.47868   0.47979
 Alpha virt. eigenvalues --    0.48024   0.48182   0.48363   0.48441   0.48645
 Alpha virt. eigenvalues --    0.48756   0.49068   0.49321   0.49789   0.49973
 Alpha virt. eigenvalues --    0.50169   0.50477   0.50664   0.50796   0.51017
 Alpha virt. eigenvalues --    0.51351   0.51455   0.51529   0.51728   0.51971
 Alpha virt. eigenvalues --    0.52194   0.52385   0.52871   0.53031   0.53117
 Alpha virt. eigenvalues --    0.53238   0.53430   0.53750   0.53899   0.54195
 Alpha virt. eigenvalues --    0.54264   0.54506   0.54731   0.54752   0.54963
 Alpha virt. eigenvalues --    0.55093   0.55294   0.55547   0.55677   0.55812
 Alpha virt. eigenvalues --    0.56074   0.56100   0.56370   0.56577   0.56664
 Alpha virt. eigenvalues --    0.56834   0.57052   0.57115   0.57401   0.57512
 Alpha virt. eigenvalues --    0.57714   0.58031   0.58082   0.58387   0.58425
 Alpha virt. eigenvalues --    0.58779   0.58885   0.58949   0.59104   0.59200
 Alpha virt. eigenvalues --    0.59419   0.59563   0.59733   0.59853   0.60152
 Alpha virt. eigenvalues --    0.60288   0.60365   0.60483   0.60620   0.60675
 Alpha virt. eigenvalues --    0.60814   0.60956   0.61048   0.61334   0.61363
 Alpha virt. eigenvalues --    0.61520   0.61609   0.61776   0.62051   0.62094
 Alpha virt. eigenvalues --    0.62249   0.62451   0.62575   0.62678   0.62805
 Alpha virt. eigenvalues --    0.62961   0.63091   0.63316   0.63456   0.63530
 Alpha virt. eigenvalues --    0.63603   0.63711   0.63812   0.63998   0.64003
 Alpha virt. eigenvalues --    0.64169   0.64263   0.64313   0.64464   0.64614
 Alpha virt. eigenvalues --    0.64697   0.64849   0.64972   0.64993   0.65190
 Alpha virt. eigenvalues --    0.65401   0.65448   0.65572   0.65594   0.65770
 Alpha virt. eigenvalues --    0.65907   0.66040   0.66078   0.66268   0.66416
 Alpha virt. eigenvalues --    0.66548   0.66744   0.66797   0.66941   0.67024
 Alpha virt. eigenvalues --    0.67073   0.67178   0.67326   0.67348   0.67456
 Alpha virt. eigenvalues --    0.67782   0.67849   0.67910   0.68049   0.68104
 Alpha virt. eigenvalues --    0.68342   0.68420   0.68440   0.68609   0.68851
 Alpha virt. eigenvalues --    0.68914   0.69011   0.69108   0.69271   0.69386
 Alpha virt. eigenvalues --    0.69460   0.69567   0.69838   0.69848   0.70050
 Alpha virt. eigenvalues --    0.70124   0.70182   0.70396   0.70569   0.70721
 Alpha virt. eigenvalues --    0.70936   0.71090   0.71223   0.71299   0.71400
 Alpha virt. eigenvalues --    0.71576   0.71740   0.71859   0.72122   0.72215
 Alpha virt. eigenvalues --    0.72539   0.72762   0.72919   0.72967   0.73232
 Alpha virt. eigenvalues --    0.73547   0.73563   0.73673   0.73727   0.73917
 Alpha virt. eigenvalues --    0.74185   0.74506   0.74521   0.74626   0.74802
 Alpha virt. eigenvalues --    0.75118   0.75189   0.75322   0.75769   0.75914
 Alpha virt. eigenvalues --    0.76419   0.76527   0.76772   0.77171   0.77241
 Alpha virt. eigenvalues --    0.77502   0.77527   0.77774   0.77970   0.78181
 Alpha virt. eigenvalues --    0.78523   0.78726   0.78884   0.79019   0.79322
 Alpha virt. eigenvalues --    0.79516   0.79644   0.79855   0.80025   0.80378
 Alpha virt. eigenvalues --    0.80607   0.80843   0.81371   0.81551   0.81653
 Alpha virt. eigenvalues --    0.81916   0.82150   0.82294   0.82475   0.82645
 Alpha virt. eigenvalues --    0.82789   0.82957   0.83407   0.83868   0.84173
 Alpha virt. eigenvalues --    0.84518   0.84736   0.85260   0.85418   0.85493
 Alpha virt. eigenvalues --    0.85759   0.86368   0.86419   0.86768   0.86888
 Alpha virt. eigenvalues --    0.87702   0.87913   0.87997   0.88657   0.88870
 Alpha virt. eigenvalues --    0.89173   0.89280   0.89559   0.89614   0.90044
 Alpha virt. eigenvalues --    0.90310   0.90568   0.90814   0.90933   0.91302
 Alpha virt. eigenvalues --    0.91481   0.91857   0.92084   0.92519   0.92648
 Alpha virt. eigenvalues --    0.93408   0.93513   0.93669   0.94217   0.94334
 Alpha virt. eigenvalues --    0.94754   0.94970   0.95143   0.95641   0.95705
 Alpha virt. eigenvalues --    0.96310   0.96580   0.96622   0.97135   0.97364
 Alpha virt. eigenvalues --    0.97610   0.97731   0.98036   0.98243   0.98400
 Alpha virt. eigenvalues --    0.98717   0.98905   0.99014   0.99383   0.99613
 Alpha virt. eigenvalues --    0.99980   1.00069   1.00188   1.00537   1.00662
 Alpha virt. eigenvalues --    1.00904   1.01527   1.02193   1.02377   1.02509
 Alpha virt. eigenvalues --    1.02872   1.03137   1.03471   1.03639   1.03992
 Alpha virt. eigenvalues --    1.04072   1.04534   1.04843   1.05525   1.05727
 Alpha virt. eigenvalues --    1.05929   1.06421   1.06643   1.06818   1.07110
 Alpha virt. eigenvalues --    1.07202   1.07472   1.07712   1.08053   1.08174
 Alpha virt. eigenvalues --    1.08542   1.08926   1.09228   1.09547   1.09658
 Alpha virt. eigenvalues --    1.10002   1.10594   1.10796   1.11078   1.11265
 Alpha virt. eigenvalues --    1.11790   1.12048   1.12432   1.12674   1.12868
 Alpha virt. eigenvalues --    1.13495   1.13659   1.13911   1.14133   1.14435
 Alpha virt. eigenvalues --    1.14622   1.15036   1.15498   1.15742   1.16099
 Alpha virt. eigenvalues --    1.16197   1.16351   1.16489   1.16738   1.17155
 Alpha virt. eigenvalues --    1.17609   1.17924   1.17953   1.18105   1.18262
 Alpha virt. eigenvalues --    1.18572   1.18906   1.19444   1.19492   1.19883
 Alpha virt. eigenvalues --    1.20241   1.20310   1.20633   1.20964   1.21170
 Alpha virt. eigenvalues --    1.21226   1.21553   1.21634   1.22057   1.22312
 Alpha virt. eigenvalues --    1.22967   1.23113   1.23241   1.23503   1.23861
 Alpha virt. eigenvalues --    1.24071   1.24204   1.24504   1.24787   1.25148
 Alpha virt. eigenvalues --    1.25238   1.25420   1.25741   1.26020   1.26251
 Alpha virt. eigenvalues --    1.26628   1.26710   1.26932   1.27229   1.27295
 Alpha virt. eigenvalues --    1.27648   1.27770   1.28002   1.28319   1.28702
 Alpha virt. eigenvalues --    1.28970   1.29123   1.29327   1.29787   1.30186
 Alpha virt. eigenvalues --    1.30333   1.30486   1.30648   1.30849   1.31091
 Alpha virt. eigenvalues --    1.31272   1.31439   1.31783   1.32071   1.32196
 Alpha virt. eigenvalues --    1.32728   1.32773   1.33022   1.33442   1.33577
 Alpha virt. eigenvalues --    1.34058   1.34338   1.34684   1.34898   1.35012
 Alpha virt. eigenvalues --    1.35262   1.35724   1.35813   1.36308   1.36375
 Alpha virt. eigenvalues --    1.36657   1.36895   1.37375   1.37485   1.37689
 Alpha virt. eigenvalues --    1.37912   1.38243   1.38622   1.38879   1.39212
 Alpha virt. eigenvalues --    1.39519   1.39985   1.40056   1.40195   1.40627
 Alpha virt. eigenvalues --    1.40913   1.41554   1.42057   1.42216   1.42296
 Alpha virt. eigenvalues --    1.42376   1.42481   1.43394   1.43912   1.43992
 Alpha virt. eigenvalues --    1.44264   1.44524   1.44707   1.45373   1.45405
 Alpha virt. eigenvalues --    1.45754   1.46129   1.46169   1.46538   1.46935
 Alpha virt. eigenvalues --    1.47293   1.47407   1.47481   1.47859   1.48062
 Alpha virt. eigenvalues --    1.48309   1.48397   1.48628   1.49084   1.49558
 Alpha virt. eigenvalues --    1.49973   1.50124   1.50450   1.50716   1.51032
 Alpha virt. eigenvalues --    1.51454   1.51898   1.52056   1.52596   1.53065
 Alpha virt. eigenvalues --    1.53366   1.53945   1.54068   1.54220   1.54551
 Alpha virt. eigenvalues --    1.54899   1.55227   1.55283   1.56235   1.56482
 Alpha virt. eigenvalues --    1.56646   1.56939   1.57050   1.57588   1.57861
 Alpha virt. eigenvalues --    1.57985   1.58048   1.58356   1.58745   1.59084
 Alpha virt. eigenvalues --    1.59130   1.59395   1.59853   1.59982   1.60408
 Alpha virt. eigenvalues --    1.60702   1.60854   1.61405   1.61615   1.62200
 Alpha virt. eigenvalues --    1.62328   1.62613   1.63033   1.63213   1.63470
 Alpha virt. eigenvalues --    1.63566   1.64172   1.64527   1.64799   1.65230
 Alpha virt. eigenvalues --    1.65277   1.65489   1.65678   1.65860   1.65998
 Alpha virt. eigenvalues --    1.66134   1.67137   1.67373   1.67425   1.67654
 Alpha virt. eigenvalues --    1.67925   1.68643   1.68781   1.68970   1.69190
 Alpha virt. eigenvalues --    1.69234   1.69587   1.69842   1.70240   1.70554
 Alpha virt. eigenvalues --    1.70688   1.70904   1.71425   1.71482   1.72004
 Alpha virt. eigenvalues --    1.72124   1.72293   1.72566   1.72932   1.73453
 Alpha virt. eigenvalues --    1.73557   1.73952   1.74121   1.74273   1.74553
 Alpha virt. eigenvalues --    1.74623   1.74793   1.74992   1.75106   1.75484
 Alpha virt. eigenvalues --    1.75693   1.75757   1.76058   1.76333   1.76499
 Alpha virt. eigenvalues --    1.76545   1.76782   1.76826   1.76911   1.77118
 Alpha virt. eigenvalues --    1.77456   1.77663   1.77741   1.77952   1.78297
 Alpha virt. eigenvalues --    1.78500   1.78603   1.78616   1.78863   1.79070
 Alpha virt. eigenvalues --    1.79173   1.79324   1.79483   1.79703   1.79918
 Alpha virt. eigenvalues --    1.79990   1.80267   1.80510   1.80557   1.80668
 Alpha virt. eigenvalues --    1.80929   1.81251   1.81303   1.81587   1.81837
 Alpha virt. eigenvalues --    1.81966   1.82015   1.82263   1.82436   1.82684
 Alpha virt. eigenvalues --    1.82793   1.83072   1.83178   1.83415   1.83616
 Alpha virt. eigenvalues --    1.83835   1.83915   1.84028   1.84234   1.84408
 Alpha virt. eigenvalues --    1.84566   1.84737   1.84843   1.84951   1.85049
 Alpha virt. eigenvalues --    1.85646   1.85730   1.85825   1.86069   1.86270
 Alpha virt. eigenvalues --    1.86642   1.86827   1.87015   1.87207   1.87466
 Alpha virt. eigenvalues --    1.87653   1.87817   1.88044   1.88192   1.88515
 Alpha virt. eigenvalues --    1.88577   1.88611   1.88890   1.89037   1.89123
 Alpha virt. eigenvalues --    1.89234   1.89337   1.89634   1.89787   1.89905
 Alpha virt. eigenvalues --    1.90165   1.90307   1.90505   1.90804   1.90849
 Alpha virt. eigenvalues --    1.91213   1.91326   1.91581   1.91662   1.91961
 Alpha virt. eigenvalues --    1.92186   1.92278   1.92427   1.92752   1.93111
 Alpha virt. eigenvalues --    1.93154   1.93248   1.93467   1.93884   1.94149
 Alpha virt. eigenvalues --    1.94326   1.94581   1.94728   1.94802   1.95014
 Alpha virt. eigenvalues --    1.95450   1.95778   1.95918   1.96070   1.96287
 Alpha virt. eigenvalues --    1.96371   1.96526   1.96779   1.96977   1.97195
 Alpha virt. eigenvalues --    1.97288   1.97705   1.97895   1.97967   1.98079
 Alpha virt. eigenvalues --    1.98496   1.98610   1.98775   1.98864   1.99071
 Alpha virt. eigenvalues --    1.99268   1.99460   1.99649   1.99942   2.00010
 Alpha virt. eigenvalues --    2.00303   2.00444   2.00625   2.01097   2.01260
 Alpha virt. eigenvalues --    2.01392   2.01455   2.01963   2.02176   2.02536
 Alpha virt. eigenvalues --    2.03214   2.03339   2.03624   2.03663   2.03950
 Alpha virt. eigenvalues --    2.04124   2.04282   2.04570   2.04849   2.05200
 Alpha virt. eigenvalues --    2.05461   2.05619   2.05903   2.06227   2.06785
 Alpha virt. eigenvalues --    2.06918   2.07114   2.07365   2.07571   2.07807
 Alpha virt. eigenvalues --    2.07943   2.08017   2.08555   2.08571   2.09197
 Alpha virt. eigenvalues --    2.09365   2.09644   2.10285   2.10435   2.10568
 Alpha virt. eigenvalues --    2.10651   2.10891   2.11311   2.11549   2.11840
 Alpha virt. eigenvalues --    2.12192   2.12291   2.12542   2.12872   2.13278
 Alpha virt. eigenvalues --    2.13730   2.13807   2.14492   2.14716   2.15217
 Alpha virt. eigenvalues --    2.15536   2.16139   2.16359   2.16400   2.16677
 Alpha virt. eigenvalues --    2.16913   2.17065   2.17650   2.17761   2.17978
 Alpha virt. eigenvalues --    2.18239   2.18824   2.18913   2.19103   2.19384
 Alpha virt. eigenvalues --    2.19750   2.19961   2.20418   2.20606   2.20741
 Alpha virt. eigenvalues --    2.20918   2.21163   2.21793   2.21951   2.22381
 Alpha virt. eigenvalues --    2.22436   2.22728   2.22851   2.23126   2.23561
 Alpha virt. eigenvalues --    2.23974   2.24067   2.24602   2.24854   2.25324
 Alpha virt. eigenvalues --    2.25434   2.25673   2.26251   2.26502   2.26738
 Alpha virt. eigenvalues --    2.27078   2.27501   2.27870   2.28255   2.28555
 Alpha virt. eigenvalues --    2.28922   2.29067   2.29580   2.29823   2.30774
 Alpha virt. eigenvalues --    2.30867   2.31439   2.31728   2.31954   2.32138
 Alpha virt. eigenvalues --    2.32916   2.33049   2.33255   2.33996   2.34284
 Alpha virt. eigenvalues --    2.34747   2.34909   2.35351   2.35537   2.35956
 Alpha virt. eigenvalues --    2.36422   2.36498   2.36853   2.36991   2.37517
 Alpha virt. eigenvalues --    2.37676   2.38188   2.38271   2.38490   2.38621
 Alpha virt. eigenvalues --    2.38820   2.39129   2.39244   2.39619   2.40021
 Alpha virt. eigenvalues --    2.40250   2.40614   2.40823   2.40988   2.41383
 Alpha virt. eigenvalues --    2.41559   2.41860   2.42388   2.42740   2.42907
 Alpha virt. eigenvalues --    2.43185   2.43414   2.44064   2.44367   2.44531
 Alpha virt. eigenvalues --    2.44836   2.44910   2.45309   2.46562   2.46611
 Alpha virt. eigenvalues --    2.47172   2.47644   2.47830   2.48238   2.48844
 Alpha virt. eigenvalues --    2.49115   2.49408   2.49580   2.50089   2.50194
 Alpha virt. eigenvalues --    2.50396   2.50804   2.50988   2.51229   2.51717
 Alpha virt. eigenvalues --    2.51939   2.52388   2.52838   2.53032   2.53480
 Alpha virt. eigenvalues --    2.53600   2.54286   2.54446   2.54953   2.55425
 Alpha virt. eigenvalues --    2.55588   2.55958   2.56144   2.56643   2.56901
 Alpha virt. eigenvalues --    2.57473   2.58000   2.58241   2.58461   2.58719
 Alpha virt. eigenvalues --    2.59003   2.59169   2.59884   2.60218   2.60440
 Alpha virt. eigenvalues --    2.60664   2.60888   2.61108   2.61598   2.61781
 Alpha virt. eigenvalues --    2.62256   2.62411   2.62547   2.63001   2.63350
 Alpha virt. eigenvalues --    2.63567   2.64029   2.64060   2.64231   2.64504
 Alpha virt. eigenvalues --    2.64766   2.64902   2.65352   2.65865   2.66056
 Alpha virt. eigenvalues --    2.66290   2.66521   2.66624   2.67017   2.67157
 Alpha virt. eigenvalues --    2.68158   2.68240   2.68705   2.69056   2.69552
 Alpha virt. eigenvalues --    2.69817   2.69973   2.70152   2.70312   2.70552
 Alpha virt. eigenvalues --    2.70683   2.70984   2.71295   2.71621   2.71909
 Alpha virt. eigenvalues --    2.72019   2.72306   2.72634   2.72694   2.73020
 Alpha virt. eigenvalues --    2.73157   2.73350   2.73480   2.74040   2.74467
 Alpha virt. eigenvalues --    2.74477   2.74848   2.75216   2.75736   2.75767
 Alpha virt. eigenvalues --    2.75908   2.76324   2.76406   2.76738   2.77095
 Alpha virt. eigenvalues --    2.77269   2.77438   2.77541   2.77685   2.77873
 Alpha virt. eigenvalues --    2.78528   2.78644   2.78778   2.79011   2.79231
 Alpha virt. eigenvalues --    2.79534   2.79785   2.79958   2.80123   2.80720
 Alpha virt. eigenvalues --    2.80976   2.81487   2.82175   2.82583   2.82697
 Alpha virt. eigenvalues --    2.83012   2.83434   2.83593   2.83656   2.83819
 Alpha virt. eigenvalues --    2.84251   2.84514   2.84904   2.85238   2.85454
 Alpha virt. eigenvalues --    2.85638   2.85673   2.85943   2.86214   2.86399
 Alpha virt. eigenvalues --    2.86597   2.87040   2.87668   2.87899   2.88556
 Alpha virt. eigenvalues --    2.88675   2.89002   2.89170   2.89238   2.89576
 Alpha virt. eigenvalues --    2.89746   2.90162   2.90359   2.90504   2.90839
 Alpha virt. eigenvalues --    2.91988   2.92582   2.92800   2.93094   2.93286
 Alpha virt. eigenvalues --    2.93628   2.93814   2.94292   2.94425   2.94679
 Alpha virt. eigenvalues --    2.94775   2.94838   2.95479   2.96432   2.96838
 Alpha virt. eigenvalues --    2.97044   2.97123   2.97534   2.97988   2.98063
 Alpha virt. eigenvalues --    2.98818   2.99341   2.99739   2.99888   3.00199
 Alpha virt. eigenvalues --    3.00332   3.00588   3.01273   3.01580   3.02092
 Alpha virt. eigenvalues --    3.02174   3.02421   3.02855   3.03024   3.03395
 Alpha virt. eigenvalues --    3.03591   3.03954   3.04172   3.04583   3.04819
 Alpha virt. eigenvalues --    3.05600   3.05664   3.05893   3.06268   3.06755
 Alpha virt. eigenvalues --    3.07396   3.07714   3.08133   3.08443   3.08796
 Alpha virt. eigenvalues --    3.09145   3.09753   3.10247   3.10786   3.10884
 Alpha virt. eigenvalues --    3.11729   3.12152   3.13020   3.13407   3.13951
 Alpha virt. eigenvalues --    3.14093   3.14551   3.14874   3.15352   3.15858
 Alpha virt. eigenvalues --    3.16372   3.16707   3.16877   3.17001   3.17159
 Alpha virt. eigenvalues --    3.17609   3.17834   3.18481   3.18565   3.18582
 Alpha virt. eigenvalues --    3.19328   3.19382   3.19726   3.20644   3.20756
 Alpha virt. eigenvalues --    3.20919   3.21399   3.21552   3.22288   3.22697
 Alpha virt. eigenvalues --    3.22781   3.23332   3.24116   3.24628   3.24668
 Alpha virt. eigenvalues --    3.24986   3.25741   3.25773   3.27347   3.27392
 Alpha virt. eigenvalues --    3.27543   3.28432   3.28685   3.28900   3.29034
 Alpha virt. eigenvalues --    3.29286   3.29573   3.30573   3.30626   3.34329
 Alpha virt. eigenvalues --    3.35966   3.36948   3.38933   3.41251   3.42376
 Alpha virt. eigenvalues --    3.43593   3.45713   3.48068   3.48453   3.49435
 Alpha virt. eigenvalues --    3.51855   3.53107   3.55500   3.55830   3.56255
 Alpha virt. eigenvalues --    3.56731   3.57171   3.57379   3.58833   3.59486
 Alpha virt. eigenvalues --    3.60661   3.61604   3.62202   3.62369   3.63104
 Alpha virt. eigenvalues --    3.65316   3.65456   3.66245   3.67449   3.67834
 Alpha virt. eigenvalues --    3.68057   3.68316   3.68817   3.69198   3.69389
 Alpha virt. eigenvalues --    3.70214   3.70495   3.70940   3.72242   3.72673
 Alpha virt. eigenvalues --    3.73711   3.74509   3.74704   3.75037   3.76615
 Alpha virt. eigenvalues --    3.78693   3.80672   3.82438   3.84836
          Condensed to atoms (all electrons):
 Mulliken charges:
               1
     1  C    0.027373
     2  C    0.036661
     3  O   -0.301893
     4  H    0.053757
     5  H   -0.022962
     6  H    0.025587
     7  N   -0.112006
     8  C    0.137197
     9  C    0.028576
    10  O   -0.281360
    11  C    0.071891
    12  C    0.159777
    13  O   -0.361890
    14  O   -0.474663
    15  H    0.126722
    16  H    0.002032
    17  H    0.005720
    18  H    0.027414
    19  N   -0.112210
    20  C    0.084724
    21  C    0.063124
    22  O   -0.269721
    23  C    0.081465
    24  C   -0.000467
    25  C   -0.038765
    26  C    0.046950
    27  N    0.074587
    28  H    0.126793
    29  H   -0.013976
    30  H    0.017152
    31  H   -0.002627
    32  H   -0.001692
    33  H    0.043637
    34  H    0.023538
    35  H    0.020447
    36  H    0.055050
    37  H    0.117492
    38  H    0.173048
    39  H    0.185968
    40  H    0.191272
    41  N   -0.158771
    42  C    0.138396
    43  C    0.087874
    44  O   -0.276565
    45  C    0.079474
    46  C    0.094167
    47  O   -0.470068
    48  O   -0.390208
    49  H    0.108981
    50  H   -0.001280
    51  H   -0.003653
    52  H    0.038980
    53  N   -0.171573
    54  C    0.174812
    55  C    0.085259
    56  O   -0.290927
    57  H    0.158494
    58  H    0.019543
    59  H    0.015604
    60  N   -0.170395
    61  C    0.181175
    62  C    0.036851
    63  O   -0.316743
    64  C    0.034676
    65  C    0.070088
    66  N   -0.026656
    67  O   -0.333682
    68  H    0.153689
    69  H    0.018728
    70  H    0.052413
    71  H    0.027748
    72  H    0.128734
    73  H    0.101060
    74  N   -0.153864
    75  C    0.223133
    76  C    0.030628
    77  O   -0.302502
    78  H    0.165901
    79  H    0.039178
    80  H    0.030205
    81  N   -0.155658
    82  C    0.133213
    83  C    0.154842
    84  O   -0.338729
    85  C    0.122727
    86  C   -0.030834
    87  C    0.015482
    88  C    0.006851
    89  C   -0.022355
    90  C   -0.036738
    91  C    0.162449
    92  O   -0.201505
    93  H    0.170161
    94  H   -0.017516
    95  H   -0.029197
    96  H   -0.017195
    97  H   -0.007732
    98  H   -0.038652
    99  H   -0.009741
   100  H   -0.051285
   101  H    0.167972
   102  N   -0.118398
   103  C    0.125770
   104  C    0.081723
   105  O   -0.287068
   106  C   -0.088622
   107  C    0.001618
   108  C    0.062509
   109  C    0.035581
   110  H    0.133658
   111  H    0.003036
   112  H   -0.021497
   113  H    0.011073
   114  H    0.005570
   115  H    0.001994
   116  H    0.031491
   117  H    0.005713
   118  H   -0.006409
   119  H    0.008063
   120  H    0.003648
   121  N   -0.123363
   122  C    0.080840
   123  C    0.096950
   124  O   -0.259974
   125  C    0.242001
   126  O   -0.345951
   127  H    0.132743
   128  H    0.029032
   129  H    0.015562
   130  H   -0.019263
   131  H    0.159844
   132  N   -0.114491
   133  C    0.072591
   134  C    0.059117
   135  O   -0.247333
   136  C    0.044973
   137  H    0.109014
   138  H    0.027721
   139  H    0.048963
   140  H    0.031333
   141  H    0.004526
   142  N   -0.148521
   143  C    0.125388
   144  C    0.091778
   145  O   -0.238315
   146  C    0.015740
   147  H    0.092127
   148  H    0.015287
   149  H    0.023680
   150  H    0.018591
   151  H   -0.012859
   152  N   -0.164958
   153  C    0.111575
   154  C    0.066459
   155  O   -0.315860
   156  C   -0.014188
   157  C    0.094046
   158  C    0.198280
   159  O   -0.450988
   160  O   -0.420374
   161  H    0.139161
   162  H   -0.018976
   163  H    0.047712
   164  H    0.007746
   165  H   -0.014566
   166  H   -0.008792
   167  N   -0.167393
   168  C    0.138477
   169  H    0.016355
   170  H    0.033463
   171  H    0.003853
   172  H    0.134983
   173  Ca   1.282344
   174  O   -0.282697
   175  H    0.172223
   176  H    0.175738
 Sum of Mulliken charges =  -0.00000
 Mulliken charges with hydrogens summed into heavy atoms:
               1
     1  C    0.083755
     2  C    0.036661
     3  O   -0.301893
     7  N    0.014715
     8  C    0.139230
     9  C    0.028576
    10  O   -0.281360
    11  C    0.105024
    12  C    0.159777
    13  O   -0.361890
    14  O   -0.474663
    19  N    0.014584
    20  C    0.070749
    21  C    0.063124
    22  O   -0.269721
    23  C    0.095991
    24  C    0.041478
    25  C    0.005221
    26  C    0.219491
    27  N    0.624875
    41  N   -0.049790
    42  C    0.137117
    43  C    0.087874
    44  O   -0.276565
    45  C    0.114801
    46  C    0.094167
    47  O   -0.470068
    48  O   -0.390208
    53  N   -0.013079
    54  C    0.209959
    55  C    0.085259
    56  O   -0.290927
    60  N   -0.016705
    61  C    0.199902
    62  C    0.036851
    63  O   -0.316743
    64  C    0.114837
    65  C    0.070088
    66  N    0.203138
    67  O   -0.333682
    74  N    0.012037
    75  C    0.292517
    76  C    0.030628
    77  O   -0.302502
    81  N    0.014504
    82  C    0.115698
    83  C    0.154842
    84  O   -0.338729
    85  C    0.076335
    86  C   -0.030834
    87  C    0.007750
    88  C   -0.031800
    89  C   -0.032096
    90  C   -0.088022
    91  C    0.162449
    92  O   -0.033532
   102  N    0.015260
   103  C    0.128806
   104  C    0.081723
   105  O   -0.287068
   106  C   -0.110119
   107  C    0.018261
   108  C    0.101707
   109  C    0.040882
   121  N    0.009380
   122  C    0.109872
   123  C    0.096950
   124  O   -0.259974
   125  C    0.238300
   126  O   -0.186107
   132  N   -0.005477
   133  C    0.100312
   134  C    0.059117
   135  O   -0.247333
   136  C    0.129795
   142  N   -0.056394
   143  C    0.140675
   144  C    0.091778
   145  O   -0.238315
   146  C    0.045153
   152  N   -0.025796
   153  C    0.092599
   154  C    0.066459
   155  O   -0.315860
   156  C    0.041270
   157  C    0.070688
   158  C    0.198280
   159  O   -0.450988
   160  O   -0.420374
   167  N   -0.032410
   168  C    0.192148
   173  Ca   1.282344
   174  O    0.065265
 DipInt: DoE/N= T F RetVal/Mat= T F Init=T NMatP=  1 IDeriv=0 Min/MaxMlt=  0  4
 Entering OneElI...
 OneElI was handed  1333951383 working-precision words.
 Multipole integrals L=0 to 4 MinM= 0 MaxM= 0.
 Requested accuracy = 0.1000D-12
 ShPair: Thresh= 1.00D-13 NBox=     0 BxSize= 0.00D+00 RnKept= 2.55D+01
         NSMCal=               327645 NSMKep=              164604
 PrmmSu-InSpLW:  IPartL=    0 NPrtUS=    1 NPrtUL=    1 DoSpLW=F IThBeg=    0 IThEnd=    0 NThAct=    1.
 PrsmSu:  NPrtUS=   1 ThrOK=F IAlg=1 NPAlg=1 LenDen=           0 ISkipM=0 DoSpLW=F IThBeg=    0 IThEnd=    0.
 Prism:   IPart=     0 DynPar=F LinDyn=F Incr=         512.
 PRISM was handed  1323712047 working-precision words and164604 shell-pairs
 IPart=  0 NShTot=      164604 NBatch=         377 AvBLen=       436.6
 PrsmSu-ThDecC:  IPartSL=    0    0 NPrtUSL=    1    1 IThBeg=    0 IThEnd=    0 CPU=   -1 GPU=   -1 NThAct=    1.
 PrSmSu:  NxtVal=            513.
 Electronic moments (au):
       -716.00000000        -11.54762639         -2.27193855          0.09177577
     -48449.08425420     -30891.42569337     -12742.85419274         64.99724890
        -17.27002663        -94.46729864      88348.22111234     -12233.88842031
      -5755.72307725     -46733.56670891     -88647.00828438      39220.17229966
      11281.54751041      15752.36149091     -16848.56065914     -42750.66042055
   -6442931.00386533   -3456644.14750159    -622411.26226051     276931.72477149
    -409802.37685408    -809948.20322825      -1948.24003323      97596.22941459
      41961.59821929   -1896771.44443725    -660926.28825077    -372741.21603352
      69981.18316415      24642.76547523      44020.71043581
 Electronic spatial extent (au):  <R**2>=          92083.3641
 DipInt: DoE/N= F T RetVal/Mat= T F Init=T NMatP=  1 IDeriv=0 Min/MaxMlt=  0  4
 Nuclear    moments (au):
        716.00000000         -0.00000000          0.00000000          0.00000000
      47898.09763989      30581.38083091      12378.96113163          0.00000000
         -0.00000000         -0.00000000     -88843.16298535      11271.63768640
       5852.70157666      45038.93791534      88850.51422664     -39361.78434849
     -11705.84937187     -16034.37034104      17572.56321547      43127.34392514
    6241561.28574107    3377499.39072786     581200.96161870    -280016.78700693
     407723.12450250     828565.95892478     -10298.21920212     -98118.66147050
     -47010.75330729    1855466.43727293     627054.43859277     352496.92785035
     -75650.06559182     -27669.31119028     -42109.98407029
 Total      moments (au):
         -0.00000000        -11.54762639         -2.27193855          0.09177577
       -550.98661431       -310.04486246       -363.89306110         64.99724890
        -17.27002663        -94.46729864       -494.94187301       -962.25073391
         96.97849941      -1694.62879357        203.50594226       -141.61204883
       -424.30186146       -282.00885013        724.00255633        376.68350459
    -201369.71812426     -79144.75677373     -41210.30064181      -3085.06223543
      -2079.25235158      18617.75569653     -12246.45923535       -522.43205591
      -5049.15508800     -41305.00716431     -33871.84965799     -20244.28818316
      -5668.88242767      -3026.54571505       1910.72636551
 Traceless Quadrup. (au):
       -142.67843502         98.26331683         44.41511819         64.99724890
        -17.27002663        -94.46729864
 Charge=             -0.0000 electrons
 Dipole moment (field-independent basis, Debye):
    X=            -29.3511    Y=             -5.7747    Z=              0.2333  Tot=             29.9147
 Quadrupole moment (field-independent basis, Debye-Ang):
   XX=           -741.0959   YY=           -417.0210   ZZ=           -489.4486
   XY=             87.4235   XZ=            -23.2288   YZ=           -127.0618
 Traceless Quadrupole moment (field-independent basis, Debye-Ang):
   XX=           -191.9074   YY=            132.1675   ZZ=             59.7399
   XY=             87.4235   XZ=            -23.2288   YZ=           -127.0618
 Octapole moment (field-independent basis, Debye-Ang**2):
  XXX=           -352.2806  YYY=           -684.8930  ZZZ=             69.0256  XYY=          -1206.1715
  XXY=            144.8477  XXZ=           -100.7940  XZZ=           -302.0017  YZZ=           -200.7230
  YYZ=            515.3171  XYZ=            268.1088
 Hexadecapole moment (field-independent basis, Debye-Ang**3):
 XXXX=         -75845.4918 YYYY=         -29809.7105 ZZZZ=         -15521.7753 XXXY=          -1161.9824
 XXXZ=           -783.1461 YYYX=           7012.3395 YYYZ=          -4612.6038 ZZZX=           -196.7730
 ZZZY=          -1901.7539 XXYY=         -15557.4463 XXZZ=         -12757.7628 YYZZ=          -7624.9697
 XXYZ=          -2135.1730 YYXZ=          -1139.9422 ZZXY=            719.6712
 N-N= 2.195184118889D+04 E-N=-5.638188085977D+04  KE= 5.290553323207D+03
 Leave Link  601 at Sat Sep 14 23:27:29 2019, MaxMem=  1342177280 cpu:              53.4 elap:               1.4
 FitSet:  NAtFit=   176 NAtPot=   176 NAtFrz=     0 MDM=   180 TotChg=   0.00000
 Merz-Kollman atomic radii used.
 Read replacement radii for each type of atom:
 Rad(20) =   1.700000000000D+00
 Atom Element Radius
    1     6    1.50
    2     6    1.50
    3     8    1.40
    4     1    1.20
    5     1    1.20
    6     1    1.20
    7     7    1.50
    8     6    1.50
    9     6    1.50
   10     8    1.40
   11     6    1.50
   12     6    1.50
   13     8    1.40
   14     8    1.40
   15     1    1.20
   16     1    1.20
   17     1    1.20
   18     1    1.20
   19     7    1.50
   20     6    1.50
   21     6    1.50
   22     8    1.40
   23     6    1.50
   24     6    1.50
   25     6    1.50
   26     6    1.50
   27     7    1.50
   28     1    1.20
   29     1    1.20
   30     1    1.20
   31     1    1.20
   32     1    1.20
   33     1    1.20
   34     1    1.20
   35     1    1.20
   36     1    1.20
   37     1    1.20
   38     1    1.20
   39     1    1.20
   40     1    1.20
   41     7    1.50
   42     6    1.50
   43     6    1.50
   44     8    1.40
   45     6    1.50
   46     6    1.50
   47     8    1.40
   48     8    1.40
   49     1    1.20
   50     1    1.20
   51     1    1.20
   52     1    1.20
   53     7    1.50
   54     6    1.50
   55     6    1.50
   56     8    1.40
   57     1    1.20
   58     1    1.20
   59     1    1.20
   60     7    1.50
   61     6    1.50
   62     6    1.50
   63     8    1.40
   64     6    1.50
   65     6    1.50
   66     7    1.50
   67     8    1.40
   68     1    1.20
   69     1    1.20
   70     1    1.20
   71     1    1.20
   72     1    1.20
   73     1    1.20
   74     7    1.50
   75     6    1.50
   76     6    1.50
   77     8    1.40
   78     1    1.20
   79     1    1.20
   80     1    1.20
   81     7    1.50
   82     6    1.50
   83     6    1.50
   84     8    1.40
   85     6    1.50
   86     6    1.50
   87     6    1.50
   88     6    1.50
   89     6    1.50
   90     6    1.50
   91     6    1.50
   92     8    1.40
   93     1    1.20
   94     1    1.20
   95     1    1.20
   96     1    1.20
   97     1    1.20
   98     1    1.20
   99     1    1.20
  100     1    1.20
  101     1    1.20
  102     7    1.50
  103     6    1.50
  104     6    1.50
  105     8    1.40
  106     6    1.50
  107     6    1.50
  108     6    1.50
  109     6    1.50
  110     1    1.20
  111     1    1.20
  112     1    1.20
  113     1    1.20
  114     1    1.20
  115     1    1.20
  116     1    1.20
  117     1    1.20
  118     1    1.20
  119     1    1.20
  120     1    1.20
  121     7    1.50
  122     6    1.50
  123     6    1.50
  124     8    1.40
  125     6    1.50
  126     8    1.40
  127     1    1.20
  128     1    1.20
  129     1    1.20
  130     1    1.20
  131     1    1.20
  132     7    1.50
  133     6    1.50
  134     6    1.50
  135     8    1.40
  136     6    1.50
  137     1    1.20
  138     1    1.20
  139     1    1.20
  140     1    1.20
  141     1    1.20
  142     7    1.50
  143     6    1.50
  144     6    1.50
  145     8    1.40
  146     6    1.50
  147     1    1.20
  148     1    1.20
  149     1    1.20
  150     1    1.20
  151     1    1.20
  152     7    1.50
  153     6    1.50
  154     6    1.50
  155     8    1.40
  156     6    1.50
  157     6    1.50
  158     6    1.50
  159     8    1.40
  160     8    1.40
  161     1    1.20
  162     1    1.20
  163     1    1.20
  164     1    1.20
  165     1    1.20
  166     1    1.20
  167     7    1.50
  168     6    1.50
  169     1    1.20
  170     1    1.20
  171     1    1.20
  172     1    1.20
[...]
 **** Fit       0.022440
 **** Fit       0.020660
 **** Fit       0.024822
 **** Fit       0.024801
 **** Fit       0.024587
 **** Fit       0.024181
 **** Fit       0.026430
 **** Fit       0.026676
 **** Fit       0.027487
 **** Fit       0.031593
 **** Fit       0.006526
 **** Fit       0.017945
 **** Fit       0.027509
 **** Fit      -0.004229
 **** Fit       0.006567
 **** Fit       0.016544
 **** Fit       0.025223
 **** Fit       0.031954
 **** Fit      -0.019086
 **** Fit      -0.007988
 **** Fit       0.002111
 **** Fit       0.011351
 **** Fit       0.019606
 **** Fit       0.026535
 **** Fit      -0.010011
 **** Fit       0.000125
 **** Fit       0.009009
 **** Fit       0.016784
 **** Fit       0.023325
 **** Fit      -0.005884
 **** Fit       0.003573
 **** Fit       0.011565
 **** Fit       0.018279
 **** Fit       0.023663
 **** Fit       0.027612
 **** Fit      -0.001982
 **** Fit       0.006403
 **** Fit       0.013312
 **** Fit       0.018916
 **** Fit       0.023223
 **** Fit       0.026247
 **** Fit       0.004295
 **** Fit       0.011301
 **** Fit       0.016862
 **** Fit       0.021065
 **** Fit       0.023975
 **** Fit       0.002955
 **** Fit       0.009834
 **** Fit       0.015282
 **** Fit       0.019370
 **** Fit       0.022183
 **** Fit       0.007351
 **** Fit       0.013071
 **** Fit       0.017497
 **** Fit       0.020607
 **** Fit       0.010159
 **** Fit       0.015245
 **** Fit       0.019142
 **** Fit       0.023265
 **** Fit       0.023800
 **** Fit       0.025410
 **** Fit       0.025190
 **** Fit       0.025500
 **** Fit       0.026065
 **** Fit       0.027504
 **** Fit       0.027237
 **** Fit       0.027757
 **** Fit       0.029073
 **** Fit       0.031697
 **** Fit       0.029806
 **** Fit       0.029656
 **** Fit       0.030944
 **** Fit       0.034384
 **** Fit       0.039272
 **** Fit       0.033998
 **** Fit       0.032331
 **** Fit       0.032501
 **** Fit       0.035880
 **** Fit       0.035773
 **** Fit       0.025898
 **** Fit       0.024034
 **** Fit       0.025678
 **** Fit       0.027388
 **** Fit       0.024241
 **** Fit       0.025365
 **** Fit       0.026318
 **** Fit       0.024745
 **** Fit       0.025079
 **** Fit      -0.044597
 **** Fit       0.001399
 **** Fit       0.001413
 **** Fit       0.001385
 **** Fit       0.001130
 **** Fit       0.000981
 **** Fit       0.000929
 **** Fit       0.000931
 **** Fit       0.001037
 **** Fit       0.001041
 **** Fit       0.000826
 **** Fit       0.000636
 **** Fit       0.000502
 **** Fit       0.000446
 **** Fit       0.000420
 **** Fit       0.000339
 **** Fit       0.000226
 **** Fit       0.000276
 **** Fit       0.000802
 **** Fit       0.000630
 **** Fit       0.000420
 **** Fit       0.000181
 **** Fit      -0.000026
 **** Fit      -0.000141
 **** Fit      -0.000164
 **** Fit      -0.001148
 **** Fit      -0.000767
 **** Fit       0.000506
 **** Fit       0.000451
 **** Fit       0.000333
 **** Fit       0.000115
 **** Fit      -0.000185
 **** Fit      -0.000506
 **** Fit      -0.000773
 **** Fit      -0.000926
 **** Fit      -0.000954
 **** Fit      -0.003517
 **** Fit      -0.003056
 **** Fit       0.000137
 **** Fit       0.000214
 **** Fit       0.000161
 **** Fit      -0.000053
 **** Fit      -0.000418
 **** Fit      -0.000877
 **** Fit      -0.001339
 **** Fit      -0.001712
 **** Fit      -0.001934
 **** Fit      -0.001990
 **** Fit      -0.007075
 **** Fit      -0.005849
 **** Fit      -0.000500
 **** Fit      -0.000137
 **** Fit       0.000074
 **** Fit      -0.002389
 **** Fit      -0.002889
 **** Fit      -0.003202
 **** Fit      -0.009477
 **** Fit      -0.001417
 **** Fit      -0.000662
 **** Fit      -0.004040
 **** Fit      -0.004586
 **** Fit      -0.004901
 **** Fit      -0.009960
 **** Fit      -0.002763
 **** Fit      -0.001454
 **** Fit      -0.000492
 **** Fit      -0.006138
 **** Fit      -0.006690
 **** Fit      -0.004310
 **** Fit      -0.002277
 **** Fit      -0.000735
 **** Fit      -0.009030
 **** Fit      -0.009478
 **** Fit      -0.005434
 **** Fit      -0.002351
 **** Fit      -0.011901
 **** Fit      -0.012469
 **** Fit      -0.015423
 **** Fit      -0.016062
 **** Fit      -0.019772
 **** Fit      -0.020389
 **** Fit      -0.021158
 **** Fit      -0.025177
 **** Fit      -0.025670
 **** Fit      -0.026524
 **** Fit      -0.031986
 **** Fit      -0.031892
 **** Fit      -0.032439
 **** Fit      -0.033743
 **** Fit      -0.036042
 **** Fit      -0.039775
 **** Fit      -0.040666
 **** Fit      -0.042696
 **** Fit      -0.000329
 **** Fit       0.000115
 **** Fit       0.000114
 **** Fit      -0.000163
 **** Fit      -0.000643
 **** Fit      -0.001233
 **** Fit      -0.001840
 **** Fit       0.000223
 **** Fit       0.000216
 **** Fit      -0.000123
 **** Fit      -0.000697
 **** Fit      -0.001405
 **** Fit      -0.002167
 **** Fit      -0.002915
 **** Fit       0.000077
 **** Fit       0.000464
 **** Fit       0.000373
 **** Fit      -0.000096
 **** Fit      -0.000812
 **** Fit      -0.001662
 **** Fit      -0.002563
 **** Fit      -0.003463
 **** Fit      -0.004325
 **** Fit      -0.005119
 **** Fit       0.000112
 **** Fit       0.000802
 **** Fit       0.000775
 **** Fit       0.000194
 **** Fit      -0.000731
 **** Fit      -0.001822
 **** Fit      -0.002959
 **** Fit      -0.004074
 **** Fit      -0.005138
 **** Fit      -0.006138
 **** Fit      -0.007069
 **** Fit       0.000244
 **** Fit       0.001402
 **** Fit       0.001457
 **** Fit       0.000673
 **** Fit      -0.000597
 **** Fit      -0.002067
 **** Fit      -0.003552
 **** Fit      -0.004957
 **** Fit      -0.006248
 **** Fit      -0.007430
 **** Fit      -0.008522
 **** Fit      -0.009547
 **** Fit      -0.010513
 **** Fit       0.001021
 **** Fit      -0.001008
 **** Fit      -0.003164
 **** Fit      -0.005195
 **** Fit      -0.006996
 **** Fit      -0.008552
 **** Fit      -0.009901
 **** Fit      -0.011100
 **** Fit      -0.012208
 **** Fit      -0.013274
 **** Fit      -0.014328
 **** Fit      -0.004005
 **** Fit      -0.007126
 **** Fit      -0.009705
 **** Fit      -0.011751
 **** Fit      -0.013365
 **** Fit      -0.014682
 **** Fit      -0.015833
 **** Fit      -0.016928
 **** Fit      -0.018049
 **** Fit      -0.019367
 **** Fit      -0.020537
 **** Fit      -0.021495
 **** Fit      -0.022443
 **** Fit      -0.023518
 **** Fit      -0.029771
 **** Fit      -0.030535
 **** Fit      -0.000044
 **** Fit      -0.000223
 **** Fit      -0.000214
 **** Fit      -0.000338
 **** Fit      -0.000708
 **** Fit      -0.001166
 **** Fit      -0.000804
 **** Fit      -0.000766
 **** Fit      -0.000781
 **** Fit      -0.000981
 **** Fit      -0.001443
 **** Fit      -0.002125
 **** Fit      -0.002798
 **** Fit      -0.001688
 **** Fit      -0.001684
 **** Fit      -0.001651
 **** Fit      -0.001709
 **** Fit      -0.001969
 **** Fit      -0.002517
 **** Fit      -0.003385
 **** Fit      -0.004483
 **** Fit      -0.005544
 **** Fit      -0.006155
 **** Fit      -0.002900
 **** Fit      -0.002920
 **** Fit      -0.002915
 **** Fit      -0.003001
 **** Fit      -0.003293
 **** Fit      -0.003893
 **** Fit      -0.004890
 **** Fit      -0.006313
 **** Fit      -0.008067
 **** Fit      -0.009839
 **** Fit      -0.004470
 **** Fit      -0.004526
 **** Fit      -0.004569
 **** Fit      -0.004714
 **** Fit      -0.005074
 **** Fit      -0.005762
 **** Fit      -0.006894
 **** Fit      -0.008577
 **** Fit      -0.010860
 **** Fit      -0.006445
 **** Fit      -0.006548
 **** Fit      -0.006663
 **** Fit      -0.006922
 **** Fit      -0.007457
 **** Fit      -0.008412
 **** Fit      -0.009953
 **** Fit      -0.012265
 **** Fit      -0.008899
 **** Fit      -0.009051
 **** Fit      -0.009250
 **** Fit      -0.009642
 **** Fit      -0.010376
 **** Fit      -0.011624
 **** Fit      -0.013605
 **** Fit      -0.016594
 **** Fit      -0.012024
 **** Fit      -0.012249
 **** Fit      -0.012659
 **** Fit      -0.013421
 **** Fit      -0.014725
 **** Fit      -0.016822
 **** Fit      -0.020060
 **** Fit      -0.015877
 **** Fit      -0.016307
 **** Fit      -0.017146
 **** Fit      -0.018624
 **** Fit      -0.021059
 **** Fit      -0.020436
 **** Fit      -0.021037
 **** Fit      -0.022267
 **** Fit      -0.024451
 **** Fit      -0.026704
 **** Fit      -0.028393
 **** Fit      -0.031408
 **** Fit      -0.036060
 **** Fit       0.003256
 **** Fit       0.003926
 **** Fit       0.003469
 **** Fit       0.002826
 **** Fit       0.002569
 **** Fit       0.002804
 **** Fit       0.003502
 **** Fit       0.004629
 **** Fit       0.003474
 **** Fit       0.002733
 **** Fit       0.002282
 **** Fit       0.002012
 **** Fit       0.001863
 **** Fit       0.001847
 **** Fit       0.002057
 **** Fit       0.002620
 **** Fit       0.003468
 **** Fit       0.004250
 **** Fit       0.002395
 **** Fit       0.001946
 **** Fit       0.001681
 **** Fit       0.001483
 **** Fit       0.001262
 **** Fit       0.001985
 **** Fit       0.003001
 **** Fit       0.004041
 **** Fit       0.001600
 **** Fit       0.001293
 **** Fit       0.001151
 **** Fit       0.001033
 **** Fit       0.000367
 **** Fit       0.001621
 **** Fit       0.003031
 **** Fit       0.000415
 **** Fit       0.000429
 **** Fit       0.000492
 **** Fit      -0.001273
 **** Fit       0.000607
 **** Fit      -0.000881
 **** Fit      -0.000485
 **** Fit      -0.000183
 **** Fit      -0.003652
 **** Fit      -0.001746
 **** Fit      -0.001053
 **** Fit      -0.007798
 **** Fit      -0.007514
 **** Fit       0.043676
 **** Fit       0.044422
 **** Fit       0.051990
 **** Fit       0.052345
 **** Fit       0.059364
 **** Fit       0.064472
 **** Fit       0.067522
 **** Fit       0.066997
 **** Fit       0.068723
 **** Fit       0.019737
 **** Fit       0.067101
 **** Fit       0.065919
 **** Fit       0.027105
 **** Fit       0.022310
 **** Fit       0.017997
 **** Fit       0.014072
 **** Fit       0.010394
 **** Fit       0.006909
 **** Fit       0.065126
 **** Fit       0.063529
 **** Fit       0.027565
 **** Fit       0.022389
 **** Fit       0.017653
 **** Fit       0.013297
 **** Fit       0.009254
 **** Fit       0.005550
 **** Fit       0.061514
 **** Fit       0.060487
 **** Fit       0.060379
 **** Fit       0.024633
 **** Fit       0.019379
 **** Fit       0.014553
 **** Fit       0.010112
 **** Fit       0.006057
 **** Fit       0.056817
 **** Fit       0.057192
 **** Fit       0.021642
 **** Fit       0.016498
 **** Fit       0.011765
 **** Fit       0.007414
 **** Fit       0.003450
 **** Fit       0.054187
 **** Fit       0.022903
 **** Fit       0.017463
 **** Fit       0.012449
 **** Fit       0.007804
 **** Fit       0.003427
 **** Fit       0.026671
 **** Fit       0.020784
 **** Fit       0.015326
 **** Fit       0.010243
 **** Fit       0.005370
 **** Fit       0.000345
 **** Fit       0.024584
 **** Fit       0.018838
 **** Fit       0.013460
 **** Fit       0.008300
 **** Fit       0.002987
 **** Fit       0.024889
 **** Fit       0.019083
 **** Fit       0.013605
 **** Fit       0.008253
 **** Fit       0.027621
 **** Fit       0.021504
 **** Fit       0.036414
 **** Fit       0.030559
 **** Fit       0.030495
 **** Fit       0.062096
 **** Fit       0.040924
 **** Fit       0.040639
 **** Fit       0.039027
 **** Fit       0.036413
 **** Fit       0.033065
 **** Fit       0.029038
 **** Fit       0.059700
 **** Fit       0.058788
 **** Fit       0.057531
 **** Fit       0.055070
 **** Fit       0.041684
 **** Fit       0.041278
 **** Fit       0.039897
 **** Fit       0.037603
 **** Fit       0.034554
 **** Fit       0.030828
 **** Fit       0.056490
 **** Fit       0.055542
 **** Fit       0.054028
 **** Fit       0.051651
 **** Fit       0.048701
 **** Fit       0.046016
 **** Fit       0.044272
 **** Fit       0.043367
 **** Fit       0.042657
 **** Fit       0.041541
 **** Fit       0.039727
 **** Fit       0.037183
 **** Fit       0.033968
 **** Fit       0.030104
 **** Fit       0.054429
 **** Fit       0.053694
 **** Fit       0.052718
 **** Fit       0.051278
 **** Fit       0.049412
 **** Fit       0.047457
 **** Fit       0.045777
 **** Fit       0.044427
 **** Fit       0.043130
 **** Fit       0.041536
 **** Fit       0.039424
 **** Fit       0.036724
 **** Fit       0.033446
 **** Fit       0.029600
 **** Fit       0.052219
 **** Fit       0.051555
 **** Fit       0.050692
 **** Fit       0.049487
 **** Fit       0.047992
 **** Fit       0.046400
 **** Fit       0.044822
 **** Fit       0.043156
 **** Fit       0.041184
 **** Fit       0.038733
 **** Fit       0.035739
 **** Fit       0.032212
 **** Fit       0.028212
 **** Fit       0.050097
 **** Fit       0.049507
 **** Fit       0.048723
 **** Fit       0.047630
 **** Fit       0.046251
 **** Fit       0.044652
 **** Fit       0.042811
 **** Fit       0.040609
 **** Fit       0.037940
 **** Fit       0.034788
 **** Fit       0.031236
 **** Fit       0.047800
 **** Fit       0.047238
 **** Fit       0.046338
 **** Fit       0.045026
 **** Fit       0.043298
 **** Fit       0.041128
 **** Fit       0.038472
 **** Fit       0.035372
 **** Fit       0.032059
 **** Fit       0.045259
 **** Fit       0.044413
 **** Fit       0.042808
 **** Fit       0.040452
 **** Fit       0.037479
 **** Fit       0.034380
 **** Fit       0.042218
 **** Fit       0.039893
 **** Fit       0.036932
 **** Fit       0.039670
 **** Fit       0.053806
 **** Fit       0.055334
 **** Fit       0.041460
 **** Fit       0.045971
 **** Fit       0.049014
 **** Fit       0.051605
 **** Fit       0.020930
 **** Fit       0.030893
 **** Fit       0.037587
 **** Fit       0.042196
 **** Fit       0.045683
 **** Fit       0.048731
 **** Fit       0.051757
 **** Fit       0.012213
 **** Fit       0.023467
 **** Fit       0.031469
 **** Fit       0.037136
 **** Fit       0.041343
 **** Fit       0.044737
 **** Fit       0.047676
 **** Fit      -0.000457
 **** Fit       0.017157
 **** Fit       0.025968
 **** Fit       0.032414
 **** Fit       0.037123
 **** Fit       0.040636
 **** Fit       0.043204
 **** Fit       0.044706
 **** Fit       0.018048
 **** Fit       0.010868
 **** Fit       0.003187
 **** Fit      -0.005589
 **** Fit       0.002941
 **** Fit       0.013474
 **** Fit       0.022447
 **** Fit       0.029217
 **** Fit       0.033991
 **** Fit       0.037080
 **** Fit       0.038490
 **** Fit       0.037891
 **** Fit       0.034982
 **** Fit       0.029984
 **** Fit       0.023638
 **** Fit       0.016640
 **** Fit       0.009221
 **** Fit       0.001351
 **** Fit       0.003761
 **** Fit       0.012033
 **** Fit       0.020859
 **** Fit       0.027573
 **** Fit       0.031454
 **** Fit       0.032279
 **** Fit       0.029819
 **** Fit       0.024474
 **** Fit       0.017410
 **** Fit       0.009800
 **** Fit       0.003108
 **** Fit       0.000240
 **** Fit       0.012086
 **** Fit       0.019708
 **** Fit       0.025430
 **** Fit       0.024586
 **** Fit       0.018105
 **** Fit       0.011466
 **** Fit       0.018834
 -----------------------------------------------------------------
 Leave Link  602 at Sat Sep 14 23:27:31 2019, MaxMem=  1342177280 cpu:             113.7 elap:               2.4

 Test job not archived.
 1\1\GINC-C506-091\SP\RB3LYP\SVP\C54H83Ca1N15O23\PENGZHI\14-Sep-2019\0\
 \#b3lyp/svp scf=(tight,noincore) Test #IOP(5/87=12) Density=Current Po
 p=(MK,readradii) iop(6/33=2) iop(6/42=6)\\holoCaM_loop3_95.0\\0,1\C,0,
 67.1,50.02,91.69\C,0,67.06,50.9,92.94\O,0,67.21,50.31,94.\H,0,68.027,5
 0.203,91.147\H,0,67.051,48.971,91.982\H,0,66.251,50.259,91.049\N,0,66.
 73,52.18,92.77\C,0,66.33,53.08,93.83\C,0,64.9,52.83,94.26\O,0,63.94,53
 .16,93.55\C,0,66.64,54.5,93.35\C,0,66.02,55.57,94.24\O,0,65.94,56.73,9
 3.8\O,0,65.7,55.38,95.43\H,0,66.56,52.45,91.81\H,0,66.94,52.9,94.71\H,
 0,66.14,54.61,92.39\H,0,67.71,54.66,93.18\N,0,64.61,52.33,95.46\C,0,63
 .38,51.63,95.78\C,0,62.25,52.59,96.12\O,0,61.16,52.46,95.56\C,0,63.47,
 50.55,96.85\C,0,64.43,49.44,96.43\C,0,64.05,48.59,95.22\C,0,65.15,47.5
 9,94.86\N,0,64.91,47.02,93.53\H,0,65.4,52.24,96.08\H,0,63.02,51.07,94.
 91\H,0,62.5,50.17,97.18\H,0,63.95,51.02,97.7\H,0,64.37,48.72,97.24\H,0
 ,65.46,49.78,96.37\H,0,63.87,49.23,94.37\H,0,63.11,48.09,95.44\H,0,65.
 03,46.73,95.52\H,0,66.19,47.94,94.92\H,0,63.99,46.63,93.41\H,0,64.95,4
 7.65,92.74\H,0,65.53,46.23,93.39\N,0,62.55,53.62,96.92\C,0,61.68,54.74
 ,97.2\C,0,61.62,55.76,96.07\O,0,60.62,56.44,95.85\C,0,61.93,55.32,98.5
 9\C,0,63.24,56.07,98.8\O,0,64.05,56.19,97.86\O,0,63.42,56.62,99.91\H,0
 ,63.54,53.63,97.14\H,0,60.73,54.21,97.23\H,0,62.07,54.48,99.27\H,0,61.
 05,55.91,98.86\N,0,62.73,55.77,95.34\C,0,62.84,56.68,94.21\C,0,63.47,5
 8.06,94.26\O,0,63.58,58.72,93.23\H,0,63.58,55.29,95.6\H,0,61.85,56.89,
 93.79\H,0,63.22,56.05,93.4\N,0,63.81,58.39,95.51\C,0,64.35,59.66,95.94
 \C,0,65.54,60.22,95.17\O,0,65.9,61.35,95.5\C,0,64.63,59.6,97.44\C,0,65
 .86,58.82,97.87\N,0,66.22,58.88,99.15\O,0,66.47,58.07,97.11\H,0,63.75,
 57.69,96.24\H,0,63.61,60.42,95.67\H,0,63.81,59.23,98.05\H,0,64.76,60.6
 ,97.87\H,0,65.61,59.31,99.83\H,0,66.9,58.27,99.58\N,0,66.18,59.44,94.3
 \C,0,67.35,59.86,93.56\C,0,68.64,59.13,93.89\O,0,69.67,59.46,93.3\H,0,
 65.87,58.49,94.13\H,0,67.55,60.93,93.69\H,0,67.08,59.73,92.51\N,0,68.5
 9,58.22,94.86\C,0,69.79,57.58,95.37\C,0,69.62,56.09,95.66\O,0,68.7,55.
 63,96.32\C,0,70.31,58.33,96.59\C,0,70.71,59.78,96.44\C,0,69.69,60.74,9
 6.43\C,0,72.06,60.12,96.55\C,0,70.03,62.09,96.34\C,0,72.38,61.48,96.6\
 C,0,71.38,62.46,96.41\O,0,71.76,63.77,96.38\H,0,67.7,57.89,95.21\H,0,7
 0.61,57.69,94.67\H,0,71.24,57.82,96.87\H,0,69.6,58.33,97.42\H,0,68.65,
 60.44,96.52\H,0,72.79,59.33,96.54\H,0,69.29,62.88,96.42\H,0,73.35,61.8
 6,96.89\H,0,72.7,63.92,96.35\N,0,70.62,55.29,95.29\C,0,70.86,53.98,95.
 87\C,0,71.69,54.15,97.14\O,0,72.87,54.49,97.07\C,0,71.53,53.13,94.79\C
 ,0,70.5,52.84,93.7\C,0,72.1,51.84,95.37\C,0,70.86,51.96,92.51\H,0,71.4
 6,55.67,94.88\H,0,69.94,53.49,96.19\H,0,72.33,53.74,94.39\H,0,70.27,53
 .81,93.24\H,0,69.65,52.4,94.21\H,0,72.47,51.18,94.59\H,0,72.89,52.05,9
 6.09\H,0,71.31,51.27,95.88\H,0,70.15,51.99,91.68\H,0,71.85,52.19,92.11
 \H,0,70.85,50.9,92.77\N,0,71.12,53.83,98.3\C,0,71.88,53.58,99.5\C,0,72
 .52,52.19,99.49\O,0,72.28,51.38,98.6\C,0,71.04,53.74,100.77\O,0,69.94,
 52.87,100.63\H,0,70.12,53.7,98.4\H,0,72.66,54.34,99.62\H,0,70.51,54.67
 ,100.97\H,0,71.61,53.41,101.64\H,0,69.25,53.32,100.14\N,0,73.44,51.98,
 100.43\C,0,74.07,50.69,100.64\C,0,73.03,49.63,100.96\O,0,73.12,48.49,1
 00.51\C,0,75.16,50.76,101.71\H,0,73.46,52.59,101.23\H,0,74.57,50.41,99
 .71\H,0,75.69,49.82,101.85\H,0,75.88,51.47,101.29\H,0,74.83,51.15,102.
 67\N,0,72.,50.02,101.72\C,0,70.86,49.16,101.99\C,0,70.23,48.58,100.73\
 O,0,70.07,47.37,100.58\C,0,69.89,49.94,102.87\H,0,72.11,50.9,102.2\H,0
 ,71.29,48.4,102.65\H,0,68.87,49.56,102.89\H,0,70.22,50.28,103.85\H,0,6
 9.69,50.87,102.34\N,0,69.91,49.51,99.83\C,0,69.27,49.24,98.56\C,0,70.1
 9,48.4,97.68\O,0,69.86,47.54,96.86\C,0,68.87,50.46,97.74\C,0,67.72,51.
 24,98.37\C,0,67.53,52.71,98.02\O,0,68.28,53.59,98.5\O,0,66.56,53.03,97
 .3\H,0,70.02,50.5,100.\H,0,68.36,48.67,98.73\H,0,68.69,50.23,96.69\H,0
 ,69.67,51.19,97.86\H,0,67.91,51.22,99.44\H,0,66.82,50.67,98.13\N,0,71.
 49,48.69,97.67\C,0,72.42,48.05,96.77\H,0,73.364,47.876,97.287\H,0,72.0
 08,47.097,96.438\H,0,72.592,48.693,95.907\H,0,71.81,49.45,98.26\Ca,0,6
 6.43,55.45,97.85\O,0,65.63,54.54,100.374\H,0,66.21,54.07,100.974\H,0,6
 5.23,55.21,100.914\\Version=ES64L-G16RevA.03\State=1-A\HF=-5333.585921
 9\RMSD=2.886e-09\Dipole=3.6043682,-10.8317209,2.8635913\Quadrupole=-59
 .1636379,7.0153809,52.148257,109.6171152,18.1592535,118.1505781\PG=C01
  [X(C54H83Ca1N15O23)]\\@


 You can't act like a skunk without someone's getting wind of it.
 -- Lorene Workman
 Job cpu time:       0 days  9 hours 44 minutes  3.1 seconds.
 Elapsed time:       0 days  0 hours 12 minutes 18.1 seconds.
 File lengths (MBytes):  RWF=   1517 Int=      0 D2E=      0 Chk=    171 Scr=      1
 Normal termination of Gaussian 16 at Sat Sep 14 23:27:33 2019.
