 Entering Gaussian System, Link 0=g16
 Initial command:
 /home1/apps/gaussian/16rA.03/g16/l1.exe "/scratch/01990/pengzhi/4328691/Gau-140540.inp" -scrdir="/scratch/01990/pengzhi/4328691/"
 Entering Link 1 = /home1/apps/gaussian/16rA.03/g16/l1.exe PID=    140541.
  
 Copyright (c) 1988,1990,1992,1993,1995,1998,2003,2009,2016,
            Gaussian, Inc.  All Rights Reserved.
  
 This is part of the Gaussian(R) 16 program.  It is based on
 the Gaussian(R) 09 system (copyright 2009, Gaussian, Inc.),
 the Gaussian(R) 03 system (copyright 2003, Gaussian, Inc.),
 the Gaussian(R) 98 system (copyright 1998, Gaussian, Inc.),
 the Gaussian(R) 94 system (copyright 1995, Gaussian, Inc.),
 the Gaussian 92(TM) system (copyright 1992, Gaussian, Inc.),
 the Gaussian 90(TM) system (copyright 1990, Gaussian, Inc.),
 the Gaussian 88(TM) system (copyright 1988, Gaussian, Inc.),
 the Gaussian 86(TM) system (copyright 1986, Carnegie Mellon
 University), and the Gaussian 82(TM) system (copyright 1983,
 Carnegie Mellon University). Gaussian is a federally registered
 trademark of Gaussian, Inc.
  
 This software contains proprietary and confidential information,
 including trade secrets, belonging to Gaussian, Inc.
  
 This software is provided under written license and may be
 used, copied, transmitted, or stored only in accord with that
 written license.
  
 The following legend is applicable only to US Government
 contracts under FAR:
  
                    RESTRICTED RIGHTS LEGEND
  
 Use, reproduction and disclosure by the US Government is
 subject to restrictions as set forth in subparagraphs (a)
 and (c) of the Commercial Computer Software - Restricted
 Rights clause in FAR 52.227-19.
  
 Gaussian, Inc.
 340 Quinnipiac St., Bldg. 40, Wallingford CT 06492
  
  
 ---------------------------------------------------------------
 Warning -- This program may not be used in any manner that
 competes with the business of Gaussian, Inc. or will provide
 assistance to any competitor of Gaussian, Inc.  The licensee
 of this program is prohibited from giving any competitor of
 Gaussian, Inc. access to this program.  By using this program,
 the user acknowledges that Gaussian, Inc. is engaged in the
 business of creating and licensing software in the field of
 computational chemistry and represents and warrants to the
 licensee that it is not a competitor of Gaussian, Inc. and that
 it will not use this program in any manner prohibited above.
 ---------------------------------------------------------------
  

 Cite this work as:
 Gaussian 16, Revision A.03,
 M. J. Frisch, G. W. Trucks, H. B. Schlegel, G. E. Scuseria, 
 M. A. Robb, J. R. Cheeseman, G. Scalmani, V. Barone, 
 G. A. Petersson, H. Nakatsuji, X. Li, M. Caricato, A. V. Marenich, 
 J. Bloino, B. G. Janesko, R. Gomperts, B. Mennucci, H. P. Hratchian, 
 J. V. Ortiz, A. F. Izmaylov, J. L. Sonnenberg, D. Williams-Young, 
 F. Ding, F. Lipparini, F. Egidi, J. Goings, B. Peng, A. Petrone, 
 T. Henderson, D. Ranasinghe, V. G. Zakrzewski, J. Gao, N. Rega, 
 G. Zheng, W. Liang, M. Hada, M. Ehara, K. Toyota, R. Fukuda, 
 J. Hasegawa, M. Ishida, T. Nakajima, Y. Honda, O. Kitao, H. Nakai, 
 T. Vreven, K. Throssell, J. A. Montgomery, Jr., J. E. Peralta, 
 F. Ogliaro, M. J. Bearpark, J. J. Heyd, E. N. Brothers, K. N. Kudin, 
 V. N. Staroverov, T. A. Keith, R. Kobayashi, J. Normand, 
 K. Raghavachari, A. P. Rendell, J. C. Burant, S. S. Iyengar, 
 J. Tomasi, M. Cossi, J. M. Millam, M. Klene, C. Adamo, R. Cammi, 
 J. W. Ochterski, R. L. Martin, K. Morokuma, O. Farkas, 
 J. B. Foresman, and D. J. Fox, Gaussian, Inc., Wallingford CT, 2016.
 
 ******************************************
 Gaussian 16:  ES64L-G16RevA.03 25-Dec-2016
                14-Sep-2019 
 ******************************************
 %chk=holoCaM_loop3_76.0.chk
 %nprocshared=48
 Will use up to   48 processors via shared memory.
 %mem=10GB
 %nosave
 ----------------------------------------------------------------------
 #b3lyp/svp scf=(tight,noincore) Test #IOP(5/87=12) Density=Current Pop
 =(MK,readradii) iop(6/33=2) iop(6/42=6)
 ----------------------------------------------------------------------
 1/30=1,38=1,172=1/1;
 2/12=2,17=6,18=5,40=1/2;
 3/5=18,7=101,11=2,25=1,30=1,74=-5/1,2,3;
 4//1;
 5/5=4,32=2,38=5,87=12/2;
 6/7=2,8=2,9=2,10=2,15=8,20=101,22=-1,28=1,33=2,42=6/1,2;
 99/5=1,9=1/99;
 ------------------
 holoCaM_loop3_76.0
 ------------------
 Symbolic Z-matrix:
 Charge =  0 Multiplicity = 1
 C                     54.79     47.05     34.33 
 C                     54.71     45.67     34.97 
 O                     53.8      45.49     35.77 
 H                     55.827    47.276    34.084 
 H                     54.19     47.065    33.42 
 H                     54.412    47.797    35.028 
 N                     55.7      44.81     34.69 
 C                     55.91     43.55     35.36 
 C                     56.58     43.68     36.72 
 O                     57.43     44.55     36.92 
 C                     56.59     42.46     34.55 
 C                     56.36     41.05     35.07 
 O                     55.46     40.31     34.61 
 O                     57.12     40.56     35.94 
 H                     56.45     45.13     34.1 
 H                     54.89     43.24     35.58 
 H                     57.65     42.71     34.57 
 H                     56.32     42.62     33.5 
 N                     56.35     42.73     37.63 
 C                     56.66     42.79     39.05 
 C                     57.29     41.53     39.63 
 O                     57.58     41.54     40.82 
 C                     55.41     43.2      39.82 
 C                     54.89     44.61     39.54 
 C                     55.85     45.79     39.74 
 C                     55.13     47.1      39.42 
 N                     56.07     48.2      39.69 
 H                     55.71     42.       37.36 
 H                     57.4      43.56     39.24 
 H                     55.8      43.22     40.84 
 H                     54.63     42.46     39.66 
 H                     54.05     44.7      40.23 
 H                     54.53     44.6      38.52 
 H                     56.62     45.79     38.96 
 H                     56.21     45.81     40.77 
 H                     54.27     47.16     40.09 
 H                     54.76     47.05     38.4 
 H                     55.69     49.12     39.87 
 H                     56.42     48.       40.62 
 H                     56.85     48.28     39.05 
 N                     57.48     40.48     38.82 
 C                     58.11     39.31     39.39 
 C                     58.97     38.53     38.41 
 O                     59.7      37.62     38.81 
 C                     56.99     38.4      39.9 
 C                     55.9      37.88     38.97 
 O                     55.9      38.21     37.76 
 O                     55.04     37.16     39.51 
 H                     56.95     40.39     37.97 
 H                     58.8      39.55     40.2 
 H                     56.61     38.92     40.78 
 H                     57.49     37.53     40.33 
 N                     58.85     38.82     37.11 
 C                     59.58     38.23     36.01 
 C                     59.09     36.93     35.38 
 O                     59.9      36.4      34.62 
 H                     58.21     39.55     36.82 
 H                     60.6      38.05     36.32 
 H                     59.55     38.99     35.23 
 N                     57.93     36.41     35.78 
 C                     57.36     35.12     35.42 
 C                     57.05     34.76     33.98 
 O                     56.72     33.62     33.67 
 C                     56.2      34.79     36.36 
 C                     54.88     35.4      35.91 
 N                     53.79     34.84     36.44 
 O                     54.74     36.33     35.12 
 H                     57.5      36.89     36.55 
 H                     58.19     34.47     35.71 
 H                     56.35     35.16     37.37 
 H                     56.06     33.71     36.41 
 H                     53.87     34.04     37.04 
 H                     52.86     35.03     36.09 
 N                     57.31     35.66     33.02 
 C                     56.88     35.58     31.64 
 C                     55.54     36.23     31.32 
 O                     55.4      36.51     30.13 
 H                     57.79     36.5      33.31 
 H                     56.72     34.53     31.4 
 H                     57.75     35.9      31.05 
 N                     54.61     36.43     32.26 
 C                     53.23     36.78     32.01 
 C                     52.8      38.11     32.61 
 O                     53.64     38.57     33.4 
 C                     52.39     35.56     32.37 
 C                     52.89     34.21     31.92 
 C                     53.52     33.36     32.84 
 C                     52.58     33.8      30.62 
 C                     53.92     32.08     32.42 
 C                     52.96     32.52     30.2 
 C                     53.6      31.65     31.12 
 O                     53.97     30.38     30.82 
 H                     54.84     36.13     33.2 
 H                     53.12     36.84     30.93 
 H                     51.43     35.74     31.89 
 H                     52.36     35.51     33.46 
 H                     53.79     33.64     33.85 
 H                     52.14     34.58     30.01 
 H                     54.51     31.49     33.1 
 H                     52.71     32.14     29.22 
 H                     53.51     30.       30.07 
 N                     51.63     38.67     32.32 
 C                     51.13     39.83     33.02 
 C                     49.91     39.39     33.81 
 O                     49.08     38.6      33.35 
 C                     51.06     40.97     32.01 
 C                     52.41     41.63     31.71 
 C                     50.09     42.06     32.44 
 C                     53.02     42.43     32.85 
 H                     50.99     38.21     31.68 
 H                     51.84     40.19     33.77 
 H                     50.71     40.5      31.09 
 H                     52.22     42.24     30.83 
 H                     53.21     40.94     31.47 
 H                     50.11     42.94     31.81 
 H                     49.08     41.65     32.52 
 H                     50.37     42.47     33.41 
 H                     53.99     42.87     32.61 
 H                     52.36     43.24     33.16 
 H                     53.14     41.74     33.69 
 N                     49.8      39.91     35.04 
 C                     48.77     39.59     36.01 
 C                     47.8      40.75     36.16 
 O                     48.12     41.89     35.8 
 C                     49.33     39.2      37.37 
 O                     50.02     37.98     37.44 
 H                     50.62     40.29     35.48 
 H                     48.21     38.71     35.67 
 H                     48.44     39.1      37.99 
 H                     50.       40.01     37.67 
 H                     49.54     37.31     37.95 
 N                     46.66     40.67     36.85 
 C                     45.64     41.68     37.06 
 C                     46.29     42.88     37.74 
 O                     46.09     44.       37.28 
 C                     44.46     41.13     37.87 
 H                     46.4      39.76     37.18 
 H                     45.21     41.94     36.09 
 H                     43.69     41.87     38.1 
 H                     44.01     40.3      37.34 
 H                     44.93     40.82     38.8 
 N                     47.1      42.67     38.78 
 C                     47.75     43.81     39.39 
 C                     48.77     44.64     38.62 
 O                     48.93     45.83     38.88 
 C                     48.25     43.4      40.77 
 H                     47.16     41.75     39.18 
 H                     46.91     44.44     39.67 
 H                     49.21     42.89     40.73 
 H                     48.38     44.25     41.45 
 H                     47.5      42.75     41.23 
 N                     49.39     44.01     37.62 
 C                     50.37     44.5      36.67 
 C                     49.62     45.15     35.52 
 O                     50.02     46.21     35.03 
 C                     51.24     43.32     36.25 
 C                     51.96     42.63     37.4 
 C                     52.83     41.47     36.94 
 O                     53.96     41.27     37.44 
 O                     52.34     40.52     36.28 
 H                     49.1      43.06     37.46 
 H                     51.08     45.19     37.13 
 H                     51.92     43.79     35.53 
 H                     50.55     42.57     35.86 
 H                     51.2      42.25     38.09 
 H                     52.55     43.37     37.94 
 N                     48.51     44.55     35.08 
 C                     47.62     45.27     34.2 
 H                     46.731    45.574    34.753 
 H                     48.127    46.154    33.814 
 H                     47.329    44.626    33.37 
 H                     48.24     43.66     35.48 
 Ca                    54.06     38.75     35.95 
 O                     51.93     37.29     35.6 
 H                     51.08     37.21     35.16 
 H                     51.73     37.28     36.53 
 
 Stoichiometry    C54H83CaN15O23
 Framework group  C1[X(C54H83CaN15O23)]
 Deg. of freedom   522
 Full point group                 C1      NOp   1
 Largest Abelian subgroup         C1      NOp   1
 Largest concise Abelian subgroup C1      NOp   1
                         Standard orientation:                         
 ---------------------------------------------------------------------
 Center     Atomic      Atomic             Coordinates (Angstroms)
 Number     Number       Type             X           Y           Z
 ---------------------------------------------------------------------
      1          6           0        4.517817    2.947649    4.863765
      2          6           0        3.644816    2.680413    3.644399
      3          8           0        4.197100    2.169726    2.677609
      4          1           0        4.126719    3.806280    5.408517
      5          1           0        4.513012    2.072844    5.514163
      6          1           0        5.537986    3.156699    4.541816
      7          7           0        2.380399    3.124463    3.690957
      8          6           0        1.477118    3.156249    2.566824
      9          6           0        1.716278    4.321194    1.617559
     10          8           0        2.086835    5.415222    2.047898
     11          6           0       -0.003281    3.045089    2.887233
     12          6           0       -0.869235    2.591502    1.722853
     13          8           0       -1.196562    1.392716    1.564832
     14          8           0       -1.340662    3.428577    0.915598
     15          1           0        2.088049    3.630480    4.510395
     16          1           0        1.783081    2.273656    2.007972
     17          1           0       -0.297360    4.039073    3.221918
     18          1           0       -0.093545    2.442791    3.798326
     19          7           0        1.354557    4.178458    0.339950
     20          6           0        1.727933    5.037842   -0.772771
     21          6           0        0.594915    5.390882   -1.728037
     22          8           0        0.860637    6.123420   -2.673066
     23          6           0        2.912469    4.421411   -1.507882
     24          6           0        4.215024    4.333459   -0.712573
     25          6           0        4.785694    5.624159   -0.110553
     26          6           0        6.088671    5.316432    0.627318
     27          7           0        6.626976    6.591887    1.127259
     28          1           0        0.974830    3.281435    0.081963
     29          1           0        2.066066    6.000907   -0.405659
     30          1           0        3.082251    5.173556   -2.281415
     31          1           0        2.627769    3.446400   -1.895049
     32          1           0        4.917313    3.927512   -1.441818
     33          1           0        4.039112    3.610188    0.072305
     34          1           0        4.160083    5.963913    0.722801
     35          1           0        4.973072    6.354804   -0.899189
     36          1           0        6.769398    4.875381   -0.103562
     37          1           0        5.884944    4.571356    1.390965
     38          1           0        7.616797    6.646799    1.328357
     39          1           0        6.606717    7.200408    0.316894
     40          1           0        6.108292    7.023466    1.881651
     41          7           0       -0.619785    4.875665   -1.496180
     42          6           0       -1.682836    5.254551   -2.400098
     43          6           0       -3.052934    5.330797   -1.747857
     44          8           0       -4.008339    5.812340   -2.361303
     45          6           0       -1.721508    4.204978   -3.513427
     46          6           0       -1.935510    2.726995   -3.208192
     47          8           0       -2.068975    2.346302   -2.020648
     48          8           0       -1.933184    1.974146   -4.199561
     49          1           0       -0.723456    4.049913   -0.931481
     50          1           0       -1.546432    6.250201   -2.824215
     51          1           0       -0.824748    4.410665   -4.098845
     52          1           0       -2.524942    4.516069   -4.183887
     53          7           0       -3.191797    4.798138   -0.529049
     54          6           0       -4.385207    4.778152    0.287268
     55          6           0       -5.420139    3.673652    0.097545
     56          8           0       -6.489735    3.879511    0.670421
     57          1           0       -2.389229    4.378028   -0.075186
     58          1           0       -4.914029    5.712734    0.161554
     59          1           0       -4.011301    4.689000    1.306653
     60          7           0       -5.158749    2.674995   -0.745283
     61          6           0       -6.057730    1.615089   -1.177757
     62          6           0       -6.682057    0.647939   -0.190773
     63          8           0       -7.556450   -0.137461   -0.541748
     64          6           0       -5.462121    0.898371   -2.390055
     65          6           0       -4.486936   -0.205612   -2.006342
     66          7           0       -4.248212   -1.105258   -2.963551
     67          8           0       -3.925580   -0.336031   -0.921690
     68          1           0       -4.307339    2.780232   -1.267034
     69          1           0       -6.885546    2.223603   -1.551830
     70          1           0       -4.896458    1.558320   -3.041201
     71          1           0       -6.258386    0.440611   -2.977351
     72          1           0       -4.738312   -1.059748   -3.837697
     73          1           0       -3.767362   -1.976071   -2.779251
     74          7           0       -6.391947    0.779356    1.112210
     75          6           0       -6.711221   -0.172670    2.155000
     76          6           0       -5.650735   -1.227720    2.442643
     77          8           0       -5.751663   -1.736160    3.558618
     78          1           0       -5.839870    1.584750    1.370383
     79          1           0       -7.569936   -0.755013    1.824567
     80          1           0       -7.060662    0.435554    3.000786
     81          7           0       -4.732950   -1.572474    1.533074
     82          6           0       -3.874469   -2.732888    1.609548
     83          6           0       -2.387372   -2.414165    1.637094
     84          8           0       -2.149825   -1.225777    1.367643
     85          6           0       -4.348663   -3.707745    0.537916
     86          6           0       -5.835491   -3.912707    0.388474
     87          6           0       -6.521613   -3.285688   -0.661232
     88          6           0       -6.453999   -4.839736    1.232432
     89          6           0       -7.893888   -3.540412   -0.824867
     90          6           0       -7.816759   -5.111494    1.064406
     91          6           0       -8.523926   -4.482602    0.007377
     92          8           0       -9.833897   -4.710929   -0.260284
     93          1           0       -4.774227   -1.095328    0.640254
     94          1           0       -4.132262   -3.244287    2.533731
     95          1           0       -3.904894   -4.660111    0.821584
     96          1           0       -4.012795   -3.308213   -0.420764
     97          1           0       -6.086333   -2.553430   -1.328862
     98          1           0       -5.812234   -5.202562    2.026532
     99          1           0       -8.429025   -2.958343   -1.555226
    100          1           0       -8.333017   -5.847782    1.663287
    101          1           0      -10.173793   -5.532877    0.096609
    102          7           0       -1.471086   -3.342164    1.893682
    103          6           0       -0.055884   -3.099014    1.739790
    104          6           0        0.428833   -3.964162    0.589717
    105          8           0        0.027485   -5.119937    0.423271
    106          6           0        0.570052   -3.189199    3.127115
    107          6           0        0.365515   -1.941683    3.993123
    108          6           0        2.062113   -3.479024    3.066658
    109          6           0        1.105705   -0.694414    3.536901
    110          1           0       -1.753927   -4.299425    2.079299
    111          1           0        0.148782   -2.070779    1.428272
    112          1           0        0.048024   -4.016244    3.610109
    113          1           0        0.660152   -2.257463    4.991157
    114          1           0       -0.656772   -1.586777    4.044801
    115          1           0        2.559812   -3.424941    4.026383
    116          1           0        2.235349   -4.443052    2.581642
    117          1           0        2.585204   -2.711271    2.497157
    118          1           0        0.922747    0.180675    4.163675
    119          1           0        2.182374   -0.861848    3.513456
    120          1           0        0.765928   -0.481040    2.519491
    121          7           0        1.313475   -3.386681   -0.234495
    122          6           0        1.865349   -3.977196   -1.439039
    123          6           0        3.321344   -4.357229   -1.227721
    124          8           0        3.977789   -3.851846   -0.308337
    125          6           0        1.733384   -3.078686   -2.659926
    126          8           0        0.434871   -2.867918   -3.148640
    127          1           0        1.379051   -2.383731   -0.248332
    128          1           0        1.302141   -4.884277   -1.691231
    129          1           0        2.281469   -3.618702   -3.430955
    130          1           0        2.173958   -2.117378   -2.382829
    131          1           0        0.287151   -3.292658   -4.007229
    132          7           0        4.027925   -5.075168   -2.103740
    133          6           0        5.405499   -5.523305   -2.025884
    134          6           0        6.299494   -4.295488   -1.891204
    135          8           0        7.153812   -4.280168   -1.010348
    136          6           0        5.788256   -6.382821   -3.236557
    137          1           0        3.520261   -5.465198   -2.874943
    138          1           0        5.499384   -6.196240   -1.170464
    139          1           0        6.833664   -6.699617   -3.249337
    140          1           0        5.150275   -7.256594   -3.278988
    141          1           0        5.621327   -5.708636   -4.072924
    142          7           0        6.088802   -3.253921   -2.699008
    143          6           0        6.910668   -2.074402   -2.533266
    144          6           0        6.845347   -1.241936   -1.258537
    145          8           0        7.824718   -0.604980   -0.878512
    146          6           0        6.797610   -1.225535   -3.793878
    147          1           0        5.444017   -3.346355   -3.464324
    148          1           0        7.916421   -2.467100   -2.656347
    149          1           0        5.912262   -0.593512   -3.791737
    150          1           0        7.653983   -0.556886   -3.939939
    151          1           0        6.778014   -1.893858   -4.659650
    152          7           0        5.704937   -1.328378   -0.570574
    153          6           0        5.321937   -0.715870    0.686862
    154          6           0        5.825831   -1.604739    1.810919
    155          8           0        6.335856   -1.110473    2.820511
    156          6           0        3.807486   -0.537064    0.674015
    157          6           0        3.285291    0.312965   -0.475666
    158          6           0        1.773831    0.482207   -0.444929
    159          8           0        1.239543    1.580826   -0.717822
    160          8           0        1.013947   -0.518179   -0.442536
    161          1           0        5.016098   -1.955807   -0.950092
    162          1           0        5.698943    0.304477    0.779369
    163          1           0        3.627381   -0.093516    1.660183
    164          1           0        3.395372   -1.531943    0.497729
    165          1           0        3.566777   -0.180979   -1.411019
    166          1           0        3.786698    1.280133   -0.453843
    167          7           0        5.719072   -2.927773    1.656382
    168          6           0        6.436325   -3.803218    2.553068
    169          1           0        7.290658   -4.235323    2.031584
    170          1           0        6.786686   -3.234142    3.413823
    171          1           0        5.774446   -4.601345    2.889561
    172          1           0        5.255721   -3.291311    0.832886
    173         20           0       -1.355454    0.225064   -0.626181
    174          8           0       -1.647352   -2.215955   -1.490602
    175          1           0       -1.454352   -3.144796   -1.340582
    176          1           0       -1.251213   -2.012764   -2.331309
 ---------------------------------------------------------------------
 Rotational constants (GHZ):           0.0232224           0.0152828           0.0115774
 Standard basis: SVP (5D, 7F)
 There are  1809 symmetry adapted cartesian basis functions of A   symmetry.
 There are  1717 symmetry adapted basis functions of A   symmetry.
  1717 basis functions,  2922 primitive gaussians,  1809 cartesian basis functions
   358 alpha electrons      358 beta electrons
       nuclear repulsion energy     21706.4479149809 Hartrees.
 NAtoms=  176 NActive=  176 NUniq=  176 SFac= 1.00D+00 NAtFMM=   60 NAOKFM=T Big=T
 Integral buffers will be    131072 words long.
 Raffenetti 2 integral format.
 Two-electron integral symmetry is turned on.
 One-electron integrals computed using PRISM.
 NBasis=  1717 RedAO= T EigKep=  2.81D-04  NBF=  1717
 NBsUse=  1717 1.00D-06 EigRej= -1.00D+00 NBFU=  1717
 ExpMin= 1.98D-02 ExpMax= 3.51D+04 ExpMxC= 5.28D+03 IAcc=3 IRadAn=         5 AccDes= 0.00D+00
 Harris functional with IExCor=  402 and IRadAn=       5 diagonalized for initial guess.
 HarFok:  IExCor=  402 AccDes= 0.00D+00 IRadAn=         5 IDoV= 1 UseB2=F ITyADJ=14
 ICtDFT=  3500011 ScaDFX=  1.000000  1.000000  1.000000  1.000000
 FoFCou: FMM=F IPFlag=           0 FMFlag=      100000 FMFlg1=        2001
         NFxFlg=           0 DoJE=T BraDBF=F KetDBF=T FulRan=T
         wScrn=  0.000000 ICntrl=       500 IOpCl=  0 I1Cent=   200000004 NGrid=           0
         NMat0=    1 NMatS0=      1 NMatT0=    0 NMatD0=    1 NMtDS0=    0 NMtDT0=    0
 Petite list used in FoFCou.
 Requested convergence on RMS density matrix=1.00D-08 within 128 cycles.
 Requested convergence on MAX density matrix=1.00D-06.
 Requested convergence on             energy=1.00D-06.
 No special actions if energy rises.
 EnCoef did     2 forward-backward iterations
 SCF Done:  E(RB3LYP) =  -5333.58690049     A.U. after   15 cycles
            NFock= 15  Conv=0.56D-08     -V/T= 2.0082
 SCF density gives NOpUse=  1 NOpAll=  1.
 Hyperfine terms turned off by default for NAtoms > 100.

 **********************************************************************

            Population analysis using the SCF density.

 **********************************************************************

 Orbital symmetries:
 BldTbl:  Degeneracy threshold= 1.00D-02
       Occupied  (A) (A) (A) (A) (A) (A) (A) (A) (A) (A) (A) (A)
                 (A) (A) (A) (A) (A) (A) (A) (A) (A) (A) (A) (A)
                 (A) (A) (A) (A) (A) (A) (A) (A) (A) (A) (A) (A)
                 (A) (A) (A) (A) (A) (A) (A) (A) (A) (A) (A) (A)
                 (A) (A) (A) (A) (A) (A) (A) (A) (A) (A) (A) (A)
                 (A) (A) (A) (A) (A) (A) (A) (A) (A) (A) (A) (A)
                 (A) (A) (A) (A) (A) (A) (A) (A) (A) (A) (A) (A)
                 (A) (A) (A) (A) (A) (A) (A) (A) (A) (A) (A) (A)
                 (A) (A) (A) (A) (A) (A) (A) (A) (A) (A) (A) (A)
                 (A) (A) (A) (A) (A) (A) (A) (A) (A) (A) (A) (A)
                 (A) (A) (A) (A) (A) (A) (A) (A) (A) (A) (A) (A)
                 (A) (A) (A) (A) (A) (A) (A) (A) (A) (A) (A) (A)
                 (A) (A) (A) (A) (A) (A) (A) (A) (A) (A) (A) (A)
                 (A) (A) (A) (A) (A) (A) (A) (A) (A) (A) (A) (A)
                 (A) (A) (A) (A) (A) (A) (A) (A) (A) (A) (A) (A)
                 (A) (A) (A) (A) (A) (A) (A) (A) (A) (A) (A) (A)
                 (A) (A) (A) (A) (A) (A) (A) (A) (A) (A) (A) (A)
                 (A) (A) (A) (A) (A) (A) (A) (A) (A) (A) (A) (A)
                 (A) (A) (A) (A) (A) (A) (A) (A) (A) (A) (A) (A)
                 (A) (A) (A) (A) (A) (A) (A) (A) (A) (A) (A) (A)
                 (A) (A) (A) (A) (A) (A) (A) (A) (A) (A) (A) (A)
                 (A) (A) (A) (A) (A) (A) (A) (A) (A) (A) (A) (A)
                 (A) (A) (A) (A) (A) (A) (A) (A) (A) (A) (A) (A)
                 (A) (A) (A) (A) (A) (A) (A) (A) (A) (A) (A) (A)
                 (A) (A) (A) (A) (A) (A) (A) (A) (A) (A) (A) (A)
                 (A) (A) (A) (A) (A) (A) (A) (A) (A) (A) (A) (A)
                 (A) (A) (A) (A) (A) (A) (A) (A) (A) (A) (A) (A)
                 (A) (A) (A) (A) (A) (A) (A) (A) (A) (A) (A) (A)
                 (A) (A) (A) (A) (A) (A) (A) (A) (A) (A) (A) (A)
                 (A) (A) (A) (A) (A) (A) (A) (A) (A) (A)
       Virtual   (A) (A) (A) (A) (A) (A) (A) (A) (A) (A) (A) (A)
                 (A) (A) (A) (A) (A) (A) (A) (A) (A) (A) (A) (A)
                 (A) (A) (A) (A) (A) (A) (A) (A) (A) (A) (A) (A)
                 (A) (A) (A) (A) (A) (A) (A) (A) (A) (A) (A) (A)
                 (A) (A) (A) (A) (A) (A) (A) (A) (A) (A) (A) (A)
                 (A) (A) (A) (A) (A) (A) (A) (A) (A) (A) (A) (A)
                 (A) (A) (A) (A) (A) (A) (A) (A) (A) (A) (A) (A)
                 (A) (A) (A) (A) (A) (A) (A) (A) (A) (A) (A) (A)
                 (A) (A) (A) (A) (A) (A) (A) (A) (A) (A) (A) (A)
                 (A) (A) (A) (A) (A) (A) (A) (A) (A) (A) (A) (A)
                 (A) (A) (A) (A) (A) (A) (A) (A) (A) (A) (A) (A)
                 (A) (A) (A) (A) (A) (A) (A) (A) (A) (A) (A) (A)
                 (A) (A) (A) (A) (A) (A) (A) (A) (A) (A) (A) (A)
                 (A) (A) (A) (A) (A) (A) (A) (A) (A) (A) (A) (A)
                 (A) (A) (A) (A) (A) (A) (A) (A) (A) (A) (A) (A)
                 (A) (A) (A) (A) (A) (A) (A) (A) (A) (A) (A) (A)
                 (A) (A) (A) (A) (A) (A) (A) (A) (A) (A) (A) (A)
                 (A) (A) (A) (A) (A) (A) (A) (A) (A) (A) (A) (A)
                 (A) (A) (A) (A) (A) (A) (A) (A) (A) (A) (A) (A)
                 (A) (A) (A) (A) (A) (A) (A) (A) (A) (A) (A) (A)
                 (A) (A) (A) (A) (A) (A) (A) (A) (A) (A) (A) (A)
                 (A) (A) (A) (A) (A) (A) (A) (A) (A) (A) (A) (A)
                 (A) (A) (A) (A) (A) (A) (A) (A) (A) (A) (A) (A)
                 (A) (A) (A) (A) (A) (A) (A) (A) (A) (A) (A) (A)
                 (A) (A) (A) (A) (A) (A) (A) (A) (A) (A) (A) (A)
                 (A) (A) (A) (A) (A) (A) (A) (A) (A) (A) (A) (A)
                 (A) (A) (A) (A) (A) (A) (A) (A) (A) (A) (A) (A)
                 (A) (A) (A) (A) (A) (A) (A) (A) (A) (A) (A) (A)
                 (A) (A) (A) (A) (A) (A) (A) (A) (A) (A) (A) (A)
                 (A) (A) (A) (A) (A) (A) (A) (A) (A) (A) (A) (A)
                 (A) (A) (A) (A) (A) (A) (A) (A) (A) (A) (A) (A)
                 (A) (A) (A) (A) (A) (A) (A) (A) (A) (A) (A) (A)
                 (A) (A) (A) (A) (A) (A) (A) (A) (A) (A) (A) (A)
                 (A) (A) (A) (A) (A) (A) (A) (A) (A) (A) (A) (A)
                 (A) (A) (A) (A) (A) (A) (A) (A) (A) (A) (A) (A)
                 (A) (A) (A) (A) (A) (A) (A) (A) (A) (A) (A) (A)
                 (A) (A) (A) (A) (A) (A) (A) (A) (A) (A) (A) (A)
                 (A) (A) (A) (A) (A) (A) (A) (A) (A) (A) (A) (A)
                 (A) (A) (A) (A) (A) (A) (A) (A) (A) (A) (A) (A)
                 (A) (A) (A) (A) (A) (A) (A) (A) (A) (A) (A) (A)
                 (A) (A) (A) (A) (A) (A) (A) (A) (A) (A) (A) (A)
                 (A) (A) (A) (A) (A) (A) (A) (A) (A) (A) (A) (A)
                 (A) (A) (A) (A) (A) (A) (A) (A) (A) (A) (A) (A)
                 (A) (A) (A) (A) (A) (A) (A) (A) (A) (A) (A) (A)
                 (A) (A) (A) (A) (A) (A) (A) (A) (A) (A) (A) (A)
                 (A) (A) (A) (A) (A) (A) (A) (A) (A) (A) (A) (A)
                 (A) (A) (A) (A) (A) (A) (A) (A) (A) (A) (A) (A)
                 (A) (A) (A) (A) (A) (A) (A) (A) (A) (A) (A) (A)
                 (A) (A) (A) (A) (A) (A) (A) (A) (A) (A) (A) (A)
                 (A) (A) (A) (A) (A) (A) (A) (A) (A) (A) (A) (A)
                 (A) (A) (A) (A) (A) (A) (A) (A) (A) (A) (A) (A)
                 (A) (A) (A) (A) (A) (A) (A) (A) (A) (A) (A) (A)
                 (A) (A) (A) (A) (A) (A) (A) (A) (A) (A) (A) (A)
                 (A) (A) (A) (A) (A) (A) (A) (A) (A) (A) (A) (A)
                 (A) (A) (A) (A) (A) (A) (A) (A) (A) (A) (A) (A)
                 (A) (A) (A) (A) (A) (A) (A) (A) (A) (A) (A) (A)
                 (A) (A) (A) (A) (A) (A) (A) (A) (A) (A) (A) (A)
                 (A) (A) (A) (A) (A) (A) (A) (A) (A) (A) (A) (A)
                 (A) (A) (A) (A) (A) (A) (A) (A) (A) (A) (A) (A)
                 (A) (A) (A) (A) (A) (A) (A) (A) (A) (A) (A) (A)
                 (A) (A) (A) (A) (A) (A) (A) (A) (A) (A) (A) (A)
                 (A) (A) (A) (A) (A) (A) (A) (A) (A) (A) (A) (A)
                 (A) (A) (A) (A) (A) (A) (A) (A) (A) (A) (A) (A)
                 (A) (A) (A) (A) (A) (A) (A) (A) (A) (A) (A) (A)
                 (A) (A) (A) (A) (A) (A) (A) (A) (A) (A) (A) (A)
                 (A) (A) (A) (A) (A) (A) (A) (A) (A) (A) (A) (A)
                 (A) (A) (A) (A) (A) (A) (A) (A) (A) (A) (A) (A)
                 (A) (A) (A) (A) (A) (A) (A) (A) (A) (A) (A) (A)
                 (A) (A) (A) (A) (A) (A) (A) (A) (A) (A) (A) (A)
                 (A) (A) (A) (A) (A) (A) (A) (A) (A) (A) (A) (A)
                 (A) (A) (A) (A) (A) (A) (A) (A) (A) (A) (A) (A)
                 (A) (A) (A) (A) (A) (A) (A) (A) (A) (A) (A) (A)
                 (A) (A) (A) (A) (A) (A) (A) (A) (A) (A) (A) (A)
                 (A) (A) (A) (A) (A) (A) (A) (A) (A) (A) (A) (A)
                 (A) (A) (A) (A) (A) (A) (A) (A) (A) (A) (A) (A)
                 (A) (A) (A) (A) (A) (A) (A) (A) (A) (A) (A) (A)
                 (A) (A) (A) (A) (A) (A) (A) (A) (A) (A) (A) (A)
                 (A) (A) (A) (A) (A) (A) (A) (A) (A) (A) (A) (A)
                 (A) (A) (A) (A) (A) (A) (A) (A) (A) (A) (A) (A)
                 (A) (A) (A) (A) (A) (A) (A) (A) (A) (A) (A) (A)
                 (A) (A) (A) (A) (A) (A) (A) (A) (A) (A) (A) (A)
                 (A) (A) (A) (A) (A) (A) (A) (A) (A) (A) (A) (A)
                 (A) (A) (A) (A) (A) (A) (A) (A) (A) (A) (A) (A)
                 (A) (A) (A) (A) (A) (A) (A) (A) (A) (A) (A) (A)
                 (A) (A) (A) (A) (A) (A) (A) (A) (A) (A) (A) (A)
                 (A) (A) (A) (A) (A) (A) (A) (A) (A) (A) (A) (A)
                 (A) (A) (A) (A) (A) (A) (A) (A) (A) (A) (A) (A)
                 (A) (A) (A) (A) (A) (A) (A) (A) (A) (A) (A) (A)
                 (A) (A) (A) (A) (A) (A) (A) (A) (A) (A) (A) (A)
                 (A) (A) (A) (A) (A) (A) (A) (A) (A) (A) (A) (A)
                 (A) (A) (A) (A) (A) (A) (A) (A) (A) (A) (A) (A)
                 (A) (A) (A) (A) (A) (A) (A) (A) (A) (A) (A) (A)
                 (A) (A) (A) (A) (A) (A) (A) (A) (A) (A) (A) (A)
                 (A) (A) (A) (A) (A) (A) (A) (A) (A) (A) (A) (A)
                 (A) (A) (A) (A) (A) (A) (A) (A) (A) (A) (A) (A)
                 (A) (A) (A) (A) (A) (A) (A) (A) (A) (A) (A) (A)
                 (A) (A) (A) (A) (A) (A) (A) (A) (A) (A) (A) (A)
                 (A) (A) (A) (A) (A) (A) (A) (A) (A) (A) (A) (A)
                 (A) (A) (A) (A) (A) (A) (A) (A) (A) (A) (A) (A)
                 (A) (A) (A) (A) (A) (A) (A) (A) (A) (A) (A) (A)
                 (A) (A) (A) (A) (A) (A) (A) (A) (A) (A) (A) (A)
                 (A) (A) (A) (A) (A) (A) (A) (A) (A) (A) (A) (A)
                 (A) (A) (A) (A) (A) (A) (A) (A) (A) (A) (A) (A)
                 (A) (A) (A) (A) (A) (A) (A) (A) (A) (A) (A) (A)
                 (A) (A) (A) (A) (A) (A) (A) (A) (A) (A) (A) (A)
                 (A) (A) (A) (A) (A) (A) (A) (A) (A) (A) (A) (A)
                 (A) (A) (A) (A) (A) (A) (A) (A) (A) (A) (A) (A)
                 (A) (A) (A) (A) (A) (A) (A) (A) (A) (A) (A) (A)
                 (A) (A) (A) (A) (A) (A) (A) (A) (A) (A) (A) (A)
                 (A) (A) (A) (A) (A) (A) (A) (A) (A) (A) (A) (A)
                 (A) (A) (A) (A) (A) (A) (A) (A) (A) (A) (A) (A)
                 (A) (A) (A) (A) (A) (A) (A) (A) (A) (A) (A) (A)
                 (A) (A) (A) (A) (A) (A) (A) (A) (A) (A) (A) (A)
                 (A) (A) (A)
 The electronic state is 1-A.
 Alpha  occ. eigenvalues -- -145.36286 -19.19774 -19.18292 -19.14905 -19.14467
 Alpha  occ. eigenvalues --  -19.12860 -19.11530 -19.11460 -19.10124 -19.10106
 Alpha  occ. eigenvalues --  -19.09739 -19.08728 -19.08038 -19.07741 -19.07612
 Alpha  occ. eigenvalues --  -19.06026 -19.05872 -19.05823 -19.05820 -19.04299
 Alpha  occ. eigenvalues --  -19.04261 -19.03657 -19.03551 -19.01469 -15.42061
 Alpha  occ. eigenvalues --  -14.57050 -14.40767 -14.38489 -14.37313 -14.36973
 Alpha  occ. eigenvalues --  -14.36443 -14.35951 -14.34557 -14.32637 -14.32557
 Alpha  occ. eigenvalues --  -14.32315 -14.31893 -14.31378 -14.30470 -14.28489
 Alpha  occ. eigenvalues --  -12.55664 -12.55640 -12.55623 -10.33499 -10.32323
 Alpha  occ. eigenvalues --  -10.31506 -10.30456 -10.29893 -10.29364 -10.29166
 Alpha  occ. eigenvalues --  -10.28952 -10.28030 -10.27978 -10.27417 -10.27269
 Alpha  occ. eigenvalues --  -10.26453 -10.26143 -10.25278 -10.24842 -10.24708
 Alpha  occ. eigenvalues --  -10.24577 -10.24576 -10.24347 -10.24300 -10.23971
 Alpha  occ. eigenvalues --  -10.23574 -10.23177 -10.22542 -10.22257 -10.22218
 Alpha  occ. eigenvalues --  -10.22075 -10.22055 -10.21354 -10.20870 -10.20868
 Alpha  occ. eigenvalues --  -10.20766 -10.20617 -10.20093 -10.19690 -10.19075
 Alpha  occ. eigenvalues --  -10.18949 -10.18688 -10.18631 -10.18310 -10.18266
 Alpha  occ. eigenvalues --  -10.17915 -10.17900 -10.17865 -10.17857 -10.17839
 Alpha  occ. eigenvalues --  -10.17589 -10.17303 -10.17089 -10.16701 -10.16627
 Alpha  occ. eigenvalues --  -10.15499 -10.12788  -1.79025  -1.12199  -1.08277
 Alpha  occ. eigenvalues --   -1.07572  -1.07012  -1.06821  -1.06414  -1.05608
 Alpha  occ. eigenvalues --   -1.04937  -1.04368  -1.04172  -1.03754  -1.03677
 Alpha  occ. eigenvalues --   -1.02890  -1.02765  -1.01536  -1.00846  -1.00614
 Alpha  occ. eigenvalues --   -0.99219  -0.99074  -0.98948  -0.98785  -0.98767
 Alpha  occ. eigenvalues --   -0.97227  -0.97131  -0.96252  -0.94868  -0.94122
 Alpha  occ. eigenvalues --   -0.93561  -0.92723  -0.92557  -0.92422  -0.91854
 Alpha  occ. eigenvalues --   -0.90195  -0.89869  -0.89811  -0.88726  -0.88361
 Alpha  occ. eigenvalues --   -0.87916  -0.87701  -0.87359  -0.86616  -0.85356
 Alpha  occ. eigenvalues --   -0.83656  -0.83429  -0.81554  -0.80137  -0.79389
 Alpha  occ. eigenvalues --   -0.79291  -0.78146  -0.78034  -0.77669  -0.77652
 Alpha  occ. eigenvalues --   -0.74000  -0.73909  -0.73184  -0.72622  -0.72347
 Alpha  occ. eigenvalues --   -0.72316  -0.72185  -0.71741  -0.70913  -0.70848
 Alpha  occ. eigenvalues --   -0.69977  -0.69894  -0.68675  -0.68371  -0.67219
 Alpha  occ. eigenvalues --   -0.66804  -0.66338  -0.66233  -0.65021  -0.64564
 Alpha  occ. eigenvalues --   -0.64245  -0.63165  -0.62184  -0.61767  -0.61283
 Alpha  occ. eigenvalues --   -0.61223  -0.60898  -0.60791  -0.60424  -0.60227
 Alpha  occ. eigenvalues --   -0.59874  -0.59195  -0.59067  -0.58471  -0.58229
 Alpha  occ. eigenvalues --   -0.58007  -0.57547  -0.56846  -0.56805  -0.56579
 Alpha  occ. eigenvalues --   -0.56165  -0.56142  -0.55830  -0.55476  -0.55431
 Alpha  occ. eigenvalues --   -0.55240  -0.54766  -0.54672  -0.53873  -0.53627
 Alpha  occ. eigenvalues --   -0.53623  -0.53281  -0.53167  -0.52246  -0.52089
 Alpha  occ. eigenvalues --   -0.51198  -0.51140  -0.50568  -0.50396  -0.50169
 Alpha  occ. eigenvalues --   -0.49753  -0.49502  -0.49310  -0.49020  -0.48619
 Alpha  occ. eigenvalues --   -0.48499  -0.48338  -0.48160  -0.47882  -0.47700
 Alpha  occ. eigenvalues --   -0.47224  -0.47184  -0.47038  -0.46816  -0.46756
 Alpha  occ. eigenvalues --   -0.46454  -0.46232  -0.46125  -0.45852  -0.45774
 Alpha  occ. eigenvalues --   -0.45617  -0.45329  -0.45099  -0.44965  -0.44843
 Alpha  occ. eigenvalues --   -0.44611  -0.44431  -0.44223  -0.43820  -0.43651
 Alpha  occ. eigenvalues --   -0.43608  -0.43374  -0.43211  -0.43161  -0.43103
 Alpha  occ. eigenvalues --   -0.42760  -0.42525  -0.42311  -0.42169  -0.42076
 Alpha  occ. eigenvalues --   -0.42000  -0.41842  -0.41770  -0.41703  -0.41626
 Alpha  occ. eigenvalues --   -0.41468  -0.41330  -0.41190  -0.40975  -0.40805
 Alpha  occ. eigenvalues --   -0.40733  -0.40475  -0.40373  -0.40238  -0.40086
 Alpha  occ. eigenvalues --   -0.39985  -0.39906  -0.39843  -0.39723  -0.39537
 Alpha  occ. eigenvalues --   -0.39446  -0.39401  -0.39295  -0.38980  -0.38831
 Alpha  occ. eigenvalues --   -0.38755  -0.38560  -0.38314  -0.38122  -0.38030
 Alpha  occ. eigenvalues --   -0.37909  -0.37792  -0.37707  -0.37460  -0.37310
 Alpha  occ. eigenvalues --   -0.37236  -0.37006  -0.36954  -0.36562  -0.36519
 Alpha  occ. eigenvalues --   -0.36317  -0.36001  -0.35907  -0.35580  -0.35508
 Alpha  occ. eigenvalues --   -0.35292  -0.35081  -0.34907  -0.34793  -0.34617
 Alpha  occ. eigenvalues --   -0.34583  -0.34386  -0.34196  -0.34025  -0.33819
 Alpha  occ. eigenvalues --   -0.33694  -0.33596  -0.33043  -0.32857  -0.32823
 Alpha  occ. eigenvalues --   -0.32805  -0.32412  -0.32177  -0.31750  -0.31635
 Alpha  occ. eigenvalues --   -0.31556  -0.31504  -0.30966  -0.30481  -0.30356
 Alpha  occ. eigenvalues --   -0.30243  -0.29879  -0.29230  -0.28715  -0.28253
 Alpha  occ. eigenvalues --   -0.28233  -0.27696  -0.27319  -0.27009  -0.26657
 Alpha  occ. eigenvalues --   -0.26425  -0.26252  -0.25783  -0.25652  -0.25069
 Alpha  occ. eigenvalues --   -0.24990  -0.24966  -0.24496  -0.24260  -0.23952
 Alpha  occ. eigenvalues --   -0.23324  -0.23292  -0.23028  -0.22803  -0.22656
 Alpha  occ. eigenvalues --   -0.22396  -0.21990  -0.21942  -0.21298  -0.21217
 Alpha  occ. eigenvalues --   -0.21112  -0.21006  -0.20905  -0.20481  -0.19402
 Alpha  occ. eigenvalues --   -0.18945  -0.18680  -0.17618
 Alpha virt. eigenvalues --   -0.09054  -0.04446  -0.03353  -0.02760  -0.02409
 Alpha virt. eigenvalues --   -0.01020  -0.00920  -0.00647  -0.00476  -0.00359
 Alpha virt. eigenvalues --    0.00680   0.00721   0.01129   0.01750   0.01877
 Alpha virt. eigenvalues --    0.01970   0.02642   0.03437   0.03506   0.03676
 Alpha virt. eigenvalues --    0.04153   0.04475   0.04676   0.04923   0.05087
 Alpha virt. eigenvalues --    0.05398   0.05423   0.05764   0.05809   0.05932
 Alpha virt. eigenvalues --    0.05980   0.06326   0.06348   0.06728   0.06796
 Alpha virt. eigenvalues --    0.07510   0.07625   0.07665   0.07727   0.08176
 Alpha virt. eigenvalues --    0.08309   0.08558   0.08863   0.09054   0.09177
 Alpha virt. eigenvalues --    0.09446   0.09749   0.09856   0.10014   0.10396
 Alpha virt. eigenvalues --    0.10413   0.10738   0.10862   0.10999   0.11299
 Alpha virt. eigenvalues --    0.11327   0.11488   0.11761   0.11915   0.12042
 Alpha virt. eigenvalues --    0.12315   0.12396   0.12499   0.12721   0.12814
 Alpha virt. eigenvalues --    0.12978   0.13120   0.13432   0.13575   0.13654
 Alpha virt. eigenvalues --    0.13854   0.14044   0.14127   0.14218   0.14309
 Alpha virt. eigenvalues --    0.14691   0.14845   0.14971   0.15082   0.15133
 Alpha virt. eigenvalues --    0.15496   0.15771   0.15902   0.16150   0.16522
 Alpha virt. eigenvalues --    0.16630   0.16708   0.16810   0.17000   0.17100
 Alpha virt. eigenvalues --    0.17198   0.17407   0.17665   0.17817   0.17919
 Alpha virt. eigenvalues --    0.18070   0.18183   0.18415   0.18487   0.18677
 Alpha virt. eigenvalues --    0.18804   0.19139   0.19211   0.19408   0.19642
 Alpha virt. eigenvalues --    0.19810   0.19979   0.20125   0.20331   0.20539
 Alpha virt. eigenvalues --    0.20720   0.20970   0.21146   0.21299   0.21607
 Alpha virt. eigenvalues --    0.21848   0.21874   0.22242   0.22319   0.22633
 Alpha virt. eigenvalues --    0.22860   0.23029   0.23478   0.23547   0.23652
 Alpha virt. eigenvalues --    0.23931   0.24333   0.24524   0.24619   0.24793
 Alpha virt. eigenvalues --    0.24949   0.25051   0.25185   0.25547   0.25901
 Alpha virt. eigenvalues --    0.25992   0.26227   0.26402   0.26646   0.27052
 Alpha virt. eigenvalues --    0.27306   0.27524   0.27629   0.27919   0.28030
 Alpha virt. eigenvalues --    0.28351   0.28628   0.28918   0.29121   0.29230
 Alpha virt. eigenvalues --    0.29481   0.29697   0.29885   0.30526   0.30680
 Alpha virt. eigenvalues --    0.30898   0.30955   0.31177   0.31375   0.31605
 Alpha virt. eigenvalues --    0.31743   0.31889   0.32139   0.32215   0.32874
 Alpha virt. eigenvalues --    0.33035   0.33216   0.33369   0.33892   0.34140
 Alpha virt. eigenvalues --    0.34176   0.34443   0.34489   0.35016   0.35586
 Alpha virt. eigenvalues --    0.35949   0.36122   0.36301   0.36615   0.36948
 Alpha virt. eigenvalues --    0.37199   0.37398   0.37594   0.37749   0.38366
 Alpha virt. eigenvalues --    0.38450   0.38632   0.38955   0.39181   0.39285
 Alpha virt. eigenvalues --    0.40200   0.40498   0.40797   0.40869   0.41109
 Alpha virt. eigenvalues --    0.41311   0.41377   0.41667   0.41924   0.42281
 Alpha virt. eigenvalues --    0.42636   0.42669   0.43077   0.43155   0.43186
 Alpha virt. eigenvalues --    0.43445   0.43583   0.43674   0.43734   0.44086
 Alpha virt. eigenvalues --    0.44582   0.44710   0.44800   0.44935   0.45122
 Alpha virt. eigenvalues --    0.45325   0.45562   0.45743   0.46040   0.46179
 Alpha virt. eigenvalues --    0.46398   0.46708   0.46844   0.47070   0.47463
 Alpha virt. eigenvalues --    0.47615   0.47941   0.48175   0.48254   0.48367
 Alpha virt. eigenvalues --    0.48534   0.48863   0.48999   0.49127   0.49183
 Alpha virt. eigenvalues --    0.49581   0.49806   0.49998   0.50120   0.50280
 Alpha virt. eigenvalues --    0.50374   0.50899   0.50994   0.51185   0.51313
 Alpha virt. eigenvalues --    0.51422   0.51525   0.51736   0.51935   0.52216
 Alpha virt. eigenvalues --    0.52288   0.52459   0.52521   0.52866   0.52966
 Alpha virt. eigenvalues --    0.53163   0.53501   0.53606   0.53815   0.54026
 Alpha virt. eigenvalues --    0.54123   0.54463   0.54687   0.54793   0.54976
 Alpha virt. eigenvalues --    0.55068   0.55234   0.55307   0.55593   0.55737
 Alpha virt. eigenvalues --    0.56123   0.56255   0.56549   0.56654   0.56940
 Alpha virt. eigenvalues --    0.57197   0.57334   0.57513   0.57766   0.57882
 Alpha virt. eigenvalues --    0.58130   0.58294   0.58372   0.58650   0.58690
 Alpha virt. eigenvalues --    0.58785   0.59145   0.59180   0.59426   0.59492
 Alpha virt. eigenvalues --    0.59591   0.59853   0.60142   0.60270   0.60438
 Alpha virt. eigenvalues --    0.60551   0.60886   0.60900   0.60984   0.61247
 Alpha virt. eigenvalues --    0.61399   0.61467   0.61530   0.61660   0.61893
 Alpha virt. eigenvalues --    0.62011   0.62170   0.62221   0.62409   0.62581
 Alpha virt. eigenvalues --    0.62720   0.62821   0.62915   0.62926   0.63096
 Alpha virt. eigenvalues --    0.63240   0.63286   0.63596   0.63651   0.63878
 Alpha virt. eigenvalues --    0.63914   0.64022   0.64152   0.64268   0.64425
 Alpha virt. eigenvalues --    0.64570   0.64778   0.64879   0.64944   0.65018
 Alpha virt. eigenvalues --    0.65165   0.65424   0.65457   0.65624   0.65662
 Alpha virt. eigenvalues --    0.65817   0.66034   0.66051   0.66190   0.66227
 Alpha virt. eigenvalues --    0.66313   0.66498   0.66594   0.66648   0.66743
 Alpha virt. eigenvalues --    0.66913   0.66992   0.67144   0.67447   0.67538
 Alpha virt. eigenvalues --    0.67732   0.67743   0.67897   0.68026   0.68163
 Alpha virt. eigenvalues --    0.68217   0.68466   0.68586   0.68631   0.68728
 Alpha virt. eigenvalues --    0.68904   0.69011   0.69072   0.69317   0.69362
 Alpha virt. eigenvalues --    0.69502   0.69623   0.69746   0.69824   0.69986
 Alpha virt. eigenvalues --    0.70087   0.70297   0.70344   0.70426   0.70665
 Alpha virt. eigenvalues --    0.70787   0.71001   0.71296   0.71417   0.71478
 Alpha virt. eigenvalues --    0.71588   0.71643   0.71887   0.71979   0.72077
 Alpha virt. eigenvalues --    0.72297   0.72370   0.72425   0.72628   0.72794
 Alpha virt. eigenvalues --    0.72883   0.73041   0.73305   0.73427   0.73487
 Alpha virt. eigenvalues --    0.73648   0.73698   0.74037   0.74198   0.74305
 Alpha virt. eigenvalues --    0.74577   0.74716   0.74864   0.74989   0.75088
 Alpha virt. eigenvalues --    0.75131   0.75440   0.75898   0.76096   0.76256
 Alpha virt. eigenvalues --    0.76404   0.76615   0.76975   0.77015   0.77135
 Alpha virt. eigenvalues --    0.77382   0.77757   0.77882   0.78013   0.78353
 Alpha virt. eigenvalues --    0.78545   0.79018   0.79205   0.79603   0.79877
 Alpha virt. eigenvalues --    0.79957   0.80134   0.80474   0.80568   0.80748
 Alpha virt. eigenvalues --    0.81010   0.81406   0.81679   0.81736   0.81935
 Alpha virt. eigenvalues --    0.82166   0.82467   0.82721   0.82947   0.83227
 Alpha virt. eigenvalues --    0.83335   0.83771   0.83982   0.84354   0.84643
 Alpha virt. eigenvalues --    0.85105   0.85167   0.85490   0.85781   0.85854
 Alpha virt. eigenvalues --    0.86126   0.86387   0.86648   0.86863   0.87199
 Alpha virt. eigenvalues --    0.87363   0.87455   0.87854   0.88013   0.88426
 Alpha virt. eigenvalues --    0.88678   0.88997   0.89391   0.89804   0.89855
 Alpha virt. eigenvalues --    0.90065   0.90732   0.90915   0.91377   0.91620
 Alpha virt. eigenvalues --    0.91786   0.92336   0.92894   0.93004   0.93219
 Alpha virt. eigenvalues --    0.93713   0.94127   0.94310   0.94694   0.94911
 Alpha virt. eigenvalues --    0.95185   0.95600   0.95777   0.96330   0.96442
 Alpha virt. eigenvalues --    0.96543   0.96946   0.97126   0.97357   0.97535
 Alpha virt. eigenvalues --    0.97802   0.98040   0.98411   0.98564   0.98816
 Alpha virt. eigenvalues --    0.99193   0.99342   0.99490   0.99698   1.00115
 Alpha virt. eigenvalues --    1.00418   1.00955   1.01094   1.01447   1.02119
 Alpha virt. eigenvalues --    1.02390   1.02667   1.03000   1.03149   1.03307
 Alpha virt. eigenvalues --    1.03712   1.04193   1.04407   1.04467   1.04819
 Alpha virt. eigenvalues --    1.05084   1.05224   1.05608   1.05888   1.06273
 Alpha virt. eigenvalues --    1.06378   1.06604   1.06826   1.07383   1.07420
 Alpha virt. eigenvalues --    1.07962   1.08109   1.08382   1.08713   1.08776
 Alpha virt. eigenvalues --    1.09250   1.09359   1.09685   1.09754   1.10187
 Alpha virt. eigenvalues --    1.10670   1.10925   1.11070   1.11295   1.11683
 Alpha virt. eigenvalues --    1.11917   1.12212   1.12465   1.12487   1.12742
 Alpha virt. eigenvalues --    1.13287   1.13681   1.13880   1.14014   1.14373
 Alpha virt. eigenvalues --    1.14733   1.14998   1.15173   1.15466   1.15862
 Alpha virt. eigenvalues --    1.15937   1.16397   1.16754   1.17086   1.17232
 Alpha virt. eigenvalues --    1.17371   1.17617   1.18101   1.18316   1.18501
 Alpha virt. eigenvalues --    1.18813   1.19178   1.19497   1.19595   1.19797
 Alpha virt. eigenvalues --    1.20084   1.20506   1.20754   1.20931   1.21122
 Alpha virt. eigenvalues --    1.21199   1.21535   1.21650   1.22070   1.22367
 Alpha virt. eigenvalues --    1.22804   1.23077   1.23280   1.23613   1.23743
 Alpha virt. eigenvalues --    1.24026   1.24095   1.24235   1.24542   1.24821
 Alpha virt. eigenvalues --    1.25020   1.25181   1.25797   1.25970   1.26189
 Alpha virt. eigenvalues --    1.26383   1.26566   1.26831   1.27066   1.27080
 Alpha virt. eigenvalues --    1.27593   1.27836   1.28032   1.28292   1.28595
 Alpha virt. eigenvalues --    1.28707   1.29098   1.29291   1.29415   1.29679
 Alpha virt. eigenvalues --    1.29837   1.30141   1.30262   1.30446   1.30692
 Alpha virt. eigenvalues --    1.31210   1.31377   1.31608   1.31989   1.32146
 Alpha virt. eigenvalues --    1.32707   1.33097   1.33580   1.33922   1.34202
 Alpha virt. eigenvalues --    1.34410   1.34595   1.35150   1.35287   1.35524
 Alpha virt. eigenvalues --    1.36002   1.36111   1.36434   1.36719   1.36964
 Alpha virt. eigenvalues --    1.37059   1.37552   1.37655   1.37847   1.38453
 Alpha virt. eigenvalues --    1.38721   1.39080   1.39556   1.39787   1.39946
 Alpha virt. eigenvalues --    1.40327   1.40485   1.40747   1.40951   1.41269
 Alpha virt. eigenvalues --    1.41335   1.41654   1.41875   1.42237   1.42620
 Alpha virt. eigenvalues --    1.42910   1.43426   1.43759   1.43978   1.44066
 Alpha virt. eigenvalues --    1.44462   1.44698   1.44854   1.45388   1.45587
 Alpha virt. eigenvalues --    1.45698   1.46557   1.46663   1.46793   1.47232
 Alpha virt. eigenvalues --    1.47431   1.47465   1.47737   1.47827   1.48083
 Alpha virt. eigenvalues --    1.48496   1.48953   1.49134   1.49361   1.49512
 Alpha virt. eigenvalues --    1.49930   1.50069   1.50228   1.50467   1.51041
 Alpha virt. eigenvalues --    1.51252   1.51503   1.51784   1.52031   1.52336
 Alpha virt. eigenvalues --    1.52639   1.52863   1.53028   1.53694   1.54101
 Alpha virt. eigenvalues --    1.54538   1.55240   1.55453   1.55459   1.55875
 Alpha virt. eigenvalues --    1.56580   1.56935   1.57033   1.57274   1.57644
 Alpha virt. eigenvalues --    1.57866   1.58452   1.58602   1.59065   1.59513
 Alpha virt. eigenvalues --    1.59903   1.60210   1.60750   1.61022   1.61327
 Alpha virt. eigenvalues --    1.61666   1.61805   1.62097   1.62192   1.62377
 Alpha virt. eigenvalues --    1.62918   1.63165   1.63174   1.63520   1.63892
 Alpha virt. eigenvalues --    1.64239   1.64778   1.65076   1.65299   1.65409
 Alpha virt. eigenvalues --    1.65692   1.66162   1.66392   1.66760   1.66900
 Alpha virt. eigenvalues --    1.67224   1.67377   1.67506   1.68079   1.68466
 Alpha virt. eigenvalues --    1.68710   1.69018   1.69530   1.69689   1.69873
 Alpha virt. eigenvalues --    1.70105   1.70196   1.70738   1.70994   1.71215
 Alpha virt. eigenvalues --    1.71501   1.71789   1.72216   1.72355   1.72421
 Alpha virt. eigenvalues --    1.72515   1.73032   1.73073   1.73193   1.73458
 Alpha virt. eigenvalues --    1.73657   1.73949   1.74158   1.74382   1.74589
 Alpha virt. eigenvalues --    1.74815   1.75048   1.75336   1.75450   1.75540
 Alpha virt. eigenvalues --    1.75715   1.75979   1.76216   1.76233   1.76677
 Alpha virt. eigenvalues --    1.76912   1.77019   1.77249   1.77431   1.77617
 Alpha virt. eigenvalues --    1.77755   1.77904   1.78162   1.78216   1.78416
 Alpha virt. eigenvalues --    1.78569   1.78762   1.78986   1.79196   1.79313
 Alpha virt. eigenvalues --    1.79579   1.79634   1.79729   1.80119   1.80195
 Alpha virt. eigenvalues --    1.80409   1.80460   1.80520   1.80959   1.81192
 Alpha virt. eigenvalues --    1.81195   1.81560   1.81751   1.81940   1.81983
 Alpha virt. eigenvalues --    1.82331   1.82367   1.82645   1.82772   1.83013
 Alpha virt. eigenvalues --    1.83059   1.83269   1.83511   1.83718   1.83872
 Alpha virt. eigenvalues --    1.84093   1.84284   1.84506   1.84658   1.84823
 Alpha virt. eigenvalues --    1.84865   1.84911   1.85051   1.85320   1.85454
 Alpha virt. eigenvalues --    1.85905   1.86123   1.86134   1.86199   1.86303
 Alpha virt. eigenvalues --    1.86663   1.86898   1.87141   1.87213   1.87391
 Alpha virt. eigenvalues --    1.87588   1.87772   1.88026   1.88193   1.88302
 Alpha virt. eigenvalues --    1.88426   1.88566   1.88876   1.89048   1.89229
 Alpha virt. eigenvalues --    1.89364   1.89767   1.89869   1.90035   1.90218
 Alpha virt. eigenvalues --    1.90334   1.90551   1.90712   1.90774   1.90997
 Alpha virt. eigenvalues --    1.91228   1.91270   1.91475   1.91777   1.92253
 Alpha virt. eigenvalues --    1.92414   1.92607   1.92689   1.92925   1.92935
 Alpha virt. eigenvalues --    1.93259   1.93485   1.93590   1.93767   1.94049
 Alpha virt. eigenvalues --    1.94133   1.94410   1.94665   1.94992   1.95055
 Alpha virt. eigenvalues --    1.95372   1.95784   1.95930   1.96013   1.96272
 Alpha virt. eigenvalues --    1.96628   1.96934   1.97034   1.97296   1.97593
 Alpha virt. eigenvalues --    1.97813   1.98178   1.98308   1.98473   1.98678
 Alpha virt. eigenvalues --    1.98799   1.98927   1.99286   1.99452   1.99763
 Alpha virt. eigenvalues --    1.99921   2.00004   2.00260   2.00480   2.00555
 Alpha virt. eigenvalues --    2.00771   2.00931   2.00984   2.01360   2.01626
 Alpha virt. eigenvalues --    2.01747   2.02109   2.02601   2.02750   2.02756
 Alpha virt. eigenvalues --    2.03031   2.03051   2.03549   2.03737   2.03962
 Alpha virt. eigenvalues --    2.04684   2.04773   2.04809   2.05460   2.05710
 Alpha virt. eigenvalues --    2.05767   2.05858   2.06264   2.06549   2.06661
 Alpha virt. eigenvalues --    2.06842   2.07464   2.07995   2.08041   2.08367
 Alpha virt. eigenvalues --    2.08717   2.08918   2.09251   2.09447   2.09858
 Alpha virt. eigenvalues --    2.10088   2.10271   2.10847   2.10985   2.11245
 Alpha virt. eigenvalues --    2.11716   2.11735   2.12084   2.12520   2.12686
 Alpha virt. eigenvalues --    2.12860   2.12941   2.12979   2.13212   2.13425
 Alpha virt. eigenvalues --    2.13594   2.13797   2.13928   2.14460   2.14947
 Alpha virt. eigenvalues --    2.15068   2.15515   2.15596   2.16171   2.16650
 Alpha virt. eigenvalues --    2.16768   2.16818   2.17437   2.17595   2.17787
 Alpha virt. eigenvalues --    2.17947   2.18239   2.18521   2.18834   2.19294
 Alpha virt. eigenvalues --    2.19768   2.20329   2.20452   2.20647   2.21143
 Alpha virt. eigenvalues --    2.21361   2.21556   2.22460   2.22605   2.23070
 Alpha virt. eigenvalues --    2.23495   2.23645   2.23872   2.24101   2.24574
 Alpha virt. eigenvalues --    2.24747   2.25435   2.25600   2.25690   2.25870
 Alpha virt. eigenvalues --    2.26045   2.26270   2.26991   2.27058   2.27512
 Alpha virt. eigenvalues --    2.27556   2.28125   2.28689   2.28862   2.29322
 Alpha virt. eigenvalues --    2.29410   2.29603   2.30217   2.30225   2.30796
 Alpha virt. eigenvalues --    2.31168   2.31584   2.31934   2.32349   2.32568
 Alpha virt. eigenvalues --    2.32681   2.32872   2.33264   2.33514   2.33624
 Alpha virt. eigenvalues --    2.34295   2.34421   2.34746   2.34970   2.35535
 Alpha virt. eigenvalues --    2.35913   2.36142   2.36738   2.36817   2.37512
 Alpha virt. eigenvalues --    2.37684   2.37924   2.38014   2.38316   2.38361
 Alpha virt. eigenvalues --    2.38748   2.39105   2.39423   2.39722   2.40312
 Alpha virt. eigenvalues --    2.40701   2.40841   2.41679   2.41720   2.41895
 Alpha virt. eigenvalues --    2.42605   2.42903   2.43070   2.43189   2.43581
 Alpha virt. eigenvalues --    2.43635   2.44093   2.44723   2.45214   2.45669
 Alpha virt. eigenvalues --    2.45803   2.45912   2.46116   2.46588   2.46683
 Alpha virt. eigenvalues --    2.47133   2.47635   2.47746   2.47827   2.48298
 Alpha virt. eigenvalues --    2.48834   2.49187   2.49868   2.50144   2.50592
 Alpha virt. eigenvalues --    2.51060   2.51589   2.51908   2.51945   2.52951
 Alpha virt. eigenvalues --    2.53157   2.53328   2.53505   2.53899   2.54328
 Alpha virt. eigenvalues --    2.54617   2.54866   2.54975   2.55455   2.55645
 Alpha virt. eigenvalues --    2.56616   2.56778   2.57201   2.57436   2.57643
 Alpha virt. eigenvalues --    2.57894   2.58373   2.58883   2.59325   2.59527
 Alpha virt. eigenvalues --    2.59735   2.59905   2.60152   2.60605   2.60899
 Alpha virt. eigenvalues --    2.61456   2.61593   2.61728   2.62028   2.63035
 Alpha virt. eigenvalues --    2.63131   2.63331   2.63464   2.63637   2.63974
 Alpha virt. eigenvalues --    2.64420   2.64487   2.64676   2.65227   2.65455
 Alpha virt. eigenvalues --    2.65667   2.65854   2.66164   2.66516   2.66711
 Alpha virt. eigenvalues --    2.67008   2.67126   2.67534   2.67648   2.67779
 Alpha virt. eigenvalues --    2.68029   2.68121   2.68666   2.68853   2.69564
 Alpha virt. eigenvalues --    2.69794   2.70419   2.70509   2.70787   2.70803
 Alpha virt. eigenvalues --    2.70950   2.71295   2.71597   2.72003   2.72079
 Alpha virt. eigenvalues --    2.72280   2.72719   2.72823   2.72994   2.73243
 Alpha virt. eigenvalues --    2.73383   2.73542   2.73969   2.74123   2.74405
 Alpha virt. eigenvalues --    2.74435   2.74699   2.75149   2.75266   2.75663
 Alpha virt. eigenvalues --    2.75841   2.75994   2.76136   2.76174   2.76933
 Alpha virt. eigenvalues --    2.77168   2.77267   2.77836   2.77898   2.78254
 Alpha virt. eigenvalues --    2.78363   2.78872   2.78917   2.79142   2.79173
 Alpha virt. eigenvalues --    2.79853   2.80148   2.80217   2.80682   2.80948
 Alpha virt. eigenvalues --    2.81240   2.81641   2.81945   2.82560   2.82930
 Alpha virt. eigenvalues --    2.83553   2.83786   2.83869   2.84092   2.84399
 Alpha virt. eigenvalues --    2.84624   2.84701   2.84899   2.85217   2.85240
 Alpha virt. eigenvalues --    2.85981   2.86520   2.86858   2.86958   2.87258
 Alpha virt. eigenvalues --    2.87520   2.87705   2.88279   2.88747   2.88893
 Alpha virt. eigenvalues --    2.89414   2.90010   2.90278   2.90321   2.90658
 Alpha virt. eigenvalues --    2.90992   2.91191   2.91201   2.91942   2.92201
 Alpha virt. eigenvalues --    2.92302   2.92399   2.92844   2.93050   2.93510
 Alpha virt. eigenvalues --    2.94418   2.94565   2.94717   2.94850   2.95130
 Alpha virt. eigenvalues --    2.95331   2.95618   2.95999   2.96316   2.96633
 Alpha virt. eigenvalues --    2.96779   2.97002   2.97274   2.97526   2.98079
 Alpha virt. eigenvalues --    2.98290   2.98700   2.99012   2.99204   2.99476
 Alpha virt. eigenvalues --    2.99669   3.00070   3.00367   3.00707   3.01702
 Alpha virt. eigenvalues --    3.02265   3.02534   3.02706   3.02829   3.02951
 Alpha virt. eigenvalues --    3.03210   3.03599   3.04231   3.04370   3.04756
 Alpha virt. eigenvalues --    3.05009   3.05570   3.05678   3.06027   3.06998
 Alpha virt. eigenvalues --    3.07353   3.07736   3.08512   3.08811   3.09386
 Alpha virt. eigenvalues --    3.10387   3.10522   3.10866   3.11196   3.11397
 Alpha virt. eigenvalues --    3.12461   3.12780   3.12857   3.13272   3.13667
 Alpha virt. eigenvalues --    3.13943   3.14484   3.14814   3.15166   3.15796
 Alpha virt. eigenvalues --    3.16014   3.16568   3.17178   3.17354   3.17430
 Alpha virt. eigenvalues --    3.17473   3.18220   3.18538   3.18822   3.18916
 Alpha virt. eigenvalues --    3.19359   3.19786   3.19894   3.20120   3.20588
 Alpha virt. eigenvalues --    3.20820   3.20966   3.21137   3.21770   3.22117
 Alpha virt. eigenvalues --    3.22743   3.23475   3.23506   3.23804   3.24191
 Alpha virt. eigenvalues --    3.24547   3.24782   3.25581   3.26002   3.27747
 Alpha virt. eigenvalues --    3.27904   3.28896   3.30007   3.30547   3.30999
 Alpha virt. eigenvalues --    3.31855   3.31998   3.33644   3.34383   3.34632
 Alpha virt. eigenvalues --    3.34945   3.35487   3.36816   3.38747   3.40081
 Alpha virt. eigenvalues --    3.44281   3.44319   3.46909   3.49499   3.51012
 Alpha virt. eigenvalues --    3.51837   3.52136   3.53767   3.54191   3.55777
 Alpha virt. eigenvalues --    3.56063   3.56983   3.57954   3.58903   3.59182
 Alpha virt. eigenvalues --    3.59855   3.59887   3.60647   3.61911   3.62146
 Alpha virt. eigenvalues --    3.63097   3.66047   3.66732   3.67389   3.68192
 Alpha virt. eigenvalues --    3.68736   3.69575   3.69726   3.70116   3.70318
 Alpha virt. eigenvalues --    3.70526   3.70827   3.71000   3.71230   3.71329
 Alpha virt. eigenvalues --    3.72071   3.72675   3.73114   3.73333   3.73616
 Alpha virt. eigenvalues --    3.78188   3.78263   3.81325   3.85539
          Condensed to atoms (all electrons):
 Mulliken charges:
               1
     1  C    0.057904
     2  C    0.033869
     3  O   -0.292629
     4  H   -0.004870
     5  H    0.056148
     6  H    0.017246
     7  N   -0.110173
     8  C    0.043477
     9  C    0.043921
    10  O   -0.333430
    11  C    0.199157
    12  C    0.106887
    13  O   -0.428699
    14  O   -0.387297
    15  H    0.116379
    16  H    0.014610
    17  H   -0.013034
    18  H   -0.005187
    19  N   -0.127106
    20  C    0.115565
    21  C    0.070501
    22  O   -0.302008
    23  C    0.059934
    24  C   -0.012798
    25  C   -0.068888
    26  C    0.024730
    27  N    0.090235
    28  H    0.171813
    29  H   -0.000508
    30  H   -0.004680
    31  H    0.018911
    32  H    0.003079
    33  H    0.052816
    34  H    0.047687
    35  H    0.015038
    36  H    0.061881
    37  H    0.099280
    38  H    0.179302
    39  H    0.175403
    40  H    0.199584
    41  N   -0.141809
    42  C    0.140595
    43  C    0.038131
    44  O   -0.300004
    45  C    0.024352
    46  C    0.136465
    47  O   -0.473564
    48  O   -0.377712
    49  H    0.168315
    50  H    0.008998
    51  H    0.011833
    52  H    0.007980
    53  N   -0.161822
    54  C    0.224657
    55  C    0.003736
    56  O   -0.306615
    57  H    0.133155
    58  H    0.025777
    59  H    0.017743
    60  N   -0.143269
    61  C    0.173383
    62  C    0.032684
    63  O   -0.278426
    64  C    0.033403
    65  C    0.080992
    66  N   -0.035597
    67  O   -0.355377
    68  H    0.149735
    69  H    0.036078
    70  H    0.078636
    71  H    0.029376
    72  H    0.123502
    73  H    0.120813
    74  N   -0.145909
    75  C    0.206420
    76  C    0.045915
    77  O   -0.302200
    78  H    0.132935
    79  H    0.045926
    80  H    0.034641
    81  N   -0.124731
    82  C    0.111058
    83  C    0.142430
    84  O   -0.336173
    85  C    0.124130
    86  C   -0.013048
    87  C   -0.012778
    88  C    0.015485
    89  C    0.000315
    90  C   -0.019862
    91  C    0.157113
    92  O   -0.202497
    93  H    0.152134
    94  H   -0.000177
    95  H   -0.018601
    96  H   -0.039222
    97  H   -0.063749
    98  H   -0.029738
    99  H   -0.022136
   100  H   -0.045398
   101  H    0.172348
   102  N   -0.115476
   103  C    0.151856
   104  C    0.033886
   105  O   -0.291330
   106  C   -0.064806
   107  C    0.032672
   108  C    0.067766
   109  C   -0.026031
   110  H    0.134097
   111  H    0.012178
   112  H   -0.027666
   113  H   -0.009281
   114  H    0.013403
   115  H    0.005399
   116  H    0.010332
   117  H    0.013209
   118  H    0.002416
   119  H    0.011250
   120  H    0.040845
   121  N   -0.122914
   122  C    0.093461
   123  C    0.103698
   124  O   -0.286611
   125  C    0.230175
   126  O   -0.316481
   127  H    0.152087
   128  H    0.003962
   129  H   -0.026876
   130  H    0.028853
   131  H    0.191944
   132  N   -0.116507
   133  C    0.084897
   134  C    0.059461
   135  O   -0.243857
   136  C    0.041322
   137  H    0.102916
   138  H    0.025981
   139  H    0.055995
   140  H    0.034401
   141  H   -0.007826
   142  N   -0.143083
   143  C    0.085979
   144  C    0.095069
   145  O   -0.269284
   146  C    0.015733
   147  H    0.104653
   148  H    0.019229
   149  H    0.010775
   150  H    0.039065
   151  H    0.005247
   152  N   -0.157903
   153  C    0.135896
   154  C    0.081852
   155  O   -0.285736
   156  C   -0.062902
   157  C    0.099062
   158  C    0.199351
   159  O   -0.375078
   160  O   -0.485698
   161  H    0.115442
   162  H   -0.000869
   163  H    0.051907
   164  H    0.010224
   165  H   -0.013350
   166  H   -0.015539
   167  N   -0.169695
   168  C    0.129989
   169  H    0.022757
   170  H    0.035129
   171  H    0.000401
   172  H    0.125686
   173  Ca   1.270911
   174  O   -0.300423
   175  H    0.190777
   176  H    0.176802
 Sum of Mulliken charges =  -0.00000
 Mulliken charges with hydrogens summed into heavy atoms:
               1
     1  C    0.126427
     2  C    0.033869
     3  O   -0.292629
     7  N    0.006206
     8  C    0.058087
     9  C    0.043921
    10  O   -0.333430
    11  C    0.180937
    12  C    0.106887
    13  O   -0.428699
    14  O   -0.387297
    19  N    0.044707
    20  C    0.115057
    21  C    0.070501
    22  O   -0.302008
    23  C    0.074166
    24  C    0.043097
    25  C   -0.006163
    26  C    0.185891
    27  N    0.644523
    41  N    0.026506
    42  C    0.149593
    43  C    0.038131
    44  O   -0.300004
    45  C    0.044165
    46  C    0.136465
    47  O   -0.473564
    48  O   -0.377712
    53  N   -0.028667
    54  C    0.268177
    55  C    0.003736
    56  O   -0.306615
    60  N    0.006466
    61  C    0.209460
    62  C    0.032684
    63  O   -0.278426
    64  C    0.141415
    65  C    0.080992
    66  N    0.208719
    67  O   -0.355377
    74  N   -0.012974
    75  C    0.286987
    76  C    0.045915
    77  O   -0.302200
    81  N    0.027404
    82  C    0.110881
    83  C    0.142430
    84  O   -0.336173
    85  C    0.066307
    86  C   -0.013048
    87  C   -0.076528
    88  C   -0.014253
    89  C   -0.021821
    90  C   -0.065260
    91  C    0.157113
    92  O   -0.030149
   102  N    0.018620
   103  C    0.164034
   104  C    0.033886
   105  O   -0.291330
   106  C   -0.092472
   107  C    0.036793
   108  C    0.096707
   109  C    0.028480
   121  N    0.029173
   122  C    0.097424
   123  C    0.103698
   124  O   -0.286611
   125  C    0.232152
   126  O   -0.124537
   132  N   -0.013591
   133  C    0.110878
   134  C    0.059461
   135  O   -0.243857
   136  C    0.123891
   142  N   -0.038430
   143  C    0.105208
   144  C    0.095069
   145  O   -0.269284
   146  C    0.070820
   152  N   -0.042462
   153  C    0.135028
   154  C    0.081852
   155  O   -0.285736
   156  C   -0.000771
   157  C    0.070173
   158  C    0.199351
   159  O   -0.375078
   160  O   -0.485698
   167  N   -0.044009
   168  C    0.188276
   173  Ca   1.270911
   174  O    0.067156
 DipInt: DoE/N= T F RetVal/Mat= T F Init=T NMatP=  1 IDeriv=0 Min/MaxMlt=  0  4
 Entering OneElI...
 OneElI was handed  1333951383 working-precision words.
 Multipole integrals L=0 to 4 MinM= 0 MaxM= 0.
 Requested accuracy = 0.1000D-12
 ShPair: Thresh= 1.00D-13 NBox=     0 BxSize= 0.00D+00 RnKept= 2.55D+01
         NSMCal=               327645 NSMKep=              160957
 PrmmSu-InSpLW:  IPartL=    0 NPrtUS=    1 NPrtUL=    1 DoSpLW=F IThBeg=    0 IThEnd=    0 NThAct=    1.
 PrsmSu:  NPrtUS=   1 ThrOK=F IAlg=1 NPAlg=1 LenDen=           0 ISkipM=0 DoSpLW=F IThBeg=    0 IThEnd=    0.
 Prism:   IPart=     0 DynPar=F LinDyn=F Incr=         512.
 PRISM was handed  1323858039 working-precision words and160957 shell-pairs
 IPart=  0 NShTot=      160957 NBatch=         366 AvBLen=       439.8
 PrsmSu-ThDecC:  IPartSL=    0    0 NPrtUSL=    1    1 IThBeg=    0 IThEnd=    0 CPU=   -1 GPU=   -1 NThAct=    1.
 PrSmSu:  NxtVal=            513.
 Electronic moments (au):
       -716.00000000         10.27056817         -1.57827174         -1.70351162
     -52744.49899912     -31403.06643091     -11431.40542252        146.40765404
         -6.09155051         82.85399318      61998.90706003     -38175.88593593
      -6923.04556449     -29851.91004768     101604.37427751       7435.45453476
     -20876.84755274      -1994.77627349      19367.51767789     -43977.37203849
   -7893364.26272476   -2611406.57055610    -449941.35268513    -602380.90994548
     274054.19617651    -162945.49574695      -3325.90072099     -52937.93785713
     -24199.76322530   -2405370.60879364    -687738.57583600    -450702.36124997
    -182865.23667794      56923.44185931      86754.03453124
 Electronic spatial extent (au):  <R**2>=          95578.9709
 DipInt: DoE/N= F T RetVal/Mat= T F Init=T NMatP=  1 IDeriv=0 Min/MaxMlt=  0  4
 Nuclear    moments (au):
        716.00000000         -0.00000000          0.00000000          0.00000000
      52337.76368731      31077.00616898      11028.55689315          0.00000000
          0.00000000         -0.00000000     -60821.13787515      38496.44809277
       6902.79146012      31730.11548395    -100552.47641664      -7693.92404819
      21186.02441144       1697.94624559     -19082.59025713      44374.31120887
    7706006.00507626    2518157.65153787     410817.96489111     632883.66036167
    -274422.99327183     186116.73052540      11692.59505936      53572.64606294
      28814.55858287    2380259.63650966     651995.84371201     427254.42336296
     188182.26717330     -56977.73759204     -86778.29070420
 Total      moments (au):
         -0.00000000         10.27056817         -1.57827174         -1.70351162
       -406.73531180       -326.06026193       -402.84852938        146.40765404
         -6.09155051         82.85399318       1177.76918487        320.56215684
        -20.25410437       1878.20543627       1051.89786087       -258.46951343
        309.17685870       -296.83002790        284.92742076        396.93917038
    -187358.25764849     -93248.91901823     -39123.38779401      30502.75041618
       -368.79709532      23171.23477845       8366.69433837        634.70820581
       4614.79535758     -25110.97228399     -35742.73212399     -23447.93788701
       5317.03049536        -54.29573272        -24.25617296
 Traceless Quadrup. (au):
        -28.18727743         52.48777244        -24.30049501        146.40765404
         -6.09155051         82.85399318
 Charge=             -0.0000 electrons
 Dipole moment (field-independent basis, Debye):
    X=             26.1052    Y=             -4.0116    Z=             -4.3299  Tot=             26.7642
 Quadrupole moment (field-independent basis, Debye-Ang):
   XX=           -547.0729   YY=           -438.5622   ZZ=           -541.8451
   XY=            196.9233   XZ=             -8.1933   YZ=            111.4415
 Traceless Quadrupole moment (field-independent basis, Debye-Ang):
   XX=            -37.9129   YY=             70.5979   ZZ=            -32.6850
   XY=            196.9233   XZ=             -8.1933   YZ=            111.4415
 Octapole moment (field-independent basis, Debye-Ang**2):
  XXX=            838.2907  YYY=            228.1638  ZZZ=            -14.4161  XYY=           1336.8343
  XXY=            748.7004  XXZ=           -183.9686  XZZ=            220.0602  YZZ=           -211.2722
  YYZ=            202.8004  XYZ=            282.5260
 Hexadecapole moment (field-independent basis, Debye-Ang**3):
 XXXX=         -70568.1040 YYYY=         -35122.0143 ZZZZ=         -14735.7439 XXXY=          11488.7985
 XXXZ=           -138.9067 YYYX=           8727.3981 YYYZ=           3151.2983 ZZZX=            239.0615
 ZZZY=           1738.1532 XXYY=          -9457.9963 XXZZ=         -13462.4268 YYZZ=          -8831.6178
 XXYZ=           2002.6486 YYXZ=            -20.4504 ZZXY=             -9.1360
 N-N= 2.170644791498D+04 E-N=-5.589429581229D+04  KE= 5.290450529309D+03
 Leave Link  601 at Sat Sep 14 22:37:35 2019, MaxMem=  1342177280 cpu:              42.5 elap:               1.1
 FitSet:  NAtFit=   176 NAtPot=   176 NAtFrz=     0 MDM=   180 TotChg=   0.00000
 Merz-Kollman atomic radii used.
 Read replacement radii for each type of atom:
 Rad(20) =   1.700000000000D+00
 Atom Element Radius
    1     6    1.50
    2     6    1.50
    3     8    1.40
    4     1    1.20
    5     1    1.20
    6     1    1.20
    7     7    1.50
    8     6    1.50
    9     6    1.50
   10     8    1.40
   11     6    1.50
   12     6    1.50
   13     8    1.40
   14     8    1.40
   15     1    1.20
   16     1    1.20
   17     1    1.20
   18     1    1.20
   19     7    1.50
   20     6    1.50
   21     6    1.50
   22     8    1.40
   23     6    1.50
   24     6    1.50
   25     6    1.50
   26     6    1.50
   27     7    1.50
   28     1    1.20
   29     1    1.20
   30     1    1.20
   31     1    1.20
   32     1    1.20
   33     1    1.20
   34     1    1.20
   35     1    1.20
   36     1    1.20
   37     1    1.20
   38     1    1.20
   39     1    1.20
   40     1    1.20
   41     7    1.50
   42     6    1.50
   43     6    1.50
   44     8    1.40
   45     6    1.50
   46     6    1.50
   47     8    1.40
   48     8    1.40
   49     1    1.20
   50     1    1.20
   51     1    1.20
   52     1    1.20
   53     7    1.50
   54     6    1.50
   55     6    1.50
   56     8    1.40
   57     1    1.20
   58     1    1.20
   59     1    1.20
   60     7    1.50
   61     6    1.50
   62     6    1.50
   63     8    1.40
   64     6    1.50
   65     6    1.50
   66     7    1.50
   67     8    1.40
   68     1    1.20
   69     1    1.20
   70     1    1.20
   71     1    1.20
   72     1    1.20
   73     1    1.20
   74     7    1.50
   75     6    1.50
   76     6    1.50
   77     8    1.40
   78     1    1.20
   79     1    1.20
   80     1    1.20
   81     7    1.50
   82     6    1.50
   83     6    1.50
   84     8    1.40
   85     6    1.50
   86     6    1.50
   87     6    1.50
   88     6    1.50
   89     6    1.50
   90     6    1.50
   91     6    1.50
   92     8    1.40
   93     1    1.20
   94     1    1.20
   95     1    1.20
   96     1    1.20
   97     1    1.20
   98     1    1.20
   99     1    1.20
  100     1    1.20
  101     1    1.20
  102     7    1.50
  103     6    1.50
  104     6    1.50
  105     8    1.40
  106     6    1.50
  107     6    1.50
  108     6    1.50
  109     6    1.50
  110     1    1.20
  111     1    1.20
  112     1    1.20
  113     1    1.20
  114     1    1.20
  115     1    1.20
  116     1    1.20
  117     1    1.20
  118     1    1.20
  119     1    1.20
  120     1    1.20
  121     7    1.50
  122     6    1.50
  123     6    1.50
  124     8    1.40
  125     6    1.50
  126     8    1.40
  127     1    1.20
  128     1    1.20
  129     1    1.20
  130     1    1.20
  131     1    1.20
  132     7    1.50
  133     6    1.50
  134     6    1.50
  135     8    1.40
  136     6    1.50
  137     1    1.20
  138     1    1.20
  139     1    1.20
  140     1    1.20
  141     1    1.20
  142     7    1.50
  143     6    1.50
  144     6    1.50
  145     8    1.40
  146     6    1.50
  147     1    1.20
  148     1    1.20
  149     1    1.20
  150     1    1.20
  151     1    1.20
  152     7    1.50
  153     6    1.50
  154     6    1.50
  155     8    1.40
  156     6    1.50
  157     6    1.50
  158     6    1.50
  159     8    1.40
  160     8    1.40
  161     1    1.20
  162     1    1.20
  163     1    1.20
  164     1    1.20
  165     1    1.20
  166     1    1.20
  167     7    1.50
  168     6    1.50
  169     1    1.20
  170     1    1.20
  171     1    1.20
  172     1    1.20
  173    20    1.70
  174     8    1.40
[...]
 **** Fit       0.021013
 **** Fit       0.022824
 **** Fit       0.025311
 **** Fit       0.028109
 **** Fit       0.030572
 **** Fit       0.032020
 **** Fit       0.032081
 **** Fit       0.030865
 **** Fit       0.028832
 **** Fit       0.026508
 **** Fit       0.024288
 **** Fit       0.022406
 **** Fit       0.021801
 **** Fit       0.020760
 **** Fit       0.020395
 **** Fit       0.020721
 **** Fit       0.021870
 **** Fit       0.023898
 **** Fit       0.026377
 **** Fit       0.028310
 **** Fit       0.028770
 **** Fit       0.027651
 **** Fit       0.025624
 **** Fit       0.023496
 **** Fit       0.022716
 **** Fit       0.021883
 **** Fit       0.022796
 **** Fit       0.024950
 **** Fit       0.026025
 **** Fit       0.024699
 **** Fit       0.023750
 **** Fit      -0.047786
 **** Fit      -0.043931
 **** Fit      -0.032812
 **** Fit      -0.033483
 **** Fit      -0.032927
 **** Fit      -0.032071
 **** Fit      -0.032018
 **** Fit      -0.032364
 **** Fit      -0.032971
 **** Fit      -0.034042
 **** Fit      -0.033750
 **** Fit      -0.032810
 **** Fit      -0.031655
 **** Fit      -0.030835
 **** Fit      -0.030771
 **** Fit      -0.031118
 **** Fit      -0.031390
 **** Fit      -0.031505
 **** Fit      -0.031696
 **** Fit      -0.032414
 **** Fit      -0.033472
 **** Fit      -0.034520
 **** Fit      -0.034373
 **** Fit      -0.033636
 **** Fit      -0.032548
 **** Fit      -0.031305
 **** Fit      -0.030065
 **** Fit      -0.029208
 **** Fit      -0.029178
 **** Fit      -0.029685
 **** Fit      -0.030146
 **** Fit      -0.030367
 **** Fit      -0.030387
 **** Fit      -0.030205
 **** Fit      -0.033890
 **** Fit      -0.034959
 **** Fit      -0.034891
 **** Fit      -0.034283
 **** Fit      -0.033325
 **** Fit      -0.032195
 **** Fit      -0.031013
 **** Fit      -0.029775
 **** Fit      -0.028122
 **** Fit      -0.028785
 **** Fit      -0.029119
 **** Fit      -0.029190
 **** Fit      -0.029132
 **** Fit      -0.028959
 **** Fit      -0.034311
 **** Fit      -0.035402
 **** Fit      -0.035359
 **** Fit      -0.034790
 **** Fit      -0.033859
 **** Fit      -0.032733
 **** Fit      -0.031582
 **** Fit      -0.030534
 **** Fit      -0.027882
 **** Fit      -0.028022
 **** Fit      -0.027892
 **** Fit      -0.027687
 **** Fit      -0.027513
 **** Fit      -0.027327
 **** Fit      -0.034749
 **** Fit      -0.035893
 **** Fit      -0.035844
 **** Fit      -0.035267
 **** Fit      -0.034303
 **** Fit      -0.033108
 **** Fit      -0.031864
 **** Fit      -0.030775
 **** Fit      -0.030024
 **** Fit      -0.025847
 **** Fit      -0.035256
 **** Fit      -0.036476
 **** Fit      -0.036416
 **** Fit      -0.035839
 **** Fit      -0.034857
 **** Fit      -0.033600
 **** Fit      -0.032235
 **** Fit      -0.030983
 **** Fit      -0.030114
 **** Fit      -0.035895
 **** Fit      -0.037211
 **** Fit      -0.037140
 **** Fit      -0.036547
 **** Fit      -0.035521
 **** Fit      -0.034170
 **** Fit      -0.032650
 **** Fit      -0.031191
 **** Fit      -0.030112
 **** Fit      -0.029844
 **** Fit      -0.035385
 **** Fit      -0.036669
 **** Fit      -0.038179
 **** Fit      -0.038106
 **** Fit      -0.037463
 **** Fit      -0.036321
 **** Fit      -0.034782
 **** Fit      -0.033014
 **** Fit      -0.031288
 **** Fit      -0.030016
 **** Fit      -0.029816
 **** Fit      -0.036341
 **** Fit      -0.037620
 **** Fit      -0.039507
 **** Fit      -0.039477
 **** Fit      -0.038828
 **** Fit      -0.037603
 **** Fit      -0.035892
 **** Fit      -0.033862
 **** Fit      -0.031804
 **** Fit      -0.030183
 **** Fit      -0.029732
 **** Fit      -0.031574
 **** Fit      -0.037584
 **** Fit      -0.038888
 **** Fit      -0.041380
 **** Fit      -0.041461
 **** Fit      -0.040830
 **** Fit      -0.039500
 **** Fit      -0.037549
 **** Fit      -0.035156
 **** Fit      -0.032646
 **** Fit      -0.030551
 **** Fit      -0.029708
 **** Fit      -0.031398
 **** Fit      -0.039142
 **** Fit      -0.040603
 **** Fit      -0.044078
 **** Fit      -0.044387
 **** Fit      -0.043820
 **** Fit      -0.042343
 **** Fit      -0.040024
 **** Fit      -0.037073
 **** Fit      -0.033880
 **** Fit      -0.031069
 **** Fit      -0.029576
 **** Fit      -0.041183
 **** Fit      -0.042981
 **** Fit      -0.048006
 **** Fit      -0.048763
 **** Fit      -0.048402
 **** Fit      -0.046802
 **** Fit      -0.044007
 **** Fit      -0.040265
 **** Fit      -0.036032
 **** Fit      -0.044015
 **** Fit      -0.046347
 **** Fit       0.011461
 **** Fit       0.012548
 **** Fit       0.012413
 **** Fit       0.010429
 **** Fit       0.010496
 **** Fit       0.006814
 **** Fit       0.003081
 **** Fit      -0.001825
 **** Fit      -0.006036
 **** Fit      -0.002959
 **** Fit      -0.011303
 **** Fit      -0.012788
 **** Fit      -0.004027
 **** Fit      -0.000178
 **** Fit      -0.008643
 **** Fit      -0.013990
 **** Fit      -0.009666
 **** Fit      -0.001031
 **** Fit       0.003540
 **** Fit      -0.005124
 **** Fit      -0.017185
 **** Fit      -0.022672
 **** Fit      -0.016334
 **** Fit      -0.014125
 **** Fit      -0.023151
 **** Fit      -0.029519
 **** Fit      -0.036434
 **** Fit      -0.027485
 **** Fit      -0.021687
 **** Fit      -0.029543
 **** Fit      -0.025440
 **** Fit      -0.017818
 **** Fit      -0.031787
 **** Fit      -0.021109
 **** Fit      -0.011805
 **** Fit      -0.004776
 **** Fit      -0.020157
 **** Fit      -0.009357
 **** Fit      -0.000253
 **** Fit      -0.008966
 **** Fit       0.001661
 **** Fit       0.010046
 **** Fit       0.003455
 **** Fit       0.012463
 **** Fit       0.004739
 **** Fit       0.013268
 **** Fit       0.004552
 **** Fit       0.011873
 **** Fit       0.006329
 **** Fit       0.012889
 **** Fit       0.011977
 **** Fit       0.007938
 **** Fit       0.010080
 **** Fit       0.006268
 **** Fit       0.003765
 **** Fit       0.003788
 **** Fit       0.007123
 **** Fit       0.012300
 **** Fit       0.010008
 **** Fit       0.011387
 **** Fit       0.016424
 **** Fit       0.020053
 **** Fit       0.027144
 **** Fit       0.006465
 **** Fit       0.009118
 **** Fit       0.012480
 **** Fit      -0.013862
 **** Fit      -0.011758
 **** Fit      -0.010540
 **** Fit      -0.010159
 **** Fit      -0.016535
 **** Fit      -0.013594
 **** Fit      -0.011482
 **** Fit      -0.010034
 **** Fit      -0.009162
 **** Fit      -0.008824
 **** Fit      -0.008941
 **** Fit      -0.009439
 **** Fit      -0.017930
 **** Fit      -0.014359
 **** Fit      -0.011884
 **** Fit      -0.007590
 **** Fit      -0.007902
 **** Fit      -0.008458
 **** Fit      -0.009255
 **** Fit      -0.010320
 **** Fit      -0.021355
 **** Fit      -0.007141
 **** Fit      -0.007761
 **** Fit      -0.008540
 **** Fit      -0.009506
 **** Fit      -0.010694
 **** Fit      -0.006305
 **** Fit      -0.006972
 **** Fit      -0.007745
 **** Fit      -0.008664
 **** Fit      -0.009765
 **** Fit      -0.011085
 **** Fit      -0.005596
 **** Fit      -0.006315
 **** Fit      -0.007094
 **** Fit      -0.007976
 **** Fit      -0.009003
 **** Fit      -0.010213
 **** Fit      -0.011643
 **** Fit      -0.013344
 **** Fit      -0.016251
 **** Fit      -0.005637
 **** Fit      -0.006444
 **** Fit      -0.007309
 **** Fit      -0.008278
 **** Fit      -0.009395
 **** Fit      -0.010702
 **** Fit      -0.012241
 **** Fit      -0.014062
 **** Fit      -0.017134
 **** Fit      -0.019896
 **** Fit      -0.005065
 **** Fit      -0.005919
 **** Fit      -0.006789
 **** Fit      -0.007715
 **** Fit      -0.008744
 **** Fit      -0.009928
 **** Fit      -0.011313
 **** Fit      -0.012942
 **** Fit      -0.014859
 **** Fit      -0.018083
 **** Fit      -0.020916
 **** Fit      -0.024395
 **** Fit      -0.028848
 **** Fit      -0.004385
 **** Fit      -0.005332
 **** Fit      -0.006259
 **** Fit      -0.007189
 **** Fit      -0.025795
 **** Fit      -0.030306
 **** Fit      -0.036197
 **** Fit      -0.004334
 **** Fit      -0.005435
 **** Fit      -0.006496
 **** Fit      -0.027394
 **** Fit      -0.031847
 **** Fit      -0.037441
 **** Fit      -0.004461
 **** Fit      -0.005783
 **** Fit      -0.033723
 **** Fit      -0.038896
 **** Fit      -0.003194
 **** Fit      -0.004861
 **** Fit      -0.036802
 **** Fit      -0.041827
 **** Fit      -0.002484
 **** Fit      -0.004712
 **** Fit      -0.000862
 **** Fit      -0.003771
 **** Fit      -0.007167
 **** Fit      -0.015361
 **** Fit      -0.008043
 **** Fit      -0.009005
 **** Fit      -0.010168
 **** Fit      -0.011575
 **** Fit      -0.013281
 **** Fit      -0.016023
 **** Fit      -0.018626
 **** Fit      -0.007472
 **** Fit      -0.008367
 **** Fit      -0.009415
 **** Fit      -0.010653
 **** Fit      -0.012125
 **** Fit      -0.013890
 **** Fit      -0.016997
 **** Fit      -0.019584
 **** Fit      -0.022728
 **** Fit      -0.006364
 **** Fit      -0.007179
 **** Fit      -0.008078
 **** Fit      -0.009083
 **** Fit      -0.010219
 **** Fit      -0.011526
 **** Fit      -0.013050
 **** Fit      -0.014849
 **** Fit      -0.018456
 **** Fit      -0.021069
 **** Fit      -0.024205
 **** Fit      -0.027973
 **** Fit      -0.006060
 **** Fit      -0.007009
 **** Fit      -0.008010
 **** Fit      -0.009068
 **** Fit      -0.010200
 **** Fit      -0.011439
 **** Fit      -0.012827
 **** Fit      -0.014415
 **** Fit      -0.016268
 **** Fit      -0.020616
 **** Fit      -0.023377
 **** Fit      -0.026683
 **** Fit      -0.030612
 **** Fit      -0.035167
 **** Fit      -0.006579
 **** Fit      -0.007852
 **** Fit      -0.009140
 **** Fit      -0.010433
 **** Fit      -0.011750
 **** Fit      -0.013135
 **** Fit      -0.014643
 **** Fit      -0.016340
 **** Fit      -0.018303
 **** Fit      -0.023781
 **** Fit      -0.026729
 **** Fit      -0.030267
 **** Fit      -0.034434
 **** Fit      -0.039093
 **** Fit      -0.007453
 **** Fit      -0.009238
 **** Fit      -0.010975
 **** Fit      -0.012619
 **** Fit      -0.014195
 **** Fit      -0.015766
 **** Fit      -0.017415
 **** Fit      -0.019233
 **** Fit      -0.021320
 **** Fit      -0.028441
 **** Fit      -0.031486
 **** Fit      -0.035122
 **** Fit      -0.039319
 **** Fit      -0.043734
 **** Fit      -0.018407
 **** Fit      -0.020143
 **** Fit      -0.021884
 **** Fit      -0.023762
 **** Fit      -0.025906
 **** Fit      -0.016171
 **** Fit      -0.015910
 **** Fit      -0.018745
 **** Fit      -0.019184
 **** Fit      -0.016559
 **** Fit      -0.014207
 **** Fit      -0.013954
 **** Fit      -0.015820
 **** Fit      -0.018890
 **** Fit      -0.022105
 **** Fit      -0.024001
 **** Fit      -0.023285
 **** Fit      -0.020394
 **** Fit      -0.017016
 **** Fit      -0.014352
 **** Fit      -0.012705
 **** Fit      -0.012042
 **** Fit      -0.012333
 **** Fit      -0.013587
 **** Fit      -0.015935
 **** Fit      -0.018925
 **** Fit      -0.022582
 **** Fit      -0.026453
 **** Fit      -0.029533
 **** Fit      -0.030551
 **** Fit      -0.028905
 **** Fit      -0.025302
 **** Fit      -0.021134
 **** Fit      -0.017467
 **** Fit      -0.014701
 **** Fit      -0.012774
 **** Fit      -0.010862
 **** Fit      -0.010744
 **** Fit      -0.011161
 **** Fit      -0.012127
 **** Fit      -0.013692
 **** Fit      -0.016280
 **** Fit      -0.019300
 **** Fit      -0.023154
 **** Fit      -0.027801
 **** Fit      -0.024302
 **** Fit      -0.019700
 **** Fit      -0.010221
 **** Fit      -0.011040
 **** Fit      -0.012273
 **** Fit      -0.013983
 **** Fit      -0.016870
 **** Fit      -0.019987
 **** Fit      -0.024040
 **** Fit      -0.029209
 **** Fit      -0.025306
 **** Fit      -0.011242
 **** Fit      -0.012651
 **** Fit      -0.014484
 **** Fit      -0.017719
 **** Fit      -0.020865
 **** Fit      -0.024968
 **** Fit      -0.030328
 **** Fit      -0.013355
 **** Fit      -0.015279
 **** Fit      -0.018831
 **** Fit      -0.022179
 **** Fit      -0.026581
 **** Fit      -0.032463
 **** Fit      -0.016228
 **** Fit      -0.020203
 **** Fit      -0.023687
 **** Fit      -0.028258
 **** Fit      -0.034409
 **** Fit      -0.025491
 **** Fit      -0.030277
 **** Fit      -0.009748
 **** Fit      -0.008437
 **** Fit      -0.009192
 **** Fit      -0.007701
 **** Fit      -0.006935
 **** Fit      -0.006936
 **** Fit      -0.007648
 **** Fit      -0.010467
 **** Fit      -0.008574
 **** Fit      -0.007223
 **** Fit      -0.006226
 **** Fit      -0.005650
 **** Fit      -0.005555
 **** Fit      -0.005928
 **** Fit      -0.006700
 **** Fit      -0.006346
 **** Fit      -0.005356
 **** Fit      -0.004685
 **** Fit      -0.004408
 **** Fit      -0.004528
 **** Fit      -0.005007
 **** Fit      -0.005780
 **** Fit      -0.005105
 **** Fit      -0.004157
 **** Fit      -0.003590
 **** Fit      -0.003410
 **** Fit      -0.003595
 **** Fit      -0.004103
 **** Fit      -0.004872
 **** Fit      -0.005183
 **** Fit      -0.003924
 **** Fit      -0.003084
 **** Fit      -0.002630
 **** Fit      -0.002539
 **** Fit      -0.002784
 **** Fit      -0.003326
 **** Fit      -0.004109
 **** Fit      -0.005066
 **** Fit      -0.003611
 **** Fit      -0.002581
 **** Fit      -0.001966
 **** Fit      -0.001735
 **** Fit      -0.001871
 **** Fit      -0.002343
 **** Fit      -0.003100
 **** Fit      -0.004076
 **** Fit      -0.002162
 **** Fit      -0.001408
 **** Fit      -0.001034
 **** Fit      -0.001045
 **** Fit      -0.001428
 **** Fit      -0.002142
 **** Fit      -0.003127
 **** Fit      -0.004302
 **** Fit      -0.002207
 **** Fit      -0.001209
 **** Fit      -0.000543
 **** Fit      -0.000283
 **** Fit      -0.000448
 **** Fit      -0.001022
 **** Fit      -0.001957
 **** Fit      -0.003177
 **** Fit      -0.001007
 **** Fit      -0.000074
 **** Fit       0.000384
 **** Fit       0.000309
 **** Fit      -0.000295
 **** Fit      -0.001379
 **** Fit      -0.002851
 **** Fit      -0.001863
 **** Fit      -0.000240
 **** Fit       0.000779
 **** Fit       0.001093
 **** Fit       0.000673
 **** Fit      -0.000448
 **** Fit      -0.002171
 **** Fit      -0.001589
 **** Fit       0.000472
 **** Fit       0.001516
 **** Fit       0.001534
 **** Fit       0.000537
 **** Fit      -0.001387
 **** Fit       0.001356
 **** Fit       0.001771
 **** Fit      -0.009031
 **** Fit      -0.019740
 **** Fit      -0.013543
 **** Fit       0.043966
 **** Fit       0.048042
 **** Fit       0.016979
 **** Fit       0.023344
 **** Fit       0.023028
 **** Fit       0.021897
 **** Fit       0.028291
 **** Fit       0.028368
 **** Fit       0.028402
 **** Fit       0.028288
 **** Fit       0.028346
 **** Fit       0.034078
 **** Fit       0.033393
 **** Fit       0.033545
 **** Fit       0.034099
 **** Fit       0.035026
 **** Fit       0.036605
 **** Fit       0.038760
 **** Fit       0.038480
 **** Fit       0.039260
 **** Fit       0.040807
 **** Fit       0.043445
 **** Fit       0.044137
 **** Fit       0.052109
 **** Fit       0.052052
 **** Fit       0.003076
 **** Fit       0.001518
 **** Fit       0.048206
 **** Fit       0.016585
 **** Fit       0.043189
 -----------------------------------------------------------------
 Leave Link  602 at Sat Sep 14 22:37:37 2019, MaxMem=  1342177280 cpu:             106.3 elap:               2.3

 Test job not archived.
 1\1\GINC-C496-064\SP\RB3LYP\SVP\C54H83Ca1N15O23\PENGZHI\14-Sep-2019\0\
 \#b3lyp/svp scf=(tight,noincore) Test #IOP(5/87=12) Density=Current Po
 p=(MK,readradii) iop(6/33=2) iop(6/42=6)\\holoCaM_loop3_76.0\\0,1\C,0,
 54.79,47.05,34.33\C,0,54.71,45.67,34.97\O,0,53.8,45.49,35.77\H,0,55.82
 7,47.276,34.084\H,0,54.19,47.065,33.42\H,0,54.412,47.797,35.028\N,0,55
 .7,44.81,34.69\C,0,55.91,43.55,35.36\C,0,56.58,43.68,36.72\O,0,57.43,4
 4.55,36.92\C,0,56.59,42.46,34.55\C,0,56.36,41.05,35.07\O,0,55.46,40.31
 ,34.61\O,0,57.12,40.56,35.94\H,0,56.45,45.13,34.1\H,0,54.89,43.24,35.5
 8\H,0,57.65,42.71,34.57\H,0,56.32,42.62,33.5\N,0,56.35,42.73,37.63\C,0
 ,56.66,42.79,39.05\C,0,57.29,41.53,39.63\O,0,57.58,41.54,40.82\C,0,55.
 41,43.2,39.82\C,0,54.89,44.61,39.54\C,0,55.85,45.79,39.74\C,0,55.13,47
 .1,39.42\N,0,56.07,48.2,39.69\H,0,55.71,42.,37.36\H,0,57.4,43.56,39.24
 \H,0,55.8,43.22,40.84\H,0,54.63,42.46,39.66\H,0,54.05,44.7,40.23\H,0,5
 4.53,44.6,38.52\H,0,56.62,45.79,38.96\H,0,56.21,45.81,40.77\H,0,54.27,
 47.16,40.09\H,0,54.76,47.05,38.4\H,0,55.69,49.12,39.87\H,0,56.42,48.,4
 0.62\H,0,56.85,48.28,39.05\N,0,57.48,40.48,38.82\C,0,58.11,39.31,39.39
 \C,0,58.97,38.53,38.41\O,0,59.7,37.62,38.81\C,0,56.99,38.4,39.9\C,0,55
 .9,37.88,38.97\O,0,55.9,38.21,37.76\O,0,55.04,37.16,39.51\H,0,56.95,40
 .39,37.97\H,0,58.8,39.55,40.2\H,0,56.61,38.92,40.78\H,0,57.49,37.53,40
 .33\N,0,58.85,38.82,37.11\C,0,59.58,38.23,36.01\C,0,59.09,36.93,35.38\
 O,0,59.9,36.4,34.62\H,0,58.21,39.55,36.82\H,0,60.6,38.05,36.32\H,0,59.
 55,38.99,35.23\N,0,57.93,36.41,35.78\C,0,57.36,35.12,35.42\C,0,57.05,3
 4.76,33.98\O,0,56.72,33.62,33.67\C,0,56.2,34.79,36.36\C,0,54.88,35.4,3
 5.91\N,0,53.79,34.84,36.44\O,0,54.74,36.33,35.12\H,0,57.5,36.89,36.55\
 H,0,58.19,34.47,35.71\H,0,56.35,35.16,37.37\H,0,56.06,33.71,36.41\H,0,
 53.87,34.04,37.04\H,0,52.86,35.03,36.09\N,0,57.31,35.66,33.02\C,0,56.8
 8,35.58,31.64\C,0,55.54,36.23,31.32\O,0,55.4,36.51,30.13\H,0,57.79,36.
 5,33.31\H,0,56.72,34.53,31.4\H,0,57.75,35.9,31.05\N,0,54.61,36.43,32.2
 6\C,0,53.23,36.78,32.01\C,0,52.8,38.11,32.61\O,0,53.64,38.57,33.4\C,0,
 52.39,35.56,32.37\C,0,52.89,34.21,31.92\C,0,53.52,33.36,32.84\C,0,52.5
 8,33.8,30.62\C,0,53.92,32.08,32.42\C,0,52.96,32.52,30.2\C,0,53.6,31.65
 ,31.12\O,0,53.97,30.38,30.82\H,0,54.84,36.13,33.2\H,0,53.12,36.84,30.9
 3\H,0,51.43,35.74,31.89\H,0,52.36,35.51,33.46\H,0,53.79,33.64,33.85\H,
 0,52.14,34.58,30.01\H,0,54.51,31.49,33.1\H,0,52.71,32.14,29.22\H,0,53.
 51,30.,30.07\N,0,51.63,38.67,32.32\C,0,51.13,39.83,33.02\C,0,49.91,39.
 39,33.81\O,0,49.08,38.6,33.35\C,0,51.06,40.97,32.01\C,0,52.41,41.63,31
 .71\C,0,50.09,42.06,32.44\C,0,53.02,42.43,32.85\H,0,50.99,38.21,31.68\
 H,0,51.84,40.19,33.77\H,0,50.71,40.5,31.09\H,0,52.22,42.24,30.83\H,0,5
 3.21,40.94,31.47\H,0,50.11,42.94,31.81\H,0,49.08,41.65,32.52\H,0,50.37
 ,42.47,33.41\H,0,53.99,42.87,32.61\H,0,52.36,43.24,33.16\H,0,53.14,41.
 74,33.69\N,0,49.8,39.91,35.04\C,0,48.77,39.59,36.01\C,0,47.8,40.75,36.
 16\O,0,48.12,41.89,35.8\C,0,49.33,39.2,37.37\O,0,50.02,37.98,37.44\H,0
 ,50.62,40.29,35.48\H,0,48.21,38.71,35.67\H,0,48.44,39.1,37.99\H,0,50.,
 40.01,37.67\H,0,49.54,37.31,37.95\N,0,46.66,40.67,36.85\C,0,45.64,41.6
 8,37.06\C,0,46.29,42.88,37.74\O,0,46.09,44.,37.28\C,0,44.46,41.13,37.8
 7\H,0,46.4,39.76,37.18\H,0,45.21,41.94,36.09\H,0,43.69,41.87,38.1\H,0,
 44.01,40.3,37.34\H,0,44.93,40.82,38.8\N,0,47.1,42.67,38.78\C,0,47.75,4
 3.81,39.39\C,0,48.77,44.64,38.62\O,0,48.93,45.83,38.88\C,0,48.25,43.4,
 40.77\H,0,47.16,41.75,39.18\H,0,46.91,44.44,39.67\H,0,49.21,42.89,40.7
 3\H,0,48.38,44.25,41.45\H,0,47.5,42.75,41.23\N,0,49.39,44.01,37.62\C,0
 ,50.37,44.5,36.67\C,0,49.62,45.15,35.52\O,0,50.02,46.21,35.03\C,0,51.2
 4,43.32,36.25\C,0,51.96,42.63,37.4\C,0,52.83,41.47,36.94\O,0,53.96,41.
 27,37.44\O,0,52.34,40.52,36.28\H,0,49.1,43.06,37.46\H,0,51.08,45.19,37
 .13\H,0,51.92,43.79,35.53\H,0,50.55,42.57,35.86\H,0,51.2,42.25,38.09\H
 ,0,52.55,43.37,37.94\N,0,48.51,44.55,35.08\C,0,47.62,45.27,34.2\H,0,46
 .731,45.574,34.753\H,0,48.127,46.154,33.814\H,0,47.329,44.626,33.37\H,
 0,48.24,43.66,35.48\Ca,0,54.06,38.75,35.95\O,0,51.93,37.29,35.6\H,0,51
 .08,37.21,35.16\H,0,51.73,37.28,36.53\\Version=ES64L-G16RevA.03\State=
 1-A\HF=-5333.5869005\RMSD=5.574e-09\Dipole=-6.604693,7.0287742,4.22514
 23\Quadrupole=-55.8688295,82.287309,-26.4184795,141.5582631,-15.300258
 3,69.5630817\PG=C01 [X(C54H83Ca1N15O23)]\\@


 NO SCIENCE HAS EVER MADE MORE RAPID PROGRESS IN A
 SHORTER TIME THAN CHEMISTRY.
   -- MARTIN HEINRICH KLOPROTH, 1791
 (FIRST PROFESSOR OF CHEMISTRY AT THE UNIVERSITY OF BERLIN)
 Job cpu time:       0 days  7 hours 24 minutes 18.8 seconds.
 Elapsed time:       0 days  0 hours  9 minutes 21.7 seconds.
 File lengths (MBytes):  RWF=   1517 Int=      0 D2E=      0 Chk=    171 Scr=      1
 Normal termination of Gaussian 16 at Sat Sep 14 22:37:38 2019.
