 Entering Gaussian System, Link 0=g09
 Initial command:
 /home/pcieplak/g09/g09/l1.exe "/scratch1/pcieplak/holo_20.0/Gau-1561.inp" -scrdir="/scratch1/pcieplak/holo_20.0/"
 Entering Link 1 = /home/pcieplak/g09/g09/l1.exe PID=      1562.
  
 Copyright (c) 1988,1990,1992,1993,1995,1998,2003,2009,2013,
            Gaussian, Inc.  All Rights Reserved.
  
 This is part of the Gaussian(R) 09 program.  It is based on
 the Gaussian(R) 03 system (copyright 2003, Gaussian, Inc.),
 the Gaussian(R) 98 system (copyright 1998, Gaussian, Inc.),
 the Gaussian(R) 94 system (copyright 1995, Gaussian, Inc.),
 the Gaussian 92(TM) system (copyright 1992, Gaussian, Inc.),
 the Gaussian 90(TM) system (copyright 1990, Gaussian, Inc.),
 the Gaussian 88(TM) system (copyright 1988, Gaussian, Inc.),
 the Gaussian 86(TM) system (copyright 1986, Carnegie Mellon
 University), and the Gaussian 82(TM) system (copyright 1983,
 Carnegie Mellon University). Gaussian is a federally registered
 trademark of Gaussian, Inc.
  
 This software contains proprietary and confidential information,
 including trade secrets, belonging to Gaussian, Inc.
  
 This software is provided under written license and may be
 used, copied, transmitted, or stored only in accord with that
 written license.
  
 The following legend is applicable only to US Government
 contracts under FAR:
  
                    RESTRICTED RIGHTS LEGEND
  
 Use, reproduction and disclosure by the US Government is
 subject to restrictions as set forth in subparagraphs (a)
 and (c) of the Commercial Computer Software - Restricted
 Rights clause in FAR 52.227-19.
  
 Gaussian, Inc.
 340 Quinnipiac St., Bldg. 40, Wallingford CT 06492
  
  
 ---------------------------------------------------------------
 Warning -- This program may not be used in any manner that
 competes with the business of Gaussian, Inc. or will provide
 assistance to any competitor of Gaussian, Inc.  The licensee
 of this program is prohibited from giving any competitor of
 Gaussian, Inc. access to this program.  By using this program,
 the user acknowledges that Gaussian, Inc. is engaged in the
 business of creating and licensing software in the field of
 computational chemistry and represents and warrants to the
 licensee that it is not a competitor of Gaussian, Inc. and that
 it will not use this program in any manner prohibited above.
 ---------------------------------------------------------------
  

 Cite this work as:
 Gaussian 09, Revision D.01,
 M. J. Frisch, G. W. Trucks, H. B. Schlegel, G. E. Scuseria, 
 M. A. Robb, J. R. Cheeseman, G. Scalmani, V. Barone, B. Mennucci, 
 G. A. Petersson, H. Nakatsuji, M. Caricato, X. Li, H. P. Hratchian, 
 A. F. Izmaylov, J. Bloino, G. Zheng, J. L. Sonnenberg, M. Hada, 
 M. Ehara, K. Toyota, R. Fukuda, J. Hasegawa, M. Ishida, T. Nakajima, 
 Y. Honda, O. Kitao, H. Nakai, T. Vreven, J. A. Montgomery, Jr., 
 J. E. Peralta, F. Ogliaro, M. Bearpark, J. J. Heyd, E. Brothers, 
 K. N. Kudin, V. N. Staroverov, T. Keith, R. Kobayashi, J. Normand, 
 K. Raghavachari, A. Rendell, J. C. Burant, S. S. Iyengar, J. Tomasi, 
 M. Cossi, N. Rega, J. M. Millam, M. Klene, J. E. Knox, J. B. Cross, 
 V. Bakken, C. Adamo, J. Jaramillo, R. Gomperts, R. E. Stratmann, 
 O. Yazyev, A. J. Austin, R. Cammi, C. Pomelli, J. W. Ochterski, 
 R. L. Martin, K. Morokuma, V. G. Zakrzewski, G. A. Voth, 
 P. Salvador, J. J. Dannenberg, S. Dapprich, A. D. Daniels, 
 O. Farkas, J. B. Foresman, J. V. Ortiz, J. Cioslowski, 
 and D. J. Fox, Gaussian, Inc., Wallingford CT, 2013.
 
 ******************************************
 Gaussian 09:  ES64L-G09RevD.01 24-Apr-2013
                16-Sep-2019 
 ******************************************
 %Nproc=12
 Will use up to   12 processors via shared memory.
 %chk=chk1mol
 %mem=32GB
 ----------------------------------------------------------------------
 #maxdisk=50GB #B3LYP/SVP Density=Current scf=(tight) #IOP(5/87=12)Pop=
 (MK,readradii) iop(6/33=2) iop(6/42=6)
 ----------------------------------------------------------------------
 1/30=1,38=1/1;
 2/12=2,17=6,18=5,40=1/2;
 3/5=18,7=101,11=2,16=1,25=1,30=1,74=-5/1,2,3;
 4//1;
 5/5=2,32=2,38=5,87=12/2;
 6/7=2,8=2,9=2,10=2,15=8,20=101,22=-1,28=1,33=2,42=6/1,2;
 99/5=1,9=1/99;
 ------------
 SOL molecule
 ------------
 Symbolic Z-matrix:
 Charge =  0 Multiplicity = 1
 C                     46.82     40.31     24.41 
 C                     47.39     39.58     25.61 
 O                     47.33     40.04     26.75 
 H                     45.924    40.855    24.709 
 H                     47.56     41.012    24.026 
 H                     46.564    39.589    23.633 
 N                     48.06     38.44     25.43 
 C                     48.78     37.62     26.38 
 C                     50.23     38.09     26.51 
 O                     51.05     38.04     25.6 
 C                     48.77     36.17     25.93 
 C                     49.76     35.19     26.54 
 O                     50.53     35.5      27.47 
 O                     49.88     34.09     25.96 
 H                     47.93     37.99     24.53 
 H                     48.29     37.66     27.35 
 H                     49.14     36.17     24.91 
 H                     47.82     35.63     25.83 
 N                     50.51     38.6      27.71 
 C                     51.66     39.41     28.06 
 C                     53.02     38.73     28.15 
 O                     53.94     39.42     28.58 
 C                     51.37     40.16     29.35 
 C                     50.27     41.22     29.36 
 C                     50.3      42.32     28.3 
 C                     51.59     43.11     28.13 
 N                     51.52     44.2      27.14 
 H                     49.82     38.41     28.43 
 H                     51.75     40.13     27.24 
 H                     52.27     40.66     29.71 
 H                     51.02     39.35     29.98 
 H                     50.31     41.66     30.36 
 H                     49.36     40.64     29.23 
 H                     49.52     43.05     28.53 
 H                     49.95     41.85     27.38 
 H                     52.44     42.44     27.97 
 H                     51.69     43.61     29.09 
 H                     52.16     44.96     27.28 
 H                     51.61     43.74     26.24 
 H                     50.57     44.54     27.07 
 N                     53.08     37.45     27.78 
 C                     54.28     36.68     27.57 
 C                     54.22     35.82     26.31 
 O                     55.29     35.5      25.81 
 C                     54.71     35.84     28.78 
 C                     53.65     35.12     29.6 
 O                     54.09     34.07     30.11 
 O                     52.57     35.65     29.95 
 H                     52.2      37.1      27.43 
 H                     55.16     37.31     27.42 
 H                     55.24     36.45     29.51 
 H                     55.41     35.1      28.42 
 N                     53.02     35.7      25.74 
 C                     52.81     35.01     24.49 
 C                     52.87     33.5      24.63 
 O                     53.38     32.85     23.72 
 H                     52.29     36.28     26.14 
 H                     53.42     35.38     23.66 
 H                     51.75     35.19     24.31 
 N                     52.39     33.       25.77 
 C                     52.52     31.64     26.27 
 C                     51.27     30.81     26.01 
 O                     51.25     29.61     26.27 
 C                     53.06     31.68     27.7 
 C                     51.97     31.68     28.76 
 N                     52.01     30.75     29.73 
 O                     51.06     32.5      28.77 
 H                     51.85     33.63     26.33 
 H                     53.25     31.17     25.61 
 H                     53.76     32.49     27.91 
 H                     53.64     30.78     27.87 
 H                     52.58     29.92     29.7 
 H                     51.3      30.86     30.44 
 N                     50.24     31.35     25.36 
 C                     49.       30.68     25.02 
 C                     47.82     30.84     25.96 
 O                     46.7      30.44     25.62 
 H                     50.24     32.36     25.3 
 H                     49.2      29.61     24.96 
 H                     48.75     30.95     23.99 
 N                     48.05     31.64     27. 
 C                     47.1      31.89     28.06 
 C                     46.95     33.31     28.59 
 O                     47.87     34.12     28.48 
 C                     47.12     30.96     29.27 
 C                     47.48     29.52     28.98 
 C                     48.82     29.12     29.05 
 C                     46.5      28.55     28.75 
 C                     49.16     27.78     28.83 
 C                     46.83     27.22     28.46 
 C                     48.19     26.84     28.42 
 O                     48.46     25.52     28.25 
 H                     48.89     32.21     27.01 
 H                     46.14     31.72     27.57 
 H                     46.12     31.04     29.68 
 H                     47.77     31.32     30.06 
 H                     49.54     29.81     29.48 
 H                     45.44     28.75     28.69 
 H                     50.11     27.37     29.12 
 H                     46.07     26.48     28.33 
 H                     47.59     25.17     28.04 
 N                     45.84     33.65     29.25 
 C                     45.48     34.93     29.82 
 C                     44.82     34.62     31.16 
 O                     44.2      33.58     31.38 
 C                     44.56     35.57     28.78 
 C                     45.37     36.21     27.66 
 C                     43.79     36.75     29.38 
 C                     44.63     36.95     26.55 
 H                     45.13     32.95     29.44 
 H                     46.32     35.61     29.95 
 H                     43.85     34.9      28.3 
 H                     45.98     35.46     27.15 
 H                     46.07     36.96     28.02 
 H                     43.17     37.3      28.67 
 H                     43.07     36.4      30.12 
 H                     44.46     37.45     29.89 
 H                     44.04     37.77     26.97 
 H                     45.34     37.34     25.82 
 H                     44.03     36.19     26.05 
 N                     45.06     35.44     32.18 
 C                     44.55     35.32     33.53 
 C                     43.69     36.51     33.93 
 O                     43.38     37.31     33.05 
 C                     45.73     35.06     34.46 
 O                     46.45     36.25     34.71 
 H                     45.81     36.1      32.04 
 H                     43.94     34.42     33.63 
 H                     46.34     34.33     33.92 
 H                     45.36     34.6      35.38 
 H                     47.31     35.97     35.01 
 N                     43.18     36.69     35.15 
 C                     42.4      37.86     35.52 
 C                     43.24     39.12     35.39 
 O                     42.78     40.17     34.94 
 C                     41.79     37.65     36.91 
 H                     43.55     36.11     35.89 
 H                     41.59     37.89     34.8 
 H                     40.98     36.92     36.82 
 H                     42.57     37.23     37.54 
 H                     41.33     38.58     37.23 
 N                     44.49     39.08     35.85 
 C                     45.44     40.18     35.76 
 C                     45.84     40.6      34.36 
 O                     45.83     41.78     34.01 
 C                     46.69     39.95     36.61 
 H                     44.81     38.16     36.11 
 H                     44.96     41.06     36.17 
 H                     47.23     40.86     36.87 
 H                     46.34     39.74     37.61 
 H                     47.33     39.1      36.36 
 N                     45.97     39.66     33.42 
 C                     46.13     40.       32.02 
 C                     44.86     40.39     31.28 
 O                     44.88     41.45     30.65 
 C                     46.88     38.91     31.26 
 C                     48.34     38.6      31.6 
 C                     48.86     37.29     31.03 
 O                     49.23     37.22     29.84 
 O                     48.95     36.27     31.74 
 H                     45.93     38.69     33.7 
 H                     46.8      40.85     31.9 
 H                     46.98     39.1      30.19 
 H                     46.29     38.       31.33 
 H                     48.45     38.65     32.69 
 H                     48.85     39.44     31.15 
 N                     43.71     39.79     31.56 
 C                     42.41     40.33     31.2 
 H                     41.706    40.155    32.014 
 H                     42.498    41.402    31.021 
 H                     42.049    39.839    30.296 
 H                     43.75     39.09     32.28 
 Ca                    50.25     34.7      29.89 
 O                     48.89     33.13     31.53 
 H                     48.39     33.15     32.36 
 H                     49.35     32.29     31.56 
 
 Stoichiometry    C54H83CaN15O23
 Framework group  C1[X(C54H83CaN15O23)]
 Deg. of freedom   522
 Full point group                 C1      NOp   1
 Largest Abelian subgroup         C1      NOp   1
 Largest concise Abelian subgroup C1      NOp   1
                         Standard orientation:                         
 ---------------------------------------------------------------------
 Center     Atomic      Atomic             Coordinates (Angstroms)
 Number     Number       Type             X           Y           Z
 ---------------------------------------------------------------------
      1          6           0        0.913612    4.186795    5.398528
      2          6           0        0.823388    3.544796    4.028310
      3          8           0        1.781619    3.501547    3.257126
      4          1           0        1.910686    4.025462    5.809693
      5          1           0        0.726046    5.256927    5.311942
      6          1           0        0.171315    3.739032    6.060048
      7          7           0       -0.350954    3.083823    3.593195
      8          6           0       -0.719695    2.534172    2.306644
      9          6           0       -1.151675    3.645231    1.347874
     10          8           0       -2.144090    4.345525    1.514308
     11          6           0       -1.864361    1.550037    2.468874
     12          6           0       -2.671378    1.132742    1.249370
     13          8           0       -2.379552    1.492351    0.092038
     14          8           0       -3.743873    0.532389    1.473270
     15          1           0       -1.063836    2.954195    4.303403
     16          1           0        0.119120    1.986311    1.883751
     17          1           0       -2.640656    2.079719    3.011185
     18          1           0       -1.733277    0.647048    3.078405
     19          7           0       -0.315405    3.806349    0.321621
     20          6           0       -0.248694    4.946850   -0.570514
     21          6           0       -1.365380    5.130713   -1.589978
     22          8           0       -1.201725    6.027362   -2.412558
     23          6           0        1.099528    4.954915   -1.272606
     24          6           0        2.364849    5.174737   -0.445357
     25          6           0        2.433379    6.384734    0.485080
     26          6           0        2.118646    7.753321   -0.102298
     27          7           0        2.275214    8.878636    0.836985
     28          1           0        0.350368    3.051971    0.186491
     29          1           0       -0.313369    5.817751    0.089978
     30          1           0        1.117249    5.715995   -2.053658
     31          1           0        1.144445    3.934026   -1.634915
     32          1           0        3.177139    5.215463   -1.175922
     33          1           0        2.432365    4.272170    0.156486
     34          1           0        3.442486    6.452069    0.899047
     35          1           0        1.817635    6.126380    1.347583
     36          1           0        1.147584    7.748016   -0.606292
     37          1           0        2.912653    7.886056   -0.832732
     38          1           0        2.472899    9.770598    0.422106
     39          1           0        1.435390    8.860927    1.406268
     40          1           0        2.967705    8.647889    1.537137
     41          7           0       -2.398313    4.290627   -1.511210
     42          6           0       -3.651462    4.414313   -2.212151
     43          6           0       -4.858785    4.120971   -1.324953
     44          8           0       -5.925089    4.616019   -1.664399
     45          6           0       -3.727292    3.607704   -3.515313
     46          6           0       -3.130203    2.209177   -3.560138
     47          8           0       -3.734851    1.470669   -4.363386
     48          8           0       -2.012757    1.919714   -3.072978
     49          1           0       -2.328571    3.653439   -0.731128
     50          1           0       -3.828924    5.429461   -2.575169
     51          1           0       -3.230487    4.133629   -4.329248
     52          1           0       -4.771733    3.530962   -3.780744
     53          7           0       -4.594710    3.558781   -0.144484
     54          6           0       -5.608885    3.312358    0.852223
     55          6           0       -6.497538    2.129836    0.512756
     56          8           0       -7.691084    2.196575    0.798579
     57          1           0       -3.610333    3.482343    0.088879
     58          1           0       -6.181180    4.198119    1.145153
     59          1           0       -5.016843    2.933214    1.685371
     60          7           0       -5.902832    1.114239   -0.115644
     61          6           0       -6.534776   -0.029888   -0.754488
     62          6           0       -6.508398   -1.269260    0.129967
     63          8           0       -7.093875   -2.293720   -0.210178
     64          6           0       -6.002800   -0.165597   -2.181612
     65          6           0       -4.808833   -1.099799   -2.297410
     66          7           0       -4.861165   -2.111010   -3.181781
     67          8           0       -3.796312   -0.962600   -1.621703
     68          1           0       -4.901886    1.128378   -0.118334
     69          1           0       -7.597197    0.215503   -0.775568
     70          1           0       -5.767769    0.775207   -2.681460
     71          1           0       -6.782540   -0.602246   -2.795326
     72          1           0       -5.704494   -2.434459   -3.627738
     73          1           0       -4.004393   -2.640581   -3.257913
     74          7           0       -5.974179   -1.201794    1.348597
     75          6           0       -5.899238   -2.285986    2.308290
     76          6           0       -4.624299   -3.106523    2.361679
     77          8           0       -4.448147   -3.916222    3.280024
     78          1           0       -5.382904   -0.399839    1.524553
     79          1           0       -6.704854   -2.987009    2.089085
     80          1           0       -6.173771   -1.881111    3.286558
     81          7           0       -3.671047   -2.696367    1.526464
     82          6           0       -2.399221   -3.360694    1.354045
     83          6           0       -1.140341   -2.512596    1.228547
     84          8           0       -1.205894   -1.349090    0.832876
     85          6           0       -2.305703   -4.460060    0.299508
     86          6           0       -3.557351   -5.286704    0.106278
     87          6           0       -4.501033   -4.890312   -0.849147
     88          6           0       -3.748944   -6.497355    0.778451
     89          6           0       -5.640485   -5.672885   -1.070121
     90          6           0       -4.916057   -7.255079    0.618447
     91          6           0       -5.920157   -6.796893   -0.263282
     92          8           0       -6.980713   -7.618143   -0.475344
     93          1           0       -3.773767   -1.800987    1.059192
     94          1           0       -2.252860   -3.856841    2.314783
     95          1           0       -1.476911   -5.074027    0.632148
     96          1           0       -1.995747   -4.081903   -0.668544
     97          1           0       -4.227603   -4.102452   -1.544785
     98          1           0       -3.077089   -6.899640    1.522748
     99          1           0       -6.252659   -5.567217   -1.946921
    100          1           0       -5.029881   -8.200037    1.104451
    101          1           0       -6.837784   -8.294969    0.191722
    102          7           0        0.050210   -3.065421    1.474054
    103          6           0        1.360201   -2.452915    1.433315
    104          6           0        2.283672   -3.483591    0.791281
    105          8           0        2.104053   -4.697556    0.883070
    106          6           0        1.676755   -2.122554    2.892169
    107          6           0        0.998791   -0.825409    3.313929
    108          6           0        3.166765   -1.820213    3.075908
    109          6           0        1.239090   -0.297110    4.724764
    110          1           0        0.113525   -4.055220    1.689667
    111          1           0        1.392986   -1.510935    0.888797
    112          1           0        1.382114   -2.873377    3.622135
    113          1           0       -0.086735   -0.910558    3.218620
    114          1           0        1.280989    0.020604    2.692056
    115          1           0        3.448414   -1.502662    4.081312
    116          1           0        3.761235   -2.721331    2.923948
    117          1           0        3.518785   -1.077559    2.352342
    118          1           0        2.306377   -0.117862    4.884979
    119          1           0        0.680481    0.626344    4.880610
    120          1           0        0.817139   -1.051401    5.388545
    121          7           0        3.232572   -3.046058   -0.032463
    122          6           0        4.196905   -3.851133   -0.752822
    123          6           0        5.630108   -3.525602   -0.358286
    124          8           0        5.800770   -2.790970    0.612121
    125          6           0        3.910971   -3.710193   -2.243888
    126          8           0        4.392649   -2.476932   -2.737905
    127          1           0        3.150648   -2.081596   -0.316719
    128          1           0        4.030993   -4.912537   -0.557897
    129          1           0        2.820962   -3.770185   -2.313760
    130          1           0        4.346419   -4.564126   -2.769325
    131          1           0        3.915939   -2.322703   -3.548436
    132          7           0        6.707026   -4.056353   -0.940910
    133          6           0        8.067083   -3.693144   -0.576872
    134          6           0        8.312663   -2.218014   -0.848500
    135          8           0        8.962007   -1.509704   -0.078273
    136          6           0        9.053090   -4.635233   -1.275842
    137          1           0        6.560892   -4.542796   -1.814362
    138          1           0        8.125621   -3.878665    0.489690
    139          1           0        8.995377   -5.612518   -0.787290
    140          1           0        8.719108   -4.739258   -2.305082
    141          1           0       10.060895   -4.267836   -1.107764
    142          7           0        7.860319   -1.717191   -1.997526
    143          6           0        7.968992   -0.319089   -2.390081
    144          6           0        7.222579    0.674718   -1.523123
    145          8           0        7.761569    1.696340   -1.097943
    146          6           0        7.618243   -0.091067   -3.860755
    147          1           0        7.261489   -2.339741   -2.517367
    148          1           0        9.007411   -0.030293   -2.284329
    149          1           0        8.031074    0.824095   -4.284250
    150          1           0        8.242373   -0.766157   -4.427602
    151          1           0        6.600483   -0.321102   -4.186099
    152          7           0        6.041295    0.319700   -1.010649
    153          6           0        5.377109    1.120969   -0.001677
    154          6           0        5.899661    0.970633    1.418513
    155          8           0        6.190575    2.005742    2.022514
    156          6           0        3.863854    0.929006   -0.039210
    157          6           0        3.061730    1.373476   -1.264912
    158          6           0        1.645355    0.824754   -1.329595
    159          8           0        0.730207    1.354931   -0.666784
    160          8           0        1.363773   -0.145284   -2.059209
    161          1           0        5.620361   -0.543854   -1.323680
    162          1           0        5.467908    2.182705   -0.225893
    163          1           0        3.325230    1.475151    0.737070
    164          1           0        3.663917   -0.119608    0.164589
    165          1           0        3.644842    1.121093   -2.158770
    166          1           0        3.048712    2.446686   -1.137432
    167          7           0        6.316941   -0.209991    1.857721
    168          6           0        7.162329   -0.382766    3.026767
    169          1           0        7.897894   -1.163402    2.830836
    170          1           0        7.676794    0.553416    3.245531
    171          1           0        6.548619   -0.668528    3.881353
    172          1           0        6.266441   -0.962483    1.193487
    173         20           0       -1.360941   -0.059062   -1.677241
    174          8           0       -0.664357   -2.543453   -2.266032
    175          1           0        0.088895   -3.067173   -2.578489
    176          1           0       -1.419779   -2.953804   -2.689175
 ---------------------------------------------------------------------
 Rotational constants (GHZ):      0.0231286      0.0149191      0.0112678
 Standard basis: SVP (5D, 7F)
 There are  1809 symmetry adapted cartesian basis functions of A   symmetry.
 There are  1717 symmetry adapted basis functions of A   symmetry.
  1717 basis functions,  2922 primitive gaussians,  1809 cartesian basis functions
   358 alpha electrons      358 beta electrons
       nuclear repulsion energy     21594.0468210024 Hartrees.
 NAtoms=  176 NActive=  176 NUniq=  176 SFac= 1.00D+00 NAtFMM=   60 NAOKFM=T Big=T
 Integral buffers will be    131072 words long.
 Raffenetti 2 integral format.
 Two-electron integral symmetry is turned on.
 One-electron integrals computed using PRISM.
 NBasis=  1717 RedAO= T EigKep=  2.98D-04  NBF=  1717
 NBsUse=  1717 1.00D-06 EigRej= -1.00D+00 NBFU=  1717
 ExpMin= 1.98D-02 ExpMax= 3.51D+04 ExpMxC= 5.28D+03 IAcc=3 IRadAn=         5 AccDes= 0.00D+00
 Harris functional with IExCor=  402 and IRadAn=       5 diagonalized for initial guess.
 HarFok:  IExCor=  402 AccDes= 0.00D+00 IRadAn=         5 IDoV= 1 UseB2=F ITyADJ=14
 ICtDFT=  3500011 ScaDFX=  1.000000  1.000000  1.000000  1.000000
 FoFCou: FMM=F IPFlag=           0 FMFlag=      100000 FMFlg1=        2001
         NFxFlg=           0 DoJE=T BraDBF=F KetDBF=T FulRan=T
         wScrn=  0.000000 ICntrl=     500 IOpCl=  0 I1Cent=   200000004 NGrid=           0
         NMat0=    1 NMatS0=      1 NMatT0=    0 NMatD0=    1 NMtDS0=    0 NMtDT0=    0
 Petite list used in FoFCou.
 Requested convergence on RMS density matrix=1.00D-08 within 128 cycles.
 Requested convergence on MAX density matrix=1.00D-06.
 Requested convergence on             energy=1.00D-06.
 No special actions if energy rises.
 EnCoef did     4 forward-backward iterations
 EnCoef did     2 forward-backward iterations
 SCF Done:  E(RB3LYP) =  -5333.54208487     A.U. after   18 cycles
            NFock= 18  Conv=0.31D-08     -V/T= 2.0081

 **********************************************************************

            Population analysis using the SCF density.

 **********************************************************************

 Orbital symmetries:
 BldTbl:  Degeneracy threshold= 1.00D-02
       Occupied  (A) (A) (A) (A) (A) (A) (A) (A) (A) (A) (A) (A)
                 (A) (A) (A) (A) (A) (A) (A) (A) (A) (A) (A) (A)
                 (A) (A) (A) (A) (A) (A) (A) (A) (A) (A) (A) (A)
                 (A) (A) (A) (A) (A) (A) (A) (A) (A) (A) (A) (A)
                 (A) (A) (A) (A) (A) (A) (A) (A) (A) (A) (A) (A)
                 (A) (A) (A) (A) (A) (A) (A) (A) (A) (A) (A) (A)
                 (A) (A) (A) (A) (A) (A) (A) (A) (A) (A) (A) (A)
                 (A) (A) (A) (A) (A) (A) (A) (A) (A) (A) (A) (A)
                 (A) (A) (A) (A) (A) (A) (A) (A) (A) (A) (A) (A)
                 (A) (A) (A) (A) (A) (A) (A) (A) (A) (A) (A) (A)
                 (A) (A) (A) (A) (A) (A) (A) (A) (A) (A) (A) (A)
                 (A) (A) (A) (A) (A) (A) (A) (A) (A) (A) (A) (A)
                 (A) (A) (A) (A) (A) (A) (A) (A) (A) (A) (A) (A)
                 (A) (A) (A) (A) (A) (A) (A) (A) (A) (A) (A) (A)
                 (A) (A) (A) (A) (A) (A) (A) (A) (A) (A) (A) (A)
                 (A) (A) (A) (A) (A) (A) (A) (A) (A) (A) (A) (A)
                 (A) (A) (A) (A) (A) (A) (A) (A) (A) (A) (A) (A)
                 (A) (A) (A) (A) (A) (A) (A) (A) (A) (A) (A) (A)
                 (A) (A) (A) (A) (A) (A) (A) (A) (A) (A) (A) (A)
                 (A) (A) (A) (A) (A) (A) (A) (A) (A) (A) (A) (A)
                 (A) (A) (A) (A) (A) (A) (A) (A) (A) (A) (A) (A)
                 (A) (A) (A) (A) (A) (A) (A) (A) (A) (A) (A) (A)
                 (A) (A) (A) (A) (A) (A) (A) (A) (A) (A) (A) (A)
                 (A) (A) (A) (A) (A) (A) (A) (A) (A) (A) (A) (A)
                 (A) (A) (A) (A) (A) (A) (A) (A) (A) (A) (A) (A)
                 (A) (A) (A) (A) (A) (A) (A) (A) (A) (A) (A) (A)
                 (A) (A) (A) (A) (A) (A) (A) (A) (A) (A) (A) (A)
                 (A) (A) (A) (A) (A) (A) (A) (A) (A) (A) (A) (A)
                 (A) (A) (A) (A) (A) (A) (A) (A) (A) (A) (A) (A)
                 (A) (A) (A) (A) (A) (A) (A) (A) (A) (A)
       Virtual   (A) (A) (A) (A) (A) (A) (A) (A) (A) (A) (A) (A)
                 (A) (A) (A) (A) (A) (A) (A) (A) (A) (A) (A) (A)
                 (A) (A) (A) (A) (A) (A) (A) (A) (A) (A) (A) (A)
                 (A) (A) (A) (A) (A) (A) (A) (A) (A) (A) (A) (A)
                 (A) (A) (A) (A) (A) (A) (A) (A) (A) (A) (A) (A)
                 (A) (A) (A) (A) (A) (A) (A) (A) (A) (A) (A) (A)
                 (A) (A) (A) (A) (A) (A) (A) (A) (A) (A) (A) (A)
                 (A) (A) (A) (A) (A) (A) (A) (A) (A) (A) (A) (A)
                 (A) (A) (A) (A) (A) (A) (A) (A) (A) (A) (A) (A)
                 (A) (A) (A) (A) (A) (A) (A) (A) (A) (A) (A) (A)
                 (A) (A) (A) (A) (A) (A) (A) (A) (A) (A) (A) (A)
                 (A) (A) (A) (A) (A) (A) (A) (A) (A) (A) (A) (A)
                 (A) (A) (A) (A) (A) (A) (A) (A) (A) (A) (A) (A)
                 (A) (A) (A) (A) (A) (A) (A) (A) (A) (A) (A) (A)
                 (A) (A) (A) (A) (A) (A) (A) (A) (A) (A) (A) (A)
                 (A) (A) (A) (A) (A) (A) (A) (A) (A) (A) (A) (A)
                 (A) (A) (A) (A) (A) (A) (A) (A) (A) (A) (A) (A)
                 (A) (A) (A) (A) (A) (A) (A) (A) (A) (A) (A) (A)
                 (A) (A) (A) (A) (A) (A) (A) (A) (A) (A) (A) (A)
                 (A) (A) (A) (A) (A) (A) (A) (A) (A) (A) (A) (A)
                 (A) (A) (A) (A) (A) (A) (A) (A) (A) (A) (A) (A)
                 (A) (A) (A) (A) (A) (A) (A) (A) (A) (A) (A) (A)
                 (A) (A) (A) (A) (A) (A) (A) (A) (A) (A) (A) (A)
                 (A) (A) (A) (A) (A) (A) (A) (A) (A) (A) (A) (A)
                 (A) (A) (A) (A) (A) (A) (A) (A) (A) (A) (A) (A)
                 (A) (A) (A) (A) (A) (A) (A) (A) (A) (A) (A) (A)
                 (A) (A) (A) (A) (A) (A) (A) (A) (A) (A) (A) (A)
                 (A) (A) (A) (A) (A) (A) (A) (A) (A) (A) (A) (A)
                 (A) (A) (A) (A) (A) (A) (A) (A) (A) (A) (A) (A)
                 (A) (A) (A) (A) (A) (A) (A) (A) (A) (A) (A) (A)
                 (A) (A) (A) (A) (A) (A) (A) (A) (A) (A) (A) (A)
                 (A) (A) (A) (A) (A) (A) (A) (A) (A) (A) (A) (A)
                 (A) (A) (A) (A) (A) (A) (A) (A) (A) (A) (A) (A)
                 (A) (A) (A) (A) (A) (A) (A) (A) (A) (A) (A) (A)
                 (A) (A) (A) (A) (A) (A) (A) (A) (A) (A) (A) (A)
                 (A) (A) (A) (A) (A) (A) (A) (A) (A) (A) (A) (A)
                 (A) (A) (A) (A) (A) (A) (A) (A) (A) (A) (A) (A)
                 (A) (A) (A) (A) (A) (A) (A) (A) (A) (A) (A) (A)
                 (A) (A) (A) (A) (A) (A) (A) (A) (A) (A) (A) (A)
                 (A) (A) (A) (A) (A) (A) (A) (A) (A) (A) (A) (A)
                 (A) (A) (A) (A) (A) (A) (A) (A) (A) (A) (A) (A)
                 (A) (A) (A) (A) (A) (A) (A) (A) (A) (A) (A) (A)
                 (A) (A) (A) (A) (A) (A) (A) (A) (A) (A) (A) (A)
                 (A) (A) (A) (A) (A) (A) (A) (A) (A) (A) (A) (A)
                 (A) (A) (A) (A) (A) (A) (A) (A) (A) (A) (A) (A)
                 (A) (A) (A) (A) (A) (A) (A) (A) (A) (A) (A) (A)
                 (A) (A) (A) (A) (A) (A) (A) (A) (A) (A) (A) (A)
                 (A) (A) (A) (A) (A) (A) (A) (A) (A) (A) (A) (A)
                 (A) (A) (A) (A) (A) (A) (A) (A) (A) (A) (A) (A)
                 (A) (A) (A) (A) (A) (A) (A) (A) (A) (A) (A) (A)
                 (A) (A) (A) (A) (A) (A) (A) (A) (A) (A) (A) (A)
                 (A) (A) (A) (A) (A) (A) (A) (A) (A) (A) (A) (A)
                 (A) (A) (A) (A) (A) (A) (A) (A) (A) (A) (A) (A)
                 (A) (A) (A) (A) (A) (A) (A) (A) (A) (A) (A) (A)
                 (A) (A) (A) (A) (A) (A) (A) (A) (A) (A) (A) (A)
                 (A) (A) (A) (A) (A) (A) (A) (A) (A) (A) (A) (A)
                 (A) (A) (A) (A) (A) (A) (A) (A) (A) (A) (A) (A)
                 (A) (A) (A) (A) (A) (A) (A) (A) (A) (A) (A) (A)
                 (A) (A) (A) (A) (A) (A) (A) (A) (A) (A) (A) (A)
                 (A) (A) (A) (A) (A) (A) (A) (A) (A) (A) (A) (A)
                 (A) (A) (A) (A) (A) (A) (A) (A) (A) (A) (A) (A)
                 (A) (A) (A) (A) (A) (A) (A) (A) (A) (A) (A) (A)
                 (A) (A) (A) (A) (A) (A) (A) (A) (A) (A) (A) (A)
                 (A) (A) (A) (A) (A) (A) (A) (A) (A) (A) (A) (A)
                 (A) (A) (A) (A) (A) (A) (A) (A) (A) (A) (A) (A)
                 (A) (A) (A) (A) (A) (A) (A) (A) (A) (A) (A) (A)
                 (A) (A) (A) (A) (A) (A) (A) (A) (A) (A) (A) (A)
                 (A) (A) (A) (A) (A) (A) (A) (A) (A) (A) (A) (A)
                 (A) (A) (A) (A) (A) (A) (A) (A) (A) (A) (A) (A)
                 (A) (A) (A) (A) (A) (A) (A) (A) (A) (A) (A) (A)
                 (A) (A) (A) (A) (A) (A) (A) (A) (A) (A) (A) (A)
                 (A) (A) (A) (A) (A) (A) (A) (A) (A) (A) (A) (A)
                 (A) (A) (A) (A) (A) (A) (A) (A) (A) (A) (A) (A)
                 (A) (A) (A) (A) (A) (A) (A) (A) (A) (A) (A) (A)
                 (A) (A) (A) (A) (A) (A) (A) (A) (A) (A) (A) (A)
                 (A) (A) (A) (A) (A) (A) (A) (A) (A) (A) (A) (A)
                 (A) (A) (A) (A) (A) (A) (A) (A) (A) (A) (A) (A)
                 (A) (A) (A) (A) (A) (A) (A) (A) (A) (A) (A) (A)
                 (A) (A) (A) (A) (A) (A) (A) (A) (A) (A) (A) (A)
                 (A) (A) (A) (A) (A) (A) (A) (A) (A) (A) (A) (A)
                 (A) (A) (A) (A) (A) (A) (A) (A) (A) (A) (A) (A)
                 (A) (A) (A) (A) (A) (A) (A) (A) (A) (A) (A) (A)
                 (A) (A) (A) (A) (A) (A) (A) (A) (A) (A) (A) (A)
                 (A) (A) (A) (A) (A) (A) (A) (A) (A) (A) (A) (A)
                 (A) (A) (A) (A) (A) (A) (A) (A) (A) (A) (A) (A)
                 (A) (A) (A) (A) (A) (A) (A) (A) (A) (A) (A) (A)
                 (A) (A) (A) (A) (A) (A) (A) (A) (A) (A) (A) (A)
                 (A) (A) (A) (A) (A) (A) (A) (A) (A) (A) (A) (A)
                 (A) (A) (A) (A) (A) (A) (A) (A) (A) (A) (A) (A)
                 (A) (A) (A) (A) (A) (A) (A) (A) (A) (A) (A) (A)
                 (A) (A) (A) (A) (A) (A) (A) (A) (A) (A) (A) (A)
                 (A) (A) (A) (A) (A) (A) (A) (A) (A) (A) (A) (A)
                 (A) (A) (A) (A) (A) (A) (A) (A) (A) (A) (A) (A)
                 (A) (A) (A) (A) (A) (A) (A) (A) (A) (A) (A) (A)
                 (A) (A) (A) (A) (A) (A) (A) (A) (A) (A) (A) (A)
                 (A) (A) (A) (A) (A) (A) (A) (A) (A) (A) (A) (A)
                 (A) (A) (A) (A) (A) (A) (A) (A) (A) (A) (A) (A)
                 (A) (A) (A) (A) (A) (A) (A) (A) (A) (A) (A) (A)
                 (A) (A) (A) (A) (A) (A) (A) (A) (A) (A) (A) (A)
                 (A) (A) (A) (A) (A) (A) (A) (A) (A) (A) (A) (A)
                 (A) (A) (A) (A) (A) (A) (A) (A) (A) (A) (A) (A)
                 (A) (A) (A) (A) (A) (A) (A) (A) (A) (A) (A) (A)
                 (A) (A) (A) (A) (A) (A) (A) (A) (A) (A) (A) (A)
                 (A) (A) (A) (A) (A) (A) (A) (A) (A) (A) (A) (A)
                 (A) (A) (A) (A) (A) (A) (A) (A) (A) (A) (A) (A)
                 (A) (A) (A) (A) (A) (A) (A) (A) (A) (A) (A) (A)
                 (A) (A) (A) (A) (A) (A) (A) (A) (A) (A) (A) (A)
                 (A) (A) (A) (A) (A) (A) (A) (A) (A) (A) (A) (A)
                 (A) (A) (A) (A) (A) (A) (A) (A) (A) (A) (A) (A)
                 (A) (A) (A) (A) (A) (A) (A) (A) (A) (A) (A) (A)
                 (A) (A) (A) (A) (A) (A) (A) (A) (A) (A) (A) (A)
                 (A) (A) (A) (A) (A) (A) (A) (A) (A) (A) (A) (A)
                 (A) (A) (A) (A) (A) (A) (A) (A) (A) (A) (A) (A)
                 (A) (A) (A)
 The electronic state is 1-A.
 Alpha  occ. eigenvalues -- -145.36938 -19.20818 -19.19301 -19.15657 -19.13528
 Alpha  occ. eigenvalues --  -19.12200 -19.12062 -19.11109 -19.10783 -19.08758
 Alpha  occ. eigenvalues --  -19.08623 -19.08531 -19.07297 -19.07166 -19.06896
 Alpha  occ. eigenvalues --  -19.06681 -19.05880 -19.05552 -19.05516 -19.04583
 Alpha  occ. eigenvalues --  -19.04329 -19.04182 -19.02274 -18.99850 -15.42709
 Alpha  occ. eigenvalues --  -14.57829 -14.39997 -14.38112 -14.37637 -14.36738
 Alpha  occ. eigenvalues --  -14.36574 -14.35227 -14.35172 -14.33055 -14.32899
 Alpha  occ. eigenvalues --  -14.32062 -14.31684 -14.30907 -14.30526 -14.29651
 Alpha  occ. eigenvalues --  -12.56315 -12.56294 -12.56262 -10.33270 -10.32512
 Alpha  occ. eigenvalues --  -10.30880 -10.30283 -10.30019 -10.29747 -10.28971
 Alpha  occ. eigenvalues --  -10.28290 -10.27681 -10.27528 -10.26755 -10.26369
 Alpha  occ. eigenvalues --  -10.26352 -10.25896 -10.25658 -10.25163 -10.25062
 Alpha  occ. eigenvalues --  -10.24914 -10.24913 -10.24659 -10.24493 -10.24086
 Alpha  occ. eigenvalues --  -10.23090 -10.23078 -10.22826 -10.22611 -10.22244
 Alpha  occ. eigenvalues --  -10.21916 -10.21764 -10.21648 -10.20809 -10.20780
 Alpha  occ. eigenvalues --  -10.20369 -10.20272 -10.19702 -10.19475 -10.19388
 Alpha  occ. eigenvalues --  -10.19385 -10.19033 -10.18879 -10.18569 -10.18462
 Alpha  occ. eigenvalues --  -10.18327 -10.18284 -10.18063 -10.18008 -10.17993
 Alpha  occ. eigenvalues --  -10.17866 -10.17797 -10.17099 -10.17046 -10.17024
 Alpha  occ. eigenvalues --  -10.16710 -10.12300  -1.79537  -1.13005  -1.07923
 Alpha  occ. eigenvalues --   -1.07437  -1.07047  -1.06990  -1.06980  -1.05953
 Alpha  occ. eigenvalues --   -1.05628  -1.04990  -1.04632  -1.04114  -1.04003
 Alpha  occ. eigenvalues --   -1.02414  -1.02316  -1.01912  -1.01497  -1.00144
 Alpha  occ. eigenvalues --   -0.99620  -0.99430  -0.99076  -0.98838  -0.97851
 Alpha  occ. eigenvalues --   -0.96735  -0.96537  -0.95564  -0.94871  -0.93699
 Alpha  occ. eigenvalues --   -0.93687  -0.91666  -0.91408  -0.91235  -0.91011
 Alpha  occ. eigenvalues --   -0.90910  -0.90351  -0.89865  -0.89405  -0.88380
 Alpha  occ. eigenvalues --   -0.88201  -0.87281  -0.86957  -0.86409  -0.85671
 Alpha  occ. eigenvalues --   -0.84030  -0.83073  -0.81893  -0.80154  -0.80054
 Alpha  occ. eigenvalues --   -0.79209  -0.78527  -0.78053  -0.77635  -0.76187
 Alpha  occ. eigenvalues --   -0.75109  -0.74900  -0.73723  -0.73473  -0.72960
 Alpha  occ. eigenvalues --   -0.72647  -0.72583  -0.72084  -0.70768  -0.70656
 Alpha  occ. eigenvalues --   -0.70264  -0.69784  -0.68791  -0.68474  -0.67944
 Alpha  occ. eigenvalues --   -0.67675  -0.66369  -0.65494  -0.64934  -0.64731
 Alpha  occ. eigenvalues --   -0.64388  -0.63195  -0.62167  -0.61636  -0.61594
 Alpha  occ. eigenvalues --   -0.61408  -0.60966  -0.60606  -0.60190  -0.59666
 Alpha  occ. eigenvalues --   -0.59621  -0.59501  -0.59105  -0.58941  -0.58667
 Alpha  occ. eigenvalues --   -0.58284  -0.56920  -0.56804  -0.56737  -0.56342
 Alpha  occ. eigenvalues --   -0.56183  -0.56081  -0.55742  -0.55490  -0.55106
 Alpha  occ. eigenvalues --   -0.54837  -0.54648  -0.54166  -0.53661  -0.53363
 Alpha  occ. eigenvalues --   -0.53133  -0.52960  -0.52454  -0.51899  -0.51719
 Alpha  occ. eigenvalues --   -0.51406  -0.51249  -0.50994  -0.50080  -0.49957
 Alpha  occ. eigenvalues --   -0.49816  -0.49307  -0.49086  -0.48894  -0.48626
 Alpha  occ. eigenvalues --   -0.48565  -0.48370  -0.47930  -0.47805  -0.47587
 Alpha  occ. eigenvalues --   -0.47413  -0.47377  -0.47300  -0.47069  -0.46849
 Alpha  occ. eigenvalues --   -0.46307  -0.46133  -0.46022  -0.45879  -0.45737
 Alpha  occ. eigenvalues --   -0.45501  -0.45250  -0.45220  -0.45114  -0.44688
 Alpha  occ. eigenvalues --   -0.44622  -0.44497  -0.44407  -0.44340  -0.43996
 Alpha  occ. eigenvalues --   -0.43660  -0.43584  -0.43479  -0.43339  -0.43238
 Alpha  occ. eigenvalues --   -0.43051  -0.42765  -0.42509  -0.42269  -0.42117
 Alpha  occ. eigenvalues --   -0.42042  -0.41916  -0.41794  -0.41734  -0.41580
 Alpha  occ. eigenvalues --   -0.41490  -0.41460  -0.41277  -0.41110  -0.41024
 Alpha  occ. eigenvalues --   -0.40821  -0.40466  -0.40438  -0.40285  -0.40065
 Alpha  occ. eigenvalues --   -0.39938  -0.39807  -0.39743  -0.39609  -0.39480
 Alpha  occ. eigenvalues --   -0.39410  -0.39258  -0.39184  -0.39016  -0.38857
 Alpha  occ. eigenvalues --   -0.38745  -0.38398  -0.38278  -0.38240  -0.38057
 Alpha  occ. eigenvalues --   -0.37947  -0.37801  -0.37646  -0.37464  -0.37370
 Alpha  occ. eigenvalues --   -0.37241  -0.37201  -0.37029  -0.36860  -0.36269
 Alpha  occ. eigenvalues --   -0.36220  -0.36151  -0.35973  -0.35780  -0.35708
 Alpha  occ. eigenvalues --   -0.35515  -0.35436  -0.35405  -0.35130  -0.34772
 Alpha  occ. eigenvalues --   -0.34548  -0.34386  -0.34266  -0.33925  -0.33871
 Alpha  occ. eigenvalues --   -0.33313  -0.33175  -0.33131  -0.33031  -0.32851
 Alpha  occ. eigenvalues --   -0.32721  -0.32505  -0.32347  -0.32292  -0.32094
 Alpha  occ. eigenvalues --   -0.31631  -0.31540  -0.31404  -0.30568  -0.29653
 Alpha  occ. eigenvalues --   -0.29402  -0.29197  -0.28869  -0.28589  -0.28342
 Alpha  occ. eigenvalues --   -0.27623  -0.27350  -0.27123  -0.26794  -0.26409
 Alpha  occ. eigenvalues --   -0.26262  -0.26137  -0.26024  -0.25036  -0.24824
 Alpha  occ. eigenvalues --   -0.24801  -0.24418  -0.24327  -0.24081  -0.24065
 Alpha  occ. eigenvalues --   -0.23643  -0.23408  -0.23150  -0.22778  -0.22752
 Alpha  occ. eigenvalues --   -0.22526  -0.22091  -0.21727  -0.21551  -0.21368
 Alpha  occ. eigenvalues --   -0.21176  -0.20713  -0.19771  -0.19604  -0.19349
 Alpha  occ. eigenvalues --   -0.19163  -0.18275  -0.15799
 Alpha virt. eigenvalues --   -0.09718  -0.04311  -0.03623  -0.03400  -0.02665
 Alpha virt. eigenvalues --   -0.01537  -0.00882  -0.00571  -0.00348   0.00055
 Alpha virt. eigenvalues --    0.00106   0.00719   0.01078   0.01362   0.01452
 Alpha virt. eigenvalues --    0.01832   0.02206   0.02910   0.03314   0.03781
 Alpha virt. eigenvalues --    0.04125   0.04352   0.04440   0.04643   0.04929
 Alpha virt. eigenvalues --    0.05164   0.05482   0.05532   0.05673   0.05741
 Alpha virt. eigenvalues --    0.05999   0.06231   0.06344   0.06529   0.06537
 Alpha virt. eigenvalues --    0.06762   0.07015   0.07287   0.07391   0.07632
 Alpha virt. eigenvalues --    0.08165   0.08324   0.08489   0.08857   0.09229
 Alpha virt. eigenvalues --    0.09330   0.09408   0.09610   0.09727   0.09951
 Alpha virt. eigenvalues --    0.10126   0.10202   0.10540   0.10831   0.11004
 Alpha virt. eigenvalues --    0.11069   0.11433   0.11642   0.11846   0.11901
 Alpha virt. eigenvalues --    0.12146   0.12259   0.12553   0.12638   0.12774
 Alpha virt. eigenvalues --    0.12908   0.13102   0.13352   0.13473   0.13599
 Alpha virt. eigenvalues --    0.13751   0.13905   0.14109   0.14254   0.14362
 Alpha virt. eigenvalues --    0.14519   0.14575   0.14692   0.14975   0.15182
 Alpha virt. eigenvalues --    0.15302   0.15519   0.15650   0.15852   0.16150
 Alpha virt. eigenvalues --    0.16256   0.16413   0.16445   0.16515   0.16769
 Alpha virt. eigenvalues --    0.16982   0.17143   0.17258   0.17334   0.17439
 Alpha virt. eigenvalues --    0.17735   0.17995   0.18149   0.18521   0.18614
 Alpha virt. eigenvalues --    0.18836   0.19070   0.19294   0.19373   0.19449
 Alpha virt. eigenvalues --    0.19555   0.19848   0.20110   0.20247   0.20365
 Alpha virt. eigenvalues --    0.20439   0.20579   0.20876   0.21157   0.21362
 Alpha virt. eigenvalues --    0.21647   0.21917   0.21990   0.22248   0.22616
 Alpha virt. eigenvalues --    0.22824   0.23229   0.23368   0.23407   0.23596
 Alpha virt. eigenvalues --    0.23949   0.24140   0.24215   0.24537   0.24604
 Alpha virt. eigenvalues --    0.24996   0.25275   0.25359   0.25441   0.25928
 Alpha virt. eigenvalues --    0.25993   0.26296   0.26319   0.26507   0.26699
 Alpha virt. eigenvalues --    0.26892   0.27148   0.27588   0.27861   0.27897
 Alpha virt. eigenvalues --    0.28115   0.28313   0.28543   0.28563   0.28852
 Alpha virt. eigenvalues --    0.29177   0.29683   0.29933   0.30390   0.30506
 Alpha virt. eigenvalues --    0.30666   0.30795   0.30927   0.31158   0.31441
 Alpha virt. eigenvalues --    0.31560   0.31848   0.32017   0.32044   0.32587
 Alpha virt. eigenvalues --    0.32826   0.33214   0.33490   0.33635   0.33841
 Alpha virt. eigenvalues --    0.33968   0.34449   0.34666   0.35199   0.35515
 Alpha virt. eigenvalues --    0.35791   0.35858   0.36300   0.36708   0.36787
 Alpha virt. eigenvalues --    0.37095   0.37405   0.37564   0.37870   0.38115
 Alpha virt. eigenvalues --    0.38302   0.38597   0.38742   0.39215   0.39397
 Alpha virt. eigenvalues --    0.39578   0.39788   0.39983   0.40514   0.40950
 Alpha virt. eigenvalues --    0.41503   0.41852   0.42086   0.42467   0.42515
 Alpha virt. eigenvalues --    0.42749   0.42988   0.43153   0.43393   0.43587
 Alpha virt. eigenvalues --    0.43700   0.43944   0.43953   0.44419   0.44616
 Alpha virt. eigenvalues --    0.44699   0.44829   0.45070   0.45107   0.45412
 Alpha virt. eigenvalues --    0.45529   0.45641   0.45979   0.46138   0.46296
 Alpha virt. eigenvalues --    0.46573   0.46743   0.46781   0.46845   0.47010
 Alpha virt. eigenvalues --    0.47222   0.47418   0.47643   0.47684   0.48021
 Alpha virt. eigenvalues --    0.48059   0.48356   0.48498   0.48781   0.48998
 Alpha virt. eigenvalues --    0.49175   0.49351   0.49624   0.49680   0.49777
 Alpha virt. eigenvalues --    0.49977   0.50212   0.50516   0.50685   0.51035
 Alpha virt. eigenvalues --    0.51120   0.51597   0.51725   0.51913   0.52108
 Alpha virt. eigenvalues --    0.52332   0.52368   0.52684   0.52837   0.53097
 Alpha virt. eigenvalues --    0.53471   0.53607   0.53730   0.53903   0.53926
 Alpha virt. eigenvalues --    0.54059   0.54188   0.54311   0.54652   0.54827
 Alpha virt. eigenvalues --    0.54938   0.55237   0.55379   0.55696   0.55969
 Alpha virt. eigenvalues --    0.56106   0.56177   0.56513   0.56542   0.56611
 Alpha virt. eigenvalues --    0.56667   0.56948   0.57132   0.57410   0.57516
 Alpha virt. eigenvalues --    0.57688   0.57927   0.58117   0.58153   0.58689
 Alpha virt. eigenvalues --    0.58960   0.59134   0.59230   0.59348   0.59520
 Alpha virt. eigenvalues --    0.59612   0.59791   0.60019   0.60109   0.60232
 Alpha virt. eigenvalues --    0.60494   0.60608   0.60760   0.60904   0.61025
 Alpha virt. eigenvalues --    0.61125   0.61341   0.61411   0.61473   0.61788
 Alpha virt. eigenvalues --    0.61879   0.61983   0.62278   0.62387   0.62474
 Alpha virt. eigenvalues --    0.62514   0.62707   0.62986   0.63105   0.63144
 Alpha virt. eigenvalues --    0.63309   0.63470   0.63751   0.63786   0.63879
 Alpha virt. eigenvalues --    0.64014   0.64073   0.64274   0.64365   0.64481
 Alpha virt. eigenvalues --    0.64579   0.64676   0.64761   0.64862   0.65060
 Alpha virt. eigenvalues --    0.65152   0.65227   0.65306   0.65413   0.65483
 Alpha virt. eigenvalues --    0.65668   0.65779   0.65968   0.66039   0.66072
 Alpha virt. eigenvalues --    0.66230   0.66364   0.66420   0.66561   0.66668
 Alpha virt. eigenvalues --    0.66879   0.67045   0.67092   0.67193   0.67290
 Alpha virt. eigenvalues --    0.67486   0.67602   0.67733   0.67759   0.67828
 Alpha virt. eigenvalues --    0.67941   0.68092   0.68345   0.68431   0.68595
 Alpha virt. eigenvalues --    0.68676   0.68820   0.68887   0.68995   0.69133
 Alpha virt. eigenvalues --    0.69328   0.69504   0.69642   0.69676   0.69759
 Alpha virt. eigenvalues --    0.69828   0.70054   0.70216   0.70477   0.70517
 Alpha virt. eigenvalues --    0.70621   0.70646   0.70771   0.70980   0.71053
 Alpha virt. eigenvalues --    0.71265   0.71389   0.71511   0.71610   0.71698
 Alpha virt. eigenvalues --    0.71839   0.71991   0.72175   0.72228   0.72421
 Alpha virt. eigenvalues --    0.72516   0.72787   0.73005   0.73062   0.73241
 Alpha virt. eigenvalues --    0.73635   0.73792   0.73994   0.74034   0.74183
 Alpha virt. eigenvalues --    0.74375   0.74484   0.74734   0.74998   0.75140
 Alpha virt. eigenvalues --    0.75417   0.75523   0.75810   0.76018   0.76107
 Alpha virt. eigenvalues --    0.76327   0.76517   0.76555   0.76929   0.77073
 Alpha virt. eigenvalues --    0.77338   0.77700   0.77759   0.78131   0.78434
 Alpha virt. eigenvalues --    0.78715   0.78818   0.79183   0.79289   0.79547
 Alpha virt. eigenvalues --    0.79769   0.80024   0.80347   0.80594   0.80674
 Alpha virt. eigenvalues --    0.81217   0.81270   0.81386   0.81733   0.82053
 Alpha virt. eigenvalues --    0.82202   0.82413   0.82783   0.82919   0.83425
 Alpha virt. eigenvalues --    0.83452   0.83848   0.83901   0.84148   0.84610
 Alpha virt. eigenvalues --    0.84845   0.85038   0.85176   0.85366   0.85535
 Alpha virt. eigenvalues --    0.86162   0.86383   0.86436   0.87131   0.87304
 Alpha virt. eigenvalues --    0.87466   0.87749   0.88171   0.88259   0.88382
 Alpha virt. eigenvalues --    0.88529   0.88804   0.88967   0.89326   0.89828
 Alpha virt. eigenvalues --    0.89922   0.90746   0.90787   0.91061   0.91203
 Alpha virt. eigenvalues --    0.91541   0.91756   0.92566   0.92984   0.93044
 Alpha virt. eigenvalues --    0.93478   0.93746   0.93916   0.94322   0.94688
 Alpha virt. eigenvalues --    0.94793   0.94897   0.95056   0.95245   0.95908
 Alpha virt. eigenvalues --    0.96057   0.96358   0.96388   0.96572   0.97167
 Alpha virt. eigenvalues --    0.97319   0.97445   0.97598   0.97981   0.98305
 Alpha virt. eigenvalues --    0.98518   0.98841   0.98905   0.99231   0.99464
 Alpha virt. eigenvalues --    0.99665   0.99889   1.00300   1.00483   1.01031
 Alpha virt. eigenvalues --    1.01158   1.01459   1.01692   1.02119   1.02216
 Alpha virt. eigenvalues --    1.02359   1.02699   1.03245   1.03629   1.03924
 Alpha virt. eigenvalues --    1.04380   1.04548   1.04874   1.05064   1.05623
 Alpha virt. eigenvalues --    1.05814   1.06109   1.06473   1.06664   1.06955
 Alpha virt. eigenvalues --    1.07131   1.07531   1.08067   1.08474   1.08546
 Alpha virt. eigenvalues --    1.08638   1.08874   1.09211   1.09645   1.10046
 Alpha virt. eigenvalues --    1.10476   1.10590   1.10802   1.11061   1.11565
 Alpha virt. eigenvalues --    1.11779   1.11905   1.12118   1.12218   1.12465
 Alpha virt. eigenvalues --    1.12877   1.12988   1.13474   1.13738   1.14167
 Alpha virt. eigenvalues --    1.14376   1.14528   1.14729   1.14927   1.15116
 Alpha virt. eigenvalues --    1.15592   1.15773   1.16038   1.16138   1.16428
 Alpha virt. eigenvalues --    1.16631   1.16962   1.17030   1.17435   1.17468
 Alpha virt. eigenvalues --    1.17964   1.18181   1.18316   1.18906   1.19153
 Alpha virt. eigenvalues --    1.19365   1.19425   1.19673   1.19822   1.20107
 Alpha virt. eigenvalues --    1.20421   1.20893   1.21263   1.21562   1.21673
 Alpha virt. eigenvalues --    1.21895   1.22135   1.22371   1.22838   1.23064
 Alpha virt. eigenvalues --    1.23258   1.23473   1.23626   1.23674   1.23982
 Alpha virt. eigenvalues --    1.24281   1.24488   1.24798   1.24980   1.25092
 Alpha virt. eigenvalues --    1.25410   1.25893   1.26077   1.26367   1.26659
 Alpha virt. eigenvalues --    1.27044   1.27433   1.27907   1.28182   1.28378
 Alpha virt. eigenvalues --    1.28563   1.28869   1.29171   1.29507   1.29711
 Alpha virt. eigenvalues --    1.29895   1.29979   1.30116   1.30364   1.30582
 Alpha virt. eigenvalues --    1.30873   1.31135   1.31576   1.31892   1.32255
 Alpha virt. eigenvalues --    1.32515   1.32879   1.33096   1.33299   1.33575
 Alpha virt. eigenvalues --    1.33626   1.34152   1.34307   1.34544   1.34783
 Alpha virt. eigenvalues --    1.35019   1.35181   1.35719   1.35901   1.36430
 Alpha virt. eigenvalues --    1.36534   1.36908   1.37287   1.37753   1.38052
 Alpha virt. eigenvalues --    1.38518   1.38925   1.39248   1.39363   1.39630
 Alpha virt. eigenvalues --    1.40057   1.40175   1.40412   1.40757   1.40798
 Alpha virt. eigenvalues --    1.41010   1.41524   1.41639   1.41738   1.41888
 Alpha virt. eigenvalues --    1.42076   1.42418   1.42661   1.42876   1.43550
 Alpha virt. eigenvalues --    1.43756   1.43991   1.44405   1.44555   1.45121
 Alpha virt. eigenvalues --    1.45766   1.45946   1.46157   1.46642   1.46891
 Alpha virt. eigenvalues --    1.46958   1.47609   1.47928   1.48325   1.48517
 Alpha virt. eigenvalues --    1.48824   1.49134   1.49318   1.49685   1.49769
 Alpha virt. eigenvalues --    1.49926   1.50051   1.50103   1.50372   1.50855
 Alpha virt. eigenvalues --    1.51257   1.51360   1.51733   1.52171   1.52386
 Alpha virt. eigenvalues --    1.52526   1.52853   1.53073   1.53371   1.53734
 Alpha virt. eigenvalues --    1.53913   1.54480   1.54660   1.55060   1.55445
 Alpha virt. eigenvalues --    1.55643   1.56215   1.56247   1.56860   1.57100
 Alpha virt. eigenvalues --    1.57664   1.57836   1.57980   1.58427   1.58797
 Alpha virt. eigenvalues --    1.59441   1.59571   1.59957   1.60506   1.60701
 Alpha virt. eigenvalues --    1.60860   1.61254   1.61513   1.61737   1.62074
 Alpha virt. eigenvalues --    1.62202   1.62444   1.62497   1.63549   1.63789
 Alpha virt. eigenvalues --    1.64375   1.64675   1.64949   1.65117   1.65420
 Alpha virt. eigenvalues --    1.65759   1.66276   1.66429   1.66824   1.67397
 Alpha virt. eigenvalues --    1.67530   1.67859   1.68110   1.68141   1.68831
 Alpha virt. eigenvalues --    1.68955   1.69285   1.69422   1.69967   1.70142
 Alpha virt. eigenvalues --    1.70208   1.70577   1.70891   1.71209   1.71574
 Alpha virt. eigenvalues --    1.71644   1.71959   1.72010   1.72039   1.72167
 Alpha virt. eigenvalues --    1.72516   1.72889   1.73025   1.73354   1.73650
 Alpha virt. eigenvalues --    1.73781   1.73937   1.74034   1.74084   1.74464
 Alpha virt. eigenvalues --    1.74716   1.74852   1.74940   1.74994   1.75283
 Alpha virt. eigenvalues --    1.75511   1.75861   1.75995   1.76062   1.76281
 Alpha virt. eigenvalues --    1.76359   1.76429   1.76612   1.76852   1.77058
 Alpha virt. eigenvalues --    1.77111   1.77236   1.77467   1.77718   1.77843
 Alpha virt. eigenvalues --    1.78086   1.78198   1.78426   1.78656   1.78800
 Alpha virt. eigenvalues --    1.78903   1.78958   1.79183   1.79323   1.79485
 Alpha virt. eigenvalues --    1.79574   1.79871   1.80026   1.80130   1.80202
 Alpha virt. eigenvalues --    1.80526   1.80612   1.80696   1.80792   1.81006
 Alpha virt. eigenvalues --    1.81239   1.81502   1.81626   1.81795   1.82111
 Alpha virt. eigenvalues --    1.82214   1.82432   1.82488   1.82813   1.83058
 Alpha virt. eigenvalues --    1.83104   1.83337   1.83466   1.83736   1.84087
 Alpha virt. eigenvalues --    1.84096   1.84164   1.84635   1.84890   1.85027
 Alpha virt. eigenvalues --    1.85369   1.85515   1.85600   1.85896   1.86119
 Alpha virt. eigenvalues --    1.86275   1.86463   1.86649   1.86926   1.87095
 Alpha virt. eigenvalues --    1.87323   1.87474   1.87527   1.87716   1.87986
 Alpha virt. eigenvalues --    1.88259   1.88522   1.88681   1.88853   1.88982
 Alpha virt. eigenvalues --    1.89148   1.89271   1.89702   1.89862   1.89936
 Alpha virt. eigenvalues --    1.90030   1.90162   1.90401   1.90568   1.90599
 Alpha virt. eigenvalues --    1.90915   1.91138   1.91431   1.91600   1.91688
 Alpha virt. eigenvalues --    1.91987   1.92226   1.92552   1.92652   1.92873
 Alpha virt. eigenvalues --    1.93105   1.93276   1.93486   1.93532   1.93891
 Alpha virt. eigenvalues --    1.94204   1.94321   1.94657   1.94879   1.95036
 Alpha virt. eigenvalues --    1.95318   1.95572   1.95739   1.95872   1.96165
 Alpha virt. eigenvalues --    1.96469   1.96726   1.96985   1.97152   1.97218
 Alpha virt. eigenvalues --    1.97516   1.97823   1.97864   1.98165   1.98341
 Alpha virt. eigenvalues --    1.98470   1.98862   1.98970   1.99080   1.99258
 Alpha virt. eigenvalues --    1.99482   1.99786   1.99846   2.00160   2.00294
 Alpha virt. eigenvalues --    2.00474   2.00676   2.00974   2.01326   2.01452
 Alpha virt. eigenvalues --    2.01812   2.02145   2.02316   2.02630   2.02889
 Alpha virt. eigenvalues --    2.03309   2.03504   2.03782   2.03991   2.04257
 Alpha virt. eigenvalues --    2.04427   2.04547   2.04974   2.05121   2.05479
 Alpha virt. eigenvalues --    2.05798   2.05878   2.06247   2.06775   2.06982
 Alpha virt. eigenvalues --    2.07346   2.07880   2.08043   2.08334   2.08614
 Alpha virt. eigenvalues --    2.08648   2.08884   2.09284   2.09663   2.09814
 Alpha virt. eigenvalues --    2.10083   2.10359   2.10878   2.11006   2.11115
 Alpha virt. eigenvalues --    2.11452   2.11599   2.11855   2.12028   2.12572
 Alpha virt. eigenvalues --    2.12712   2.13391   2.13622   2.13797   2.14269
 Alpha virt. eigenvalues --    2.14482   2.14666   2.15100   2.15402   2.15445
 Alpha virt. eigenvalues --    2.15679   2.15832   2.16159   2.16557   2.16592
 Alpha virt. eigenvalues --    2.17150   2.17226   2.17374   2.17451   2.17803
 Alpha virt. eigenvalues --    2.18067   2.18336   2.18815   2.19117   2.19267
 Alpha virt. eigenvalues --    2.19460   2.19729   2.20133   2.20292   2.20526
 Alpha virt. eigenvalues --    2.20700   2.20801   2.21446   2.21722   2.22144
 Alpha virt. eigenvalues --    2.22330   2.22567   2.22752   2.23797   2.23982
 Alpha virt. eigenvalues --    2.24321   2.24406   2.25063   2.25205   2.25332
 Alpha virt. eigenvalues --    2.25555   2.25574   2.26057   2.26520   2.27125
 Alpha virt. eigenvalues --    2.27692   2.27841   2.28341   2.28473   2.28794
 Alpha virt. eigenvalues --    2.29407   2.30094   2.30490   2.30691   2.30807
 Alpha virt. eigenvalues --    2.31137   2.31586   2.31733   2.32120   2.32479
 Alpha virt. eigenvalues --    2.32685   2.32779   2.33076   2.33315   2.33987
 Alpha virt. eigenvalues --    2.34187   2.34692   2.34964   2.35080   2.35451
 Alpha virt. eigenvalues --    2.35473   2.35975   2.36167   2.36233   2.36551
 Alpha virt. eigenvalues --    2.36609   2.37328   2.37373   2.37885   2.38358
 Alpha virt. eigenvalues --    2.38387   2.38790   2.39049   2.39267   2.39462
 Alpha virt. eigenvalues --    2.39878   2.40351   2.40617   2.41262   2.41741
 Alpha virt. eigenvalues --    2.42040   2.42418   2.42460   2.43007   2.43333
 Alpha virt. eigenvalues --    2.43846   2.44129   2.44146   2.44465   2.45314
 Alpha virt. eigenvalues --    2.45765   2.46107   2.46424   2.47197   2.47217
 Alpha virt. eigenvalues --    2.47640   2.47810   2.48107   2.48420   2.48590
 Alpha virt. eigenvalues --    2.48948   2.49748   2.50125   2.50341   2.50682
 Alpha virt. eigenvalues --    2.50940   2.51352   2.51772   2.51847   2.52085
 Alpha virt. eigenvalues --    2.52314   2.52415   2.52620   2.53516   2.54265
 Alpha virt. eigenvalues --    2.54287   2.54928   2.55056   2.55508   2.55724
 Alpha virt. eigenvalues --    2.55957   2.56099   2.56377   2.56564   2.56886
 Alpha virt. eigenvalues --    2.57059   2.57435   2.57684   2.58098   2.58546
 Alpha virt. eigenvalues --    2.58652   2.59146   2.59424   2.59632   2.60168
 Alpha virt. eigenvalues --    2.60591   2.60816   2.61175   2.61817   2.62043
 Alpha virt. eigenvalues --    2.62437   2.62625   2.63402   2.63484   2.63829
 Alpha virt. eigenvalues --    2.64080   2.64622   2.65218   2.65263   2.65702
 Alpha virt. eigenvalues --    2.66281   2.66483   2.67034   2.67328   2.67417
 Alpha virt. eigenvalues --    2.67633   2.67924   2.68214   2.68418   2.68505
 Alpha virt. eigenvalues --    2.68781   2.69160   2.69283   2.69689   2.69935
 Alpha virt. eigenvalues --    2.70360   2.70583   2.70637   2.71299   2.71456
 Alpha virt. eigenvalues --    2.71598   2.71764   2.72048   2.72120   2.72387
 Alpha virt. eigenvalues --    2.72807   2.73042   2.73223   2.73397   2.73625
 Alpha virt. eigenvalues --    2.73927   2.74157   2.74285   2.74452   2.74843
 Alpha virt. eigenvalues --    2.75023   2.75338   2.75395   2.76010   2.76125
 Alpha virt. eigenvalues --    2.76352   2.76527   2.76728   2.77096   2.77353
 Alpha virt. eigenvalues --    2.77466   2.77826   2.78004   2.78104   2.78157
 Alpha virt. eigenvalues --    2.78578   2.78730   2.78976   2.79326   2.80222
 Alpha virt. eigenvalues --    2.80318   2.80598   2.80754   2.80860   2.81196
 Alpha virt. eigenvalues --    2.81280   2.81621   2.81801   2.82197   2.82814
 Alpha virt. eigenvalues --    2.83468   2.83609   2.83729   2.83934   2.84085
 Alpha virt. eigenvalues --    2.84385   2.84555   2.84721   2.85289   2.85620
 Alpha virt. eigenvalues --    2.86166   2.86554   2.86834   2.87220   2.87477
 Alpha virt. eigenvalues --    2.87588   2.87795   2.88337   2.88746   2.89125
 Alpha virt. eigenvalues --    2.89498   2.89841   2.89986   2.90212   2.90528
 Alpha virt. eigenvalues --    2.90585   2.91003   2.91599   2.91767   2.92066
 Alpha virt. eigenvalues --    2.92176   2.92357   2.92673   2.92977   2.93537
 Alpha virt. eigenvalues --    2.94168   2.94528   2.94573   2.95380   2.95476
 Alpha virt. eigenvalues --    2.95738   2.95802   2.96243   2.96472   2.96816
 Alpha virt. eigenvalues --    2.97062   2.97183   2.97264   2.97659   2.97684
 Alpha virt. eigenvalues --    2.97851   2.98297   2.98544   2.98673   2.99994
 Alpha virt. eigenvalues --    3.00090   3.00316   3.00558   3.01251   3.01457
 Alpha virt. eigenvalues --    3.01933   3.02401   3.02584   3.02823   3.02917
 Alpha virt. eigenvalues --    3.03225   3.03628   3.03787   3.04215   3.04664
 Alpha virt. eigenvalues --    3.04986   3.05095   3.06443   3.07389   3.07764
 Alpha virt. eigenvalues --    3.08442   3.08852   3.09165   3.09586   3.10419
 Alpha virt. eigenvalues --    3.10515   3.10783   3.11077   3.11306   3.11591
 Alpha virt. eigenvalues --    3.12360   3.12483   3.12690   3.12970   3.13419
 Alpha virt. eigenvalues --    3.13803   3.14995   3.15095   3.15293   3.15426
 Alpha virt. eigenvalues --    3.17107   3.17536   3.17757   3.17947   3.18050
 Alpha virt. eigenvalues --    3.18134   3.18303   3.18597   3.19757   3.19968
 Alpha virt. eigenvalues --    3.20311   3.20376   3.20463   3.20598   3.21158
 Alpha virt. eigenvalues --    3.21701   3.21861   3.22503   3.22587   3.22870
 Alpha virt. eigenvalues --    3.23153   3.23550   3.23719   3.23921   3.24099
 Alpha virt. eigenvalues --    3.24658   3.24732   3.25533   3.25988   3.26291
 Alpha virt. eigenvalues --    3.27067   3.28322   3.28517   3.29180   3.30640
 Alpha virt. eigenvalues --    3.31105   3.32036   3.32333   3.32713   3.32921
 Alpha virt. eigenvalues --    3.34899   3.36419   3.38280   3.38700   3.40897
 Alpha virt. eigenvalues --    3.41031   3.45365   3.46194   3.49733   3.50702
 Alpha virt. eigenvalues --    3.52471   3.53469   3.53769   3.54633   3.56443
 Alpha virt. eigenvalues --    3.57174   3.57551   3.59034   3.59500   3.60190
 Alpha virt. eigenvalues --    3.60339   3.60966   3.61193   3.62065   3.62465
 Alpha virt. eigenvalues --    3.63268   3.65484   3.66188   3.67133   3.67447
 Alpha virt. eigenvalues --    3.67695   3.68057   3.68714   3.70018   3.70560
 Alpha virt. eigenvalues --    3.70641   3.71156   3.71829   3.72252   3.72436
 Alpha virt. eigenvalues --    3.73181   3.73516   3.73775   3.74151   3.75211
 Alpha virt. eigenvalues --    3.77381   3.78650   3.79718   3.82861
          Condensed to atoms (all electrons):
 Mulliken charges:
               1
     1  C    0.068635
     2  C    0.005250
     3  O   -0.300988
     4  H    0.039605
     5  H    0.029084
     6  H    0.010202
     7  N   -0.109834
     8  C    0.167034
     9  C    0.031602
    10  O   -0.299474
    11  C    0.035171
    12  C    0.171418
    13  O   -0.463678
    14  O   -0.403410
    15  H    0.112815
    16  H    0.018160
    17  H   -0.001653
    18  H    0.015632
    19  N   -0.154951
    20  C    0.144732
    21  C    0.068304
    22  O   -0.308104
    23  C   -0.038881
    24  C    0.031645
    25  C   -0.042532
    26  C    0.000069
    27  N    0.086980
    28  H    0.150072
    29  H   -0.037472
    30  H    0.016214
    31  H    0.037029
    32  H    0.018171
    33  H    0.051845
    34  H    0.018530
    35  H    0.040196
    36  H    0.108932
    37  H    0.058396
    38  H    0.199033
    39  H    0.196015
    40  H    0.179694
    41  N   -0.093863
    42  C    0.132636
    43  C    0.048888
    44  O   -0.275522
    45  C    0.063549
    46  C    0.107913
    47  O   -0.388469
    48  O   -0.476961
    49  H    0.165957
    50  H    0.002758
    51  H    0.011659
    52  H    0.002521
    53  N   -0.186140
    54  C    0.254818
    55  C    0.002023
    56  O   -0.278262
    57  H    0.142064
    58  H    0.018400
    59  H    0.006412
    60  N   -0.172471
    61  C    0.152254
    62  C    0.025259
    63  O   -0.300509
    64  C    0.129384
    65  C    0.087932
    66  N   -0.036249
    67  O   -0.371255
    68  H    0.136709
    69  H    0.034658
    70  H    0.080512
    71  H   -0.016168
    72  H    0.141134
    73  H    0.112276
    74  N   -0.156224
    75  C    0.213025
    76  C    0.061814
    77  O   -0.298059
    78  H    0.143746
    79  H    0.034606
    80  H    0.030062
    81  N   -0.142762
    82  C    0.130417
    83  C    0.111903
    84  O   -0.333068
    85  C    0.151045
    86  C   -0.015633
    87  C    0.048617
    88  C    0.018260
    89  C   -0.000416
    90  C   -0.063632
    91  C    0.150788
    92  O   -0.173629
    93  H    0.150867
    94  H    0.000509
    95  H   -0.023676
    96  H   -0.077135
    97  H   -0.096229
    98  H   -0.033463
    99  H   -0.029613
   100  H   -0.049235
   101  H    0.167949
   102  N   -0.129555
   103  C    0.152985
   104  C    0.073334
   105  O   -0.289614
   106  C   -0.068174
   107  C   -0.046049
   108  C    0.053075
   109  C    0.039163
   110  H    0.135812
   111  H    0.019857
   112  H   -0.013597
   113  H    0.016210
   114  H    0.020222
   115  H    0.012320
   116  H    0.004751
   117  H    0.007676
   118  H    0.021966
   119  H   -0.008575
   120  H   -0.000950
   121  N   -0.119779
   122  C    0.112028
   123  C    0.086900
   124  O   -0.268852
   125  C    0.177536
   126  O   -0.291350
   127  H    0.134560
   128  H    0.046786
   129  H    0.007637
   130  H    0.001096
   131  H    0.182950
   132  N   -0.142009
   133  C    0.098018
   134  C    0.050225
   135  O   -0.255310
   136  C    0.065294
   137  H    0.110863
   138  H    0.023425
   139  H    0.032373
   140  H    0.002203
   141  H    0.048779
   142  N   -0.124878
   143  C    0.116370
   144  C    0.075042
   145  O   -0.258962
   146  C    0.039749
   147  H    0.089825
   148  H    0.017028
   149  H    0.034159
   150  H   -0.005009
   151  H    0.017074
   152  N   -0.147025
   153  C    0.179298
   154  C    0.059698
   155  O   -0.288358
   156  C   -0.093786
   157  C    0.159849
   158  C    0.121845
   159  O   -0.408952
   160  O   -0.432019
   161  H    0.107297
   162  H   -0.003668
   163  H    0.039967
   164  H   -0.032641
   165  H   -0.023195
   166  H   -0.031890
   167  N   -0.156480
   168  C    0.139132
   169  H    0.019694
   170  H    0.033931
   171  H    0.007924
   172  H    0.126671
   173  Ca   1.278955
   174  O   -0.271142
   175  H    0.193203
   176  H    0.182895
 Sum of Mulliken charges =   0.00000
 Mulliken charges with hydrogens summed into heavy atoms:
               1
     1  C    0.147526
     2  C    0.005250
     3  O   -0.300988
     7  N    0.002981
     8  C    0.185194
     9  C    0.031602
    10  O   -0.299474
    11  C    0.049149
    12  C    0.171418
    13  O   -0.463678
    14  O   -0.403410
    19  N   -0.004879
    20  C    0.107260
    21  C    0.068304
    22  O   -0.308104
    23  C    0.014363
    24  C    0.101660
    25  C    0.016195
    26  C    0.167397
    27  N    0.661723
    41  N    0.072094
    42  C    0.135394
    43  C    0.048888
    44  O   -0.275522
    45  C    0.077728
    46  C    0.107913
    47  O   -0.388469
    48  O   -0.476961
    53  N   -0.044076
    54  C    0.279630
    55  C    0.002023
    56  O   -0.278262
    60  N   -0.035762
    61  C    0.186911
    62  C    0.025259
    63  O   -0.300509
    64  C    0.193728
    65  C    0.087932
    66  N    0.217160
    67  O   -0.371255
    74  N   -0.012478
    75  C    0.277693
    76  C    0.061814
    77  O   -0.298059
    81  N    0.008104
    82  C    0.130926
    83  C    0.111903
    84  O   -0.333068
    85  C    0.050235
    86  C   -0.015633
    87  C   -0.047613
    88  C   -0.015202
    89  C   -0.030029
    90  C   -0.112867
    91  C    0.150788
    92  O   -0.005679
   102  N    0.006256
   103  C    0.172842
   104  C    0.073334
   105  O   -0.289614
   106  C   -0.081771
   107  C   -0.009616
   108  C    0.077823
   109  C    0.051604
   121  N    0.014781
   122  C    0.158813
   123  C    0.086900
   124  O   -0.268852
   125  C    0.186269
   126  O   -0.108400
   132  N   -0.031146
   133  C    0.121443
   134  C    0.050225
   135  O   -0.255310
   136  C    0.148649
   142  N   -0.035053
   143  C    0.133398
   144  C    0.075042
   145  O   -0.258962
   146  C    0.085973
   152  N   -0.039728
   153  C    0.175631
   154  C    0.059698
   155  O   -0.288358
   156  C   -0.086460
   157  C    0.104764
   158  C    0.121845
   159  O   -0.408952
   160  O   -0.432019
   167  N   -0.029809
   168  C    0.200680
   173  Ca   1.278955
   174  O    0.104956
 DipInt: DoE/N= T F RetVal/Mat= T F Init=T NMatP=  1 IDeriv=0 Min/MaxMlt=  0  4
 Entering OneElI...
 OneElI was handed  4286741430 working-precision words.
 Multipole integrals L=0 to 4 MinM= 0 MaxM= 0.
 Requested accuracy = 0.1000D-12
 ShPair: Thresh= 1.00D-13 NBox=     0 BxSize= 0.00D+00 RnKept= 2.55D+01
         NSMCal=               327645 NSMKep=              159628
 PrsmSu:  NPrtUS=   1 ThrOK=F IAlg=1 NPAlg=1 LenDen=           0.
 Prism:   IPart=     0 DynPar=F LinDyn=F Incr=         512.
 PRISM was handed  4276692758 working-precision words and159628 shell-pairs
 IPart=  0 NShTot=      159628 NBatch=         450 AvBLen=       354.7
 PrSmSu:  NxtVal=            513.
 Electronic moments (au):
       -716.00000000          9.85423907          2.38392387         -0.35029300
     -54506.28034736     -31915.90494156     -11142.10784705         42.64945300
        -35.33881566         75.56458327    -135052.84501930     -24757.47532288
     -12196.12787980      47642.18333875     107647.99036882      42410.89820379
      -4481.74666437     -13809.92389989      -1561.92799585     -24424.45479562
   -8472410.01763729   -3709431.54314411    -495433.04419573     496580.83710872
     422195.89102279    -858584.08203836     -13381.13500393     -71118.71614086
     -55196.12616446   -2054734.57903662    -647378.54010379    -338346.67090566
     -71533.14123288     -33066.76279990      30324.97802320
 Electronic spatial extent (au):  <R**2>=          97564.2931
 DipInt: DoE/N= F T RetVal/Mat= T F Init=T NMatP=  1 IDeriv=0 Min/MaxMlt=  0  4
 Nuclear    moments (au):
        716.00000000          0.00000000          0.00000000          0.00000000
      53977.49326580      31702.93844638      10732.87211297          0.00000000
          0.00000000          0.00000000     136022.18776477      27851.16632662
      12302.81476041     -46145.55183099    -108500.17052766     -42917.33532817
       4762.17560440      13675.54457935       1981.79763584      24423.83939553
    8254562.49192418    3667471.74032607     457022.18580385    -501350.13117106
    -426998.70464128     879032.73994544      22357.51184442      69716.53811615
      58878.21964724    2008866.58924718     610978.19345799     314183.63944619
      74193.57300772      31849.35552119     -30252.87221624
 Total      moments (au):
          0.00000000          9.85423907          2.38392387         -0.35029300
       -528.78708156       -212.96649519       -409.23573408         42.64945300
        -35.33881566         75.56458327        969.34274547       3093.69100374
        106.68688060       1496.63150775       -852.18015883       -506.43712439
        280.42894002       -134.37932054        419.86963999         -0.61540009
    -217847.52571311     -41959.80281804     -38410.85839188      -4769.29406234
      -4802.81361849      20448.65790708       8976.37684050      -1402.17802471
       3682.09348278     -45867.98978945     -36400.34664580     -24163.03145947
       2660.43177483      -1217.40727871         72.10580696
 Traceless Quadrup. (au):
       -145.12397795        170.69660842        -25.57263047         42.64945300
        -35.33881566         75.56458327
 Charge=              0.0000 electrons
 Dipole moment (field-independent basis, Debye):
    X=             25.0470    Y=              6.0593    Z=             -0.8904  Tot=             25.7849
 Quadrupole moment (field-independent basis, Debye-Ang):
   XX=           -711.2367   YY=           -286.4472   ZZ=           -550.4360
   XY=             57.3650   XZ=            -47.5319   YZ=            101.6369
 Traceless Quadrupole moment (field-independent basis, Debye-Ang):
   XX=           -195.1967   YY=            229.5928   ZZ=            -34.3961
   XY=             57.3650   XZ=            -47.5319   YZ=            101.6369
 Octapole moment (field-independent basis, Debye-Ang**2):
  XXX=            689.9408  YYY=           2201.9699  ZZZ=             75.9356  XYY=           1065.2446
  XXY=           -606.5490  XXZ=           -360.4624  XZZ=            199.5985  YZZ=            -95.6460
  YYZ=            298.8470  XYZ=             -0.4380
 Hexadecapole moment (field-independent basis, Debye-Ang**3):
 XXXX=         -82051.8189 YYYY=         -15804.0727 ZZZZ=         -14467.3702 XXXY=          -1796.3447
 XXXZ=          -1808.9698 YYYX=           7701.9446 YYYZ=           3380.9337 ZZZX=           -528.1274
 ZZZY=           1386.8529 XXYY=         -17276.0833 XXZZ=         -13710.1151 YYZZ=          -9100.9557
 XXYZ=           1002.0461 YYXZ=           -458.5339 ZZXY=             27.1585
 N-N= 2.159404682100D+04 E-N=-5.566946239801D+04  KE= 5.290503003230D+03
 Leave Link  601 at Mon Sep 16 19:27:58 2019, MaxMem=  4294967296 cpu:        21.9
 FitSet:  NAtFit=   176 NAtPot=   176 NAtFrz=     0 MDM=   180 TotChg=   0.00000
 Merz-Kollman atomic radii used.
 Read replacement radii for each type of atom:
 Rad(20) =   1.700000000000D+00
 Atom Element Radius
    1     6    1.50
    2     6    1.50
    3     8    1.40
    4     1    1.20
    5     1    1.20
    6     1    1.20
    7     7    1.50
    8     6    1.50
    9     6    1.50
   10     8    1.40
   11     6    1.50
   12     6    1.50
   13     8    1.40
   14     8    1.40
   15     1    1.20
   16     1    1.20
   17     1    1.20
   18     1    1.20
   19     7    1.50
   20     6    1.50
   21     6    1.50
   22     8    1.40
   23     6    1.50
   24     6    1.50
   25     6    1.50
   26     6    1.50
   27     7    1.50
   28     1    1.20
   29     1    1.20
   30     1    1.20
   31     1    1.20
   32     1    1.20
   33     1    1.20
   34     1    1.20
   35     1    1.20
   36     1    1.20
   37     1    1.20
   38     1    1.20
   39     1    1.20
   40     1    1.20
   41     7    1.50
   42     6    1.50
   43     6    1.50
   44     8    1.40
   45     6    1.50
   46     6    1.50
   47     8    1.40
   48     8    1.40
   49     1    1.20
   50     1    1.20
   51     1    1.20
   52     1    1.20
   53     7    1.50
   54     6    1.50
   55     6    1.50
   56     8    1.40
   57     1    1.20
   58     1    1.20
   59     1    1.20
   60     7    1.50
   61     6    1.50
   62     6    1.50
   63     8    1.40
   64     6    1.50
   65     6    1.50
   66     7    1.50
   67     8    1.40
   68     1    1.20
   69     1    1.20
   70     1    1.20
   71     1    1.20
   72     1    1.20
   73     1    1.20
   74     7    1.50
   75     6    1.50
   76     6    1.50
   77     8    1.40
   78     1    1.20
   79     1    1.20
   80     1    1.20
   81     7    1.50
   82     6    1.50
   83     6    1.50
   84     8    1.40
   85     6    1.50
   86     6    1.50
   87     6    1.50
   88     6    1.50
   89     6    1.50
   90     6    1.50
   91     6    1.50
   92     8    1.40
   93     1    1.20
   94     1    1.20
   95     1    1.20
   96     1    1.20
   97     1    1.20
   98     1    1.20
   99     1    1.20
  100     1    1.20
  101     1    1.20
  102     7    1.50
  103     6    1.50
  104     6    1.50
  105     8    1.40
  106     6    1.50
  107     6    1.50
  108     6    1.50
  109     6    1.50
  110     1    1.20
  111     1    1.20
  112     1    1.20
  113     1    1.20
  114     1    1.20
  115     1    1.20
  116     1    1.20
  117     1    1.20
  118     1    1.20
  119     1    1.20
  120     1    1.20
  121     7    1.50
  122     6    1.50
  123     6    1.50
  124     8    1.40
  125     6    1.50
  126     8    1.40
  127     1    1.20
  128     1    1.20
  129     1    1.20
  130     1    1.20
  131     1    1.20
  132     7    1.50
  133     6    1.50
  134     6    1.50
  135     8    1.40
  136     6    1.50
  137     1    1.20
  138     1    1.20
  139     1    1.20
  140     1    1.20
  141     1    1.20
  142     7    1.50
  143     6    1.50
  144     6    1.50
  145     8    1.40
  146     6    1.50
  147     1    1.20
  148     1    1.20
  149     1    1.20
  150     1    1.20
  151     1    1.20
  152     7    1.50
  153     6    1.50
  154     6    1.50
  155     8    1.40
  156     6    1.50
  157     6    1.50
  158     6    1.50
  159     8    1.40
  160     8    1.40
  161     1    1.20
  162     1    1.20
  163     1    1.20
  164     1    1.20
  165     1    1.20
  166     1    1.20
  167     7    1.50
  168     6    1.50
  169     1    1.20
  170     1    1.20
  171     1    1.20
  172     1    1.20
  173    20    1.70
  174     8    1.40
  175     1    1.20
  176     1    1.20
 Generate VDW surfaces: Layer= 4 Dens= 6 Start= 1.400 Inc= 0.200

 **********************************************************************

            Electrostatic Properties Using The SCF Density

 **********************************************************************

       Atomic Center    1 is at   0.913612  4.186795  5.398528
       Atomic Center    2 is at   0.823388  3.544796  4.028310
[...]
 **** Fit      -0.009491
 **** Fit      -0.003046
 **** Fit      -0.005918
 **** Fit      -0.009787
 **** Fit      -0.014451
 **** Fit      -0.008116
 **** Fit      -0.012327
 **** Fit      -0.016929
 **** Fit      -0.011185
 **** Fit      -0.015565
 **** Fit      -0.018743
 **** Fit      -0.033384
 **** Fit      -0.018217
 **** Fit      -0.023861
 **** Fit      -0.031073
 **** Fit      -0.038944
 **** Fit      -0.021111
 **** Fit      -0.026750
 **** Fit      -0.033027
 **** Fit      -0.020281
 **** Fit      -0.024892
 **** Fit      -0.038831
 **** Fit       0.002323
 **** Fit      -0.004512
 **** Fit      -0.009934
 **** Fit      -0.014511
 **** Fit      -0.018738
 **** Fit      -0.023061
 **** Fit      -0.027690
 **** Fit      -0.032255
 **** Fit      -0.035528
 **** Fit       0.020025
 **** Fit      -0.001829
 **** Fit      -0.008381
 **** Fit      -0.013931
 **** Fit      -0.018807
 **** Fit      -0.023338
 **** Fit      -0.027301
 **** Fit      -0.029458
 **** Fit      -0.027801
 **** Fit       0.001161
 **** Fit       0.005570
 **** Fit       0.009087
 **** Fit       0.011575
 **** Fit       0.012646
 **** Fit       0.005263
 **** Fit      -0.005823
 **** Fit      -0.012174
 **** Fit      -0.017729
 **** Fit      -0.022017
 **** Fit      -0.023736
 **** Fit      -0.020938
 **** Fit      -0.014154
 **** Fit      -0.006960
 **** Fit      -0.001473
 **** Fit       0.001980
 **** Fit       0.002814
 **** Fit      -0.000006
 **** Fit      -0.009286
 **** Fit      -0.015466
 **** Fit      -0.018040
 **** Fit      -0.013752
 **** Fit      -0.007334
 **** Fit      -0.005209
 **** Fit      -0.012001
 **** Fit      -0.015270
 **** Fit      -0.008708
 **** Fit      -0.029489
 **** Fit      -0.019683
 **** Fit      -0.011084
 **** Fit      -0.003971
 **** Fit      -0.026746
 **** Fit      -0.016692
 **** Fit      -0.008014
 **** Fit      -0.000770
 **** Fit      -0.022190
 **** Fit      -0.012093
 **** Fit      -0.003642
 **** Fit      -0.016722
 **** Fit      -0.007158
 **** Fit       0.000596
 **** Fit      -0.012073
 **** Fit      -0.003615
 **** Fit      -0.005080
 **** Fit       0.001402
 **** Fit      -0.006498
 **** Fit      -0.000480
 **** Fit       0.003340
 **** Fit      -0.005919
 **** Fit      -0.000971
 **** Fit      -0.003735
 **** Fit      -0.000526
 **** Fit       0.000749
 **** Fit       0.001641
 **** Fit       0.001326
 **** Fit       0.001535
 **** Fit       0.004598
 **** Fit       0.003000
 **** Fit       0.002109
 **** Fit       0.001343
 **** Fit       0.000154
 **** Fit       0.005111
 **** Fit       0.003219
 **** Fit       0.001633
 **** Fit      -0.000166
 **** Fit      -0.002576
 **** Fit       0.007186
 **** Fit       0.004409
 **** Fit       0.002020
 **** Fit      -0.000470
 **** Fit      -0.003442
 **** Fit      -0.006936
 **** Fit      -0.010639
 **** Fit      -0.014030
 **** Fit       0.009323
 **** Fit       0.008785
 **** Fit       0.005361
 **** Fit       0.002107
 **** Fit      -0.001224
 **** Fit      -0.004768
 **** Fit      -0.007866
 **** Fit      -0.009031
 **** Fit      -0.006257
 **** Fit       0.000862
 **** Fit       0.008453
 **** Fit       0.012131
 **** Fit       0.011660
 **** Fit       0.005925
 **** Fit       0.002136
 **** Fit      -0.001768
 **** Fit      -0.002919
 **** Fit       0.001709
 **** Fit       0.006686
 **** Fit       0.002045
 **** Fit       0.004483
 **** Fit       0.005121
 **** Fit      -0.006937
 **** Fit      -0.008138
 **** Fit      -0.009321
 **** Fit      -0.005898
 **** Fit      -0.007081
 **** Fit      -0.008184
 **** Fit      -0.009414
 **** Fit      -0.010730
 **** Fit      -0.011911
 **** Fit      -0.012507
 **** Fit      -0.005303
 **** Fit      -0.006112
 **** Fit      -0.007316
 **** Fit      -0.008372
 **** Fit      -0.009543
 **** Fit      -0.010906
 **** Fit      -0.014107
 **** Fit      -0.015340
 **** Fit      -0.015673
 **** Fit      -0.004287
 **** Fit      -0.004803
 **** Fit      -0.005495
 **** Fit      -0.006348
 **** Fit      -0.007719
 **** Fit      -0.008690
 **** Fit      -0.009713
 **** Fit      -0.019579
 **** Fit      -0.019911
 **** Fit      -0.018963
 **** Fit      -0.003776
 **** Fit      -0.004048
 **** Fit      -0.004475
 **** Fit      -0.005091
 **** Fit      -0.005876
 **** Fit      -0.006771
 **** Fit      -0.008358
 **** Fit      -0.009330
 **** Fit      -0.025712
 **** Fit      -0.025074
 **** Fit      -0.022914
 **** Fit      -0.003590
 **** Fit      -0.003712
 **** Fit      -0.004034
 **** Fit      -0.004600
 **** Fit      -0.005391
 **** Fit      -0.006337
 **** Fit      -0.007351
 **** Fit      -0.009303
 **** Fit      -0.010283
 **** Fit      -0.031092
 **** Fit      -0.027303
 **** Fit      -0.003652
 **** Fit      -0.003442
 **** Fit      -0.003386
 **** Fit      -0.005933
 **** Fit      -0.007077
 **** Fit      -0.008226
 **** Fit      -0.010629
 **** Fit      -0.011648
 **** Fit      -0.004489
 **** Fit      -0.003927
 **** Fit      -0.003410
 **** Fit      -0.009448
 **** Fit      -0.012431
 **** Fit      -0.013484
 **** Fit      -0.006310
 **** Fit      -0.005472
 **** Fit      -0.004499
 **** Fit      -0.011162
 **** Fit      -0.014846
 **** Fit      -0.015922
 **** Fit      -0.008738
 **** Fit      -0.007513
 **** Fit      -0.005988
 **** Fit      -0.018071
 **** Fit      -0.019127
 **** Fit      -0.007727
 **** Fit      -0.023252
 **** Fit      -0.024014
 **** Fit      -0.028563
 **** Fit      -0.028981
 **** Fit      -0.035130
 **** Fit      -0.042494
 **** Fit      -0.003307
 **** Fit      -0.003477
 **** Fit      -0.004074
 **** Fit      -0.005007
 **** Fit      -0.006133
 **** Fit      -0.008400
 **** Fit      -0.003171
 **** Fit      -0.002763
 **** Fit      -0.002854
 **** Fit      -0.003444
 **** Fit      -0.004434
 **** Fit      -0.005681
 **** Fit      -0.007044
 **** Fit      -0.009930
 **** Fit      -0.002779
 **** Fit      -0.002198
 **** Fit      -0.002222
 **** Fit      -0.002833
 **** Fit      -0.003912
 **** Fit      -0.005303
 **** Fit      -0.006848
 **** Fit      -0.008422
 **** Fit      -0.012061
 **** Fit      -0.013611
 **** Fit      -0.003079
 **** Fit      -0.001869
 **** Fit      -0.001472
 **** Fit      -0.001910
 **** Fit      -0.003043
 **** Fit      -0.004656
 **** Fit      -0.006525
 **** Fit      -0.008461
 **** Fit      -0.010332
 **** Fit      -0.015045
 **** Fit      -0.016700
 **** Fit      -0.004153
 **** Fit      -0.001927
 **** Fit      -0.000800
 **** Fit      -0.000880
 **** Fit      -0.002013
 **** Fit      -0.003895
 **** Fit      -0.006195
 **** Fit      -0.008629
 **** Fit      -0.010987
 **** Fit      -0.013142
 **** Fit      -0.019283
 **** Fit      -0.020971
 **** Fit      -0.003712
 **** Fit      -0.000365
 **** Fit      -0.002467
 **** Fit      -0.005390
 **** Fit      -0.008640
 **** Fit      -0.011840
 **** Fit      -0.014744
 **** Fit      -0.017229
 **** Fit      -0.025433
 **** Fit      -0.027017
 **** Fit      -0.028237
 **** Fit      -0.007108
 **** Fit      -0.011956
 **** Fit      -0.016473
 **** Fit      -0.011534
 **** Fit      -0.013243
 **** Fit      -0.014944
 **** Fit      -0.010155
 **** Fit      -0.011352
 **** Fit      -0.012815
 **** Fit      -0.014608
 **** Fit      -0.016633
 **** Fit      -0.018519
 **** Fit      -0.019633
 **** Fit      -0.010555
 **** Fit      -0.011638
 **** Fit      -0.012939
 **** Fit      -0.014587
 **** Fit      -0.016654
 **** Fit      -0.019099
 **** Fit      -0.021682
 **** Fit      -0.023897
 **** Fit      -0.025032
 **** Fit      -0.011358
 **** Fit      -0.012372
 **** Fit      -0.013578
 **** Fit      -0.015126
 **** Fit      -0.017145
 **** Fit      -0.019720
 **** Fit      -0.022842
 **** Fit      -0.026318
 **** Fit      -0.029658
 **** Fit      -0.032049
 **** Fit      -0.012619
 **** Fit      -0.013551
 **** Fit      -0.014656
 **** Fit      -0.016082
 **** Fit      -0.017974
 **** Fit      -0.020467
 **** Fit      -0.023676
 **** Fit      -0.027648
 **** Fit      -0.032266
 **** Fit      -0.014407
 **** Fit      -0.015301
 **** Fit      -0.016389
 **** Fit      -0.017836
 **** Fit      -0.019808
 **** Fit      -0.022482
 **** Fit      -0.026054
 **** Fit      -0.030713
 **** Fit      -0.016822
 **** Fit      -0.017640
 **** Fit      -0.018684
 **** Fit      -0.020127
 **** Fit      -0.022143
 **** Fit      -0.024933
 **** Fit      -0.028746
 **** Fit      -0.033894
 **** Fit      -0.019987
 **** Fit      -0.020698
 **** Fit      -0.021710
 **** Fit      -0.023202
 **** Fit      -0.025359
 **** Fit      -0.028408
 **** Fit      -0.032661
 **** Fit      -0.024048
 **** Fit      -0.024615
 **** Fit      -0.025648
 **** Fit      -0.027348
 **** Fit      -0.029933
 **** Fit      -0.033698
 **** Fit      -0.029473
 **** Fit      -0.030564
 **** Fit      -0.032627
 **** Fit      -0.035918
 **** Fit      -0.040854
 **** Fit      -0.035302
 **** Fit      -0.036461
 **** Fit      -0.038971
 **** Fit      -0.043104
 **** Fit      -0.043596
 **** Fit      -0.047204
 **** Fit      -0.051486
 **** Fit      -0.005105
 **** Fit      -0.005420
 **** Fit      -0.006354
 **** Fit      -0.006103
 **** Fit      -0.004814
 **** Fit      -0.004092
 **** Fit      -0.004421
 **** Fit      -0.005759
 **** Fit      -0.006894
 **** Fit      -0.007864
 **** Fit      -0.008191
 **** Fit      -0.007519
 **** Fit      -0.006055
 **** Fit      -0.004519
 **** Fit      -0.003569
 **** Fit      -0.003304
 **** Fit      -0.003488
 **** Fit      -0.003980
 **** Fit      -0.004749
 **** Fit      -0.006109
 **** Fit      -0.009658
 **** Fit      -0.010419
 **** Fit      -0.010416
 **** Fit      -0.009495
 **** Fit      -0.007832
 **** Fit      -0.005865
 **** Fit      -0.004141
 **** Fit      -0.003081
 **** Fit      -0.002710
 **** Fit      -0.002744
 **** Fit      -0.002953
 **** Fit      -0.003273
 **** Fit      -0.003725
 **** Fit      -0.004338
 **** Fit      -0.005132
 **** Fit      -0.013663
 **** Fit      -0.013137
 **** Fit      -0.011639
 **** Fit      -0.009420
 **** Fit      -0.006871
 **** Fit      -0.004481
 **** Fit      -0.002055
 **** Fit      -0.002340
 **** Fit      -0.002626
 **** Fit      -0.002887
 **** Fit      -0.003173
 **** Fit      -0.003540
 **** Fit      -0.004030
 **** Fit      -0.017573
 **** Fit      -0.016006
 **** Fit      -0.013465
 **** Fit      -0.010286
 **** Fit      -0.006846
 **** Fit      -0.002459
 **** Fit      -0.002786
 **** Fit      -0.002997
 **** Fit      -0.003191
 **** Fit      -0.003441
 **** Fit      -0.003799
 **** Fit      -0.021994
 **** Fit      -0.019105
 **** Fit      -0.015392
 **** Fit      -0.011147
 **** Fit      -0.003044
 **** Fit      -0.003273
 **** Fit      -0.003364
 **** Fit      -0.003419
 **** Fit      -0.003513
 **** Fit      -0.023585
 **** Fit      -0.018514
 **** Fit      -0.004101
 **** Fit      -0.004081
 **** Fit      -0.003955
 **** Fit      -0.021940
 **** Fit      -0.005413
 **** Fit      -0.005083
 **** Fit      -0.014651
 **** Fit      -0.022800
 **** Fit      -0.031730
 **** Fit       0.012797
 **** Fit       0.021213
 **** Fit       0.011103
 **** Fit       0.002872
 **** Fit      -0.006053
 **** Fit      -0.014572
 **** Fit      -0.024875
 **** Fit       0.000332
 **** Fit       0.009340
 **** Fit       0.011692
 **** Fit       0.009079
 **** Fit       0.003038
 **** Fit      -0.005203
 **** Fit      -0.017291
 **** Fit      -0.030124
 **** Fit      -0.010927
 **** Fit      -0.001753
 **** Fit      -0.001406
 **** Fit      -0.007357
 **** Fit      -0.022498
 **** Fit      -0.021100
 **** Fit      -0.014296
 **** Fit      -0.030199
 **** Fit       0.040268
 **** Fit       0.020325
 **** Fit       0.012640
 **** Fit       0.009152
 **** Fit       0.028463
 **** Fit       0.020409
 **** Fit       0.015566
 **** Fit       0.014292
 **** Fit       0.015431
 **** Fit       0.018382
 **** Fit       0.023715
 **** Fit       0.034792
 **** Fit       0.027039
 **** Fit       0.021427
 **** Fit       0.019968
 **** Fit       0.022460
 **** Fit       0.044721
 **** Fit       0.033253
 **** Fit       0.027130
 **** Fit       0.027421
 **** Fit       0.033618
 **** Fit       0.038495
 **** Fit       0.038434
 **** Fit       0.032822
 **** Fit       0.028148
 **** Fit       0.032867
 **** Fit       0.033506
 **** Fit       0.034801
 **** Fit       0.037500
 **** Fit       0.037955
 **** Fit       0.039256
 **** Fit       0.041566
 **** Fit       0.041823
 **** Fit       0.042441
 **** Fit       0.044060
 **** Fit       0.046771
 **** Fit       0.045564
 **** Fit       0.045674
 **** Fit       0.046965
 **** Fit       0.049344
 **** Fit       0.049237
 **** Fit       0.048254
 **** Fit       0.048756
 **** Fit       0.050432
 **** Fit       0.053160
 **** Fit       0.050593
 **** Fit       0.050170
 **** Fit       0.051038
 **** Fit       0.052925
 **** Fit       0.055647
 **** Fit       0.051767
 **** Fit       0.051119
 **** Fit       0.051794
 **** Fit       0.053447
 **** Fit       0.055771
 **** Fit       0.053953
 **** Fit       0.047367
 **** Fit       0.037033
 **** Fit       0.026176
 **** Fit       0.051864
 **** Fit       0.051164
 **** Fit       0.051648
 **** Fit       0.052939
 **** Fit       0.054596
 **** Fit       0.056031
 **** Fit       0.056322
 **** Fit       0.048537
 **** Fit       0.042359
 **** Fit       0.034153
 **** Fit       0.051125
 **** Fit       0.050316
 **** Fit       0.050441
 **** Fit       0.051172
 **** Fit       0.051833
 **** Fit       0.051405
 **** Fit       0.044740
 **** Fit       0.038836
 **** Fit       0.032886
 **** Fit       0.048407
 **** Fit       0.048390
 **** Fit       0.048503
 **** Fit       0.047815
 **** Fit       0.042420
 **** Fit       0.037523
 **** Fit       0.045181
 **** Fit       0.045267
 **** Fit       0.041557
 **** Fit       0.037925
 **** Fit       0.041914
 **** Fit       0.037312
 **** Fit       0.038323
 **** Fit       0.040671
 **** Fit       0.044231
 **** Fit       0.041833
 **** Fit       0.041248
 **** Fit       0.042423
 **** Fit       0.045017
 **** Fit       0.049030
 **** Fit       0.046396
 **** Fit       0.044233
 **** Fit       0.044119
 **** Fit       0.045578
 **** Fit       0.048418
 **** Fit       0.046125
 **** Fit       0.045565
 **** Fit       0.046641
 **** Fit       0.049116
 **** Fit       0.052863
 **** Fit       0.046603
 **** Fit       0.045955
 **** Fit       0.046735
 **** Fit       0.048736
 **** Fit       0.051646
 **** Fit       0.025902
 **** Fit       0.045577
 **** Fit       0.045168
 **** Fit       0.045566
 **** Fit       0.046908
 **** Fit       0.048757
 **** Fit       0.028315
 **** Fit       0.029549
 **** Fit       0.034039
 **** Fit       0.039213
 **** Fit       0.042098
 **** Fit       0.043200
 **** Fit       0.044149
 **** Fit       0.045086
 **** Fit       0.044615
 **** Fit       0.038606
 **** Fit       0.033944
 **** Fit       0.033461
 **** Fit       0.037486
 **** Fit       0.040542
 **** Fit       0.041281
 **** Fit       0.037395
 -----------------------------------------------------------------
 Leave Link  602 at Mon Sep 16 19:28:11 2019, MaxMem=  4294967296 cpu:       155.3

 Test job not archived.
 1\1\GINC-N005\SP\RB3LYP\SVP\C54H83Ca1N15O23\PCIEPLAK\16-Sep-2019\0\\#m
 axdisk=50GB #B3LYP/SVP Density=Current scf=(tight) #IOP(5/87=12)Pop=(M
 K,readradii) iop(6/33=2) iop(6/42=6)\\SOL molecule\\0,1\C,0,46.82,40.3
 1,24.41\C,0,47.39,39.58,25.61\O,0,47.33,40.04,26.75\H,0,45.924,40.855,
 24.709\H,0,47.56,41.012,24.026\H,0,46.564,39.589,23.633\N,0,48.06,38.4
 4,25.43\C,0,48.78,37.62,26.38\C,0,50.23,38.09,26.51\O,0,51.05,38.04,25
 .6\C,0,48.77,36.17,25.93\C,0,49.76,35.19,26.54\O,0,50.53,35.5,27.47\O,
 0,49.88,34.09,25.96\H,0,47.93,37.99,24.53\H,0,48.29,37.66,27.35\H,0,49
 .14,36.17,24.91\H,0,47.82,35.63,25.83\N,0,50.51,38.6,27.71\C,0,51.66,3
 9.41,28.06\C,0,53.02,38.73,28.15\O,0,53.94,39.42,28.58\C,0,51.37,40.16
 ,29.35\C,0,50.27,41.22,29.36\C,0,50.3,42.32,28.3\C,0,51.59,43.11,28.13
 \N,0,51.52,44.2,27.14\H,0,49.82,38.41,28.43\H,0,51.75,40.13,27.24\H,0,
 52.27,40.66,29.71\H,0,51.02,39.35,29.98\H,0,50.31,41.66,30.36\H,0,49.3
 6,40.64,29.23\H,0,49.52,43.05,28.53\H,0,49.95,41.85,27.38\H,0,52.44,42
 .44,27.97\H,0,51.69,43.61,29.09\H,0,52.16,44.96,27.28\H,0,51.61,43.74,
 26.24\H,0,50.57,44.54,27.07\N,0,53.08,37.45,27.78\C,0,54.28,36.68,27.5
 7\C,0,54.22,35.82,26.31\O,0,55.29,35.5,25.81\C,0,54.71,35.84,28.78\C,0
 ,53.65,35.12,29.6\O,0,54.09,34.07,30.11\O,0,52.57,35.65,29.95\H,0,52.2
 ,37.1,27.43\H,0,55.16,37.31,27.42\H,0,55.24,36.45,29.51\H,0,55.41,35.1
 ,28.42\N,0,53.02,35.7,25.74\C,0,52.81,35.01,24.49\C,0,52.87,33.5,24.63
 \O,0,53.38,32.85,23.72\H,0,52.29,36.28,26.14\H,0,53.42,35.38,23.66\H,0
 ,51.75,35.19,24.31\N,0,52.39,33.,25.77\C,0,52.52,31.64,26.27\C,0,51.27
 ,30.81,26.01\O,0,51.25,29.61,26.27\C,0,53.06,31.68,27.7\C,0,51.97,31.6
 8,28.76\N,0,52.01,30.75,29.73\O,0,51.06,32.5,28.77\H,0,51.85,33.63,26.
 33\H,0,53.25,31.17,25.61\H,0,53.76,32.49,27.91\H,0,53.64,30.78,27.87\H
 ,0,52.58,29.92,29.7\H,0,51.3,30.86,30.44\N,0,50.24,31.35,25.36\C,0,49.
 ,30.68,25.02\C,0,47.82,30.84,25.96\O,0,46.7,30.44,25.62\H,0,50.24,32.3
 6,25.3\H,0,49.2,29.61,24.96\H,0,48.75,30.95,23.99\N,0,48.05,31.64,27.\
 C,0,47.1,31.89,28.06\C,0,46.95,33.31,28.59\O,0,47.87,34.12,28.48\C,0,4
 7.12,30.96,29.27\C,0,47.48,29.52,28.98\C,0,48.82,29.12,29.05\C,0,46.5,
 28.55,28.75\C,0,49.16,27.78,28.83\C,0,46.83,27.22,28.46\C,0,48.19,26.8
 4,28.42\O,0,48.46,25.52,28.25\H,0,48.89,32.21,27.01\H,0,46.14,31.72,27
 .57\H,0,46.12,31.04,29.68\H,0,47.77,31.32,30.06\H,0,49.54,29.81,29.48\
 H,0,45.44,28.75,28.69\H,0,50.11,27.37,29.12\H,0,46.07,26.48,28.33\H,0,
 47.59,25.17,28.04\N,0,45.84,33.65,29.25\C,0,45.48,34.93,29.82\C,0,44.8
 2,34.62,31.16\O,0,44.2,33.58,31.38\C,0,44.56,35.57,28.78\C,0,45.37,36.
 21,27.66\C,0,43.79,36.75,29.38\C,0,44.63,36.95,26.55\H,0,45.13,32.95,2
 9.44\H,0,46.32,35.61,29.95\H,0,43.85,34.9,28.3\H,0,45.98,35.46,27.15\H
 ,0,46.07,36.96,28.02\H,0,43.17,37.3,28.67\H,0,43.07,36.4,30.12\H,0,44.
 46,37.45,29.89\H,0,44.04,37.77,26.97\H,0,45.34,37.34,25.82\H,0,44.03,3
 6.19,26.05\N,0,45.06,35.44,32.18\C,0,44.55,35.32,33.53\C,0,43.69,36.51
 ,33.93\O,0,43.38,37.31,33.05\C,0,45.73,35.06,34.46\O,0,46.45,36.25,34.
 71\H,0,45.81,36.1,32.04\H,0,43.94,34.42,33.63\H,0,46.34,34.33,33.92\H,
 0,45.36,34.6,35.38\H,0,47.31,35.97,35.01\N,0,43.18,36.69,35.15\C,0,42.
 4,37.86,35.52\C,0,43.24,39.12,35.39\O,0,42.78,40.17,34.94\C,0,41.79,37
 .65,36.91\H,0,43.55,36.11,35.89\H,0,41.59,37.89,34.8\H,0,40.98,36.92,3
 6.82\H,0,42.57,37.23,37.54\H,0,41.33,38.58,37.23\N,0,44.49,39.08,35.85
 \C,0,45.44,40.18,35.76\C,0,45.84,40.6,34.36\O,0,45.83,41.78,34.01\C,0,
 46.69,39.95,36.61\H,0,44.81,38.16,36.11\H,0,44.96,41.06,36.17\H,0,47.2
 3,40.86,36.87\H,0,46.34,39.74,37.61\H,0,47.33,39.1,36.36\N,0,45.97,39.
 66,33.42\C,0,46.13,40.,32.02\C,0,44.86,40.39,31.28\O,0,44.88,41.45,30.
 65\C,0,46.88,38.91,31.26\C,0,48.34,38.6,31.6\C,0,48.86,37.29,31.03\O,0
 ,49.23,37.22,29.84\O,0,48.95,36.27,31.74\H,0,45.93,38.69,33.7\H,0,46.8
 ,40.85,31.9\H,0,46.98,39.1,30.19\H,0,46.29,38.,31.33\H,0,48.45,38.65,3
 2.69\H,0,48.85,39.44,31.15\N,0,43.71,39.79,31.56\C,0,42.41,40.33,31.2\
 H,0,41.706,40.155,32.014\H,0,42.498,41.402,31.021\H,0,42.049,39.839,30
 .296\H,0,43.75,39.09,32.28\Ca,0,50.25,34.7,29.89\O,0,48.89,33.13,31.53
 \H,0,48.39,33.15,32.36\H,0,49.35,32.29,31.56\\Version=ES64L-G09RevD.01
 \State=1-A\HF=-5333.5420849\RMSD=3.139e-09\Dipole=-3.8897303,7.8999597
 ,5.0371083\Quadrupole=-105.7846303,96.8616107,8.9230196,104.0646668,5.
 0279885,-114.1188799\PG=C01 [X(C54H83Ca1N15O23)]\\@


 THE TRULY SUCCESSFUL PERFORMANCE OF RESEARCHES IN
 INORGANIC CHEMISTRY IS POSSIBLE ONLY TO ONE WHO IS NOT
 ONLY A THEORETICAL CHEMIST, BUT ALSO AN ACCOMPLISHED
 ANALYST AND, MOREOVER, NOT MERELY A PRACTICALLY TRAINED,
 MECHANICAL WORKER, BUT A THINKING CREATIVE ARTIST.
   --  CLEMENS WINKLER, BER. 33, 1697(1900)
 Job cpu time:       0 days 15 hours 27 minutes  3.3 seconds.
 File lengths (MBytes):  RWF=   1513 Int=      0 D2E=      0 Chk=    103 Scr=      1
 Normal termination of Gaussian 09 at Mon Sep 16 19:28:12 2019.
