 Entering Gaussian System, Link 0=g09
 Initial command:
 /home/pcieplak/g09/g09/l1.exe "/scratch1/pcieplak/holo_29.0/Gau-7494.inp" -scrdir="/scratch1/pcieplak/holo_29.0/"
 Entering Link 1 = /home/pcieplak/g09/g09/l1.exe PID=      7495.
  
 Copyright (c) 1988,1990,1992,1993,1995,1998,2003,2009,2013,
            Gaussian, Inc.  All Rights Reserved.
  
 This is part of the Gaussian(R) 09 program.  It is based on
 the Gaussian(R) 03 system (copyright 2003, Gaussian, Inc.),
 the Gaussian(R) 98 system (copyright 1998, Gaussian, Inc.),
 the Gaussian(R) 94 system (copyright 1995, Gaussian, Inc.),
 the Gaussian 92(TM) system (copyright 1992, Gaussian, Inc.),
 the Gaussian 90(TM) system (copyright 1990, Gaussian, Inc.),
 the Gaussian 88(TM) system (copyright 1988, Gaussian, Inc.),
 the Gaussian 86(TM) system (copyright 1986, Carnegie Mellon
 University), and the Gaussian 82(TM) system (copyright 1983,
 Carnegie Mellon University). Gaussian is a federally registered
 trademark of Gaussian, Inc.
  
 This software contains proprietary and confidential information,
 including trade secrets, belonging to Gaussian, Inc.
  
 This software is provided under written license and may be
 used, copied, transmitted, or stored only in accord with that
 written license.
  
 The following legend is applicable only to US Government
 contracts under FAR:
  
                    RESTRICTED RIGHTS LEGEND
  
 Use, reproduction and disclosure by the US Government is
 subject to restrictions as set forth in subparagraphs (a)
 and (c) of the Commercial Computer Software - Restricted
 Rights clause in FAR 52.227-19.
  
 Gaussian, Inc.
 340 Quinnipiac St., Bldg. 40, Wallingford CT 06492
  
  
 ---------------------------------------------------------------
 Warning -- This program may not be used in any manner that
 competes with the business of Gaussian, Inc. or will provide
 assistance to any competitor of Gaussian, Inc.  The licensee
 of this program is prohibited from giving any competitor of
 Gaussian, Inc. access to this program.  By using this program,
 the user acknowledges that Gaussian, Inc. is engaged in the
 business of creating and licensing software in the field of
 computational chemistry and represents and warrants to the
 licensee that it is not a competitor of Gaussian, Inc. and that
 it will not use this program in any manner prohibited above.
 ---------------------------------------------------------------
  

 Cite this work as:
 Gaussian 09, Revision D.01,
 M. J. Frisch, G. W. Trucks, H. B. Schlegel, G. E. Scuseria, 
 M. A. Robb, J. R. Cheeseman, G. Scalmani, V. Barone, B. Mennucci, 
 G. A. Petersson, H. Nakatsuji, M. Caricato, X. Li, H. P. Hratchian, 
 A. F. Izmaylov, J. Bloino, G. Zheng, J. L. Sonnenberg, M. Hada, 
 M. Ehara, K. Toyota, R. Fukuda, J. Hasegawa, M. Ishida, T. Nakajima, 
 Y. Honda, O. Kitao, H. Nakai, T. Vreven, J. A. Montgomery, Jr., 
 J. E. Peralta, F. Ogliaro, M. Bearpark, J. J. Heyd, E. Brothers, 
 K. N. Kudin, V. N. Staroverov, T. Keith, R. Kobayashi, J. Normand, 
 K. Raghavachari, A. Rendell, J. C. Burant, S. S. Iyengar, J. Tomasi, 
 M. Cossi, N. Rega, J. M. Millam, M. Klene, J. E. Knox, J. B. Cross, 
 V. Bakken, C. Adamo, J. Jaramillo, R. Gomperts, R. E. Stratmann, 
 O. Yazyev, A. J. Austin, R. Cammi, C. Pomelli, J. W. Ochterski, 
 R. L. Martin, K. Morokuma, V. G. Zakrzewski, G. A. Voth, 
 P. Salvador, J. J. Dannenberg, S. Dapprich, A. D. Daniels, 
 O. Farkas, J. B. Foresman, J. V. Ortiz, J. Cioslowski, 
 and D. J. Fox, Gaussian, Inc., Wallingford CT, 2013.
 
 ******************************************
 Gaussian 09:  ES64L-G09RevD.01 24-Apr-2013
                16-Sep-2019 
 ******************************************
 %Nproc=12
 Will use up to   12 processors via shared memory.
 %chk=chk1mol
 %mem=32GB
 ----------------------------------------------------------------------
 #maxdisk=50GB #B3LYP/SVP Density=Current scf=(tight) #IOP(5/87=12)Pop=
 (MK,readradii) iop(6/33=2) iop(6/42=6)
 ----------------------------------------------------------------------
 1/30=1,38=1/1;
 2/12=2,17=6,18=5,40=1/2;
 3/5=18,7=101,11=2,16=1,25=1,30=1,74=-5/1,2,3;
 4//1;
 5/5=2,32=2,38=5,87=12/2;
 6/7=2,8=2,9=2,10=2,15=8,20=101,22=-1,28=1,33=2,42=6/1,2;
 99/5=1,9=1/99;
 ------------
 SOL molecule
 ------------
 Symbolic Z-matrix:
 Charge =  0 Multiplicity = 1
 C                     85.81     32.21     26.16 
 C                     87.32     32.02     26.07 
 O                     87.76     30.95     26.49 
 H                     85.315    31.247    26.033 
 H                     85.553    32.625    27.135 
 H                     85.482    32.892    25.376 
 N                     88.06     32.97     25.49 
 C                     89.5      33.08     25.42 
 C                     89.94     33.79     26.69 
 O                     89.69     34.98     26.9 
 C                     89.95     33.91     24.23 
 C                     91.45     34.18     24.19 
 O                     91.88     35.08     23.44 
 O                     92.2      33.51     24.92 
 H                     87.63     33.75     25.01 
 H                     89.85     32.05     25.44 
 H                     89.4      34.85     24.2 
 H                     89.64     33.4      23.31 
 N                     90.52     33.04     27.63 
 C                     90.63     33.45     29.02 
 C                     91.9      34.26     29.23 
 O                     91.78     35.37     29.75 
 C                     90.61     32.21     29.91 
 C                     89.35     31.37     29.72 
 C                     87.98     32.03     29.91 
 C                     86.86     30.99     29.86 
 N                     85.56     31.48     30.35 
 H                     90.61     32.07     27.37 
 H                     89.8      34.08     29.33 
 H                     90.73     32.43     30.97 
 H                     91.49     31.59     29.76 
 H                     89.44     30.54     30.42 
 H                     89.38     30.95     28.72 
 H                     87.82     32.67     29.04 
 H                     87.93     32.57     30.85 
 H                     87.24     30.11     30.38 
 H                     86.83     30.65     28.83 
 H                     85.2      32.34     29.95 
 H                     84.78     30.84     30.29 
 H                     85.67     31.71     31.32 
 N                     93.08     33.81     28.81 
 C                     94.29     34.61     28.85 
 C                     94.28     35.74     27.83 
 O                     95.29     36.4      27.6 
 C                     95.49     33.7      28.67 
 C                     95.53     32.82     27.42 
 O                     94.68     33.03     26.53 
 O                     96.37     31.92     27.26 
 H                     93.19     32.89     28.4 
 H                     94.32     35.05     29.85 
 H                     95.51     33.03     29.53 
 H                     96.46     34.21     28.7 
 N                     93.24     35.88     27. 
 C                     93.1      36.85     25.94 
 C                     94.18     36.68     24.88 
 O                     94.39     37.64     24.15 
 H                     92.52     35.18     27.15 
 H                     93.07     37.87     26.3 
 H                     92.18     36.58     25.4 
 N                     94.85     35.53     24.76 
 C                     96.       35.34     23.9 
 C                     95.75     35.25     22.4 
 O                     96.67     34.94     21.66 
 C                     97.       34.37     24.53 
 C                     96.79     32.92     24.11 
 N                     97.88     32.16     23.99 
 O                     95.69     32.53     23.74 
 H                     94.52     34.8      25.37 
 H                     96.57     36.25     24.1 
 H                     97.08     34.44     25.62 
 H                     97.99     34.57     24.12 
 H                     98.81     32.5      24.2 
 H                     97.79     31.18     23.75 
 N                     94.52     35.38     21.9 
 C                     93.99     35.48     20.55 
 C                     93.37     34.18     20.06 
 O                     92.76     34.22     19. 
 H                     93.83     35.68     22.59 
 H                     94.78     35.75     19.85 
 H                     93.14     36.16     20.5 
 N                     93.35     33.1      20.85 
 C                     92.83     31.82     20.42 
 C                     92.24     31.       21.56 
 O                     92.9      30.87     22.59 
 C                     93.87     31.02     19.64 
 C                     95.28     31.56     19.59 
 C                     96.16     31.23     20.62 
 C                     95.66     32.47     18.6 
 C                     97.48     31.71     20.55 
 C                     96.94     33.03     18.52 
 C                     97.84     32.59     19.51 
 O                     99.14     32.99     19.37 
 H                     93.83     33.15     21.74 
 H                     91.98     31.89     19.74 
 H                     93.44     31.15     18.65 
 H                     93.89     29.96     19.87 
 H                     95.76     30.72     21.49 
 H                     94.98     32.83     17.84 
 H                     98.19     31.57     21.34 
 H                     97.22     33.73     17.75 
 H                     99.19     33.71     18.74 
 N                     91.13     30.31     21.28 
 C                     90.61     29.24     22.11 
 C                     91.43     27.97     22.04 
 O                     92.07     27.74     21.01 
 C                     89.15     29.12     21.7 
 C                     88.32     30.29     22.23 
 C                     88.58     27.76     22.11 
 C                     86.84     30.3      21.88 
 H                     90.75     30.3      20.34 
 H                     90.66     29.53     23.16 
 H                     89.11     29.16     20.61 
 H                     88.73     31.25     21.92 
 H                     88.29     30.17     23.31 
 H                     89.14     26.98     21.59 
 H                     88.42     27.71     23.18 
 H                     87.58     27.67     21.69 
 H                     86.63     30.22     20.81 
 H                     86.35     29.53     22.48 
 H                     86.41     31.23     22.25 
 N                     91.38     27.14     23.08 
 C                     92.1      25.91     23.34 
 C                     91.18     24.92     24.04 
 O                     90.11     25.3      24.5 
 C                     93.32     26.28     24.18 
 O                     92.91     26.77     25.43 
 H                     90.69     27.37     23.78 
 H                     92.46     25.42     22.43 
 H                     93.88     27.1      23.72 
 H                     94.01     25.45     24.35 
 H                     92.57     27.66     25.37 
 N                     91.61     23.65     24.1 
 C                     90.79     22.63     24.72 
 C                     90.37     22.84     26.17 
 O                     89.25     22.48     26.51 
 C                     91.55     21.34     24.47 
 H                     92.36     23.27     23.55 
 H                     89.89     22.64     24.1 
 H                     92.37     21.2      25.17 
 H                     90.92     20.47     24.61 
 H                     91.86     21.23     23.43 
 N                     91.19     23.53     26.97 
 C                     90.9      23.91     28.34 
 C                     89.77     24.92     28.44 
 O                     88.98     24.94     29.39 
 C                     92.08     24.59     29.02 
 H                     91.99     23.96     26.53 
 H                     90.64     23.       28.89 
 H                     92.47     25.4      28.41 
 H                     91.8      25.06     29.97 
 H                     92.88     23.85     29.15 
 N                     89.71     25.76     27.41 
 C                     88.79     26.87     27.22 
 C                     87.42     26.57     26.61 
 O                     86.36     27.09     26.94 
 C                     89.51     27.96     26.44 
 C                     90.68     28.48     27.28 
 C                     91.44     29.48     26.42 
 O                     91.47     30.68     26.75 
 O                     91.98     29.09     25.36 
 H                     90.52     25.75     26.81 
 H                     88.66     27.35     28.18 
 H                     88.87     28.78     26.12 
 H                     89.98     27.46     25.6 
 H                     91.37     27.69     27.58 
 H                     90.3      28.94     28.19 
 N                     87.52     25.59     25.7 
 C                     86.33     24.95     25.19 
 H                     85.546    25.695    25.058 
 H                     86.551    24.482    24.231 
 H                     85.994    24.191    25.896 
 H                     88.41     25.14     25.53 
 Ca                    93.48     31.24     25.13 
 O                     94.96     29.25     24.32 
 H                     95.36     28.72     23.62 
 H                     95.16     28.76     25.12 
 
 Stoichiometry    C54H83CaN15O23
 Framework group  C1[X(C54H83CaN15O23)]
 Deg. of freedom   522
 Full point group                 C1      NOp   1
 Largest Abelian subgroup         C1      NOp   1
 Largest concise Abelian subgroup C1      NOp   1
                         Standard orientation:                         
 ---------------------------------------------------------------------
 Center     Atomic      Atomic             Coordinates (Angstroms)
 Number     Number       Type             X           Y           Z
 ---------------------------------------------------------------------
      1          6           0        2.592219    4.025195    4.338983
      2          6           0        1.890758    3.298274    3.197126
      3          8           0        2.615474    2.860634    2.303729
      4          1           0        3.573951    3.580535    4.503308
      5          1           0        2.708617    5.078588    4.082634
      6          1           0        1.997161    3.935058    5.247357
      7          7           0        0.568042    3.116435    3.259233
      8          6           0       -0.323231    2.595750    2.246751
      9          6           0       -0.725570    3.776757    1.378450
     10          8           0       -1.453305    4.682497    1.794068
     11          6           0       -1.582333    1.997519    2.850310
     12          6           0       -2.621869    1.565548    1.822076
     13          8           0       -3.789179    1.342717    2.203038
     14          8           0       -2.282527    1.466858    0.630687
     15          1           0        0.045676    3.345449    4.094928
     16          1           0        0.296066    1.913768    1.667811
     17          1           0       -2.025614    2.695819    3.559449
     18          1           0       -1.299012    1.141166    3.473999
     19          7           0       -0.166585    3.853595    0.168437
     20          6           0       -0.118246    5.080120   -0.609766
     21          6           0       -1.376917    5.217799   -1.452317
     22          8           0       -2.017517    6.263733   -1.340268
     23          6           0        1.134283    5.069534   -1.482210
     24          6           0        2.417077    4.926601   -0.667772
     25          6           0        2.706407    5.936324    0.448179
     26          6           0        4.112163    5.736412    1.015971
     27          7           0        4.588432    6.851218    1.852975
     28          1           0        0.461191    3.090599   -0.032395
     29          1           0       -0.062505    5.964765    0.019676
     30          1           0        1.223786    5.940470   -2.130176
     31          1           0        1.092801    4.291831   -2.240337
     32          1           0        3.231301    4.959605   -1.390926
     33          1           0        2.420451    3.935119   -0.227031
     34          1           0        2.026178    5.696908    1.267977
     35          1           0        2.601810    6.956450    0.093072
     36          1           0        4.752093    5.500531    0.165060
     37          1           0        4.076538    4.788657    1.543124
     38          1           0        3.990180    7.158559    2.612473
     39          1           0        5.493920    6.739655    2.287997
     40          1           0        4.647856    7.663963    1.268326
     41          7           0       -1.797512    4.221557   -2.228140
     42          6           0       -3.068079    4.248481   -2.928594
     43          6           0       -4.258489    4.112056   -1.989599
     44          8           0       -5.394108    3.933046   -2.421949
     45          6           0       -3.066722    3.170736   -3.995817
     46          6           0       -2.786874    1.734566   -3.551294
     47          8           0       -2.762142    1.496357   -2.326000
     48          8           0       -2.591189    0.809558   -4.355823
     49          1           0       -1.265837    3.366501   -2.341281
     50          1           0       -3.119720    5.228958   -3.408695
     51          1           0       -2.289954    3.437539   -4.712997
     52          1           0       -3.983447    3.118305   -4.594789
     53          7           0       -4.057229    3.949937   -0.676850
     54          6           0       -5.064351    3.743026    0.336557
     55          6           0       -5.846104    2.458868    0.094278
     56          8           0       -6.934310    2.364937    0.647076
     57          1           0       -3.072906    3.940448   -0.428016
     58          1           0       -5.733002    4.586443    0.448160
     59          1           0       -4.519188    3.527696    1.267863
     60          7           0       -5.350493    1.488298   -0.679132
     61          6           0       -6.093146    0.317128   -1.097493
     62          6           0       -6.348836   -0.763740   -0.054925
     63          8           0       -6.835694   -1.826798   -0.405607
     64          6           0       -5.686618   -0.113817   -2.507040
     65          6           0       -4.570290   -1.151279   -2.529028
     66          7           0       -4.607612   -2.060920   -3.504354
     67          8           0       -3.781150   -1.239429   -1.597101
     68          1           0       -4.413383    1.663389   -1.003274
     69          1           0       -7.051867    0.759645   -1.376836
     70          1           0       -5.449062    0.711498   -3.186614
     71          1           0       -6.507872   -0.674087   -2.954075
     72          1           0       -5.314477   -2.057703   -4.228875
     73          1           0       -3.867888   -2.748339   -3.584126
     74          7           0       -5.934703   -0.614513    1.204450
     75          6           0       -6.140021   -1.375372    2.426063
     76          6           0       -4.939102   -2.231856    2.798526
     77          8           0       -4.964733   -2.779317    3.892569
     78          1           0       -5.580647    0.321102    1.408086
     79          1           0       -6.996340   -2.040666    2.320701
     80          1           0       -6.223286   -0.725318    3.296636
     81          7           0       -3.842214   -2.229019    2.031891
     82          6           0       -2.692857   -3.066280    2.299607
     83          6           0       -1.380747   -2.448537    1.833922
     84          8           0       -1.321350   -1.991570    0.693285
     85          6           0       -2.875032   -4.473764    1.737645
     86          6           0       -4.079325   -4.731167    0.862646
     87          6           0       -3.983637   -4.465382   -0.502785
     88          6           0       -5.301141   -5.109799    1.425144
     89          6           0       -5.098282   -4.737808   -1.315836
     90          6           0       -6.459511   -5.330871    0.671683
     91          6           0       -6.301203   -5.163082   -0.717736
     92          8           0       -7.364100   -5.524716   -1.498166
     93          1           0       -3.868399   -1.711417    1.162177
     94          1           0       -2.494207   -3.224519    3.360408
     95          1           0       -3.047312   -4.985273    2.681349
     96          1           0       -1.988006   -4.893851    1.275464
     97          1           0       -3.099997   -3.948514   -0.861991
     98          1           0       -5.445948   -5.230351    2.490085
     99          1           0       -5.132222   -4.484412   -2.356239
    100          1           0       -7.395276   -5.623940    1.118622
    101          1           0       -8.147145   -5.617442   -0.954069
    102          7           0       -0.324366   -2.631180    2.632233
    103          6           0        1.049222   -2.409204    2.222131
    104          6           0        1.572210   -3.463660    1.270918
    105          8           0        1.086032   -4.596836    1.325185
    106          6           0        1.811343   -2.246063    3.528521
    107          6           0        1.513506   -0.898718    4.187804
    108          6           0        3.309062   -2.480201    3.317293
    109          6           0        2.203561   -0.611571    5.512331
    110          1           0       -0.399228   -3.200878    3.467661
    111          1           0        1.119132   -1.481413    1.653433
    112          1           0        1.466184   -3.025371    4.210316
    113          1           0        0.445789   -0.751667    4.343225
    114          1           0        1.956111   -0.145329    3.541116
    115          1           0        3.452657   -3.505663    2.970581
    116          1           0        3.764737   -1.647916    2.795123
    117          1           0        3.794288   -2.476971    4.291483
    118          1           0        2.050735   -1.379676    6.275258
    119          1           0        3.255900   -0.407265    5.302944
    120          1           0        1.825960    0.336606    5.893221
    121          7           0        2.567365   -3.124672    0.453757
    122          6           0        3.215220   -3.873252   -0.603982
    123          6           0        4.704092   -3.557521   -0.612563
    124          8           0        5.131746   -2.610367    0.036214
    125          6           0        2.521123   -3.488334   -1.908194
    126          8           0        2.746990   -2.131460   -2.188508
    127          1           0        2.979119   -2.220198    0.630914
    128          1           0        3.121292   -4.957203   -0.485548
    129          1           0        1.434786   -3.585946   -1.819059
    130          1           0        2.845486   -4.072544   -2.772710
    131          1           0        2.219165   -1.560355   -1.634848
    132          7           0        5.479422   -4.371382   -1.345975
    133          6           0        6.912626   -4.168836   -1.391840
    134          6           0        7.424009   -2.813063   -1.864454
    135          8           0        8.419311   -2.345739   -1.325397
    136          6           0        7.428440   -5.347053   -2.198029
    137          1           0        5.198245   -5.268368   -1.700596
    138          1           0        7.203789   -4.296896   -0.346219
    139          1           0        7.306900   -5.201448   -3.268556
    140          1           0        8.493334   -5.490901   -2.061249
    141          1           0        7.025192   -6.300272   -1.853697
    142          7           0        6.685656   -2.134569   -2.749316
    143          6           0        6.968988   -0.792634   -3.222956
    144          6           0        6.826860    0.254684   -2.132119
    145          8           0        7.533906    1.267182   -2.088131
    146          6           0        6.005505   -0.341747   -4.311809
    147          1           0        5.779132   -2.520583   -2.967738
    148          1           0        7.989959   -0.787509   -3.617661
    149          1           0        4.973313   -0.494731   -4.009362
    150          1           0        6.083810    0.731728   -4.519943
    151          1           0        6.187445   -0.946647   -5.209302
    152          7           0        5.886862   -0.030891   -1.234929
    153          6           0        5.463071    0.777347   -0.102783
    154          6           0        6.255046    0.658358    1.200144
    155          8           0        6.527979    1.581765    1.958911
    156          6           0        3.980406    0.530372    0.133029
    157          6           0        3.196489    1.016432   -1.089313
    158          6           0        1.737632    0.645204   -0.863203
    159          8           0        0.886633    1.543448   -0.726243
    160          8           0        1.421492   -0.561991   -0.763019
    161          1           0        5.268928   -0.783175   -1.496512
    162          1           0        5.454998    1.808725   -0.426965
    163          1           0        3.590427    0.978393    1.044947
    164          1           0        3.855961   -0.547097    0.124472
    165          1           0        3.529682    0.551625   -2.018365
    166          1           0        3.324712    2.091175   -1.201497
    167          7           0        6.684978   -0.600480    1.370389
    168          6           0        7.675055   -0.898344    2.378767
    169          1           0        7.479888   -0.298059    3.266839
    170          1           0        7.624536   -1.955780    2.637268
    171          1           0        8.667627   -0.665178    1.994258
    172          1           0        6.499249   -1.303019    0.666511
    173         20           0       -1.143449   -0.098774   -1.126213
    174          8           0       -0.645878   -2.347028   -2.352743
    175          1           0       -0.665690   -3.310521   -2.399525
    176          1           0       -0.126022   -2.091940   -3.117452
 ---------------------------------------------------------------------
 Rotational constants (GHZ):      0.0251807      0.0156039      0.0126673
 Standard basis: SVP (5D, 7F)
 There are  1809 symmetry adapted cartesian basis functions of A   symmetry.
 There are  1717 symmetry adapted basis functions of A   symmetry.
  1717 basis functions,  2922 primitive gaussians,  1809 cartesian basis functions
   358 alpha electrons      358 beta electrons
       nuclear repulsion energy     22115.9236248565 Hartrees.
 NAtoms=  176 NActive=  176 NUniq=  176 SFac= 1.00D+00 NAtFMM=   60 NAOKFM=T Big=T
 Integral buffers will be    131072 words long.
 Raffenetti 2 integral format.
 Two-electron integral symmetry is turned on.
 One-electron integrals computed using PRISM.
 NBasis=  1717 RedAO= T EigKep=  2.73D-04  NBF=  1717
 NBsUse=  1717 1.00D-06 EigRej= -1.00D+00 NBFU=  1717
 ExpMin= 1.98D-02 ExpMax= 3.51D+04 ExpMxC= 5.28D+03 IAcc=3 IRadAn=         5 AccDes= 0.00D+00
 Harris functional with IExCor=  402 and IRadAn=       5 diagonalized for initial guess.
 HarFok:  IExCor=  402 AccDes= 0.00D+00 IRadAn=         5 IDoV= 1 UseB2=F ITyADJ=14
 ICtDFT=  3500011 ScaDFX=  1.000000  1.000000  1.000000  1.000000
 FoFCou: FMM=F IPFlag=           0 FMFlag=      100000 FMFlg1=        2001
         NFxFlg=           0 DoJE=T BraDBF=F KetDBF=T FulRan=T
         wScrn=  0.000000 ICntrl=     500 IOpCl=  0 I1Cent=   200000004 NGrid=           0
         NMat0=    1 NMatS0=      1 NMatT0=    0 NMatD0=    1 NMtDS0=    0 NMtDT0=    0
 Petite list used in FoFCou.
 Requested convergence on RMS density matrix=1.00D-08 within 128 cycles.
 Requested convergence on MAX density matrix=1.00D-06.
 Requested convergence on             energy=1.00D-06.
 No special actions if energy rises.
 EnCoef did     3 forward-backward iterations
 SCF Done:  E(RB3LYP) =  -5333.59306335     A.U. after   18 cycles
            NFock= 18  Conv=0.52D-08     -V/T= 2.0081

 **********************************************************************

            Population analysis using the SCF density.

 **********************************************************************

 Orbital symmetries:
 BldTbl:  Degeneracy threshold= 1.00D-02
       Occupied  (A) (A) (A) (A) (A) (A) (A) (A) (A) (A) (A) (A)
                 (A) (A) (A) (A) (A) (A) (A) (A) (A) (A) (A) (A)
                 (A) (A) (A) (A) (A) (A) (A) (A) (A) (A) (A) (A)
                 (A) (A) (A) (A) (A) (A) (A) (A) (A) (A) (A) (A)
                 (A) (A) (A) (A) (A) (A) (A) (A) (A) (A) (A) (A)
                 (A) (A) (A) (A) (A) (A) (A) (A) (A) (A) (A) (A)
                 (A) (A) (A) (A) (A) (A) (A) (A) (A) (A) (A) (A)
                 (A) (A) (A) (A) (A) (A) (A) (A) (A) (A) (A) (A)
                 (A) (A) (A) (A) (A) (A) (A) (A) (A) (A) (A) (A)
                 (A) (A) (A) (A) (A) (A) (A) (A) (A) (A) (A) (A)
                 (A) (A) (A) (A) (A) (A) (A) (A) (A) (A) (A) (A)
                 (A) (A) (A) (A) (A) (A) (A) (A) (A) (A) (A) (A)
                 (A) (A) (A) (A) (A) (A) (A) (A) (A) (A) (A) (A)
                 (A) (A) (A) (A) (A) (A) (A) (A) (A) (A) (A) (A)
                 (A) (A) (A) (A) (A) (A) (A) (A) (A) (A) (A) (A)
                 (A) (A) (A) (A) (A) (A) (A) (A) (A) (A) (A) (A)
                 (A) (A) (A) (A) (A) (A) (A) (A) (A) (A) (A) (A)
                 (A) (A) (A) (A) (A) (A) (A) (A) (A) (A) (A) (A)
                 (A) (A) (A) (A) (A) (A) (A) (A) (A) (A) (A) (A)
                 (A) (A) (A) (A) (A) (A) (A) (A) (A) (A) (A) (A)
                 (A) (A) (A) (A) (A) (A) (A) (A) (A) (A) (A) (A)
                 (A) (A) (A) (A) (A) (A) (A) (A) (A) (A) (A) (A)
                 (A) (A) (A) (A) (A) (A) (A) (A) (A) (A) (A) (A)
                 (A) (A) (A) (A) (A) (A) (A) (A) (A) (A) (A) (A)
                 (A) (A) (A) (A) (A) (A) (A) (A) (A) (A) (A) (A)
                 (A) (A) (A) (A) (A) (A) (A) (A) (A) (A) (A) (A)
                 (A) (A) (A) (A) (A) (A) (A) (A) (A) (A) (A) (A)
                 (A) (A) (A) (A) (A) (A) (A) (A) (A) (A) (A) (A)
                 (A) (A) (A) (A) (A) (A) (A) (A) (A) (A) (A) (A)
                 (A) (A) (A) (A) (A) (A) (A) (A) (A) (A)
       Virtual   (A) (A) (A) (A) (A) (A) (A) (A) (A) (A) (A) (A)
                 (A) (A) (A) (A) (A) (A) (A) (A) (A) (A) (A) (A)
                 (A) (A) (A) (A) (A) (A) (A) (A) (A) (A) (A) (A)
                 (A) (A) (A) (A) (A) (A) (A) (A) (A) (A) (A) (A)
                 (A) (A) (A) (A) (A) (A) (A) (A) (A) (A) (A) (A)
                 (A) (A) (A) (A) (A) (A) (A) (A) (A) (A) (A) (A)
                 (A) (A) (A) (A) (A) (A) (A) (A) (A) (A) (A) (A)
                 (A) (A) (A) (A) (A) (A) (A) (A) (A) (A) (A) (A)
                 (A) (A) (A) (A) (A) (A) (A) (A) (A) (A) (A) (A)
                 (A) (A) (A) (A) (A) (A) (A) (A) (A) (A) (A) (A)
                 (A) (A) (A) (A) (A) (A) (A) (A) (A) (A) (A) (A)
                 (A) (A) (A) (A) (A) (A) (A) (A) (A) (A) (A) (A)
                 (A) (A) (A) (A) (A) (A) (A) (A) (A) (A) (A) (A)
                 (A) (A) (A) (A) (A) (A) (A) (A) (A) (A) (A) (A)
                 (A) (A) (A) (A) (A) (A) (A) (A) (A) (A) (A) (A)
                 (A) (A) (A) (A) (A) (A) (A) (A) (A) (A) (A) (A)
                 (A) (A) (A) (A) (A) (A) (A) (A) (A) (A) (A) (A)
                 (A) (A) (A) (A) (A) (A) (A) (A) (A) (A) (A) (A)
                 (A) (A) (A) (A) (A) (A) (A) (A) (A) (A) (A) (A)
                 (A) (A) (A) (A) (A) (A) (A) (A) (A) (A) (A) (A)
                 (A) (A) (A) (A) (A) (A) (A) (A) (A) (A) (A) (A)
                 (A) (A) (A) (A) (A) (A) (A) (A) (A) (A) (A) (A)
                 (A) (A) (A) (A) (A) (A) (A) (A) (A) (A) (A) (A)
                 (A) (A) (A) (A) (A) (A) (A) (A) (A) (A) (A) (A)
                 (A) (A) (A) (A) (A) (A) (A) (A) (A) (A) (A) (A)
                 (A) (A) (A) (A) (A) (A) (A) (A) (A) (A) (A) (A)
                 (A) (A) (A) (A) (A) (A) (A) (A) (A) (A) (A) (A)
                 (A) (A) (A) (A) (A) (A) (A) (A) (A) (A) (A) (A)
                 (A) (A) (A) (A) (A) (A) (A) (A) (A) (A) (A) (A)
                 (A) (A) (A) (A) (A) (A) (A) (A) (A) (A) (A) (A)
                 (A) (A) (A) (A) (A) (A) (A) (A) (A) (A) (A) (A)
                 (A) (A) (A) (A) (A) (A) (A) (A) (A) (A) (A) (A)
                 (A) (A) (A) (A) (A) (A) (A) (A) (A) (A) (A) (A)
                 (A) (A) (A) (A) (A) (A) (A) (A) (A) (A) (A) (A)
                 (A) (A) (A) (A) (A) (A) (A) (A) (A) (A) (A) (A)
                 (A) (A) (A) (A) (A) (A) (A) (A) (A) (A) (A) (A)
                 (A) (A) (A) (A) (A) (A) (A) (A) (A) (A) (A) (A)
                 (A) (A) (A) (A) (A) (A) (A) (A) (A) (A) (A) (A)
                 (A) (A) (A) (A) (A) (A) (A) (A) (A) (A) (A) (A)
                 (A) (A) (A) (A) (A) (A) (A) (A) (A) (A) (A) (A)
                 (A) (A) (A) (A) (A) (A) (A) (A) (A) (A) (A) (A)
                 (A) (A) (A) (A) (A) (A) (A) (A) (A) (A) (A) (A)
                 (A) (A) (A) (A) (A) (A) (A) (A) (A) (A) (A) (A)
                 (A) (A) (A) (A) (A) (A) (A) (A) (A) (A) (A) (A)
                 (A) (A) (A) (A) (A) (A) (A) (A) (A) (A) (A) (A)
                 (A) (A) (A) (A) (A) (A) (A) (A) (A) (A) (A) (A)
                 (A) (A) (A) (A) (A) (A) (A) (A) (A) (A) (A) (A)
                 (A) (A) (A) (A) (A) (A) (A) (A) (A) (A) (A) (A)
                 (A) (A) (A) (A) (A) (A) (A) (A) (A) (A) (A) (A)
                 (A) (A) (A) (A) (A) (A) (A) (A) (A) (A) (A) (A)
                 (A) (A) (A) (A) (A) (A) (A) (A) (A) (A) (A) (A)
                 (A) (A) (A) (A) (A) (A) (A) (A) (A) (A) (A) (A)
                 (A) (A) (A) (A) (A) (A) (A) (A) (A) (A) (A) (A)
                 (A) (A) (A) (A) (A) (A) (A) (A) (A) (A) (A) (A)
                 (A) (A) (A) (A) (A) (A) (A) (A) (A) (A) (A) (A)
                 (A) (A) (A) (A) (A) (A) (A) (A) (A) (A) (A) (A)
                 (A) (A) (A) (A) (A) (A) (A) (A) (A) (A) (A) (A)
                 (A) (A) (A) (A) (A) (A) (A) (A) (A) (A) (A) (A)
                 (A) (A) (A) (A) (A) (A) (A) (A) (A) (A) (A) (A)
                 (A) (A) (A) (A) (A) (A) (A) (A) (A) (A) (A) (A)
                 (A) (A) (A) (A) (A) (A) (A) (A) (A) (A) (A) (A)
                 (A) (A) (A) (A) (A) (A) (A) (A) (A) (A) (A) (A)
                 (A) (A) (A) (A) (A) (A) (A) (A) (A) (A) (A) (A)
                 (A) (A) (A) (A) (A) (A) (A) (A) (A) (A) (A) (A)
                 (A) (A) (A) (A) (A) (A) (A) (A) (A) (A) (A) (A)
                 (A) (A) (A) (A) (A) (A) (A) (A) (A) (A) (A) (A)
                 (A) (A) (A) (A) (A) (A) (A) (A) (A) (A) (A) (A)
                 (A) (A) (A) (A) (A) (A) (A) (A) (A) (A) (A) (A)
                 (A) (A) (A) (A) (A) (A) (A) (A) (A) (A) (A) (A)
                 (A) (A) (A) (A) (A) (A) (A) (A) (A) (A) (A) (A)
                 (A) (A) (A) (A) (A) (A) (A) (A) (A) (A) (A) (A)
                 (A) (A) (A) (A) (A) (A) (A) (A) (A) (A) (A) (A)
                 (A) (A) (A) (A) (A) (A) (A) (A) (A) (A) (A) (A)
                 (A) (A) (A) (A) (A) (A) (A) (A) (A) (A) (A) (A)
                 (A) (A) (A) (A) (A) (A) (A) (A) (A) (A) (A) (A)
                 (A) (A) (A) (A) (A) (A) (A) (A) (A) (A) (A) (A)
                 (A) (A) (A) (A) (A) (A) (A) (A) (A) (A) (A) (A)
                 (A) (A) (A) (A) (A) (A) (A) (A) (A) (A) (A) (A)
                 (A) (A) (A) (A) (A) (A) (A) (A) (A) (A) (A) (A)
                 (A) (A) (A) (A) (A) (A) (A) (A) (A) (A) (A) (A)
                 (A) (A) (A) (A) (A) (A) (A) (A) (A) (A) (A) (A)
                 (A) (A) (A) (A) (A) (A) (A) (A) (A) (A) (A) (A)
                 (A) (A) (A) (A) (A) (A) (A) (A) (A) (A) (A) (A)
                 (A) (A) (A) (A) (A) (A) (A) (A) (A) (A) (A) (A)
                 (A) (A) (A) (A) (A) (A) (A) (A) (A) (A) (A) (A)
                 (A) (A) (A) (A) (A) (A) (A) (A) (A) (A) (A) (A)
                 (A) (A) (A) (A) (A) (A) (A) (A) (A) (A) (A) (A)
                 (A) (A) (A) (A) (A) (A) (A) (A) (A) (A) (A) (A)
                 (A) (A) (A) (A) (A) (A) (A) (A) (A) (A) (A) (A)
                 (A) (A) (A) (A) (A) (A) (A) (A) (A) (A) (A) (A)
                 (A) (A) (A) (A) (A) (A) (A) (A) (A) (A) (A) (A)
                 (A) (A) (A) (A) (A) (A) (A) (A) (A) (A) (A) (A)
                 (A) (A) (A) (A) (A) (A) (A) (A) (A) (A) (A) (A)
                 (A) (A) (A) (A) (A) (A) (A) (A) (A) (A) (A) (A)
                 (A) (A) (A) (A) (A) (A) (A) (A) (A) (A) (A) (A)
                 (A) (A) (A) (A) (A) (A) (A) (A) (A) (A) (A) (A)
                 (A) (A) (A) (A) (A) (A) (A) (A) (A) (A) (A) (A)
                 (A) (A) (A) (A) (A) (A) (A) (A) (A) (A) (A) (A)
                 (A) (A) (A) (A) (A) (A) (A) (A) (A) (A) (A) (A)
                 (A) (A) (A) (A) (A) (A) (A) (A) (A) (A) (A) (A)
                 (A) (A) (A) (A) (A) (A) (A) (A) (A) (A) (A) (A)
                 (A) (A) (A) (A) (A) (A) (A) (A) (A) (A) (A) (A)
                 (A) (A) (A) (A) (A) (A) (A) (A) (A) (A) (A) (A)
                 (A) (A) (A) (A) (A) (A) (A) (A) (A) (A) (A) (A)
                 (A) (A) (A) (A) (A) (A) (A) (A) (A) (A) (A) (A)
                 (A) (A) (A) (A) (A) (A) (A) (A) (A) (A) (A) (A)
                 (A) (A) (A) (A) (A) (A) (A) (A) (A) (A) (A) (A)
                 (A) (A) (A) (A) (A) (A) (A) (A) (A) (A) (A) (A)
                 (A) (A) (A) (A) (A) (A) (A) (A) (A) (A) (A) (A)
                 (A) (A) (A) (A) (A) (A) (A) (A) (A) (A) (A) (A)
                 (A) (A) (A) (A) (A) (A) (A) (A) (A) (A) (A) (A)
                 (A) (A) (A) (A) (A) (A) (A) (A) (A) (A) (A) (A)
                 (A) (A) (A) (A) (A) (A) (A) (A) (A) (A) (A) (A)
                 (A) (A) (A)
 The electronic state is 1-A.
 Alpha  occ. eigenvalues -- -145.38277 -19.19440 -19.15696 -19.13108 -19.12798
 Alpha  occ. eigenvalues --  -19.12736 -19.12608 -19.12196 -19.12175 -19.12056
 Alpha  occ. eigenvalues --  -19.10557 -19.09878 -19.09415 -19.08006 -19.07699
 Alpha  occ. eigenvalues --  -19.06834 -19.05111 -19.04154 -19.04008 -19.03605
 Alpha  occ. eigenvalues --  -19.03579 -19.02629 -19.01927 -19.01819 -15.44017
 Alpha  occ. eigenvalues --  -14.58435 -14.40603 -14.38330 -14.37842 -14.37271
 Alpha  occ. eigenvalues --  -14.36913 -14.36142 -14.33864 -14.33396 -14.33269
 Alpha  occ. eigenvalues --  -14.33085 -14.31651 -14.29097 -14.29081 -14.27411
 Alpha  occ. eigenvalues --  -12.57652 -12.57603 -12.57560 -10.33573 -10.32970
 Alpha  occ. eigenvalues --  -10.31575 -10.31137 -10.31054 -10.29857 -10.29417
 Alpha  occ. eigenvalues --  -10.28700 -10.27650 -10.26806 -10.26626 -10.26454
 Alpha  occ. eigenvalues --  -10.26421 -10.26325 -10.26242 -10.25814 -10.25213
 Alpha  occ. eigenvalues --  -10.24006 -10.23936 -10.23391 -10.23195 -10.22950
 Alpha  occ. eigenvalues --  -10.22936 -10.22877 -10.22840 -10.22805 -10.22676
 Alpha  occ. eigenvalues --  -10.22535 -10.22474 -10.21821 -10.21743 -10.21413
 Alpha  occ. eigenvalues --  -10.21221 -10.21118 -10.21106 -10.20747 -10.20360
 Alpha  occ. eigenvalues --  -10.20303 -10.20037 -10.19354 -10.19068 -10.18996
 Alpha  occ. eigenvalues --  -10.18569 -10.18512 -10.16817 -10.16639 -10.16425
 Alpha  occ. eigenvalues --  -10.16283 -10.16267 -10.15887 -10.15829 -10.15767
 Alpha  occ. eigenvalues --  -10.15607 -10.15568  -1.80814  -1.13309  -1.09158
 Alpha  occ. eigenvalues --   -1.08766  -1.08530  -1.08129  -1.06955  -1.05233
 Alpha  occ. eigenvalues --   -1.05212  -1.05101  -1.04704  -1.03403  -1.02667
 Alpha  occ. eigenvalues --   -1.02426  -1.01686  -1.01584  -1.01337  -1.00407
 Alpha  occ. eigenvalues --   -1.00136  -0.98850  -0.98705  -0.97964  -0.97946
 Alpha  occ. eigenvalues --   -0.97552  -0.97224  -0.96998  -0.95255  -0.95130
 Alpha  occ. eigenvalues --   -0.94360  -0.94308  -0.93763  -0.93209  -0.91094
 Alpha  occ. eigenvalues --   -0.90429  -0.89793  -0.88768  -0.88062  -0.87916
 Alpha  occ. eigenvalues --   -0.87861  -0.87759  -0.86040  -0.85537  -0.84463
 Alpha  occ. eigenvalues --   -0.83436  -0.82588  -0.81682  -0.81523  -0.81176
 Alpha  occ. eigenvalues --   -0.79420  -0.79004  -0.78360  -0.76770  -0.76022
 Alpha  occ. eigenvalues --   -0.75054  -0.74593  -0.74201  -0.73951  -0.73522
 Alpha  occ. eigenvalues --   -0.72237  -0.72219  -0.71369  -0.71350  -0.70267
 Alpha  occ. eigenvalues --   -0.70173  -0.69216  -0.68788  -0.68697  -0.68250
 Alpha  occ. eigenvalues --   -0.67618  -0.66927  -0.65932  -0.65442  -0.64508
 Alpha  occ. eigenvalues --   -0.63633  -0.63158  -0.63011  -0.62817  -0.62334
 Alpha  occ. eigenvalues --   -0.62188  -0.61739  -0.61503  -0.60389  -0.60357
 Alpha  occ. eigenvalues --   -0.59964  -0.58920  -0.58428  -0.58386  -0.58185
 Alpha  occ. eigenvalues --   -0.57701  -0.57609  -0.57336  -0.56807  -0.56579
 Alpha  occ. eigenvalues --   -0.56328  -0.55612  -0.55316  -0.54847  -0.54373
 Alpha  occ. eigenvalues --   -0.54112  -0.53929  -0.53714  -0.53373  -0.52714
 Alpha  occ. eigenvalues --   -0.52120  -0.52084  -0.51714  -0.51547  -0.51495
 Alpha  occ. eigenvalues --   -0.51414  -0.51172  -0.50980  -0.50558  -0.50460
 Alpha  occ. eigenvalues --   -0.50175  -0.49882  -0.49781  -0.49628  -0.49358
 Alpha  occ. eigenvalues --   -0.48934  -0.48759  -0.48294  -0.48049  -0.48013
 Alpha  occ. eigenvalues --   -0.47773  -0.47626  -0.47142  -0.47009  -0.46714
 Alpha  occ. eigenvalues --   -0.46561  -0.46377  -0.46292  -0.46128  -0.45959
 Alpha  occ. eigenvalues --   -0.45565  -0.45380  -0.45316  -0.45198  -0.45037
 Alpha  occ. eigenvalues --   -0.44888  -0.44829  -0.44557  -0.44512  -0.44390
 Alpha  occ. eigenvalues --   -0.44138  -0.44120  -0.43966  -0.43576  -0.43458
 Alpha  occ. eigenvalues --   -0.43248  -0.42944  -0.42884  -0.42748  -0.42499
 Alpha  occ. eigenvalues --   -0.42455  -0.42349  -0.42182  -0.42104  -0.41820
 Alpha  occ. eigenvalues --   -0.41671  -0.41585  -0.41504  -0.41234  -0.41227
 Alpha  occ. eigenvalues --   -0.40945  -0.40774  -0.40658  -0.40457  -0.40345
 Alpha  occ. eigenvalues --   -0.40267  -0.40179  -0.40010  -0.39971  -0.39675
 Alpha  occ. eigenvalues --   -0.39548  -0.39475  -0.39397  -0.39094  -0.38854
 Alpha  occ. eigenvalues --   -0.38802  -0.38646  -0.38613  -0.38442  -0.38246
 Alpha  occ. eigenvalues --   -0.37924  -0.37806  -0.37694  -0.37576  -0.37397
 Alpha  occ. eigenvalues --   -0.37281  -0.37210  -0.36997  -0.36849  -0.36643
 Alpha  occ. eigenvalues --   -0.36425  -0.36228  -0.36140  -0.36013  -0.35974
 Alpha  occ. eigenvalues --   -0.35722  -0.35268  -0.35130  -0.35058  -0.34700
 Alpha  occ. eigenvalues --   -0.34667  -0.34645  -0.34485  -0.34154  -0.34013
 Alpha  occ. eigenvalues --   -0.33764  -0.33668  -0.33372  -0.33141  -0.32856
 Alpha  occ. eigenvalues --   -0.32550  -0.32059  -0.32051  -0.31627  -0.31491
 Alpha  occ. eigenvalues --   -0.31345  -0.30875  -0.30480  -0.30322  -0.30305
 Alpha  occ. eigenvalues --   -0.30101  -0.29753  -0.29712  -0.29114  -0.29006
 Alpha  occ. eigenvalues --   -0.28948  -0.28582  -0.28278  -0.27901  -0.27703
 Alpha  occ. eigenvalues --   -0.27057  -0.26769  -0.26013  -0.25968  -0.25659
 Alpha  occ. eigenvalues --   -0.25189  -0.24968  -0.24829  -0.24493  -0.23523
 Alpha  occ. eigenvalues --   -0.23449  -0.23017  -0.22554  -0.22411  -0.22253
 Alpha  occ. eigenvalues --   -0.22015  -0.21852  -0.21295  -0.21018  -0.20648
 Alpha  occ. eigenvalues --   -0.20435  -0.19439  -0.19214  -0.18933  -0.18370
 Alpha  occ. eigenvalues --   -0.18163  -0.17506  -0.17209
 Alpha virt. eigenvalues --   -0.10298  -0.04673  -0.03720  -0.03551  -0.02104
 Alpha virt. eigenvalues --   -0.01499  -0.01252  -0.00368  -0.00113   0.00265
 Alpha virt. eigenvalues --    0.00572   0.00850   0.01368   0.01458   0.01986
 Alpha virt. eigenvalues --    0.02544   0.03062   0.03141   0.03332   0.03523
 Alpha virt. eigenvalues --    0.03758   0.03855   0.04059   0.04461   0.04697
 Alpha virt. eigenvalues --    0.05119   0.05274   0.05468   0.05623   0.05955
 Alpha virt. eigenvalues --    0.06350   0.06500   0.06658   0.06813   0.06985
 Alpha virt. eigenvalues --    0.07174   0.07419   0.07605   0.07756   0.07785
 Alpha virt. eigenvalues --    0.07956   0.08342   0.08537   0.08624   0.08820
 Alpha virt. eigenvalues --    0.08917   0.09290   0.09417   0.09525   0.09706
 Alpha virt. eigenvalues --    0.09957   0.10076   0.10206   0.10385   0.10503
 Alpha virt. eigenvalues --    0.10665   0.10823   0.10902   0.11198   0.11564
 Alpha virt. eigenvalues --    0.11611   0.11778   0.11905   0.12082   0.12201
 Alpha virt. eigenvalues --    0.12265   0.12468   0.12725   0.12987   0.13241
 Alpha virt. eigenvalues --    0.13281   0.13513   0.13645   0.13886   0.14015
 Alpha virt. eigenvalues --    0.14150   0.14313   0.14397   0.14553   0.14904
 Alpha virt. eigenvalues --    0.14978   0.15238   0.15375   0.15570   0.15683
 Alpha virt. eigenvalues --    0.15881   0.16057   0.16252   0.16502   0.16668
 Alpha virt. eigenvalues --    0.17013   0.17209   0.17296   0.17418   0.17456
 Alpha virt. eigenvalues --    0.17522   0.17811   0.17899   0.18026   0.18339
 Alpha virt. eigenvalues --    0.18397   0.18689   0.18891   0.19002   0.19283
 Alpha virt. eigenvalues --    0.19421   0.19704   0.19992   0.20108   0.20267
 Alpha virt. eigenvalues --    0.20420   0.20678   0.20906   0.21161   0.21249
 Alpha virt. eigenvalues --    0.21404   0.21686   0.21872   0.22251   0.22443
 Alpha virt. eigenvalues --    0.22704   0.22807   0.22948   0.23312   0.23552
 Alpha virt. eigenvalues --    0.23780   0.23970   0.24053   0.24171   0.24312
 Alpha virt. eigenvalues --    0.24659   0.24807   0.25217   0.25373   0.25732
 Alpha virt. eigenvalues --    0.25780   0.26121   0.26214   0.26674   0.27044
 Alpha virt. eigenvalues --    0.27094   0.27378   0.27538   0.27715   0.28158
 Alpha virt. eigenvalues --    0.28368   0.28649   0.28928   0.29020   0.29279
 Alpha virt. eigenvalues --    0.29579   0.29698   0.29957   0.30023   0.30338
 Alpha virt. eigenvalues --    0.30621   0.30841   0.31147   0.31270   0.31412
 Alpha virt. eigenvalues --    0.31868   0.32048   0.32285   0.32617   0.32644
 Alpha virt. eigenvalues --    0.33118   0.33352   0.33838   0.34072   0.34500
 Alpha virt. eigenvalues --    0.34619   0.34707   0.35156   0.35315   0.35674
 Alpha virt. eigenvalues --    0.35829   0.36126   0.36376   0.36928   0.37150
 Alpha virt. eigenvalues --    0.37378   0.37488   0.37794   0.37986   0.38321
 Alpha virt. eigenvalues --    0.38516   0.38691   0.39160   0.39432   0.39883
 Alpha virt. eigenvalues --    0.40062   0.40491   0.40646   0.40730   0.40931
 Alpha virt. eigenvalues --    0.41305   0.41505   0.41731   0.41901   0.41930
 Alpha virt. eigenvalues --    0.42164   0.42263   0.42551   0.42854   0.42997
 Alpha virt. eigenvalues --    0.43085   0.43280   0.43831   0.44111   0.44202
 Alpha virt. eigenvalues --    0.44569   0.44790   0.44858   0.45022   0.45289
 Alpha virt. eigenvalues --    0.45356   0.45505   0.45787   0.46113   0.46266
 Alpha virt. eigenvalues --    0.46457   0.46702   0.46873   0.47011   0.47292
 Alpha virt. eigenvalues --    0.47345   0.47717   0.47814   0.48019   0.48052
 Alpha virt. eigenvalues --    0.48376   0.48573   0.48633   0.48969   0.49365
 Alpha virt. eigenvalues --    0.49423   0.49563   0.49848   0.50227   0.50340
 Alpha virt. eigenvalues --    0.50596   0.50643   0.50771   0.50837   0.51198
 Alpha virt. eigenvalues --    0.51478   0.51675   0.51776   0.51971   0.52228
 Alpha virt. eigenvalues --    0.52519   0.52853   0.53201   0.53259   0.53408
 Alpha virt. eigenvalues --    0.53713   0.53936   0.54029   0.54214   0.54469
 Alpha virt. eigenvalues --    0.54826   0.54994   0.55165   0.55262   0.55499
 Alpha virt. eigenvalues --    0.55543   0.55748   0.55863   0.56185   0.56291
 Alpha virt. eigenvalues --    0.56483   0.56592   0.56795   0.56947   0.57067
 Alpha virt. eigenvalues --    0.57327   0.57554   0.57645   0.57813   0.57987
 Alpha virt. eigenvalues --    0.58238   0.58443   0.58486   0.58622   0.58746
 Alpha virt. eigenvalues --    0.58868   0.59059   0.59261   0.59461   0.59533
 Alpha virt. eigenvalues --    0.59591   0.59860   0.60053   0.60326   0.60441
 Alpha virt. eigenvalues --    0.60566   0.60653   0.60813   0.60951   0.61113
 Alpha virt. eigenvalues --    0.61182   0.61300   0.61640   0.61755   0.61817
 Alpha virt. eigenvalues --    0.62033   0.62063   0.62155   0.62296   0.62332
 Alpha virt. eigenvalues --    0.62521   0.62630   0.62875   0.62889   0.63057
 Alpha virt. eigenvalues --    0.63172   0.63248   0.63375   0.63491   0.63692
 Alpha virt. eigenvalues --    0.63812   0.63970   0.64029   0.64187   0.64300
 Alpha virt. eigenvalues --    0.64418   0.64644   0.64720   0.64815   0.64896
 Alpha virt. eigenvalues --    0.64985   0.65172   0.65183   0.65445   0.65514
 Alpha virt. eigenvalues --    0.65562   0.65613   0.65800   0.65989   0.66107
 Alpha virt. eigenvalues --    0.66135   0.66309   0.66342   0.66424   0.66622
 Alpha virt. eigenvalues --    0.66635   0.66754   0.66853   0.67081   0.67170
 Alpha virt. eigenvalues --    0.67253   0.67334   0.67575   0.67683   0.67791
 Alpha virt. eigenvalues --    0.67940   0.68034   0.68178   0.68344   0.68377
 Alpha virt. eigenvalues --    0.68469   0.68713   0.68925   0.68984   0.69030
 Alpha virt. eigenvalues --    0.69126   0.69285   0.69374   0.69498   0.69613
 Alpha virt. eigenvalues --    0.69684   0.69925   0.70025   0.70153   0.70326
 Alpha virt. eigenvalues --    0.70465   0.70623   0.70821   0.70996   0.71210
 Alpha virt. eigenvalues --    0.71327   0.71418   0.71604   0.71680   0.71844
 Alpha virt. eigenvalues --    0.71873   0.72032   0.72260   0.72385   0.72548
 Alpha virt. eigenvalues --    0.72585   0.72745   0.72833   0.73014   0.73151
 Alpha virt. eigenvalues --    0.73423   0.73685   0.73818   0.73929   0.74055
 Alpha virt. eigenvalues --    0.74188   0.74555   0.74742   0.75096   0.75200
 Alpha virt. eigenvalues --    0.75363   0.75587   0.75931   0.75978   0.76390
 Alpha virt. eigenvalues --    0.76523   0.76664   0.76982   0.77184   0.77402
 Alpha virt. eigenvalues --    0.77737   0.77857   0.78048   0.78220   0.78463
 Alpha virt. eigenvalues --    0.78576   0.79038   0.79391   0.79441   0.79935
 Alpha virt. eigenvalues --    0.80042   0.80441   0.80859   0.80976   0.81213
 Alpha virt. eigenvalues --    0.81380   0.81922   0.82127   0.82220   0.82407
 Alpha virt. eigenvalues --    0.82511   0.82590   0.82785   0.82921   0.83324
 Alpha virt. eigenvalues --    0.83553   0.83877   0.84253   0.84424   0.84844
 Alpha virt. eigenvalues --    0.85650   0.85706   0.85780   0.86002   0.86047
 Alpha virt. eigenvalues --    0.86497   0.87095   0.87111   0.87264   0.87533
 Alpha virt. eigenvalues --    0.87758   0.88052   0.88172   0.88526   0.88944
 Alpha virt. eigenvalues --    0.89371   0.89607   0.89930   0.89990   0.90361
 Alpha virt. eigenvalues --    0.90838   0.90882   0.91210   0.91555   0.91606
 Alpha virt. eigenvalues --    0.91766   0.92089   0.92718   0.92917   0.93134
 Alpha virt. eigenvalues --    0.93444   0.93516   0.93990   0.94107   0.94474
 Alpha virt. eigenvalues --    0.94855   0.95650   0.95667   0.95891   0.96285
 Alpha virt. eigenvalues --    0.96509   0.96750   0.96996   0.97247   0.97404
 Alpha virt. eigenvalues --    0.97871   0.98216   0.98544   0.98746   0.98992
 Alpha virt. eigenvalues --    0.99292   0.99495   0.99672   0.99836   1.00222
 Alpha virt. eigenvalues --    1.00374   1.00474   1.00775   1.01000   1.01368
 Alpha virt. eigenvalues --    1.01727   1.02198   1.02604   1.03020   1.03296
 Alpha virt. eigenvalues --    1.03381   1.03924   1.04076   1.04569   1.04693
 Alpha virt. eigenvalues --    1.04747   1.05141   1.05159   1.05771   1.05876
 Alpha virt. eigenvalues --    1.06220   1.06521   1.06750   1.06807   1.06995
 Alpha virt. eigenvalues --    1.07303   1.07758   1.07808   1.08389   1.08551
 Alpha virt. eigenvalues --    1.08935   1.09135   1.09732   1.09875   1.10248
 Alpha virt. eigenvalues --    1.10389   1.10850   1.11118   1.11338   1.11556
 Alpha virt. eigenvalues --    1.11766   1.12098   1.12439   1.12617   1.12848
 Alpha virt. eigenvalues --    1.13371   1.13682   1.13915   1.14235   1.14424
 Alpha virt. eigenvalues --    1.14728   1.14887   1.15283   1.15672   1.16092
 Alpha virt. eigenvalues --    1.16260   1.16408   1.17060   1.17411   1.17660
 Alpha virt. eigenvalues --    1.17917   1.18001   1.18338   1.18690   1.18873
 Alpha virt. eigenvalues --    1.18916   1.19461   1.19744   1.19794   1.20348
 Alpha virt. eigenvalues --    1.20412   1.20718   1.20941   1.21301   1.21431
 Alpha virt. eigenvalues --    1.21489   1.21641   1.21755   1.22108   1.22474
 Alpha virt. eigenvalues --    1.22928   1.23245   1.23636   1.23885   1.24046
 Alpha virt. eigenvalues --    1.24562   1.24764   1.25064   1.25305   1.25361
 Alpha virt. eigenvalues --    1.25965   1.26069   1.26372   1.26502   1.26889
 Alpha virt. eigenvalues --    1.27033   1.27298   1.27371   1.27651   1.27872
 Alpha virt. eigenvalues --    1.28021   1.28225   1.28321   1.28525   1.28752
 Alpha virt. eigenvalues --    1.29189   1.29385   1.29597   1.29894   1.30079
 Alpha virt. eigenvalues --    1.30098   1.30433   1.30809   1.31013   1.31237
 Alpha virt. eigenvalues --    1.31702   1.31833   1.32032   1.32480   1.32776
 Alpha virt. eigenvalues --    1.32917   1.33437   1.33699   1.33867   1.34228
 Alpha virt. eigenvalues --    1.34747   1.35062   1.35280   1.35559   1.35717
 Alpha virt. eigenvalues --    1.36023   1.36371   1.36624   1.36764   1.37320
 Alpha virt. eigenvalues --    1.37520   1.37805   1.38036   1.38531   1.38637
 Alpha virt. eigenvalues --    1.38919   1.39177   1.39438   1.39763   1.39937
 Alpha virt. eigenvalues --    1.40096   1.40291   1.40543   1.40902   1.41106
 Alpha virt. eigenvalues --    1.41213   1.41336   1.41662   1.42032   1.42219
 Alpha virt. eigenvalues --    1.42662   1.43062   1.43340   1.43663   1.44258
 Alpha virt. eigenvalues --    1.44435   1.44591   1.44880   1.45289   1.45665
 Alpha virt. eigenvalues --    1.46025   1.46248   1.46551   1.47131   1.47361
 Alpha virt. eigenvalues --    1.47537   1.47646   1.48155   1.48564   1.48831
 Alpha virt. eigenvalues --    1.49005   1.49411   1.49503   1.49805   1.50289
 Alpha virt. eigenvalues --    1.50348   1.50577   1.51015   1.51392   1.51605
 Alpha virt. eigenvalues --    1.52017   1.52182   1.52611   1.52921   1.53205
 Alpha virt. eigenvalues --    1.53440   1.53514   1.53803   1.53947   1.54104
 Alpha virt. eigenvalues --    1.54364   1.54955   1.55487   1.55850   1.56029
 Alpha virt. eigenvalues --    1.56251   1.56784   1.57029   1.57417   1.57662
 Alpha virt. eigenvalues --    1.58271   1.58849   1.59200   1.59724   1.59946
 Alpha virt. eigenvalues --    1.60056   1.60501   1.60749   1.61020   1.61604
 Alpha virt. eigenvalues --    1.61680   1.61972   1.62208   1.62561   1.62926
 Alpha virt. eigenvalues --    1.63180   1.63223   1.63476   1.63642   1.64027
 Alpha virt. eigenvalues --    1.64249   1.64338   1.64895   1.65489   1.65688
 Alpha virt. eigenvalues --    1.65733   1.66259   1.66436   1.66664   1.67069
 Alpha virt. eigenvalues --    1.67557   1.67643   1.68050   1.68140   1.68538
 Alpha virt. eigenvalues --    1.68945   1.69239   1.69402   1.69717   1.69956
 Alpha virt. eigenvalues --    1.70184   1.70461   1.70567   1.71021   1.71210
 Alpha virt. eigenvalues --    1.71386   1.71517   1.71713   1.71881   1.72084
 Alpha virt. eigenvalues --    1.72434   1.72594   1.72715   1.73108   1.73472
 Alpha virt. eigenvalues --    1.73651   1.73859   1.73950   1.74417   1.74449
 Alpha virt. eigenvalues --    1.74721   1.74900   1.75082   1.75150   1.75488
 Alpha virt. eigenvalues --    1.75724   1.76006   1.76237   1.76313   1.76656
 Alpha virt. eigenvalues --    1.76727   1.76899   1.77049   1.77324   1.77460
 Alpha virt. eigenvalues --    1.77708   1.77898   1.77937   1.78097   1.78367
 Alpha virt. eigenvalues --    1.78481   1.78634   1.78847   1.78913   1.79029
 Alpha virt. eigenvalues --    1.79049   1.79248   1.79458   1.79626   1.79717
 Alpha virt. eigenvalues --    1.79768   1.80044   1.80139   1.80318   1.80695
 Alpha virt. eigenvalues --    1.80937   1.81147   1.81163   1.81366   1.81555
 Alpha virt. eigenvalues --    1.81744   1.81930   1.82264   1.82402   1.82519
 Alpha virt. eigenvalues --    1.82795   1.82861   1.83004   1.83113   1.83483
 Alpha virt. eigenvalues --    1.83647   1.83763   1.83941   1.84175   1.84373
 Alpha virt. eigenvalues --    1.84457   1.84764   1.84884   1.84940   1.85311
 Alpha virt. eigenvalues --    1.85423   1.85778   1.85845   1.86369   1.86576
 Alpha virt. eigenvalues --    1.86831   1.87154   1.87286   1.87424   1.87483
 Alpha virt. eigenvalues --    1.87792   1.87860   1.87979   1.88350   1.88465
 Alpha virt. eigenvalues --    1.88756   1.88784   1.88907   1.89271   1.89331
 Alpha virt. eigenvalues --    1.89627   1.89706   1.89856   1.90023   1.90352
 Alpha virt. eigenvalues --    1.90393   1.90658   1.90918   1.91093   1.91245
 Alpha virt. eigenvalues --    1.91355   1.91525   1.91585   1.91773   1.91957
 Alpha virt. eigenvalues --    1.92312   1.92473   1.92768   1.93144   1.93204
 Alpha virt. eigenvalues --    1.93556   1.93847   1.94033   1.94217   1.94365
 Alpha virt. eigenvalues --    1.94834   1.95014   1.95079   1.95172   1.95402
 Alpha virt. eigenvalues --    1.95676   1.95872   1.96060   1.96208   1.96283
 Alpha virt. eigenvalues --    1.96402   1.96691   1.96784   1.96980   1.97128
 Alpha virt. eigenvalues --    1.97330   1.97454   1.97695   1.97753   1.97902
 Alpha virt. eigenvalues --    1.98076   1.98370   1.98856   1.98997   1.99270
 Alpha virt. eigenvalues --    1.99591   1.99737   1.99916   2.00076   2.00171
 Alpha virt. eigenvalues --    2.00422   2.00585   2.00915   2.01195   2.01685
 Alpha virt. eigenvalues --    2.01748   2.02157   2.02235   2.02482   2.02756
 Alpha virt. eigenvalues --    2.03464   2.03593   2.03842   2.03961   2.04311
 Alpha virt. eigenvalues --    2.04394   2.04719   2.04852   2.05228   2.05408
 Alpha virt. eigenvalues --    2.05782   2.05912   2.06119   2.06449   2.06844
 Alpha virt. eigenvalues --    2.07113   2.07379   2.07635   2.07641   2.07821
 Alpha virt. eigenvalues --    2.08004   2.08227   2.08667   2.08951   2.09487
 Alpha virt. eigenvalues --    2.09777   2.10204   2.10502   2.10589   2.10740
 Alpha virt. eigenvalues --    2.10976   2.11387   2.11673   2.12096   2.12441
 Alpha virt. eigenvalues --    2.12756   2.13131   2.13277   2.13881   2.14126
 Alpha virt. eigenvalues --    2.14360   2.14543   2.15276   2.15396   2.15820
 Alpha virt. eigenvalues --    2.16039   2.16466   2.16855   2.16913   2.17322
 Alpha virt. eigenvalues --    2.17442   2.17744   2.18047   2.18215   2.18376
 Alpha virt. eigenvalues --    2.18707   2.18800   2.19203   2.19451   2.19713
 Alpha virt. eigenvalues --    2.20147   2.20239   2.20943   2.20961   2.21386
 Alpha virt. eigenvalues --    2.21569   2.21904   2.22029   2.22786   2.23024
 Alpha virt. eigenvalues --    2.23396   2.23613   2.23853   2.24089   2.24429
 Alpha virt. eigenvalues --    2.24793   2.25134   2.25488   2.25819   2.26071
 Alpha virt. eigenvalues --    2.26188   2.26497   2.26720   2.27154   2.27617
 Alpha virt. eigenvalues --    2.27703   2.28013   2.28648   2.29520   2.29594
 Alpha virt. eigenvalues --    2.29959   2.30319   2.30763   2.31434   2.31593
 Alpha virt. eigenvalues --    2.32017   2.32238   2.32395   2.32490   2.32649
 Alpha virt. eigenvalues --    2.32770   2.32914   2.33271   2.33753   2.33995
 Alpha virt. eigenvalues --    2.34500   2.34606   2.34944   2.35195   2.35554
 Alpha virt. eigenvalues --    2.35945   2.36194   2.36634   2.36862   2.37547
 Alpha virt. eigenvalues --    2.37688   2.37778   2.37950   2.38440   2.38595
 Alpha virt. eigenvalues --    2.38761   2.39149   2.39355   2.39608   2.39697
 Alpha virt. eigenvalues --    2.40146   2.40188   2.40797   2.40957   2.41140
 Alpha virt. eigenvalues --    2.42162   2.42273   2.42497   2.42604   2.43062
 Alpha virt. eigenvalues --    2.43306   2.43688   2.44203   2.44454   2.44787
 Alpha virt. eigenvalues --    2.45253   2.45634   2.45685   2.45808   2.46213
 Alpha virt. eigenvalues --    2.46337   2.47301   2.47453   2.47803   2.48095
 Alpha virt. eigenvalues --    2.48514   2.49251   2.49373   2.49573   2.49791
 Alpha virt. eigenvalues --    2.50105   2.50407   2.50832   2.51317   2.51523
 Alpha virt. eigenvalues --    2.51946   2.52379   2.52932   2.53194   2.53813
 Alpha virt. eigenvalues --    2.53958   2.54067   2.54721   2.54941   2.55543
 Alpha virt. eigenvalues --    2.55889   2.55976   2.56422   2.56668   2.56987
 Alpha virt. eigenvalues --    2.57058   2.57835   2.58434   2.58719   2.58814
 Alpha virt. eigenvalues --    2.59069   2.59557   2.59708   2.59956   2.60330
 Alpha virt. eigenvalues --    2.60581   2.60930   2.61321   2.61568   2.61616
 Alpha virt. eigenvalues --    2.62025   2.62478   2.62633   2.62796   2.62885
 Alpha virt. eigenvalues --    2.63388   2.64198   2.64499   2.64584   2.64758
 Alpha virt. eigenvalues --    2.65176   2.65291   2.65623   2.65681   2.65937
 Alpha virt. eigenvalues --    2.66288   2.66474   2.66662   2.67206   2.67348
 Alpha virt. eigenvalues --    2.67971   2.68129   2.68254   2.68509   2.68883
 Alpha virt. eigenvalues --    2.69211   2.69464   2.69883   2.70183   2.70687
 Alpha virt. eigenvalues --    2.70736   2.71261   2.71607   2.71882   2.72225
 Alpha virt. eigenvalues --    2.72619   2.72827   2.73258   2.73489   2.73634
 Alpha virt. eigenvalues --    2.73863   2.73986   2.74283   2.74383   2.74975
 Alpha virt. eigenvalues --    2.75521   2.75542   2.75617   2.75997   2.76149
 Alpha virt. eigenvalues --    2.76334   2.76639   2.76812   2.76997   2.77075
 Alpha virt. eigenvalues --    2.77303   2.77404   2.78129   2.78398   2.78693
 Alpha virt. eigenvalues --    2.78866   2.79175   2.79240   2.79437   2.79847
 Alpha virt. eigenvalues --    2.80713   2.80836   2.81257   2.81329   2.81573
 Alpha virt. eigenvalues --    2.81598   2.81993   2.82072   2.82521   2.82920
 Alpha virt. eigenvalues --    2.83192   2.83374   2.83619   2.83858   2.84570
 Alpha virt. eigenvalues --    2.84948   2.85395   2.86441   2.86552   2.86808
 Alpha virt. eigenvalues --    2.87155   2.87250   2.87390   2.87545   2.87903
 Alpha virt. eigenvalues --    2.88278   2.88789   2.88959   2.89035   2.89194
 Alpha virt. eigenvalues --    2.89325   2.89979   2.90237   2.90616   2.90809
 Alpha virt. eigenvalues --    2.91266   2.91639   2.91921   2.92299   2.92417
 Alpha virt. eigenvalues --    2.92637   2.92903   2.93184   2.93215   2.93463
 Alpha virt. eigenvalues --    2.93880   2.94009   2.94126   2.94857   2.95253
 Alpha virt. eigenvalues --    2.95501   2.95858   2.95890   2.96196   2.97087
 Alpha virt. eigenvalues --    2.97289   2.97612   2.97791   2.98426   2.98654
 Alpha virt. eigenvalues --    2.99343   2.99661   2.99898   3.00209   3.00625
 Alpha virt. eigenvalues --    3.00973   3.01440   3.01558   3.02081   3.02270
 Alpha virt. eigenvalues --    3.02493   3.02870   3.02993   3.03296   3.03490
 Alpha virt. eigenvalues --    3.03749   3.04198   3.04788   3.04905   3.05079
 Alpha virt. eigenvalues --    3.05334   3.05892   3.06438   3.06657   3.06746
 Alpha virt. eigenvalues --    3.07953   3.08071   3.08833   3.09070   3.09405
 Alpha virt. eigenvalues --    3.10547   3.10713   3.10841   3.11370   3.12079
 Alpha virt. eigenvalues --    3.12365   3.12781   3.13035   3.13059   3.13434
 Alpha virt. eigenvalues --    3.13852   3.14545   3.15408   3.15552   3.15858
 Alpha virt. eigenvalues --    3.16058   3.16243   3.16830   3.17604   3.18000
 Alpha virt. eigenvalues --    3.18408   3.18539   3.18825   3.19175   3.19655
 Alpha virt. eigenvalues --    3.19804   3.19987   3.20465   3.20751   3.20835
 Alpha virt. eigenvalues --    3.20952   3.21738   3.22025   3.22632   3.23208
 Alpha virt. eigenvalues --    3.23508   3.23960   3.24934   3.25181   3.25424
 Alpha virt. eigenvalues --    3.26482   3.27917   3.28565   3.28919   3.29623
 Alpha virt. eigenvalues --    3.29944   3.30693   3.30821   3.31009   3.31300
 Alpha virt. eigenvalues --    3.32152   3.32398   3.32913   3.33774   3.34916
 Alpha virt. eigenvalues --    3.35134   3.35936   3.36515   3.38965   3.40142
 Alpha virt. eigenvalues --    3.40753   3.41207   3.44423   3.47083   3.49569
 Alpha virt. eigenvalues --    3.51687   3.52631   3.53775   3.53853   3.54533
 Alpha virt. eigenvalues --    3.57048   3.57280   3.57436   3.58213   3.58623
 Alpha virt. eigenvalues --    3.60921   3.62077   3.64198   3.64469   3.65679
 Alpha virt. eigenvalues --    3.66651   3.66846   3.67091   3.67563   3.67921
 Alpha virt. eigenvalues --    3.68341   3.68649   3.69169   3.69786   3.70049
 Alpha virt. eigenvalues --    3.70307   3.70771   3.71228   3.72107   3.72659
 Alpha virt. eigenvalues --    3.73131   3.75196   3.75349   3.76352   3.76693
 Alpha virt. eigenvalues --    3.78927   3.80224   3.83544   3.94728
          Condensed to atoms (all electrons):
 Mulliken charges:
               1
     1  C    0.052438
     2  C    0.040482
     3  O   -0.301075
     4  H    0.051055
     5  H   -0.016501
     6  H    0.023416
     7  N   -0.108966
     8  C    0.110910
     9  C    0.045550
    10  O   -0.293482
    11  C    0.063599
    12  C    0.135210
    13  O   -0.357740
    14  O   -0.442567
    15  H    0.125051
    16  H   -0.011556
    17  H    0.008046
    18  H    0.002489
    19  N   -0.131007
    20  C    0.145960
    21  C    0.040519
    22  O   -0.261905
    23  C    0.061810
    24  C   -0.037026
    25  C   -0.031908
    26  C    0.015814
    27  N    0.090945
    28  H    0.143549
    29  H   -0.015414
    30  H   -0.002916
    31  H   -0.004086
    32  H    0.000752
    33  H    0.048411
    34  H    0.057679
    35  H    0.008109
    36  H    0.068990
    37  H    0.088185
    38  H    0.184725
    39  H    0.193486
    40  H    0.179264
    41  N   -0.156809
    42  C    0.193019
    43  C    0.043339
    44  O   -0.294689
    45  C    0.047980
    46  C    0.058706
    47  O   -0.461100
    48  O   -0.363751
    49  H    0.114157
    50  H    0.008421
    51  H   -0.007347
    52  H    0.034389
    53  N   -0.161414
    54  C    0.272092
    55  C   -0.000267
    56  O   -0.316083
    57  H    0.145343
    58  H    0.013674
    59  H    0.033041
    60  N   -0.161160
    61  C    0.175491
    62  C    0.056724
    63  O   -0.294355
    64  C    0.030172
    65  C    0.107485
    66  N   -0.041067
    67  O   -0.329345
    68  H    0.166390
    69  H    0.019261
    70  H    0.062772
    71  H   -0.003971
    72  H    0.124500
    73  H    0.117036
    74  N   -0.169570
    75  C    0.264910
    76  C    0.011902
    77  O   -0.314591
    78  H    0.161193
    79  H    0.024969
    80  H    0.040760
    81  N   -0.116309
    82  C    0.120935
    83  C    0.140965
    84  O   -0.371393
    85  C    0.168717
    86  C   -0.049147
    87  C   -0.001556
    88  C    0.002857
    89  C    0.024115
    90  C   -0.034752
    91  C    0.173068
    92  O   -0.209364
    93  H    0.159204
    94  H   -0.019140
    95  H   -0.018357
    96  H    0.008005
    97  H   -0.049542
    98  H   -0.023205
    99  H   -0.067390
   100  H   -0.048762
   101  H    0.169137
   102  N   -0.106746
   103  C    0.152923
   104  C    0.067715
   105  O   -0.285268
   106  C   -0.137287
   107  C    0.004673
   108  C    0.063525
   109  C    0.031759
   110  H    0.137285
   111  H    0.007923
   112  H   -0.019810
   113  H    0.017865
   114  H    0.001188
   115  H    0.027271
   116  H    0.016731
   117  H    0.000739
   118  H    0.015371
   119  H    0.010405
   120  H   -0.004670
   121  N   -0.135740
   122  C    0.062664
   123  C    0.113184
   124  O   -0.281879
   125  C    0.288636
   126  O   -0.378151
   127  H    0.160150
   128  H    0.017055
   129  H   -0.039766
   130  H   -0.015053
   131  H    0.168301
   132  N   -0.135787
   133  C    0.075311
   134  C    0.080526
   135  O   -0.253463
   136  C    0.024563
   137  H    0.125743
   138  H    0.021846
   139  H    0.025252
   140  H    0.034852
   141  H    0.023507
   142  N   -0.137242
   143  C    0.074077
   144  C    0.053512
   145  O   -0.272787
   146  C    0.038043
   147  H    0.119889
   148  H    0.028709
   149  H    0.015614
   150  H    0.040713
   151  H    0.025168
   152  N   -0.146398
   153  C    0.152740
   154  C    0.102016
   155  O   -0.282534
   156  C   -0.068623
   157  C    0.089544
   158  C    0.145658
   159  O   -0.389181
   160  O   -0.443398
   161  H    0.118871
   162  H   -0.029400
   163  H    0.048652
   164  H   -0.000057
   165  H    0.008922
   166  H   -0.024224
   167  N   -0.187815
   168  C    0.138168
   169  H    0.022532
   170  H    0.006121
   171  H    0.027812
   172  H    0.146698
   173  Ca   1.298459
   174  O   -0.276942
   175  H    0.209412
   176  H    0.183346
 Sum of Mulliken charges =   0.00000
 Mulliken charges with hydrogens summed into heavy atoms:
               1
     1  C    0.110408
     2  C    0.040482
     3  O   -0.301075
     7  N    0.016085
     8  C    0.099354
     9  C    0.045550
    10  O   -0.293482
    11  C    0.074134
    12  C    0.135210
    13  O   -0.357740
    14  O   -0.442567
    19  N    0.012541
    20  C    0.130546
    21  C    0.040519
    22  O   -0.261905
    23  C    0.054808
    24  C    0.012137
    25  C    0.033880
    26  C    0.172989
    27  N    0.648419
    41  N   -0.042652
    42  C    0.201440
    43  C    0.043339
    44  O   -0.294689
    45  C    0.075022
    46  C    0.058706
    47  O   -0.461100
    48  O   -0.363751
    53  N   -0.016071
    54  C    0.318807
    55  C   -0.000267
    56  O   -0.316083
    60  N    0.005231
    61  C    0.194752
    62  C    0.056724
    63  O   -0.294355
    64  C    0.088972
    65  C    0.107485
    66  N    0.200468
    67  O   -0.329345
    74  N   -0.008378
    75  C    0.330639
    76  C    0.011902
    77  O   -0.314591
    81  N    0.042896
    82  C    0.101795
    83  C    0.140965
    84  O   -0.371393
    85  C    0.158364
    86  C   -0.049147
    87  C   -0.051099
    88  C   -0.020348
    89  C   -0.043274
    90  C   -0.083514
    91  C    0.173068
    92  O   -0.040227
   102  N    0.030539
   103  C    0.160846
   104  C    0.067715
   105  O   -0.285268
   106  C   -0.157098
   107  C    0.023725
   108  C    0.108267
   109  C    0.052865
   121  N    0.024410
   122  C    0.079719
   123  C    0.113184
   124  O   -0.281879
   125  C    0.233817
   126  O   -0.209850
   132  N   -0.010044
   133  C    0.097157
   134  C    0.080526
   135  O   -0.253463
   136  C    0.108174
   142  N   -0.017353
   143  C    0.102787
   144  C    0.053512
   145  O   -0.272787
   146  C    0.119538
   152  N   -0.027527
   153  C    0.123340
   154  C    0.102016
   155  O   -0.282534
   156  C   -0.020028
   157  C    0.074242
   158  C    0.145658
   159  O   -0.389181
   160  O   -0.443398
   167  N   -0.041118
   168  C    0.194632
   173  Ca   1.298459
   174  O    0.115815
 DipInt: DoE/N= T F RetVal/Mat= T F Init=T NMatP=  1 IDeriv=0 Min/MaxMlt=  0  4
 Entering OneElI...
 OneElI was handed  4286741430 working-precision words.
 Multipole integrals L=0 to 4 MinM= 0 MaxM= 0.
 Requested accuracy = 0.1000D-12
 ShPair: Thresh= 1.00D-13 NBox=     0 BxSize= 0.00D+00 RnKept= 2.55D+01
         NSMCal=               327645 NSMKep=              166796
 PrsmSu:  NPrtUS=   1 ThrOK=F IAlg=1 NPAlg=1 LenDen=           0.
 Prism:   IPart=     0 DynPar=F LinDyn=F Incr=         512.
 PRISM was handed  4276420360 working-precision words and166796 shell-pairs
 IPart=  0 NShTot=      166796 NBatch=         467 AvBLen=       357.2
 PrSmSu:  NxtVal=            513.
 Electronic moments (au):
       -716.00000000         12.93142777          2.25410202          0.85527952
     -50090.13814162     -26901.92806141     -12806.67133087         81.34214351
         19.17796312         61.54636277     -69270.49891739     -31336.69136804
     -10447.11091939      12750.63875726      86027.08849627      41579.09555590
      -8116.49411849      -1926.30005160       -379.38699260     -33991.68916254
   -6719334.81243029   -2171070.55672508    -576057.42618881     115119.48090530
     376013.22401002    -320932.13990739     -59277.05352423     -60258.30093336
      21126.68761513   -1756626.24433784    -774202.87596288    -356265.38378357
    -173298.84664157     -55805.17616341      20952.72276114
 Electronic spatial extent (au):  <R**2>=          89798.7375
 DipInt: DoE/N= F T RetVal/Mat= T F Init=T NMatP=  1 IDeriv=0 Min/MaxMlt=  0  4
 Nuclear    moments (au):
        716.00000000          0.00000000          0.00000000          0.00000000
      49598.59503812      26595.33020607      12415.45311147          0.00000000
          0.00000000          0.00000000      69568.02613745      32622.35779206
      10472.47631836     -10879.03478623     -86151.74060886     -41580.92630034
       8461.64346097       1998.31868514        755.42221873      34333.20500302
    6525586.41902753    2097416.40716761     531992.08276818    -107932.06765538
    -373182.75221023     337166.99261377      68161.12844982      61454.56436088
     -18300.05877125    1723767.57622431     738596.36833457     336090.23597369
     178029.66805555      58410.66826700     -20300.47043423
 Total      moments (au):
          0.00000000         12.93142777          2.25410202          0.85527952
       -491.54310350       -306.59785535       -391.21821940         81.34214351
         19.17796312         61.54636277        297.52722006       1285.66642402
         25.36539897       1871.60397103       -124.65211259         -1.83074444
        345.14934248         72.01863355        376.03522612        341.51584049
    -193748.39340276     -73654.14955747     -44065.34342063       7187.41324992
       2830.47179980      16234.85270638       8884.07492559       1196.26342752
       2826.62884388     -32858.66811353     -35606.50762831     -20175.14780988
       4730.82141398       2605.49210360        652.25232691
 Traceless Quadrup. (au):
        -95.09004409         89.85520407          5.23484001         81.34214351
         19.17796312         61.54636277
 Charge=              0.0000 electrons
 Dipole moment (field-independent basis, Debye):
    X=             32.8684    Y=              5.7294    Z=              2.1739  Tot=             33.4348
 Quadrupole moment (field-independent basis, Debye-Ang):
   XX=           -661.1423   YY=           -412.3846   ZZ=           -526.2019
   XY=            109.4080   XZ=             25.7950   YZ=             82.7820
 Traceless Quadrupole moment (field-independent basis, Debye-Ang):
   XX=           -127.8994   YY=            120.8583   ZZ=              7.0410
   XY=            109.4080   XZ=             25.7950   YZ=             82.7820
 Octapole moment (field-independent basis, Debye-Ang**2):
  XXX=            211.7684  YYY=            915.0878  ZZZ=             18.0541  XYY=           1332.1355
  XXY=            -88.7226  XXZ=             -1.3031  XZZ=            245.6640  YZZ=             51.2601
  YYZ=            267.6474  XYZ=            243.0778
 Hexadecapole moment (field-independent basis, Debye-Ang**3):
 XXXX=         -72974.9307 YYYY=         -27741.6827 ZZZZ=         -16597.1202 XXXY=           2707.1243
 XXXZ=           1066.0913 YYYX=           6114.8236 YYYZ=           3346.1684 ZZZX=            450.5701
 ZZZY=           1064.6439 XXYY=         -12376.1492 XXZZ=         -13411.1173 YYZZ=          -7598.9276
 XXYZ=           1781.8541 YYXZ=            981.3532 ZZXY=            245.6695
 N-N= 2.211592362486D+04 E-N=-5.671258061632D+04  KE= 5.290567010841D+03
 Leave Link  601 at Mon Sep 16 21:35:22 2019, MaxMem=  4294967296 cpu:        22.1
 FitSet:  NAtFit=   176 NAtPot=   176 NAtFrz=     0 MDM=   180 TotChg=   0.00000
 Merz-Kollman atomic radii used.
 Read replacement radii for each type of atom:
 Rad(20) =   1.700000000000D+00
 Atom Element Radius
    1     6    1.50
    2     6    1.50
    3     8    1.40
    4     1    1.20
    5     1    1.20
    6     1    1.20
    7     7    1.50
    8     6    1.50
    9     6    1.50
   10     8    1.40
   11     6    1.50
   12     6    1.50
   13     8    1.40
   14     8    1.40
   15     1    1.20
   16     1    1.20
   17     1    1.20
   18     1    1.20
   19     7    1.50
   20     6    1.50
   21     6    1.50
   22     8    1.40
   23     6    1.50
   24     6    1.50
   25     6    1.50
   26     6    1.50
   27     7    1.50
   28     1    1.20
   29     1    1.20
   30     1    1.20
   31     1    1.20
   32     1    1.20
   33     1    1.20
   34     1    1.20
   35     1    1.20
   36     1    1.20
   37     1    1.20
   38     1    1.20
   39     1    1.20
   40     1    1.20
   41     7    1.50
   42     6    1.50
   43     6    1.50
   44     8    1.40
   45     6    1.50
   46     6    1.50
   47     8    1.40
   48     8    1.40
   49     1    1.20
   50     1    1.20
   51     1    1.20
   52     1    1.20
   53     7    1.50
   54     6    1.50
   55     6    1.50
   56     8    1.40
   57     1    1.20
   58     1    1.20
   59     1    1.20
   60     7    1.50
   61     6    1.50
   62     6    1.50
   63     8    1.40
   64     6    1.50
   65     6    1.50
   66     7    1.50
   67     8    1.40
   68     1    1.20
   69     1    1.20
   70     1    1.20
   71     1    1.20
   72     1    1.20
   73     1    1.20
   74     7    1.50
   75     6    1.50
   76     6    1.50
   77     8    1.40
   78     1    1.20
   79     1    1.20
   80     1    1.20
   81     7    1.50
   82     6    1.50
   83     6    1.50
   84     8    1.40
   85     6    1.50
   86     6    1.50
   87     6    1.50
   88     6    1.50
   89     6    1.50
   90     6    1.50
   91     6    1.50
   92     8    1.40
   93     1    1.20
   94     1    1.20
   95     1    1.20
   96     1    1.20
   97     1    1.20
   98     1    1.20
   99     1    1.20
  100     1    1.20
  101     1    1.20
  102     7    1.50
  103     6    1.50
  104     6    1.50
  105     8    1.40
  106     6    1.50
  107     6    1.50
  108     6    1.50
  109     6    1.50
  110     1    1.20
  111     1    1.20
  112     1    1.20
  113     1    1.20
  114     1    1.20
  115     1    1.20
  116     1    1.20
  117     1    1.20
  118     1    1.20
  119     1    1.20
  120     1    1.20
  121     7    1.50
  122     6    1.50
  123     6    1.50
  124     8    1.40
  125     6    1.50
  126     8    1.40
  127     1    1.20
  128     1    1.20
  129     1    1.20
  130     1    1.20
  131     1    1.20
  132     7    1.50
  133     6    1.50
  134     6    1.50
  135     8    1.40
  136     6    1.50
  137     1    1.20
  138     1    1.20
  139     1    1.20
  140     1    1.20
  141     1    1.20
  142     7    1.50
  143     6    1.50
  144     6    1.50
  145     8    1.40
  146     6    1.50
  147     1    1.20
  148     1    1.20
  149     1    1.20
  150     1    1.20
  151     1    1.20
  152     7    1.50
  153     6    1.50
  154     6    1.50
  155     8    1.40
  156     6    1.50
  157     6    1.50
  158     6    1.50
  159     8    1.40
  160     8    1.40
  161     1    1.20
  162     1    1.20
  163     1    1.20
  164     1    1.20
  165     1    1.20
  166     1    1.20
  167     7    1.50
  168     6    1.50
  169     1    1.20
  170     1    1.20
  171     1    1.20
  172     1    1.20
  173    20    1.70
  174     8    1.40
  175     1    1.20
  176     1    1.20
 Generate VDW surfaces: Layer= 4 Dens= 6 Start= 1.400 Inc= 0.200

 **********************************************************************

            Electrostatic Properties Using The SCF Density

 **********************************************************************

       Atomic Center    1 is at   2.592219  4.025195  4.338983
       Atomic Center    2 is at   1.890758  3.298274  3.197126
       Atomic Center    3 is at   2.615474  2.860634  2.303729
[...]
 **** Fit       0.028974
 **** Fit       0.038480
 **** Fit      -0.014992
 **** Fit      -0.013931
 **** Fit      -0.011668
 **** Fit      -0.008216
 **** Fit      -0.003531
 **** Fit       0.002459
 **** Fit       0.009807
 **** Fit       0.018458
 **** Fit       0.028061
 **** Fit       0.037716
 **** Fit      -0.016955
 **** Fit      -0.017105
 **** Fit      -0.015923
 **** Fit      -0.013501
 **** Fit      -0.009851
 **** Fit      -0.004941
 **** Fit       0.001273
 **** Fit       0.008800
 **** Fit       0.017504
 **** Fit       0.026930
 **** Fit      -0.020061
 **** Fit      -0.020009
 **** Fit      -0.018662
 **** Fit      -0.016065
 **** Fit      -0.012236
 **** Fit      -0.007175
 **** Fit      -0.000888
 **** Fit       0.006562
 **** Fit       0.014957
 **** Fit       0.023790
 **** Fit      -0.023987
 **** Fit      -0.022238
 **** Fit      -0.019091
 **** Fit      -0.014603
 **** Fit      -0.008840
 **** Fit      -0.001900
 **** Fit       0.006020
 **** Fit       0.014524
 **** Fit       0.022937
 **** Fit      -0.022905
 **** Fit      -0.017234
 **** Fit      -0.010271
 **** Fit      -0.002291
 **** Fit       0.006299
 **** Fit      -0.011993
 **** Fit       0.020344
 **** Fit       0.022372
 **** Fit       0.023294
 **** Fit       0.018834
 **** Fit       0.023209
 **** Fit       0.022956
 **** Fit       0.022803
 **** Fit       0.022238
 **** Fit       0.021207
 **** Fit       0.020005
 **** Fit       0.019255
 **** Fit       0.022279
 **** Fit       0.021414
 **** Fit       0.020489
 **** Fit       0.019966
 **** Fit       0.020409
 **** Fit       0.021719
 **** Fit       0.018156
 **** Fit       0.018396
 **** Fit       0.018062
 **** Fit       0.019622
 **** Fit       0.019982
 **** Fit       0.019711
 **** Fit       0.021771
 **** Fit       0.026240
 **** Fit       0.030179
 **** Fit       0.029321
 **** Fit       0.021755
 **** Fit       0.021446
 **** Fit       0.023890
 **** Fit       0.024999
 **** Fit       0.022961
 **** Fit       0.022759
 **** Fit       0.016627
 **** Fit       0.006484
 **** Fit       0.020651
 **** Fit       0.003964
 **** Fit       0.017730
 **** Fit       0.016533
 **** Fit       0.015886
 **** Fit       0.027958
 **** Fit       0.014402
 **** Fit       0.024967
 **** Fit       0.017171
 **** Fit       0.025209
 **** Fit       0.019204
 **** Fit       0.016546
 **** Fit       0.023067
 **** Fit       0.022314
 **** Fit       0.022634
 **** Fit       0.023136
 **** Fit       0.022087
 **** Fit       0.021248
 **** Fit       0.020779
 **** Fit       0.020811
 **** Fit       0.020898
 **** Fit       0.019977
 **** Fit       0.021739
 **** Fit       0.021106
 **** Fit       0.020815
 **** Fit       0.022602
 **** Fit       0.019624
 **** Fit       0.024074
 **** Fit       0.022027
 **** Fit       0.024894
 **** Fit       0.023453
 **** Fit       0.025013
 **** Fit       0.025922
 **** Fit       0.025671
 **** Fit       0.023730
 **** Fit       0.023840
 **** Fit       0.009524
 **** Fit       0.009192
 **** Fit       0.008787
 **** Fit       0.007949
 **** Fit       0.009941
 **** Fit       0.010012
 **** Fit       0.009963
 **** Fit       0.009724
 **** Fit       0.009304
 **** Fit       0.008809
 **** Fit       0.008341
 **** Fit       0.007398
 **** Fit       0.010033
 **** Fit       0.010252
 **** Fit       0.010428
 **** Fit       0.009625
 **** Fit       0.008998
 **** Fit       0.008396
 **** Fit       0.007865
 **** Fit       0.006810
 **** Fit       0.006317
 **** Fit       0.005785
 **** Fit       0.010658
 **** Fit       0.009180
 **** Fit       0.008466
 **** Fit       0.007845
 **** Fit       0.007305
 **** Fit       0.006187
 **** Fit       0.005637
 **** Fit       0.005004
 **** Fit       0.004224
 **** Fit       0.008715
 **** Fit       0.007925
 **** Fit       0.007270
 **** Fit       0.006711
 **** Fit       0.005528
 **** Fit       0.004969
 **** Fit       0.004290
 **** Fit       0.003418
 **** Fit       0.002267
 **** Fit       0.008019
 **** Fit       0.007217
 **** Fit       0.006577
 **** Fit       0.006039
 **** Fit       0.004839
 **** Fit       0.004301
 **** Fit       0.003600
 **** Fit       0.002656
 **** Fit       0.001378
 **** Fit      -0.000368
 **** Fit       0.007185
 **** Fit       0.006391
 **** Fit       0.005789
 **** Fit       0.005303
 **** Fit      -0.001178
 **** Fit      -0.003720
 **** Fit      -0.007334
 **** Fit       0.007112
 **** Fit       0.006099
 **** Fit       0.005372
 **** Fit       0.004864
 **** Fit      -0.008522
 **** Fit       0.005775
 **** Fit       0.004801
 **** Fit       0.004163
 **** Fit      -0.010763
 **** Fit       0.004247
 **** Fit       0.003246
 **** Fit       0.003681
 **** Fit       0.002091
 **** Fit       0.000644
 **** Fit      -0.001000
 **** Fit      -0.003305
 **** Fit      -0.005242
 **** Fit       0.008800
 **** Fit       0.008537
 **** Fit       0.008205
 **** Fit       0.008357
 **** Fit       0.008942
 **** Fit       0.009206
 **** Fit       0.008978
 **** Fit       0.008154
 **** Fit       0.007711
 **** Fit       0.007336
 **** Fit       0.007180
 **** Fit       0.007466
 **** Fit       0.008191
 **** Fit       0.008968
 **** Fit       0.009413
 **** Fit       0.009495
 **** Fit       0.009340
 **** Fit       0.009026
 **** Fit       0.008609
 **** Fit       0.007659
 **** Fit       0.007156
 **** Fit       0.006631
 **** Fit       0.006095
 **** Fit       0.005646
 **** Fit       0.005490
 **** Fit       0.005844
 **** Fit       0.006731
 **** Fit       0.007886
 **** Fit       0.008894
 **** Fit       0.009492
 **** Fit       0.009718
 **** Fit       0.009725
 **** Fit       0.009610
 **** Fit       0.009387
 **** Fit       0.009051
 **** Fit       0.008625
 **** Fit       0.008151
 **** Fit       0.007061
 **** Fit       0.006460
 **** Fit       0.005806
 **** Fit       0.005061
 **** Fit       0.004224
 **** Fit       0.003385
 **** Fit       0.002768
 **** Fit       0.002685
 **** Fit       0.003355
 **** Fit       0.004729
 **** Fit       0.006472
 **** Fit       0.008100
 **** Fit       0.009201
 **** Fit       0.009731
 **** Fit       0.009913
 **** Fit       0.009939
 **** Fit       0.007641
 **** Fit       0.005634
 **** Fit       0.004817
 **** Fit       0.003855
 **** Fit       0.002688
 **** Fit       0.001304
 **** Fit      -0.000184
 **** Fit      -0.001474
 **** Fit      -0.002103
 **** Fit      -0.001657
 **** Fit      -0.000047
 **** Fit       0.002406
 **** Fit       0.005148
 **** Fit       0.007534
 **** Fit       0.009049
 **** Fit       0.009720
 **** Fit       0.009954
 **** Fit       0.003733
 **** Fit       0.002558
 **** Fit       0.001097
 **** Fit      -0.000745
 **** Fit      -0.003002
 **** Fit      -0.005549
 **** Fit       0.003236
 **** Fit       0.000912
 **** Fit      -0.001026
 **** Fit      -0.003561
 **** Fit      -0.006868
 **** Fit      -0.006517
 **** Fit       0.010650
 **** Fit       0.010913
 **** Fit       0.010824
 **** Fit       0.010401
 **** Fit       0.010818
 **** Fit       0.011268
 **** Fit       0.011520
 **** Fit       0.011514
 **** Fit       0.011223
 **** Fit       0.010696
 **** Fit       0.010056
 **** Fit       0.011136
 **** Fit       0.011648
 **** Fit       0.012032
 **** Fit       0.012202
 **** Fit       0.012095
 **** Fit       0.011707
 **** Fit       0.011095
 **** Fit       0.010360
 **** Fit       0.009624
 **** Fit       0.012197
 **** Fit       0.012690
 **** Fit       0.012895
 **** Fit       0.012772
 **** Fit       0.012334
 **** Fit       0.011643
 **** Fit       0.010793
 **** Fit       0.009900
 **** Fit       0.009079
 **** Fit       0.012804
 **** Fit       0.013424
 **** Fit       0.013663
 **** Fit       0.013517
 **** Fit       0.013019
 **** Fit       0.012237
 **** Fit       0.011268
 **** Fit       0.010222
 **** Fit       0.009210
 **** Fit       0.008330
 **** Fit       0.012750
 **** Fit       0.013856
 **** Fit       0.014442
 **** Fit       0.014511
 **** Fit       0.014103
 **** Fit       0.013295
 **** Fit       0.012195
 **** Fit       0.010934
 **** Fit       0.009643
 **** Fit       0.008442
 **** Fit       0.014057
 **** Fit       0.015157
 **** Fit       0.015569
 **** Fit       0.015338
 **** Fit       0.014553
 **** Fit       0.013344
 **** Fit       0.011868
 **** Fit       0.010281
 **** Fit       0.008731
 **** Fit       0.007343
 **** Fit       0.012918
 **** Fit       0.015175
 **** Fit       0.016453
 **** Fit       0.016791
 **** Fit       0.016283
 **** Fit       0.015085
 **** Fit       0.013404
 **** Fit       0.011459
 **** Fit       0.009454
 **** Fit       0.007560
 **** Fit       0.005918
 **** Fit       0.014814
 **** Fit       0.017272
 **** Fit       0.018235
 **** Fit       0.017839
 **** Fit       0.016337
 **** Fit       0.014086
 **** Fit       0.011459
 **** Fit       0.008777
 **** Fit       0.006287
 **** Fit       0.004176
 **** Fit       0.011910
 **** Fit       0.008159
 **** Fit       0.004717
 **** Fit       0.007190
 **** Fit       0.002374
 **** Fit       0.004068
 **** Fit       0.003492
 **** Fit       0.002720
 **** Fit       0.001596
 **** Fit       0.004573
 **** Fit       0.003264
 **** Fit       0.002804
 **** Fit       0.002166
 **** Fit       0.001223
 **** Fit      -0.000204
 **** Fit      -0.002390
 **** Fit       0.004042
 **** Fit       0.003645
 **** Fit       0.002268
 **** Fit       0.001891
 **** Fit       0.001327
 **** Fit       0.000461
 **** Fit      -0.000871
 **** Fit      -0.002936
 **** Fit      -0.006181
 **** Fit       0.003205
 **** Fit       0.002831
 **** Fit       0.002552
 **** Fit       0.000983
 **** Fit       0.000693
 **** Fit       0.000211
 **** Fit      -0.000562
 **** Fit      -0.001761
 **** Fit      -0.003605
 **** Fit      -0.006465
 **** Fit      -0.010991
 **** Fit       0.001899
 **** Fit       0.001518
 **** Fit       0.001308
 **** Fit       0.001161
 **** Fit      -0.000702
 **** Fit      -0.000903
 **** Fit      -0.001321
 **** Fit      -0.002041
 **** Fit      -0.003179
 **** Fit      -0.004917
 **** Fit      -0.007560
 **** Fit      -0.011641
 **** Fit      -0.000053
 **** Fit      -0.000488
 **** Fit      -0.000640
 **** Fit      -0.000654
 **** Fit      -0.000644
 **** Fit      -0.002913
 **** Fit      -0.003014
 **** Fit      -0.003400
 **** Fit      -0.004152
 **** Fit      -0.005382
 **** Fit      -0.007263
 **** Fit      -0.010082
 **** Fit      -0.014328
 **** Fit      -0.003586
 **** Fit      -0.003707
 **** Fit      -0.003537
 **** Fit      -0.003263
 **** Fit      -0.003022
 **** Fit      -0.005803
 **** Fit      -0.005759
 **** Fit      -0.006118
 **** Fit      -0.006958
 **** Fit      -0.008383
 **** Fit      -0.010549
 **** Fit      -0.013690
 **** Fit      -0.008870
 **** Fit      -0.008373
 **** Fit      -0.007600
 **** Fit      -0.006814
 **** Fit      -0.006180
 **** Fit      -0.009551
 **** Fit      -0.009276
 **** Fit      -0.009575
 **** Fit      -0.010507
 **** Fit      -0.012144
 **** Fit      -0.014570
 **** Fit      -0.017846
 **** Fit      -0.013335
 **** Fit      -0.011643
 **** Fit      -0.010356
 **** Fit      -0.014354
 **** Fit      -0.013701
 **** Fit      -0.013985
 **** Fit      -0.015217
 **** Fit      -0.017394
 **** Fit      -0.020405
 **** Fit      -0.015958
 **** Fit      -0.020369
 **** Fit      -0.019105
 **** Fit      -0.019333
 **** Fit      -0.020914
 **** Fit      -0.023578
 **** Fit      -0.025521
 **** Fit       0.022417
 **** Fit       0.017830
 **** Fit       0.013671
 **** Fit       0.026856
 **** Fit       0.021296
 **** Fit       0.015248
 **** Fit       0.019540
 **** Fit       0.011627
 **** Fit       0.026414
 **** Fit       0.030318
 **** Fit      -0.003686
 **** Fit       0.006616
 **** Fit       0.015913
 **** Fit       0.022803
 **** Fit       0.028250
 **** Fit       0.004434
 **** Fit       0.010214
 **** Fit       0.011481
 **** Fit       0.014272
 **** Fit       0.016796
 **** Fit       0.019150
 **** Fit       0.017249
 **** Fit       0.020343
 **** Fit       0.023215
 **** Fit       0.026169
 **** Fit       0.018878
 **** Fit       0.022085
 **** Fit       0.025143
 **** Fit       0.028143
 **** Fit       0.031253
 **** Fit       0.019074
 **** Fit       0.021758
 **** Fit       0.024708
 **** Fit       0.027703
 **** Fit       0.030708
 **** Fit       0.033776
 **** Fit       0.022276
 **** Fit       0.022280
 **** Fit       0.023837
 **** Fit       0.026199
 **** Fit       0.028921
 **** Fit       0.031791
 **** Fit       0.034739
 **** Fit       0.037733
 **** Fit       0.026241
 **** Fit       0.026281
 **** Fit       0.027695
 **** Fit       0.029856
 **** Fit       0.032391
 **** Fit       0.035100
 **** Fit       0.037872
 **** Fit       0.040602
 **** Fit       0.028779
 **** Fit       0.029636
 **** Fit       0.031481
 **** Fit       0.033862
 **** Fit       0.036494
 **** Fit       0.039191
 **** Fit       0.041788
 **** Fit       0.030245
 **** Fit       0.030956
 **** Fit       0.032608
 **** Fit       0.034865
 **** Fit       0.037423
 **** Fit       0.040050
 **** Fit       0.042560
 **** Fit       0.044837
 **** Fit       0.031009
 **** Fit       0.032627
 **** Fit       0.034828
 **** Fit       0.037430
 **** Fit       0.040175
 **** Fit       0.042906
 **** Fit       0.033606
 **** Fit       0.036454
 **** Fit       0.039629
 **** Fit       0.029872
 **** Fit       0.031223
 **** Fit       0.025584
 **** Fit       0.026085
 **** Fit       0.023785
 **** Fit       0.017654
 **** Fit       0.044644
 **** Fit       0.023542
 **** Fit       0.024259
 **** Fit       0.023524
 **** Fit       0.020221
 **** Fit       0.013267
 **** Fit       0.041058
 **** Fit       0.040564
 **** Fit       0.039034
 **** Fit       0.036294
 **** Fit       0.027334
 **** Fit       0.025644
 **** Fit       0.024531
 **** Fit       0.022765
 **** Fit       0.019057
 **** Fit       0.012379
 **** Fit      -0.002972
 **** Fit       0.029518
 **** Fit       0.033415
 **** Fit       0.035893
 **** Fit       0.036992
 **** Fit       0.036833
 **** Fit       0.035489
 **** Fit       0.033061
 **** Fit       0.030028
 **** Fit       0.027827
 **** Fit       0.025537
 **** Fit       0.022845
 **** Fit       0.018630
 **** Fit       0.012037
 **** Fit       0.003555
 **** Fit      -0.001347
 **** Fit       0.006822
 **** Fit       0.015289
 **** Fit       0.022329
 **** Fit       0.027601
 **** Fit       0.031154
 **** Fit       0.033032
 **** Fit       0.033342
 **** Fit       0.032269
 **** Fit       0.030208
 **** Fit       0.026542
 **** Fit       0.023260
 **** Fit       0.018437
 **** Fit       0.011885
 **** Fit       0.006279
 **** Fit       0.006071
 **** Fit       0.011541
 **** Fit       0.018779
 **** Fit       0.024758
 **** Fit       0.028444
 **** Fit       0.029694
 **** Fit       0.028829
 **** Fit       0.023986
 **** Fit       0.019106
 **** Fit       0.014211
 **** Fit       0.016223
 **** Fit       0.022376
 **** Fit       0.025502
 **** Fit       0.020465
 -----------------------------------------------------------------
 Leave Link  602 at Mon Sep 16 21:35:35 2019, MaxMem=  4294967296 cpu:       151.7

 Test job not archived.
 1\1\GINC-N004\SP\RB3LYP\SVP\C54H83Ca1N15O23\PCIEPLAK\16-Sep-2019\0\\#m
 axdisk=50GB #B3LYP/SVP Density=Current scf=(tight) #IOP(5/87=12)Pop=(M
 K,readradii) iop(6/33=2) iop(6/42=6)\\SOL molecule\\0,1\C,0,85.81,32.2
 1,26.16\C,0,87.32,32.02,26.07\O,0,87.76,30.95,26.49\H,0,85.315,31.247,
 26.033\H,0,85.553,32.625,27.135\H,0,85.482,32.892,25.376\N,0,88.06,32.
 97,25.49\C,0,89.5,33.08,25.42\C,0,89.94,33.79,26.69\O,0,89.69,34.98,26
 .9\C,0,89.95,33.91,24.23\C,0,91.45,34.18,24.19\O,0,91.88,35.08,23.44\O
 ,0,92.2,33.51,24.92\H,0,87.63,33.75,25.01\H,0,89.85,32.05,25.44\H,0,89
 .4,34.85,24.2\H,0,89.64,33.4,23.31\N,0,90.52,33.04,27.63\C,0,90.63,33.
 45,29.02\C,0,91.9,34.26,29.23\O,0,91.78,35.37,29.75\C,0,90.61,32.21,29
 .91\C,0,89.35,31.37,29.72\C,0,87.98,32.03,29.91\C,0,86.86,30.99,29.86\
 N,0,85.56,31.48,30.35\H,0,90.61,32.07,27.37\H,0,89.8,34.08,29.33\H,0,9
 0.73,32.43,30.97\H,0,91.49,31.59,29.76\H,0,89.44,30.54,30.42\H,0,89.38
 ,30.95,28.72\H,0,87.82,32.67,29.04\H,0,87.93,32.57,30.85\H,0,87.24,30.
 11,30.38\H,0,86.83,30.65,28.83\H,0,85.2,32.34,29.95\H,0,84.78,30.84,30
 .29\H,0,85.67,31.71,31.32\N,0,93.08,33.81,28.81\C,0,94.29,34.61,28.85\
 C,0,94.28,35.74,27.83\O,0,95.29,36.4,27.6\C,0,95.49,33.7,28.67\C,0,95.
 53,32.82,27.42\O,0,94.68,33.03,26.53\O,0,96.37,31.92,27.26\H,0,93.19,3
 2.89,28.4\H,0,94.32,35.05,29.85\H,0,95.51,33.03,29.53\H,0,96.46,34.21,
 28.7\N,0,93.24,35.88,27.\C,0,93.1,36.85,25.94\C,0,94.18,36.68,24.88\O,
 0,94.39,37.64,24.15\H,0,92.52,35.18,27.15\H,0,93.07,37.87,26.3\H,0,92.
 18,36.58,25.4\N,0,94.85,35.53,24.76\C,0,96.,35.34,23.9\C,0,95.75,35.25
 ,22.4\O,0,96.67,34.94,21.66\C,0,97.,34.37,24.53\C,0,96.79,32.92,24.11\
 N,0,97.88,32.16,23.99\O,0,95.69,32.53,23.74\H,0,94.52,34.8,25.37\H,0,9
 6.57,36.25,24.1\H,0,97.08,34.44,25.62\H,0,97.99,34.57,24.12\H,0,98.81,
 32.5,24.2\H,0,97.79,31.18,23.75\N,0,94.52,35.38,21.9\C,0,93.99,35.48,2
 0.55\C,0,93.37,34.18,20.06\O,0,92.76,34.22,19.\H,0,93.83,35.68,22.59\H
 ,0,94.78,35.75,19.85\H,0,93.14,36.16,20.5\N,0,93.35,33.1,20.85\C,0,92.
 83,31.82,20.42\C,0,92.24,31.,21.56\O,0,92.9,30.87,22.59\C,0,93.87,31.0
 2,19.64\C,0,95.28,31.56,19.59\C,0,96.16,31.23,20.62\C,0,95.66,32.47,18
 .6\C,0,97.48,31.71,20.55\C,0,96.94,33.03,18.52\C,0,97.84,32.59,19.51\O
 ,0,99.14,32.99,19.37\H,0,93.83,33.15,21.74\H,0,91.98,31.89,19.74\H,0,9
 3.44,31.15,18.65\H,0,93.89,29.96,19.87\H,0,95.76,30.72,21.49\H,0,94.98
 ,32.83,17.84\H,0,98.19,31.57,21.34\H,0,97.22,33.73,17.75\H,0,99.19,33.
 71,18.74\N,0,91.13,30.31,21.28\C,0,90.61,29.24,22.11\C,0,91.43,27.97,2
 2.04\O,0,92.07,27.74,21.01\C,0,89.15,29.12,21.7\C,0,88.32,30.29,22.23\
 C,0,88.58,27.76,22.11\C,0,86.84,30.3,21.88\H,0,90.75,30.3,20.34\H,0,90
 .66,29.53,23.16\H,0,89.11,29.16,20.61\H,0,88.73,31.25,21.92\H,0,88.29,
 30.17,23.31\H,0,89.14,26.98,21.59\H,0,88.42,27.71,23.18\H,0,87.58,27.6
 7,21.69\H,0,86.63,30.22,20.81\H,0,86.35,29.53,22.48\H,0,86.41,31.23,22
 .25\N,0,91.38,27.14,23.08\C,0,92.1,25.91,23.34\C,0,91.18,24.92,24.04\O
 ,0,90.11,25.3,24.5\C,0,93.32,26.28,24.18\O,0,92.91,26.77,25.43\H,0,90.
 69,27.37,23.78\H,0,92.46,25.42,22.43\H,0,93.88,27.1,23.72\H,0,94.01,25
 .45,24.35\H,0,92.57,27.66,25.37\N,0,91.61,23.65,24.1\C,0,90.79,22.63,2
 4.72\C,0,90.37,22.84,26.17\O,0,89.25,22.48,26.51\C,0,91.55,21.34,24.47
 \H,0,92.36,23.27,23.55\H,0,89.89,22.64,24.1\H,0,92.37,21.2,25.17\H,0,9
 0.92,20.47,24.61\H,0,91.86,21.23,23.43\N,0,91.19,23.53,26.97\C,0,90.9,
 23.91,28.34\C,0,89.77,24.92,28.44\O,0,88.98,24.94,29.39\C,0,92.08,24.5
 9,29.02\H,0,91.99,23.96,26.53\H,0,90.64,23.,28.89\H,0,92.47,25.4,28.41
 \H,0,91.8,25.06,29.97\H,0,92.88,23.85,29.15\N,0,89.71,25.76,27.41\C,0,
 88.79,26.87,27.22\C,0,87.42,26.57,26.61\O,0,86.36,27.09,26.94\C,0,89.5
 1,27.96,26.44\C,0,90.68,28.48,27.28\C,0,91.44,29.48,26.42\O,0,91.47,30
 .68,26.75\O,0,91.98,29.09,25.36\H,0,90.52,25.75,26.81\H,0,88.66,27.35,
 28.18\H,0,88.87,28.78,26.12\H,0,89.98,27.46,25.6\H,0,91.37,27.69,27.58
 \H,0,90.3,28.94,28.19\N,0,87.52,25.59,25.7\C,0,86.33,24.95,25.19\H,0,8
 5.546,25.695,25.058\H,0,86.551,24.482,24.231\H,0,85.994,24.191,25.896\
 H,0,88.41,25.14,25.53\Ca,0,93.48,31.24,25.13\O,0,94.96,29.25,24.32\H,0
 ,95.36,28.72,23.62\H,0,95.16,28.76,25.12\\Version=ES64L-G09RevD.01\Sta
 te=1-A\HF=-5333.5930634\RMSD=5.207e-09\Dipole=-8.5124408,-8.5941502,5.
 168485\Quadrupole=69.3025772,-88.9341771,19.6315999,-84.9445708,-68.61
 18274,29.5313706\PG=C01 [X(C54H83Ca1N15O23)]\\@


 THOSE WHO ASPIRE NOT TO GUESS AND DIVINE,
 BUT TO DISCOVER AND KNOW, WHO PROPOSE NOT TO DEVISE 
 MIMIC AND FABULOUS WORLDS OF THEIR OWN, BUT TO 
 EXAMINE AND DISSECT THE NATURE OF THIS VERY WORLD 
 ITSELF, MUST GO TO THE FACTS THEMSELVES FOR EVERYTHING.

                               -- FRANCIS BACON, 1620
 Job cpu time:       0 days 16 hours 50 minutes  4.5 seconds.
 File lengths (MBytes):  RWF=   1513 Int=      0 D2E=      0 Chk=    103 Scr=      1
 Normal termination of Gaussian 09 at Mon Sep 16 21:35:35 2019.
