 Entering Gaussian System, Link 0=g16
 Initial command:
 /home1/apps/gaussian/16rA.03/g16/l1.exe "/scratch/04905/jaebeomh/4358721/Gau-52455.inp" -scrdir="/scratch/04905/jaebeomh/4358721/"
 Entering Link 1 = /home1/apps/gaussian/16rA.03/g16/l1.exe PID=     52456.
  
 Copyright (c) 1988,1990,1992,1993,1995,1998,2003,2009,2016,
            Gaussian, Inc.  All Rights Reserved.
  
 This is part of the Gaussian(R) 16 program.  It is based on
 the Gaussian(R) 09 system (copyright 2009, Gaussian, Inc.),
 the Gaussian(R) 03 system (copyright 2003, Gaussian, Inc.),
 the Gaussian(R) 98 system (copyright 1998, Gaussian, Inc.),
 the Gaussian(R) 94 system (copyright 1995, Gaussian, Inc.),
 the Gaussian 92(TM) system (copyright 1992, Gaussian, Inc.),
 the Gaussian 90(TM) system (copyright 1990, Gaussian, Inc.),
 the Gaussian 88(TM) system (copyright 1988, Gaussian, Inc.),
 the Gaussian 86(TM) system (copyright 1986, Carnegie Mellon
 University), and the Gaussian 82(TM) system (copyright 1983,
 Carnegie Mellon University). Gaussian is a federally registered
 trademark of Gaussian, Inc.
  
 This software contains proprietary and confidential information,
 including trade secrets, belonging to Gaussian, Inc.
  
 This software is provided under written license and may be
 used, copied, transmitted, or stored only in accord with that
 written license.
  
 The following legend is applicable only to US Government
 contracts under FAR:
  
                    RESTRICTED RIGHTS LEGEND
  
 Use, reproduction and disclosure by the US Government is
 subject to restrictions as set forth in subparagraphs (a)
 and (c) of the Commercial Computer Software - Restricted
 Rights clause in FAR 52.227-19.
  
 Gaussian, Inc.
 340 Quinnipiac St., Bldg. 40, Wallingford CT 06492
  
  
 ---------------------------------------------------------------
 Warning -- This program may not be used in any manner that
 competes with the business of Gaussian, Inc. or will provide
 assistance to any competitor of Gaussian, Inc.  The licensee
 of this program is prohibited from giving any competitor of
 Gaussian, Inc. access to this program.  By using this program,
 the user acknowledges that Gaussian, Inc. is engaged in the
 business of creating and licensing software in the field of
 computational chemistry and represents and warrants to the
 licensee that it is not a competitor of Gaussian, Inc. and that
 it will not use this program in any manner prohibited above.
 ---------------------------------------------------------------
  

 Cite this work as:
 Gaussian 16, Revision A.03,
 M. J. Frisch, G. W. Trucks, H. B. Schlegel, G. E. Scuseria, 
 M. A. Robb, J. R. Cheeseman, G. Scalmani, V. Barone, 
 G. A. Petersson, H. Nakatsuji, X. Li, M. Caricato, A. V. Marenich, 
 J. Bloino, B. G. Janesko, R. Gomperts, B. Mennucci, H. P. Hratchian, 
 J. V. Ortiz, A. F. Izmaylov, J. L. Sonnenberg, D. Williams-Young, 
 F. Ding, F. Lipparini, F. Egidi, J. Goings, B. Peng, A. Petrone, 
 T. Henderson, D. Ranasinghe, V. G. Zakrzewski, J. Gao, N. Rega, 
 G. Zheng, W. Liang, M. Hada, M. Ehara, K. Toyota, R. Fukuda, 
 J. Hasegawa, M. Ishida, T. Nakajima, Y. Honda, O. Kitao, H. Nakai, 
 T. Vreven, K. Throssell, J. A. Montgomery, Jr., J. E. Peralta, 
 F. Ogliaro, M. J. Bearpark, J. J. Heyd, E. N. Brothers, K. N. Kudin, 
 V. N. Staroverov, T. A. Keith, R. Kobayashi, J. Normand, 
 K. Raghavachari, A. P. Rendell, J. C. Burant, S. S. Iyengar, 
 J. Tomasi, M. Cossi, J. M. Millam, M. Klene, C. Adamo, R. Cammi, 
 J. W. Ochterski, R. L. Martin, K. Morokuma, O. Farkas, 
 J. B. Foresman, and D. J. Fox, Gaussian, Inc., Wallingford CT, 2016.
 
 ******************************************
 Gaussian 16:  ES64L-G16RevA.03 25-Dec-2016
                18-Sep-2019 
 ******************************************
 %chk=holoCaM_loop3_54.0.chk
 %nprocshared=48
 Will use up to   48 processors via shared memory.
 %mem=10GB
 %nosave
 ----------------------------------------------------------------------
 #b3lyp/svp scf=(tight,noincore) Test #IOP(5/87=12) Density=Current Pop
 =(MK,readradii) iop(6/33=2) iop(6/42=6)
 ----------------------------------------------------------------------
 1/30=1,38=1,172=1/1;
 2/12=2,17=6,18=5,40=1/2;
 3/5=18,7=101,11=2,25=1,30=1,74=-5/1,2,3;
 4//1;
 5/5=4,32=2,38=5,87=12/2;
 6/7=2,8=2,9=2,10=2,15=8,20=101,22=-1,28=1,33=2,42=6/1,2;
 99/5=1,9=1/99;
 ------------------
 holoCaM_loop3_54.0
 ------------------
 Symbolic Z-matrix:
 Charge =  0 Multiplicity = 1
 C                     35.67     47.13     43.62 
 C                     35.86     46.6      45.03 
 O                     34.85     46.13     45.55 
 H                     34.982    47.975    43.64 
 H                     36.631    47.454    43.22 
 H                     35.259    46.343    42.988 
 N                     37.06     46.51     45.62 
 C                     37.24     46.07     46.99 
 C                     36.87     47.15     48. 
 O                     37.45     48.23     48.01 
 C                     38.67     45.58     47.18 
 C                     39.11     45.02     48.53 
 O                     38.31     44.96     49.49 
 O                     40.27     44.58     48.67 
 H                     37.9      46.7      45.09 
 H                     36.49     45.29     47.11 
 H                     39.37     46.4      47. 
 H                     38.85     44.76     46.49 
 N                     35.91     46.81     48.86 
 C                     35.14     47.79     49.6 
 C                     35.77     48.21     50.92 
 O                     35.66     49.35     51.37 
 C                     33.72     47.23     49.71 
 C                     32.68     48.17     50.31 
 C                     31.31     47.54     50.53 
 C                     30.37     48.6      51.1 
 N                     29.02     48.11     51.42 
 H                     35.57     45.86     48.82 
 H                     35.18     48.67     48.97 
 H                     33.75     46.28     50.25 
 H                     33.37     46.87     48.75 
 H                     32.5      49.04     49.67 
 H                     33.05     48.47     51.29 
 H                     31.33     46.81     51.34 
 H                     31.04     47.03     49.6 
 H                     30.37     49.28     50.24 
 H                     30.88     49.07     51.94 
 H                     28.63     47.45     50.76 
 H                     29.07     47.56     52.27 
 H                     28.34     48.85     51.54 
 N                     36.46     47.21     51.47 
 C                     37.24     47.22     52.69 
 C                     38.76     47.29     52.51 
 O                     39.43     47.85     53.37 
 C                     36.78     46.09     53.59 
 C                     36.84     44.77     52.84 
 O                     37.95     44.19     52.74 
 O                     35.84     44.27     52.28 
 H                     36.37     46.38     50.9 
 H                     36.96     48.14     53.2 
 H                     35.76     46.37     53.85 
 H                     37.29     46.08     54.55 
 N                     39.3      46.7      51.44 
 C                     40.66     46.96     51.01 
 C                     41.63     45.82     51.29 
 O                     42.82     46.1      51.4 
 H                     38.83     46.22     50.68 
 H                     40.95     47.89     51.49 
 H                     40.56     47.1      49.94 
 N                     41.18     44.62     51.68 
 C                     42.09     43.56     52.04 
 C                     42.77     42.84     50.88 
 O                     43.55     41.89     50.95 
 C                     41.27     42.58     52.88 
 C                     40.28     41.75     52.08 
 N                     40.15     40.48     52.46 
 O                     39.58     42.23     51.18 
 H                     40.19     44.4      51.65 
 H                     42.95     43.9      52.61 
 H                     40.7      43.21     53.57 
 H                     41.89     41.81     53.33 
 H                     40.63     40.02     53.21 
 H                     39.59     39.87     51.88 
 N                     42.5      43.38     49.69 
 C                     43.       42.94     48.41 
 C                     42.14     41.88     47.73 
 O                     42.71     41.07     46.99 
 H                     41.67     43.96     49.68 
 H                     44.02     42.6      48.55 
 H                     43.05     43.84     47.8 
 N                     40.83     41.88     47.95 
 C                     39.9      40.82     47.6 
 C                     38.53     41.48     47.45 
 O                     38.11     42.38     48.18 
 C                     39.87     39.69     48.62 
 C                     41.15     38.9      48.67 
 C                     41.96     38.96     49.81 
 C                     41.61     38.1      47.61 
 C                     43.19     38.29     49.92 
 C                     42.82     37.39     47.63 
 C                     43.56     37.5      48.82 
 O                     44.77     36.87     48.73 
 H                     40.45     42.6      48.56 
 H                     40.24     40.49     46.62 
 H                     39.1      39.01     48.25 
 H                     39.64     40.17     49.57 
 H                     41.55     39.41     50.7 
 H                     41.14     38.2      46.65 
 H                     43.68     38.27     50.88 
 H                     43.25     36.82     46.82 
 H                     45.02     36.42     47.92 
 N                     37.78     40.86     46.55 
 C                     36.41     41.15     46.17 
 C                     35.58     39.87     46.23 
 O                     35.93     38.78     45.78 
 C                     36.32     41.8      44.8 
 C                     37.26     42.98     44.55 
 C                     34.9      42.3      44.55 
 C                     37.7      43.15     43.1 
 H                     38.17     40.03     46.11 
 H                     36.02     41.74     47. 
 H                     36.54     40.96     44.14 
 H                     38.21     42.83     45.05 
 H                     36.83     43.89     44.99 
 H                     34.66     43.1      45.25 
 H                     34.83     42.71     43.54 
 H                     34.23     41.44     44.52 
 H                     36.88     43.42     42.44 
 H                     38.42     43.97     43.08 
 H                     38.04     42.18     42.73 
 N                     34.36     39.87     46.78 
 C                     33.27     38.91     46.76 
 C                     32.06     39.46     46.02 
 O                     32.11     40.53     45.43 
 C                     32.96     38.31     48.13 
 O                     32.24     39.26     48.89 
 H                     34.07     40.76     47.14 
 H                     33.64     37.99     46.3 
 H                     33.88     37.99     48.62 
 H                     32.29     37.46     47.96 
 H                     31.83     38.69     49.55 
 N                     31.04     38.59     45.96 
 C                     29.85     38.9      45.19 
 C                     29.11     40.11     45.73 
 O                     28.68     40.97     44.96 
 C                     28.92     37.69     45.17 
 H                     31.05     37.78     46.55 
 H                     30.08     39.22     44.18 
 H                     28.09     37.76     45.89 
 H                     28.55     37.44     44.18 
 H                     29.56     36.86     45.45 
 N                     29.06     40.22     47.06 
 C                     28.46     41.35     47.73 
 C                     29.19     42.65     47.41 
 O                     28.47     43.65     47.31 
 C                     28.41     41.08     49.23 
 H                     29.22     39.4      47.63 
 H                     27.39     41.46     47.54 
 H                     29.4      40.97     49.67 
 H                     27.89     41.92     49.68 
 H                     27.89     40.14     49.42 
 N                     30.49     42.65     47.11 
 C                     31.19     43.89     46.88 
 C                     31.02     44.34     45.43 
 O                     31.04     45.52     45.11 
 C                     32.66     43.66     47.22 
 C                     32.9      43.51     48.72 
 C                     34.36     43.22     49.05 
 O                     34.78     42.09     49.38 
 O                     35.13     44.21     49.11 
 H                     31.01     41.81     46.89 
 H                     30.81     44.67     47.54 
 H                     33.26     44.5      46.87 
 H                     32.98     42.8      46.62 
 H                     32.35     42.62     49.02 
 H                     32.5      44.44     49.12 
 N                     30.78     43.4      44.52 
 C                     30.46     43.75     43.15 
 H                     29.644    44.473    43.141 
 H                     31.337    44.187    42.672 
 H                     30.157    42.855    42.607 
 H                     30.78     42.45     44.86 
 Ca                    37.06     42.93     50.47 
 O                     37.08     40.33     50.31 
 H                     37.15     39.99     51.2 
 H                     36.78     39.58     49.79 
 
 Stoichiometry    C54H83CaN15O23
 Framework group  C1[X(C54H83CaN15O23)]
 Deg. of freedom   522
 Full point group                 C1      NOp   1
 Largest Abelian subgroup         C1      NOp   1
 Largest concise Abelian subgroup C1      NOp   1
                         Standard orientation:                         
 ---------------------------------------------------------------------
 Center     Atomic      Atomic             Coordinates (Angstroms)
 Number     Number       Type             X           Y           Z
 ---------------------------------------------------------------------
      1          6           0        2.084383    1.605933    5.780820
      2          6           0        1.476744    1.697250    4.392462
      3          8           0        2.280192    1.611659    3.465885
      4          1           0        2.746155    2.456431    5.943542
      5          1           0        1.290132    1.616187    6.527518
      6          1           0        2.654559    0.681275    5.868119
      7          7           0        0.154506    1.721426    4.174975
      8          6           0       -0.430524    1.878181    2.857376
      9          6           0       -0.363768    3.317474    2.360003
     10          8           0       -0.906479    4.225207    2.979990
     11          6           0       -1.858523    1.347414    2.871737
     12          6           0       -2.687365    1.356983    1.590086
     13          8           0       -2.209972    1.800008    0.521899
     14          8           0       -3.842089    0.882237    1.595346
     15          1           0       -0.487296    1.570898    4.941808
     16          1           0        0.239687    1.315113    2.210019
     17          1           0       -2.462638    1.927264    3.574318
     18          1           0       -1.835720    0.298774    3.155875
     19          7           0        0.292495    3.485478    1.212008
     20          6           0        0.820131    4.768954    0.793450
     21          6           0       -0.168503    5.625645    0.016029
     22          8           0       -0.182608    6.853479    0.096191
     23          6           0        2.135776    4.479059    0.067406
     24          6           0        2.962293    5.699820   -0.322225
     25          6           0        4.196581    5.387092   -1.159443
     26          6           0        4.938108    6.691465   -1.443785
     27          7           0        6.125368    6.544305   -2.300381
     28          1           0        0.616694    2.653783    0.739907
     29          1           0        0.980713    5.292363    1.727878
     30          1           0        1.934234    3.846631   -0.801165
     31          1           0        2.750801    3.794102    0.638612
     32          1           0        3.335743    6.236083    0.556329
     33          1           0        2.321450    6.336780   -0.931242
     34          1           0        3.927118    5.067044   -2.166597
     35          1           0        4.724372    4.570207   -0.657412
     36          1           0        5.202704    6.943181   -0.410040
     37          1           0        4.207454    7.406211   -1.820459
     38          1           0        6.685466    5.719751   -2.128043
     39          1           0        5.817694    6.399504   -3.255300
     40          1           0        6.748401    7.341245   -2.266964
     41          7           0       -1.003735    4.874261   -0.702587
     42          6           0       -2.111121    5.302205   -1.531718
     43          6           0       -3.507743    5.109830   -0.931604
     44          8           0       -4.395927    5.895032   -1.242549
     45          6           0       -1.954293    4.716625   -2.921323
     46          6           0       -1.805548    3.206950   -2.836145
     47          8           0       -2.842961    2.511515   -2.699604
     48          8           0       -0.690789    2.640554   -2.846583
     49          1           0       -0.758999    3.898875   -0.599501
     50          1           0       -1.983626    6.377268   -1.645233
     51          1           0       -1.054268    5.198400   -3.301121
     52          1           0       -2.726845    5.049568   -3.609881
     53          7           0       -3.712610    4.066360   -0.123024
     54          6           0       -4.879670    3.959192    0.730549
     55          6           0       -5.903702    2.935477    0.259098
     56          8           0       -7.068836    3.092746    0.611703
     57          1           0       -3.044068    3.371404    0.191597
     58          1           0       -5.287273    4.963201    0.802834
     59          1           0       -4.464124    3.648634    1.682061
     60          7           0       -5.605627    2.071964   -0.720747
     61          6           0       -6.595142    1.160895   -1.242391
     62          6           0       -6.908569   -0.053892   -0.374950
     63          8           0       -7.686298   -0.972084   -0.635451
     64          6           0       -6.074854    0.727819   -2.613576
     65          6           0       -4.902519   -0.237406   -2.559048
     66          7           0       -4.907862   -1.206008   -3.473368
     67          8           0       -3.960355   -0.099618   -1.769275
     68          1           0       -4.654443    1.978555   -1.061225
     69          1           0       -7.581292    1.604026   -1.348425
     70          1           0       -5.727800    1.651595   -3.086960
     71          1           0       -6.810542    0.149858   -3.165411
     72          1           0       -5.595127   -1.362608   -4.185859
     73          1           0       -4.208622   -1.931898   -3.394333
     74          7           0       -6.289869   -0.034537    0.807182
     75          6           0       -6.392146   -1.026250    1.850276
     76          6           0       -5.382583   -2.163619    1.737257
     77          8           0       -5.717091   -3.270384    2.175180
     78          1           0       -5.487037    0.581649    0.841494
     79          1           0       -7.411927   -1.394401    1.860820
     80          1           0       -6.246801   -0.477638    2.778985
     81          7           0       -4.197430   -1.916328    1.190667
     82          6           0       -3.219200   -2.907112    0.775439
     83          6           0       -1.858181   -2.213652    0.817156
     84          8           0       -1.662733   -1.047819    0.467965
     85          6           0       -3.508566   -3.493309   -0.599639
     86          6           0       -4.755602   -4.335048   -0.636746
     87          6           0       -5.867185   -3.899172   -1.367291
     88          6           0       -4.889786   -5.553896    0.049988
     89          6           0       -7.082785   -4.601822   -1.417292
     90          6           0       -6.060039   -6.327904    0.054317
     91          6           0       -7.119023   -5.817777   -0.716477
     92          8           0       -8.255523   -6.565869   -0.582961
     93          1           0       -4.006801   -0.967557    0.876991
     94          1           0       -3.256547   -3.655135    1.565355
     95          1           0       -2.672219   -4.169343   -0.788589
     96          1           0       -3.565369   -2.635853   -1.268475
     97          1           0       -5.734692   -3.072556   -2.046888
     98          1           0       -4.154256   -5.810557    0.788650
     99          1           0       -7.836374   -4.275513   -2.115666
    100          1           0       -6.236972   -7.231384    0.618515
    101          1           0       -8.259068   -7.340015   -0.015700
    102          7           0       -0.882503   -3.060159    1.114443
    103          6           0        0.542147   -2.796161    1.192402
    104          6           0        1.300114   -3.825000    0.357012
    105          8           0        1.085749   -5.036237    0.364179
    106          6           0        1.043973   -2.774530    2.626000
    107          6           0        0.236217   -1.928361    3.610900
    108          6           0        2.480402   -2.261091    2.670194
    109          6           0        0.249670   -2.435097    5.048967
    110          1           0       -1.134668   -4.037891    1.237135
    111          1           0        0.675204   -1.871031    0.630681
    112          1           0        1.019409   -3.833337    2.886624
    113          1           0       -0.821364   -1.966317    3.376206
    114          1           0        0.527602   -0.873878    3.512104
    115          1           0        2.511644   -1.219161    2.352381
    116          1           0        2.852951   -2.307003    3.695962
    117          1           0        3.117824   -2.968509    2.138543
    118          1           0        1.232290   -2.371563    5.508664
    119          1           0       -0.421129   -1.790561    5.619757
    120          1           0        0.022607   -3.503600    5.037010
    121          7           0        2.301190   -3.450065   -0.448079
    122          6           0        3.335298   -4.193588   -1.146573
    123          6           0        4.717647   -3.865354   -0.602905
    124          8           0        4.859240   -3.155328    0.382648
    125          6           0        3.215978   -4.122852   -2.667677
    126          8           0        3.689545   -2.863920   -3.102792
    127          1           0        2.482461   -2.463688   -0.448708
    128          1           0        3.107012   -5.258351   -1.051364
    129          1           0        2.187813   -4.314480   -2.975989
    130          1           0        3.895173   -4.879940   -3.074878
    131          1           0        3.877266   -3.051893   -4.029090
    132          7           0        5.697991   -4.552909   -1.208786
    133          6           0        7.067068   -4.455662   -0.738391
    134          6           0        7.628527   -3.052512   -0.877067
    135          8           0        8.279179   -2.550135    0.040358
    136          6           0        7.945200   -5.443176   -1.502001
    137          1           0        5.502479   -5.035988   -2.064771
    138          1           0        7.152058   -4.618109    0.330154
    139          1           0        8.524301   -4.980155   -2.315914
    140          1           0        8.589664   -6.039317   -0.862640
    141          1           0        7.240210   -6.148762   -1.928658
    142          7           0        7.282073   -2.390184   -1.983770
    143          6           0        7.670179   -1.021141   -2.230544
    144          6           0        7.085272   -0.071423   -1.190728
    145          8           0        7.815291    0.872104   -0.866335
    146          6           0        7.268247   -0.629642   -3.648493
    147          1           0        6.949184   -2.908405   -2.785974
    148          1           0        8.749592   -0.875069   -2.311974
    149          1           0        6.190844   -0.661471   -3.803378
    150          1           0        7.641671    0.376673   -3.810925
    151          1           0        7.695999   -1.334635   -4.362716
    152          7           0        5.933462   -0.351056   -0.578243
    153          6           0        5.349649    0.585920    0.350055
    154          6           0        5.949058    0.403456    1.743366
    155          8           0        6.040401    1.329209    2.536989
    156          6           0        3.842207    0.347332    0.359845
    157          6           0        3.164978    0.812521   -0.926647
    158          6           0        1.669282    0.516914   -0.937128
    159          8           0        1.155564   -0.411730   -1.597366
    160          8           0        0.929152    1.342091   -0.347306
    161          1           0        5.491625   -1.260982   -0.613115
    162          1           0        5.526182    1.609658    0.019605
    163          1           0        3.384383    0.885780    1.189646
    164          1           0        3.704072   -0.716173    0.587610
    165          1           0        3.589297    0.202190   -1.721662
    166          1           0        3.439880    1.864693   -0.974228
    167          7           0        6.436702   -0.795682    2.049257
    168          6           0        7.154220   -1.016880    3.289435
    169          1           0        7.945237   -0.273205    3.388961
    170          1           0        6.464822   -0.927648    4.129285
    171          1           0        7.593425   -2.014246    3.282877
    172          1           0        6.323289   -1.508376    1.344059
    173         20           0       -1.334400    0.531309   -1.543913
    174          8           0       -1.339509   -1.878617   -2.532968
    175          1           0       -1.675459   -1.819982   -3.425324
    176          1           0       -0.908135   -2.736171   -2.495318
 ---------------------------------------------------------------------
 Rotational constants (GHZ):           0.0244341           0.0149801           0.0116054
 Standard basis: SVP (5D, 7F)
 There are  1809 symmetry adapted cartesian basis functions of A   symmetry.
 There are  1717 symmetry adapted basis functions of A   symmetry.
  1717 basis functions,  2922 primitive gaussians,  1809 cartesian basis functions
   358 alpha electrons      358 beta electrons
       nuclear repulsion energy     21816.3488308279 Hartrees.
 NAtoms=  176 NActive=  176 NUniq=  176 SFac= 1.00D+00 NAtFMM=   60 NAOKFM=T Big=T
 Integral buffers will be    131072 words long.
 Raffenetti 2 integral format.
 Two-electron integral symmetry is turned on.
 One-electron integrals computed using PRISM.
 NBasis=  1717 RedAO= T EigKep=  3.02D-04  NBF=  1717
 NBsUse=  1717 1.00D-06 EigRej= -1.00D+00 NBFU=  1717
 ExpMin= 1.98D-02 ExpMax= 3.51D+04 ExpMxC= 5.28D+03 IAcc=3 IRadAn=         5 AccDes= 0.00D+00
 Harris functional with IExCor=  402 and IRadAn=       5 diagonalized for initial guess.
 HarFok:  IExCor=  402 AccDes= 0.00D+00 IRadAn=         5 IDoV= 1 UseB2=F ITyADJ=14
 ICtDFT=  3500011 ScaDFX=  1.000000  1.000000  1.000000  1.000000
 FoFCou: FMM=F IPFlag=           0 FMFlag=      100000 FMFlg1=        2001
         NFxFlg=           0 DoJE=T BraDBF=F KetDBF=T FulRan=T
         wScrn=  0.000000 ICntrl=       500 IOpCl=  0 I1Cent=   200000004 NGrid=           0
         NMat0=    1 NMatS0=      1 NMatT0=    0 NMatD0=    1 NMtDS0=    0 NMtDT0=    0
 Petite list used in FoFCou.
 Requested convergence on RMS density matrix=1.00D-08 within 128 cycles.
 Requested convergence on MAX density matrix=1.00D-06.
 Requested convergence on             energy=1.00D-06.
 No special actions if energy rises.
 EnCoef did     4 forward-backward iterations
 SCF Done:  E(RB3LYP) =  -5333.56855331     A.U. after   18 cycles
            NFock= 18  Conv=0.52D-08     -V/T= 2.0081
 SCF density gives NOpUse=  1 NOpAll=  1.
 Hyperfine terms turned off by default for NAtoms > 100.

 **********************************************************************

            Population analysis using the SCF density.

 **********************************************************************

 Orbital symmetries:
 BldTbl:  Degeneracy threshold= 1.00D-02
       Occupied  (A) (A) (A) (A) (A) (A) (A) (A) (A) (A) (A) (A)
                 (A) (A) (A) (A) (A) (A) (A) (A) (A) (A) (A) (A)
                 (A) (A) (A) (A) (A) (A) (A) (A) (A) (A) (A) (A)
                 (A) (A) (A) (A) (A) (A) (A) (A) (A) (A) (A) (A)
                 (A) (A) (A) (A) (A) (A) (A) (A) (A) (A) (A) (A)
                 (A) (A) (A) (A) (A) (A) (A) (A) (A) (A) (A) (A)
                 (A) (A) (A) (A) (A) (A) (A) (A) (A) (A) (A) (A)
                 (A) (A) (A) (A) (A) (A) (A) (A) (A) (A) (A) (A)
                 (A) (A) (A) (A) (A) (A) (A) (A) (A) (A) (A) (A)
                 (A) (A) (A) (A) (A) (A) (A) (A) (A) (A) (A) (A)
                 (A) (A) (A) (A) (A) (A) (A) (A) (A) (A) (A) (A)
                 (A) (A) (A) (A) (A) (A) (A) (A) (A) (A) (A) (A)
                 (A) (A) (A) (A) (A) (A) (A) (A) (A) (A) (A) (A)
                 (A) (A) (A) (A) (A) (A) (A) (A) (A) (A) (A) (A)
                 (A) (A) (A) (A) (A) (A) (A) (A) (A) (A) (A) (A)
                 (A) (A) (A) (A) (A) (A) (A) (A) (A) (A) (A) (A)
                 (A) (A) (A) (A) (A) (A) (A) (A) (A) (A) (A) (A)
                 (A) (A) (A) (A) (A) (A) (A) (A) (A) (A) (A) (A)
                 (A) (A) (A) (A) (A) (A) (A) (A) (A) (A) (A) (A)
                 (A) (A) (A) (A) (A) (A) (A) (A) (A) (A) (A) (A)
                 (A) (A) (A) (A) (A) (A) (A) (A) (A) (A) (A) (A)
                 (A) (A) (A) (A) (A) (A) (A) (A) (A) (A) (A) (A)
                 (A) (A) (A) (A) (A) (A) (A) (A) (A) (A) (A) (A)
                 (A) (A) (A) (A) (A) (A) (A) (A) (A) (A) (A) (A)
                 (A) (A) (A) (A) (A) (A) (A) (A) (A) (A) (A) (A)
                 (A) (A) (A) (A) (A) (A) (A) (A) (A) (A) (A) (A)
                 (A) (A) (A) (A) (A) (A) (A) (A) (A) (A) (A) (A)
                 (A) (A) (A) (A) (A) (A) (A) (A) (A) (A) (A) (A)
                 (A) (A) (A) (A) (A) (A) (A) (A) (A) (A) (A) (A)
                 (A) (A) (A) (A) (A) (A) (A) (A) (A) (A)
       Virtual   (A) (A) (A) (A) (A) (A) (A) (A) (A) (A) (A) (A)
                 (A) (A) (A) (A) (A) (A) (A) (A) (A) (A) (A) (A)
                 (A) (A) (A) (A) (A) (A) (A) (A) (A) (A) (A) (A)
                 (A) (A) (A) (A) (A) (A) (A) (A) (A) (A) (A) (A)
                 (A) (A) (A) (A) (A) (A) (A) (A) (A) (A) (A) (A)
                 (A) (A) (A) (A) (A) (A) (A) (A) (A) (A) (A) (A)
                 (A) (A) (A) (A) (A) (A) (A) (A) (A) (A) (A) (A)
                 (A) (A) (A) (A) (A) (A) (A) (A) (A) (A) (A) (A)
                 (A) (A) (A) (A) (A) (A) (A) (A) (A) (A) (A) (A)
                 (A) (A) (A) (A) (A) (A) (A) (A) (A) (A) (A) (A)
                 (A) (A) (A) (A) (A) (A) (A) (A) (A) (A) (A) (A)
                 (A) (A) (A) (A) (A) (A) (A) (A) (A) (A) (A) (A)
                 (A) (A) (A) (A) (A) (A) (A) (A) (A) (A) (A) (A)
                 (A) (A) (A) (A) (A) (A) (A) (A) (A) (A) (A) (A)
                 (A) (A) (A) (A) (A) (A) (A) (A) (A) (A) (A) (A)
                 (A) (A) (A) (A) (A) (A) (A) (A) (A) (A) (A) (A)
                 (A) (A) (A) (A) (A) (A) (A) (A) (A) (A) (A) (A)
                 (A) (A) (A) (A) (A) (A) (A) (A) (A) (A) (A) (A)
                 (A) (A) (A) (A) (A) (A) (A) (A) (A) (A) (A) (A)
                 (A) (A) (A) (A) (A) (A) (A) (A) (A) (A) (A) (A)
                 (A) (A) (A) (A) (A) (A) (A) (A) (A) (A) (A) (A)
                 (A) (A) (A) (A) (A) (A) (A) (A) (A) (A) (A) (A)
                 (A) (A) (A) (A) (A) (A) (A) (A) (A) (A) (A) (A)
                 (A) (A) (A) (A) (A) (A) (A) (A) (A) (A) (A) (A)
                 (A) (A) (A) (A) (A) (A) (A) (A) (A) (A) (A) (A)
                 (A) (A) (A) (A) (A) (A) (A) (A) (A) (A) (A) (A)
                 (A) (A) (A) (A) (A) (A) (A) (A) (A) (A) (A) (A)
                 (A) (A) (A) (A) (A) (A) (A) (A) (A) (A) (A) (A)
                 (A) (A) (A) (A) (A) (A) (A) (A) (A) (A) (A) (A)
                 (A) (A) (A) (A) (A) (A) (A) (A) (A) (A) (A) (A)
                 (A) (A) (A) (A) (A) (A) (A) (A) (A) (A) (A) (A)
                 (A) (A) (A) (A) (A) (A) (A) (A) (A) (A) (A) (A)
                 (A) (A) (A) (A) (A) (A) (A) (A) (A) (A) (A) (A)
                 (A) (A) (A) (A) (A) (A) (A) (A) (A) (A) (A) (A)
                 (A) (A) (A) (A) (A) (A) (A) (A) (A) (A) (A) (A)
                 (A) (A) (A) (A) (A) (A) (A) (A) (A) (A) (A) (A)
                 (A) (A) (A) (A) (A) (A) (A) (A) (A) (A) (A) (A)
                 (A) (A) (A) (A) (A) (A) (A) (A) (A) (A) (A) (A)
                 (A) (A) (A) (A) (A) (A) (A) (A) (A) (A) (A) (A)
                 (A) (A) (A) (A) (A) (A) (A) (A) (A) (A) (A) (A)
                 (A) (A) (A) (A) (A) (A) (A) (A) (A) (A) (A) (A)
                 (A) (A) (A) (A) (A) (A) (A) (A) (A) (A) (A) (A)
                 (A) (A) (A) (A) (A) (A) (A) (A) (A) (A) (A) (A)
                 (A) (A) (A) (A) (A) (A) (A) (A) (A) (A) (A) (A)
                 (A) (A) (A) (A) (A) (A) (A) (A) (A) (A) (A) (A)
                 (A) (A) (A) (A) (A) (A) (A) (A) (A) (A) (A) (A)
                 (A) (A) (A) (A) (A) (A) (A) (A) (A) (A) (A) (A)
                 (A) (A) (A) (A) (A) (A) (A) (A) (A) (A) (A) (A)
                 (A) (A) (A) (A) (A) (A) (A) (A) (A) (A) (A) (A)
                 (A) (A) (A) (A) (A) (A) (A) (A) (A) (A) (A) (A)
                 (A) (A) (A) (A) (A) (A) (A) (A) (A) (A) (A) (A)
                 (A) (A) (A) (A) (A) (A) (A) (A) (A) (A) (A) (A)
                 (A) (A) (A) (A) (A) (A) (A) (A) (A) (A) (A) (A)
                 (A) (A) (A) (A) (A) (A) (A) (A) (A) (A) (A) (A)
                 (A) (A) (A) (A) (A) (A) (A) (A) (A) (A) (A) (A)
                 (A) (A) (A) (A) (A) (A) (A) (A) (A) (A) (A) (A)
                 (A) (A) (A) (A) (A) (A) (A) (A) (A) (A) (A) (A)
                 (A) (A) (A) (A) (A) (A) (A) (A) (A) (A) (A) (A)
                 (A) (A) (A) (A) (A) (A) (A) (A) (A) (A) (A) (A)
                 (A) (A) (A) (A) (A) (A) (A) (A) (A) (A) (A) (A)
                 (A) (A) (A) (A) (A) (A) (A) (A) (A) (A) (A) (A)
                 (A) (A) (A) (A) (A) (A) (A) (A) (A) (A) (A) (A)
                 (A) (A) (A) (A) (A) (A) (A) (A) (A) (A) (A) (A)
                 (A) (A) (A) (A) (A) (A) (A) (A) (A) (A) (A) (A)
                 (A) (A) (A) (A) (A) (A) (A) (A) (A) (A) (A) (A)
                 (A) (A) (A) (A) (A) (A) (A) (A) (A) (A) (A) (A)
                 (A) (A) (A) (A) (A) (A) (A) (A) (A) (A) (A) (A)
                 (A) (A) (A) (A) (A) (A) (A) (A) (A) (A) (A) (A)
                 (A) (A) (A) (A) (A) (A) (A) (A) (A) (A) (A) (A)
                 (A) (A) (A) (A) (A) (A) (A) (A) (A) (A) (A) (A)
                 (A) (A) (A) (A) (A) (A) (A) (A) (A) (A) (A) (A)
                 (A) (A) (A) (A) (A) (A) (A) (A) (A) (A) (A) (A)
                 (A) (A) (A) (A) (A) (A) (A) (A) (A) (A) (A) (A)
                 (A) (A) (A) (A) (A) (A) (A) (A) (A) (A) (A) (A)
                 (A) (A) (A) (A) (A) (A) (A) (A) (A) (A) (A) (A)
                 (A) (A) (A) (A) (A) (A) (A) (A) (A) (A) (A) (A)
                 (A) (A) (A) (A) (A) (A) (A) (A) (A) (A) (A) (A)
                 (A) (A) (A) (A) (A) (A) (A) (A) (A) (A) (A) (A)
                 (A) (A) (A) (A) (A) (A) (A) (A) (A) (A) (A) (A)
                 (A) (A) (A) (A) (A) (A) (A) (A) (A) (A) (A) (A)
                 (A) (A) (A) (A) (A) (A) (A) (A) (A) (A) (A) (A)
                 (A) (A) (A) (A) (A) (A) (A) (A) (A) (A) (A) (A)
                 (A) (A) (A) (A) (A) (A) (A) (A) (A) (A) (A) (A)
                 (A) (A) (A) (A) (A) (A) (A) (A) (A) (A) (A) (A)
                 (A) (A) (A) (A) (A) (A) (A) (A) (A) (A) (A) (A)
                 (A) (A) (A) (A) (A) (A) (A) (A) (A) (A) (A) (A)
                 (A) (A) (A) (A) (A) (A) (A) (A) (A) (A) (A) (A)
                 (A) (A) (A) (A) (A) (A) (A) (A) (A) (A) (A) (A)
                 (A) (A) (A) (A) (A) (A) (A) (A) (A) (A) (A) (A)
                 (A) (A) (A) (A) (A) (A) (A) (A) (A) (A) (A) (A)
                 (A) (A) (A) (A) (A) (A) (A) (A) (A) (A) (A) (A)
                 (A) (A) (A) (A) (A) (A) (A) (A) (A) (A) (A) (A)
                 (A) (A) (A) (A) (A) (A) (A) (A) (A) (A) (A) (A)
                 (A) (A) (A) (A) (A) (A) (A) (A) (A) (A) (A) (A)
                 (A) (A) (A) (A) (A) (A) (A) (A) (A) (A) (A) (A)
                 (A) (A) (A) (A) (A) (A) (A) (A) (A) (A) (A) (A)
                 (A) (A) (A) (A) (A) (A) (A) (A) (A) (A) (A) (A)
                 (A) (A) (A) (A) (A) (A) (A) (A) (A) (A) (A) (A)
                 (A) (A) (A) (A) (A) (A) (A) (A) (A) (A) (A) (A)
                 (A) (A) (A) (A) (A) (A) (A) (A) (A) (A) (A) (A)
                 (A) (A) (A) (A) (A) (A) (A) (A) (A) (A) (A) (A)
                 (A) (A) (A) (A) (A) (A) (A) (A) (A) (A) (A) (A)
                 (A) (A) (A) (A) (A) (A) (A) (A) (A) (A) (A) (A)
                 (A) (A) (A) (A) (A) (A) (A) (A) (A) (A) (A) (A)
                 (A) (A) (A) (A) (A) (A) (A) (A) (A) (A) (A) (A)
                 (A) (A) (A) (A) (A) (A) (A) (A) (A) (A) (A) (A)
                 (A) (A) (A) (A) (A) (A) (A) (A) (A) (A) (A) (A)
                 (A) (A) (A) (A) (A) (A) (A) (A) (A) (A) (A) (A)
                 (A) (A) (A) (A) (A) (A) (A) (A) (A) (A) (A) (A)
                 (A) (A) (A) (A) (A) (A) (A) (A) (A) (A) (A) (A)
                 (A) (A) (A) (A) (A) (A) (A) (A) (A) (A) (A) (A)
                 (A) (A) (A) (A) (A) (A) (A) (A) (A) (A) (A) (A)
                 (A) (A) (A) (A) (A) (A) (A) (A) (A) (A) (A) (A)
                 (A) (A) (A)
 The electronic state is 1-A.
 Alpha  occ. eigenvalues -- -145.34972 -19.19289 -19.18237 -19.15534 -19.12747
 Alpha  occ. eigenvalues --  -19.12673 -19.11515 -19.11431 -19.10735 -19.10079
 Alpha  occ. eigenvalues --  -19.07259 -19.06605 -19.06556 -19.06306 -19.06016
 Alpha  occ. eigenvalues --  -19.05445 -19.04763 -19.04490 -19.04334 -19.04300
 Alpha  occ. eigenvalues --  -19.03925 -19.03514 -19.03503 -19.03241 -15.40729
 Alpha  occ. eigenvalues --  -14.58904 -14.40720 -14.38980 -14.37182 -14.36747
 Alpha  occ. eigenvalues --  -14.36640 -14.35954 -14.33372 -14.32480 -14.31107
 Alpha  occ. eigenvalues --  -14.30634 -14.29853 -14.29769 -14.28136 -14.28080
 Alpha  occ. eigenvalues --  -12.54342 -12.54304 -12.54289 -10.34168 -10.33494
 Alpha  occ. eigenvalues --  -10.31084 -10.30054 -10.29789 -10.29649 -10.29058
 Alpha  occ. eigenvalues --  -10.28679 -10.26982 -10.26973 -10.26199 -10.26101
 Alpha  occ. eigenvalues --  -10.25959 -10.25436 -10.25004 -10.24369 -10.24036
 Alpha  occ. eigenvalues --  -10.23840 -10.23541 -10.23531 -10.23490 -10.23417
 Alpha  occ. eigenvalues --  -10.22746 -10.22614 -10.22339 -10.22219 -10.22192
 Alpha  occ. eigenvalues --  -10.22185 -10.22004 -10.21996 -10.20165 -10.19979
 Alpha  occ. eigenvalues --  -10.19845 -10.19322 -10.18979 -10.18917 -10.18891
 Alpha  occ. eigenvalues --  -10.18555 -10.18375 -10.17876 -10.17583 -10.17339
 Alpha  occ. eigenvalues --  -10.17090 -10.17046 -10.17032 -10.16895 -10.16799
 Alpha  occ. eigenvalues --  -10.16643 -10.16570 -10.16422 -10.16351 -10.16275
 Alpha  occ. eigenvalues --  -10.15674 -10.15080  -1.77694  -1.13733  -1.08533
 Alpha  occ. eigenvalues --   -1.06639  -1.06131  -1.05569  -1.05466  -1.05286
 Alpha  occ. eigenvalues --   -1.04588  -1.04460  -1.03711  -1.03659  -1.02880
 Alpha  occ. eigenvalues --   -1.01647  -1.01536  -1.00012  -0.99817  -0.99365
 Alpha  occ. eigenvalues --   -0.99219  -0.98747  -0.98067  -0.97867  -0.97684
 Alpha  occ. eigenvalues --   -0.97109  -0.96582  -0.96137  -0.95587  -0.93840
 Alpha  occ. eigenvalues --   -0.93158  -0.92969  -0.91967  -0.91384  -0.89600
 Alpha  occ. eigenvalues --   -0.89424  -0.88993  -0.88519  -0.88490  -0.88421
 Alpha  occ. eigenvalues --   -0.88249  -0.87538  -0.87433  -0.85476  -0.84897
 Alpha  occ. eigenvalues --   -0.83564  -0.82468  -0.81768  -0.80321  -0.79940
 Alpha  occ. eigenvalues --   -0.78977  -0.78488  -0.77151  -0.75920  -0.75684
 Alpha  occ. eigenvalues --   -0.74629  -0.74448  -0.73948  -0.72531  -0.72192
 Alpha  occ. eigenvalues --   -0.71940  -0.71567  -0.71380  -0.70630  -0.70375
 Alpha  occ. eigenvalues --   -0.70020  -0.69061  -0.68558  -0.67992  -0.67148
 Alpha  occ. eigenvalues --   -0.66783  -0.66569  -0.65304  -0.64789  -0.63553
 Alpha  occ. eigenvalues --   -0.63219  -0.63197  -0.63019  -0.62341  -0.61861
 Alpha  occ. eigenvalues --   -0.61325  -0.60749  -0.60318  -0.60123  -0.59870
 Alpha  occ. eigenvalues --   -0.59815  -0.59675  -0.58867  -0.58717  -0.57633
 Alpha  occ. eigenvalues --   -0.57598  -0.57416  -0.56406  -0.56194  -0.55844
 Alpha  occ. eigenvalues --   -0.55620  -0.55461  -0.55019  -0.54868  -0.54655
 Alpha  occ. eigenvalues --   -0.54412  -0.54274  -0.53929  -0.53350  -0.52972
 Alpha  occ. eigenvalues --   -0.52458  -0.52221  -0.52186  -0.51804  -0.51274
 Alpha  occ. eigenvalues --   -0.50688  -0.50626  -0.50239  -0.49484  -0.49411
 Alpha  occ. eigenvalues --   -0.49127  -0.48901  -0.48683  -0.48509  -0.48283
 Alpha  occ. eigenvalues --   -0.47999  -0.47830  -0.47632  -0.47311  -0.47195
 Alpha  occ. eigenvalues --   -0.47065  -0.46863  -0.46687  -0.46501  -0.46018
 Alpha  occ. eigenvalues --   -0.45762  -0.45598  -0.45478  -0.45184  -0.45136
 Alpha  occ. eigenvalues --   -0.44945  -0.44763  -0.44611  -0.44428  -0.44246
 Alpha  occ. eigenvalues --   -0.44183  -0.44059  -0.43949  -0.43708  -0.43363
 Alpha  occ. eigenvalues --   -0.43273  -0.43097  -0.42955  -0.42698  -0.42636
 Alpha  occ. eigenvalues --   -0.42458  -0.42214  -0.42046  -0.41879  -0.41800
 Alpha  occ. eigenvalues --   -0.41660  -0.41406  -0.41317  -0.41255  -0.41097
 Alpha  occ. eigenvalues --   -0.40978  -0.40926  -0.40624  -0.40446  -0.40411
 Alpha  occ. eigenvalues --   -0.40305  -0.40178  -0.40004  -0.39850  -0.39783
 Alpha  occ. eigenvalues --   -0.39352  -0.39259  -0.39053  -0.39050  -0.38983
 Alpha  occ. eigenvalues --   -0.38793  -0.38640  -0.38509  -0.38388  -0.38327
 Alpha  occ. eigenvalues --   -0.38010  -0.37933  -0.37828  -0.37711  -0.37570
 Alpha  occ. eigenvalues --   -0.37452  -0.37357  -0.37142  -0.36982  -0.36935
 Alpha  occ. eigenvalues --   -0.36633  -0.36328  -0.36311  -0.36198  -0.35977
 Alpha  occ. eigenvalues --   -0.35918  -0.35703  -0.35574  -0.35443  -0.35106
 Alpha  occ. eigenvalues --   -0.34981  -0.34528  -0.34430  -0.34276  -0.34048
 Alpha  occ. eigenvalues --   -0.34008  -0.33778  -0.33502  -0.33372  -0.33310
 Alpha  occ. eigenvalues --   -0.33084  -0.32940  -0.32904  -0.32730  -0.32418
 Alpha  occ. eigenvalues --   -0.32307  -0.32097  -0.31548  -0.31373  -0.31350
 Alpha  occ. eigenvalues --   -0.31140  -0.30905  -0.30749  -0.30583  -0.30501
 Alpha  occ. eigenvalues --   -0.30022  -0.30014  -0.29139  -0.28153  -0.27890
 Alpha  occ. eigenvalues --   -0.27713  -0.27521  -0.27334  -0.26818  -0.26255
 Alpha  occ. eigenvalues --   -0.25585  -0.25481  -0.24894  -0.24651  -0.23991
 Alpha  occ. eigenvalues --   -0.23600  -0.23362  -0.23308  -0.23020  -0.22995
 Alpha  occ. eigenvalues --   -0.22813  -0.22671  -0.22465  -0.22244  -0.22048
 Alpha  occ. eigenvalues --   -0.21846  -0.21609  -0.21399  -0.21222  -0.20642
 Alpha  occ. eigenvalues --   -0.20287  -0.19760  -0.19462  -0.19211  -0.18766
 Alpha  occ. eigenvalues --   -0.18726  -0.18446  -0.17714
 Alpha virt. eigenvalues --   -0.10529  -0.04634  -0.03989  -0.03681  -0.03196
 Alpha virt. eigenvalues --   -0.02413  -0.01385  -0.00604  -0.00362   0.00231
 Alpha virt. eigenvalues --    0.00286   0.00750   0.01118   0.01309   0.01687
 Alpha virt. eigenvalues --    0.02369   0.02967   0.03407   0.03646   0.03796
 Alpha virt. eigenvalues --    0.04429   0.04647   0.05040   0.05235   0.05389
 Alpha virt. eigenvalues --    0.05527   0.05908   0.06030   0.06180   0.06498
 Alpha virt. eigenvalues --    0.06563   0.06714   0.06771   0.06903   0.06952
 Alpha virt. eigenvalues --    0.07006   0.07456   0.07522   0.07603   0.07766
 Alpha virt. eigenvalues --    0.08066   0.08245   0.08421   0.08702   0.08785
 Alpha virt. eigenvalues --    0.09173   0.09315   0.09353   0.09649   0.09804
 Alpha virt. eigenvalues --    0.10106   0.10466   0.10712   0.10880   0.11049
 Alpha virt. eigenvalues --    0.11091   0.11729   0.11932   0.12081   0.12230
 Alpha virt. eigenvalues --    0.12257   0.12527   0.12746   0.12821   0.12855
 Alpha virt. eigenvalues --    0.13558   0.13757   0.14077   0.14176   0.14260
 Alpha virt. eigenvalues --    0.14367   0.14533   0.14825   0.14949   0.15128
 Alpha virt. eigenvalues --    0.15349   0.15391   0.15660   0.15839   0.15905
 Alpha virt. eigenvalues --    0.16018   0.16114   0.16369   0.16509   0.16595
 Alpha virt. eigenvalues --    0.16784   0.17009   0.17115   0.17373   0.17501
 Alpha virt. eigenvalues --    0.17643   0.17813   0.17994   0.18208   0.18272
 Alpha virt. eigenvalues --    0.18431   0.18603   0.18661   0.18836   0.19060
 Alpha virt. eigenvalues --    0.19198   0.19487   0.19760   0.19812   0.20159
 Alpha virt. eigenvalues --    0.20231   0.20376   0.20511   0.20841   0.21075
 Alpha virt. eigenvalues --    0.21285   0.21415   0.21739   0.21925   0.22120
 Alpha virt. eigenvalues --    0.22264   0.22545   0.22813   0.23165   0.23385
 Alpha virt. eigenvalues --    0.23460   0.23700   0.23881   0.23998   0.24285
 Alpha virt. eigenvalues --    0.24319   0.24633   0.24794   0.25031   0.25139
 Alpha virt. eigenvalues --    0.25230   0.25462   0.25775   0.26007   0.26094
 Alpha virt. eigenvalues --    0.26393   0.26660   0.26721   0.27191   0.27329
 Alpha virt. eigenvalues --    0.27353   0.27623   0.27770   0.28150   0.28433
 Alpha virt. eigenvalues --    0.28553   0.28777   0.28961   0.29156   0.29469
 Alpha virt. eigenvalues --    0.29904   0.29964   0.30111   0.30613   0.30737
 Alpha virt. eigenvalues --    0.31105   0.31239   0.31489   0.31733   0.32291
 Alpha virt. eigenvalues --    0.32396   0.32705   0.32828   0.33098   0.33195
 Alpha virt. eigenvalues --    0.33436   0.33621   0.33828   0.33966   0.34346
 Alpha virt. eigenvalues --    0.34948   0.35098   0.35796   0.35924   0.36033
 Alpha virt. eigenvalues --    0.36226   0.36328   0.36561   0.36667   0.36919
 Alpha virt. eigenvalues --    0.37154   0.37681   0.37887   0.38203   0.38548
 Alpha virt. eigenvalues --    0.38876   0.39283   0.39582   0.39760   0.39914
 Alpha virt. eigenvalues --    0.40308   0.40460   0.40608   0.40897   0.41128
 Alpha virt. eigenvalues --    0.41161   0.41523   0.41658   0.42027   0.42270
 Alpha virt. eigenvalues --    0.42437   0.43116   0.43139   0.43450   0.43564
 Alpha virt. eigenvalues --    0.43874   0.44126   0.44367   0.44532   0.44682
 Alpha virt. eigenvalues --    0.44995   0.45048   0.45256   0.45325   0.45557
 Alpha virt. eigenvalues --    0.45659   0.45877   0.46114   0.46252   0.46820
 Alpha virt. eigenvalues --    0.46922   0.46986   0.47284   0.47489   0.47744
 Alpha virt. eigenvalues --    0.47893   0.48034   0.48121   0.48348   0.48571
 Alpha virt. eigenvalues --    0.48688   0.48971   0.49096   0.49328   0.49658
 Alpha virt. eigenvalues --    0.49721   0.49985   0.50215   0.50548   0.50623
 Alpha virt. eigenvalues --    0.50944   0.51034   0.51382   0.51632   0.51929
 Alpha virt. eigenvalues --    0.52160   0.52242   0.52432   0.52561   0.52673
 Alpha virt. eigenvalues --    0.52912   0.53158   0.53401   0.53530   0.53621
 Alpha virt. eigenvalues --    0.54060   0.54204   0.54231   0.54494   0.54632
 Alpha virt. eigenvalues --    0.54744   0.54897   0.54996   0.55104   0.55229
 Alpha virt. eigenvalues --    0.55507   0.55768   0.55980   0.56102   0.56210
 Alpha virt. eigenvalues --    0.56449   0.56732   0.56824   0.56942   0.57026
 Alpha virt. eigenvalues --    0.57148   0.57558   0.57604   0.57838   0.57911
 Alpha virt. eigenvalues --    0.58231   0.58464   0.58678   0.58877   0.59035
 Alpha virt. eigenvalues --    0.59169   0.59225   0.59422   0.59646   0.59809
 Alpha virt. eigenvalues --    0.60020   0.60081   0.60262   0.60380   0.60437
 Alpha virt. eigenvalues --    0.60589   0.60681   0.61082   0.61154   0.61329
 Alpha virt. eigenvalues --    0.61551   0.61800   0.61922   0.62129   0.62188
 Alpha virt. eigenvalues --    0.62263   0.62322   0.62479   0.62560   0.62736
 Alpha virt. eigenvalues --    0.62759   0.62958   0.63177   0.63318   0.63538
 Alpha virt. eigenvalues --    0.63647   0.63735   0.64038   0.64044   0.64145
 Alpha virt. eigenvalues --    0.64315   0.64379   0.64644   0.64704   0.64878
 Alpha virt. eigenvalues --    0.65023   0.65132   0.65170   0.65421   0.65467
 Alpha virt. eigenvalues --    0.65580   0.65689   0.65756   0.65946   0.66100
 Alpha virt. eigenvalues --    0.66120   0.66211   0.66395   0.66533   0.66641
 Alpha virt. eigenvalues --    0.66701   0.67027   0.67102   0.67226   0.67267
 Alpha virt. eigenvalues --    0.67376   0.67481   0.67547   0.67594   0.67808
 Alpha virt. eigenvalues --    0.67887   0.68019   0.68185   0.68294   0.68459
 Alpha virt. eigenvalues --    0.68529   0.68588   0.68660   0.68790   0.69022
 Alpha virt. eigenvalues --    0.69140   0.69294   0.69406   0.69520   0.69659
 Alpha virt. eigenvalues --    0.69781   0.69802   0.69977   0.70105   0.70243
 Alpha virt. eigenvalues --    0.70376   0.70443   0.70518   0.70651   0.70694
 Alpha virt. eigenvalues --    0.70884   0.71033   0.71113   0.71231   0.71331
 Alpha virt. eigenvalues --    0.71546   0.71843   0.71876   0.72012   0.72219
 Alpha virt. eigenvalues --    0.72292   0.72356   0.72500   0.72780   0.72879
 Alpha virt. eigenvalues --    0.73075   0.73365   0.73466   0.73487   0.73698
 Alpha virt. eigenvalues --    0.73825   0.74053   0.74159   0.74288   0.74390
 Alpha virt. eigenvalues --    0.74578   0.74874   0.74894   0.75152   0.75347
 Alpha virt. eigenvalues --    0.75569   0.75672   0.76104   0.76184   0.76628
 Alpha virt. eigenvalues --    0.76711   0.77020   0.77245   0.77431   0.77787
 Alpha virt. eigenvalues --    0.78025   0.78232   0.78701   0.78794   0.79080
 Alpha virt. eigenvalues --    0.79249   0.79468   0.79557   0.80003   0.80122
 Alpha virt. eigenvalues --    0.80150   0.80400   0.80732   0.81049   0.81420
 Alpha virt. eigenvalues --    0.81570   0.81820   0.81909   0.82193   0.82434
 Alpha virt. eigenvalues --    0.82705   0.82969   0.83108   0.83381   0.83528
 Alpha virt. eigenvalues --    0.83575   0.83725   0.84226   0.84567   0.84603
 Alpha virt. eigenvalues --    0.84992   0.85017   0.85111   0.85619   0.86030
 Alpha virt. eigenvalues --    0.86088   0.86831   0.87030   0.87565   0.87948
 Alpha virt. eigenvalues --    0.88221   0.88264   0.88657   0.88850   0.89075
 Alpha virt. eigenvalues --    0.89635   0.89836   0.90115   0.90381   0.90473
 Alpha virt. eigenvalues --    0.90961   0.91334   0.91531   0.92211   0.92377
 Alpha virt. eigenvalues --    0.92770   0.93241   0.93313   0.93732   0.94167
 Alpha virt. eigenvalues --    0.94365   0.94909   0.95114   0.95329   0.95493
 Alpha virt. eigenvalues --    0.95665   0.95865   0.96264   0.96526   0.97049
 Alpha virt. eigenvalues --    0.97092   0.97439   0.97652   0.97987   0.98171
 Alpha virt. eigenvalues --    0.98222   0.98376   0.98588   0.98912   0.99385
 Alpha virt. eigenvalues --    0.99582   0.99803   0.99825   1.00113   1.00501
 Alpha virt. eigenvalues --    1.00848   1.00999   1.01631   1.01803   1.02104
 Alpha virt. eigenvalues --    1.02474   1.02946   1.03305   1.03496   1.03814
 Alpha virt. eigenvalues --    1.04317   1.04358   1.04723   1.05017   1.05248
 Alpha virt. eigenvalues --    1.05571   1.05811   1.05908   1.06530   1.06561
 Alpha virt. eigenvalues --    1.06775   1.07274   1.07500   1.07752   1.08279
 Alpha virt. eigenvalues --    1.08607   1.09176   1.09312   1.09491   1.09717
 Alpha virt. eigenvalues --    1.10017   1.10653   1.10695   1.10962   1.11221
 Alpha virt. eigenvalues --    1.11794   1.11846   1.12135   1.12300   1.12897
 Alpha virt. eigenvalues --    1.13015   1.13346   1.13619   1.13903   1.14091
 Alpha virt. eigenvalues --    1.14324   1.14453   1.14874   1.14924   1.15351
 Alpha virt. eigenvalues --    1.15457   1.15755   1.15904   1.16307   1.16732
 Alpha virt. eigenvalues --    1.17061   1.17174   1.17563   1.17842   1.17946
 Alpha virt. eigenvalues --    1.18156   1.18543   1.18642   1.18826   1.19154
 Alpha virt. eigenvalues --    1.19611   1.19753   1.20283   1.20417   1.20551
 Alpha virt. eigenvalues --    1.20932   1.21040   1.21394   1.21404   1.21855
 Alpha virt. eigenvalues --    1.21971   1.22152   1.22348   1.22804   1.22899
 Alpha virt. eigenvalues --    1.23373   1.23640   1.23940   1.24269   1.24619
 Alpha virt. eigenvalues --    1.24908   1.24976   1.25400   1.25652   1.25999
 Alpha virt. eigenvalues --    1.26086   1.26583   1.26895   1.26992   1.27613
 Alpha virt. eigenvalues --    1.27878   1.28173   1.28354   1.28450   1.28702
 Alpha virt. eigenvalues --    1.29153   1.29235   1.29823   1.30016   1.30110
 Alpha virt. eigenvalues --    1.30210   1.30441   1.30578   1.30869   1.30991
 Alpha virt. eigenvalues --    1.31181   1.31611   1.31847   1.32157   1.32281
 Alpha virt. eigenvalues --    1.32720   1.32794   1.33102   1.33204   1.33933
 Alpha virt. eigenvalues --    1.34022   1.34329   1.34605   1.34952   1.35087
 Alpha virt. eigenvalues --    1.35359   1.35469   1.35768   1.36329   1.36525
 Alpha virt. eigenvalues --    1.36817   1.37041   1.37128   1.37481   1.37903
 Alpha virt. eigenvalues --    1.38079   1.38225   1.38482   1.38637   1.38818
 Alpha virt. eigenvalues --    1.38919   1.39367   1.39434   1.39752   1.39820
 Alpha virt. eigenvalues --    1.40135   1.40433   1.40877   1.41045   1.41408
 Alpha virt. eigenvalues --    1.41673   1.42211   1.42402   1.42861   1.43096
 Alpha virt. eigenvalues --    1.43522   1.43554   1.43996   1.44120   1.44485
 Alpha virt. eigenvalues --    1.44845   1.44877   1.45196   1.46016   1.46477
 Alpha virt. eigenvalues --    1.47148   1.47533   1.47564   1.47748   1.48132
 Alpha virt. eigenvalues --    1.48255   1.48777   1.48907   1.49000   1.49320
 Alpha virt. eigenvalues --    1.49555   1.49952   1.50204   1.50331   1.50426
 Alpha virt. eigenvalues --    1.50997   1.51307   1.51594   1.51844   1.52144
 Alpha virt. eigenvalues --    1.52415   1.52573   1.53106   1.53365   1.53501
 Alpha virt. eigenvalues --    1.53736   1.53841   1.54032   1.54179   1.54304
 Alpha virt. eigenvalues --    1.54337   1.54775   1.55086   1.55555   1.55838
 Alpha virt. eigenvalues --    1.56054   1.56609   1.57176   1.57503   1.57678
 Alpha virt. eigenvalues --    1.58306   1.58486   1.59136   1.59754   1.59899
 Alpha virt. eigenvalues --    1.60277   1.60672   1.60807   1.61391   1.61465
 Alpha virt. eigenvalues --    1.61846   1.62274   1.62510   1.62824   1.62996
 Alpha virt. eigenvalues --    1.63212   1.63327   1.63655   1.63984   1.64294
 Alpha virt. eigenvalues --    1.64459   1.65433   1.65591   1.65837   1.66382
 Alpha virt. eigenvalues --    1.66411   1.66599   1.67026   1.67155   1.67816
 Alpha virt. eigenvalues --    1.67877   1.68540   1.68618   1.68882   1.69076
 Alpha virt. eigenvalues --    1.69246   1.69452   1.69551   1.69774   1.70084
 Alpha virt. eigenvalues --    1.70396   1.70688   1.71001   1.71249   1.71725
 Alpha virt. eigenvalues --    1.72016   1.72078   1.72232   1.72392   1.72787
 Alpha virt. eigenvalues --    1.73141   1.73288   1.73372   1.73497   1.73671
 Alpha virt. eigenvalues --    1.73816   1.73980   1.74451   1.74500   1.74833
 Alpha virt. eigenvalues --    1.74958   1.75212   1.75413   1.75652   1.75700
 Alpha virt. eigenvalues --    1.75748   1.75982   1.76179   1.76322   1.76462
 Alpha virt. eigenvalues --    1.76562   1.76694   1.76956   1.77076   1.77357
 Alpha virt. eigenvalues --    1.77614   1.77774   1.77946   1.78238   1.78341
 Alpha virt. eigenvalues --    1.78542   1.78631   1.78978   1.79057   1.79118
 Alpha virt. eigenvalues --    1.79313   1.79475   1.79793   1.79865   1.80091
 Alpha virt. eigenvalues --    1.80441   1.80568   1.80622   1.80657   1.80988
 Alpha virt. eigenvalues --    1.81220   1.81530   1.81756   1.81824   1.81893
 Alpha virt. eigenvalues --    1.82206   1.82433   1.82664   1.82740   1.82827
 Alpha virt. eigenvalues --    1.82920   1.83233   1.83393   1.83529   1.83671
 Alpha virt. eigenvalues --    1.83805   1.83938   1.84121   1.84215   1.84436
 Alpha virt. eigenvalues --    1.84654   1.84730   1.84979   1.85143   1.85347
 Alpha virt. eigenvalues --    1.85572   1.85645   1.85789   1.85988   1.86152
 Alpha virt. eigenvalues --    1.86374   1.86607   1.86982   1.87251   1.87274
 Alpha virt. eigenvalues --    1.87450   1.87653   1.88007   1.88203   1.88420
 Alpha virt. eigenvalues --    1.88749   1.88862   1.89024   1.89141   1.89377
 Alpha virt. eigenvalues --    1.89476   1.89724   1.89986   1.90113   1.90438
 Alpha virt. eigenvalues --    1.90598   1.91115   1.91282   1.91320   1.91579
 Alpha virt. eigenvalues --    1.91797   1.92060   1.92249   1.92410   1.92674
 Alpha virt. eigenvalues --    1.92942   1.93056   1.93300   1.93468   1.93495
 Alpha virt. eigenvalues --    1.93954   1.94000   1.94226   1.94670   1.94981
 Alpha virt. eigenvalues --    1.95047   1.95304   1.95508   1.95705   1.95873
 Alpha virt. eigenvalues --    1.96257   1.96432   1.96579   1.96676   1.96989
 Alpha virt. eigenvalues --    1.97173   1.97332   1.97443   1.97755   1.98058
 Alpha virt. eigenvalues --    1.98233   1.98573   1.98684   1.99005   1.99053
 Alpha virt. eigenvalues --    1.99295   1.99413   1.99592   2.00035   2.00134
 Alpha virt. eigenvalues --    2.00401   2.00473   2.00780   2.00938   2.01041
 Alpha virt. eigenvalues --    2.01358   2.01550   2.01678   2.01928   2.02200
 Alpha virt. eigenvalues --    2.02338   2.02428   2.02732   2.03077   2.03613
 Alpha virt. eigenvalues --    2.03804   2.03941   2.04261   2.04401   2.04456
 Alpha virt. eigenvalues --    2.05100   2.05379   2.05790   2.05981   2.06019
 Alpha virt. eigenvalues --    2.06330   2.06499   2.06547   2.07015   2.07094
 Alpha virt. eigenvalues --    2.07242   2.07752   2.08291   2.08572   2.08650
 Alpha virt. eigenvalues --    2.09074   2.09331   2.09886   2.09993   2.10261
 Alpha virt. eigenvalues --    2.10786   2.10851   2.11491   2.11805   2.12209
 Alpha virt. eigenvalues --    2.12259   2.12556   2.12920   2.13152   2.13370
 Alpha virt. eigenvalues --    2.13650   2.13953   2.13995   2.14360   2.14814
 Alpha virt. eigenvalues --    2.15073   2.15456   2.15829   2.15952   2.16052
 Alpha virt. eigenvalues --    2.16224   2.16543   2.17002   2.17301   2.17347
 Alpha virt. eigenvalues --    2.17563   2.17824   2.18035   2.18222   2.18512
 Alpha virt. eigenvalues --    2.18726   2.18966   2.19242   2.19466   2.19580
 Alpha virt. eigenvalues --    2.19925   2.20018   2.20099   2.20476   2.20931
 Alpha virt. eigenvalues --    2.21232   2.21713   2.22024   2.22156   2.22492
 Alpha virt. eigenvalues --    2.23009   2.23180   2.23418   2.23730   2.23979
 Alpha virt. eigenvalues --    2.24343   2.24730   2.25488   2.25621   2.25792
 Alpha virt. eigenvalues --    2.25917   2.26262   2.27027   2.27525   2.27600
 Alpha virt. eigenvalues --    2.28111   2.28795   2.29005   2.29641   2.29876
 Alpha virt. eigenvalues --    2.29977   2.30294   2.30694   2.30865   2.31322
 Alpha virt. eigenvalues --    2.31624   2.31750   2.32084   2.32406   2.32908
 Alpha virt. eigenvalues --    2.33413   2.33570   2.34177   2.34441   2.34921
 Alpha virt. eigenvalues --    2.35054   2.35275   2.35399   2.35896   2.36285
 Alpha virt. eigenvalues --    2.36503   2.37075   2.37520   2.38381   2.38406
 Alpha virt. eigenvalues --    2.38753   2.39108   2.39145   2.39518   2.39711
 Alpha virt. eigenvalues --    2.40015   2.40277   2.40590   2.40854   2.40950
 Alpha virt. eigenvalues --    2.41541   2.41665   2.42503   2.42718   2.42826
 Alpha virt. eigenvalues --    2.43143   2.43647   2.43728   2.43881   2.44691
 Alpha virt. eigenvalues --    2.45085   2.45546   2.45885   2.46049   2.46615
 Alpha virt. eigenvalues --    2.46646   2.46752   2.47130   2.47264   2.47560
 Alpha virt. eigenvalues --    2.48238   2.48348   2.48456   2.49269   2.49556
 Alpha virt. eigenvalues --    2.49823   2.50124   2.50212   2.50558   2.50613
 Alpha virt. eigenvalues --    2.51021   2.51604   2.51821   2.52121   2.52257
 Alpha virt. eigenvalues --    2.52784   2.52944   2.53127   2.53583   2.53864
 Alpha virt. eigenvalues --    2.54391   2.55162   2.55605   2.55847   2.56033
 Alpha virt. eigenvalues --    2.56428   2.56693   2.56774   2.56950   2.57260
 Alpha virt. eigenvalues --    2.57529   2.57947   2.58016   2.58179   2.58649
 Alpha virt. eigenvalues --    2.59279   2.59465   2.59587   2.59754   2.60075
 Alpha virt. eigenvalues --    2.60795   2.60992   2.61435   2.61843   2.62349
 Alpha virt. eigenvalues --    2.62412   2.63004   2.63517   2.63819   2.64154
 Alpha virt. eigenvalues --    2.64263   2.64338   2.64776   2.65065   2.65142
 Alpha virt. eigenvalues --    2.66087   2.66256   2.66543   2.66868   2.67306
 Alpha virt. eigenvalues --    2.67453   2.67675   2.67867   2.68012   2.68539
 Alpha virt. eigenvalues --    2.69023   2.69361   2.69612   2.70211   2.70291
 Alpha virt. eigenvalues --    2.70391   2.70693   2.70864   2.71395   2.71437
 Alpha virt. eigenvalues --    2.71627   2.71749   2.72112   2.72229   2.72644
 Alpha virt. eigenvalues --    2.72767   2.73073   2.73178   2.73786   2.73949
 Alpha virt. eigenvalues --    2.74177   2.74210   2.74552   2.74830   2.74900
 Alpha virt. eigenvalues --    2.75036   2.75331   2.75530   2.75567   2.75942
 Alpha virt. eigenvalues --    2.76261   2.76428   2.76622   2.77770   2.78012
 Alpha virt. eigenvalues --    2.78242   2.78680   2.79000   2.79154   2.79436
 Alpha virt. eigenvalues --    2.79747   2.80099   2.80319   2.80560   2.80574
 Alpha virt. eigenvalues --    2.81028   2.81304   2.81821   2.81997   2.82549
 Alpha virt. eigenvalues --    2.82746   2.82943   2.83101   2.83639   2.83927
 Alpha virt. eigenvalues --    2.84216   2.84292   2.84597   2.84920   2.85168
 Alpha virt. eigenvalues --    2.85348   2.85481   2.85712   2.85977   2.86291
 Alpha virt. eigenvalues --    2.86592   2.86746   2.87552   2.87995   2.88284
 Alpha virt. eigenvalues --    2.88351   2.88454   2.88939   2.89323   2.89705
 Alpha virt. eigenvalues --    2.89982   2.90284   2.90417   2.90861   2.90947
 Alpha virt. eigenvalues --    2.91099   2.91450   2.91563   2.92094   2.92170
 Alpha virt. eigenvalues --    2.92284   2.92424   2.93289   2.93524   2.93902
 Alpha virt. eigenvalues --    2.93985   2.94169   2.94673   2.94835   2.95004
 Alpha virt. eigenvalues --    2.95157   2.95448   2.95818   2.96111   2.96417
 Alpha virt. eigenvalues --    2.96472   2.96885   2.97125   2.97441   2.98137
 Alpha virt. eigenvalues --    2.98633   2.98819   2.98957   2.99035   2.99331
 Alpha virt. eigenvalues --    2.99648   2.99807   3.00531   3.00727   3.01969
 Alpha virt. eigenvalues --    3.02285   3.02394   3.03126   3.03343   3.03558
 Alpha virt. eigenvalues --    3.04042   3.04323   3.04684   3.05075   3.05595
 Alpha virt. eigenvalues --    3.05885   3.06269   3.06471   3.06857   3.07670
 Alpha virt. eigenvalues --    3.08159   3.08811   3.09076   3.09723   3.10562
 Alpha virt. eigenvalues --    3.10741   3.11809   3.12118   3.12197   3.12391
 Alpha virt. eigenvalues --    3.12715   3.12936   3.13218   3.13270   3.13891
 Alpha virt. eigenvalues --    3.13952   3.14532   3.14897   3.15201   3.16017
 Alpha virt. eigenvalues --    3.16307   3.16799   3.17230   3.17436   3.17638
 Alpha virt. eigenvalues --    3.17675   3.18846   3.18942   3.19390   3.19702
 Alpha virt. eigenvalues --    3.20054   3.21066   3.21347   3.21835   3.22059
 Alpha virt. eigenvalues --    3.22224   3.22899   3.23249   3.23462   3.23739
 Alpha virt. eigenvalues --    3.23772   3.24527   3.24587   3.24934   3.25590
 Alpha virt. eigenvalues --    3.26021   3.26168   3.26710   3.27513   3.27594
 Alpha virt. eigenvalues --    3.28318   3.28540   3.30687   3.30912   3.31079
 Alpha virt. eigenvalues --    3.31398   3.32741   3.32913   3.35530   3.36097
 Alpha virt. eigenvalues --    3.36348   3.36860   3.37004   3.38573   3.39253
 Alpha virt. eigenvalues --    3.39851   3.47446   3.48285   3.49764   3.50207
 Alpha virt. eigenvalues --    3.50407   3.53164   3.53356   3.54189   3.54615
 Alpha virt. eigenvalues --    3.55575   3.58852   3.60238   3.61603   3.62310
 Alpha virt. eigenvalues --    3.62690   3.63147   3.63307   3.64657   3.64992
 Alpha virt. eigenvalues --    3.66062   3.66541   3.66957   3.67823   3.69110
 Alpha virt. eigenvalues --    3.69607   3.70580   3.70852   3.71296   3.71587
 Alpha virt. eigenvalues --    3.71950   3.72252   3.72572   3.73183   3.73298
 Alpha virt. eigenvalues --    3.73753   3.73967   3.74453   3.75197   3.75530
 Alpha virt. eigenvalues --    3.76648   3.79675   3.81215   3.82096
          Condensed to atoms (all electrons):
 Mulliken charges:
               1
     1  C    0.089213
     2  C    0.027636
     3  O   -0.299033
     4  H    0.042092
     5  H   -0.016828
     6  H    0.036616
     7  N   -0.131270
     8  C    0.117736
     9  C    0.064506
    10  O   -0.278534
    11  C    0.063931
    12  C    0.171832
    13  O   -0.476013
    14  O   -0.382870
    15  H    0.116830
    16  H   -0.005323
    17  H    0.022253
    18  H    0.001268
    19  N   -0.162233
    20  C    0.138597
    21  C    0.047006
    22  O   -0.288940
    23  C    0.016114
    24  C    0.012343
    25  C   -0.063637
    26  C    0.008969
    27  N    0.093736
    28  H    0.162371
    29  H   -0.000941
    30  H    0.021123
    31  H    0.022777
    32  H    0.015135
    33  H    0.025612
    34  H    0.005579
    35  H    0.057953
    36  H    0.077778
    37  H    0.088022
    38  H    0.194390
    39  H    0.189765
    40  H    0.196599
    41  N   -0.132898
    42  C    0.082431
    43  C    0.109101
    44  O   -0.284602
    45  C    0.190519
    46  C    0.050811
    47  O   -0.402748
    48  O   -0.434979
    49  H    0.144242
    50  H    0.003822
    51  H   -0.040218
    52  H    0.003173
    53  N   -0.188980
    54  C    0.229217
    55  C    0.045350
    56  O   -0.294233
    57  H    0.139762
    58  H    0.027302
    59  H    0.019685
    60  N   -0.177133
    61  C    0.146175
    62  C    0.016700
    63  O   -0.292833
    64  C    0.092880
    65  C    0.071548
    66  N   -0.039283
    67  O   -0.330017
    68  H    0.163908
    69  H    0.029718
    70  H    0.066884
    71  H   -0.006754
    72  H    0.132288
    73  H    0.106241
    74  N   -0.175452
    75  C    0.255225
    76  C    0.029236
    77  O   -0.305962
    78  H    0.163712
    79  H    0.019319
    80  H    0.018369
    81  N   -0.155205
    82  C    0.063716
    83  C    0.118714
    84  O   -0.350135
    85  C    0.214898
    86  C    0.020923
    87  C   -0.011075
    88  C   -0.001837
    89  C    0.017038
    90  C   -0.011866
    91  C    0.168807
    92  O   -0.227708
    93  H    0.159649
    94  H   -0.002289
    95  H   -0.039836
    96  H   -0.025547
    97  H   -0.093863
    98  H   -0.044214
    99  H   -0.028692
   100  H   -0.050146
   101  H    0.171251
   102  N   -0.124097
   103  C    0.167775
   104  C    0.024019
   105  O   -0.295353
   106  C   -0.072753
   107  C   -0.008092
   108  C    0.051366
   109  C    0.040378
   110  H    0.132280
   111  H    0.012955
   112  H   -0.028608
   113  H    0.006489
   114  H    0.029598
   115  H    0.043789
   116  H   -0.006139
   117  H    0.015001
   118  H   -0.004018
   119  H    0.013674
   120  H    0.005906
   121  N   -0.106700
   122  C    0.090877
   123  C    0.127663
   124  O   -0.254104
   125  C    0.182508
   126  O   -0.280067
   127  H    0.127165
   128  H    0.034750
   129  H    0.021091
   130  H   -0.024414
   131  H    0.161794
   132  N   -0.130114
   133  C    0.072352
   134  C    0.037742
   135  O   -0.245133
   136  C    0.062867
   137  H    0.117075
   138  H    0.029119
   139  H    0.028647
   140  H    0.048505
   141  H   -0.002605
   142  N   -0.123731
   143  C    0.118306
   144  C    0.071098
   145  O   -0.289413
   146  C    0.013889
   147  H    0.093889
   148  H    0.012164
   149  H    0.015596
   150  H    0.025349
   151  H    0.011343
   152  N   -0.161591
   153  C    0.135758
   154  C    0.069231
   155  O   -0.279239
   156  C   -0.107224
   157  C    0.159902
   158  C    0.163524
   159  O   -0.424911
   160  O   -0.419277
   161  H    0.144526
   162  H   -0.028673
   163  H    0.074435
   164  H   -0.004491
   165  H   -0.027161
   166  H   -0.038106
   167  N   -0.160062
   168  C    0.161650
   169  H    0.022372
   170  H    0.019598
   171  H    0.006597
   172  H    0.121081
   173  Ca   1.262638
   174  O   -0.267348
   175  H    0.170125
   176  H    0.188697
 Sum of Mulliken charges =  -0.00000
 Mulliken charges with hydrogens summed into heavy atoms:
               1
     1  C    0.151092
     2  C    0.027636
     3  O   -0.299033
     7  N   -0.014440
     8  C    0.112413
     9  C    0.064506
    10  O   -0.278534
    11  C    0.087453
    12  C    0.171832
    13  O   -0.476013
    14  O   -0.382870
    19  N    0.000138
    20  C    0.137656
    21  C    0.047006
    22  O   -0.288940
    23  C    0.060014
    24  C    0.053091
    25  C   -0.000105
    26  C    0.174769
    27  N    0.674491
    41  N    0.011345
    42  C    0.086254
    43  C    0.109101
    44  O   -0.284602
    45  C    0.153474
    46  C    0.050811
    47  O   -0.402748
    48  O   -0.434979
    53  N   -0.049218
    54  C    0.276204
    55  C    0.045350
    56  O   -0.294233
    60  N   -0.013225
    61  C    0.175893
    62  C    0.016700
    63  O   -0.292833
    64  C    0.153010
    65  C    0.071548
    66  N    0.199245
    67  O   -0.330017
    74  N   -0.011740
    75  C    0.292912
    76  C    0.029236
    77  O   -0.305962
    81  N    0.004443
    82  C    0.061428
    83  C    0.118714
    84  O   -0.350135
    85  C    0.149515
    86  C    0.020923
    87  C   -0.104938
    88  C   -0.046051
    89  C   -0.011653
    90  C   -0.062013
    91  C    0.168807
    92  O   -0.056457
   102  N    0.008182
   103  C    0.180730
   104  C    0.024019
   105  O   -0.295353
   106  C   -0.101361
   107  C    0.027996
   108  C    0.104017
   109  C    0.055940
   121  N    0.020464
   122  C    0.125626
   123  C    0.127663
   124  O   -0.254104
   125  C    0.179185
   126  O   -0.118273
   132  N   -0.013039
   133  C    0.101471
   134  C    0.037742
   135  O   -0.245133
   136  C    0.137414
   142  N   -0.029842
   143  C    0.130470
   144  C    0.071098
   145  O   -0.289413
   146  C    0.066177
   152  N   -0.017064
   153  C    0.107085
   154  C    0.069231
   155  O   -0.279239
   156  C   -0.037280
   157  C    0.094635
   158  C    0.163524
   159  O   -0.424911
   160  O   -0.419277
   167  N   -0.038981
   168  C    0.210218
   173  Ca   1.262638
   174  O    0.091475
 DipInt: DoE/N= T F RetVal/Mat= T F Init=T NMatP=  1 IDeriv=0 Min/MaxMlt=  0  4
 Entering OneElI...
 OneElI was handed  1333951383 working-precision words.
 Multipole integrals L=0 to 4 MinM= 0 MaxM= 0.
 Requested accuracy = 0.1000D-12
 ShPair: Thresh= 1.00D-13 NBox=     0 BxSize= 0.00D+00 RnKept= 2.55D+01
         NSMCal=               327645 NSMKep=              162193
 PrmmSu-InSpLW:  IPartL=    0 NPrtUS=    1 NPrtUL=    1 DoSpLW=F IThBeg=    0 IThEnd=    0 NThAct=    1.
 PrsmSu:  NPrtUS=   1 ThrOK=F IAlg=1 NPAlg=1 LenDen=           0 ISkipM=0 DoSpLW=F IThBeg=    0 IThEnd=    0.
 Prism:   IPart=     0 DynPar=F LinDyn=F Incr=         512.
 PRISM was handed  1323802845 working-precision words and162193 shell-pairs
 IPart=  0 NShTot=      162193 NBatch=         373 AvBLen=       434.8
 PrsmSu-ThDecC:  IPartSL=    0    0 NPrtUSL=    1    1 IThBeg=    0 IThEnd=    0 CPU=   -1 GPU=   -1 NThAct=    1.
 PrSmSu:  NxtVal=            513.
 Electronic moments (au):
       -716.00000000         14.98411706         -1.51116251         -8.58625426
     -54310.94553960     -29627.88540701     -11184.82951189        103.19202715
        -60.87115651        -20.33376847     -53086.84960850     -29530.04716648
     -24255.18858070      13795.17753218     105922.71343629      45865.50742492
     -15958.73991659      -4254.68782123      23966.59168642      -6788.52886253
   -8123200.92809740   -2775591.10199150    -537091.55267811    -100933.79408077
     209504.38998668    -533482.42856377      99061.64883341     -78801.38361055
     -21290.17129554   -2337614.90033036    -625586.92373181    -288258.92263219
    -109228.52433122     120743.95700435      17999.00647865
 Electronic spatial extent (au):  <R**2>=          95123.6605
 DipInt: DoE/N= F T RetVal/Mat= T F Init=T NMatP=  1 IDeriv=0 Min/MaxMlt=  0  4
 Nuclear    moments (au):
        716.00000000         -0.00000000         -0.00000000          0.00000000
      53883.71957554      29288.76927042      10823.74654443         -0.00000000
         -0.00000000          0.00000000      55286.93565315      29885.54390324
      23968.26146615     -11585.93874346    -105361.16833802     -47024.86424969
      16219.65882826       4229.97255229     -24748.75152359       6377.66728533
    7920422.58561543    2686505.66115758     502261.50280194     112516.49911459
    -219320.50157126     556649.15748532    -106108.66861357      77938.59308318
      21851.91804343    2308157.86565692     593291.64978414     267721.86267476
     104671.74206579    -130368.32567229     -16604.35491415
 Total      moments (au):
         -0.00000000         14.98411706         -1.51116251         -8.58625426
       -427.22596407       -339.11613658       -361.08296746        103.19202715
        -60.87115651        -20.33376847       2200.08604465        355.49673676
       -286.92711455       2209.23878872        561.54509828      -1159.35682476
        260.91891167        -24.71526894       -782.15983716       -410.86157720
    -202778.34248197     -89085.44083392     -34830.04987617      11582.70503382
      -9816.11158458      23166.72892155      -7047.01978015       -862.79052736
        561.74674789     -29457.03467344     -32295.27394767     -20537.05995743
      -4556.78226543      -9624.36866793       1394.65156450
 Traceless Quadrup. (au):
        -51.41760803         36.69221945         14.72538858        103.19202715
        -60.87115651        -20.33376847
 Charge=             -0.0000 electrons
 Dipole moment (field-independent basis, Debye):
    X=             38.0858    Y=             -3.8410    Z=            -21.8241  Tot=             44.0633
 Quadrupole moment (field-independent basis, Debye-Ang):
   XX=           -574.6336   YY=           -456.1228   ZZ=           -485.6690
   XY=            138.7968   XZ=            -81.8738   YZ=            -27.3496
 Traceless Quadrupole moment (field-independent basis, Debye-Ang):
   XX=            -69.1584   YY=             49.3523   ZZ=             19.8062
   XY=            138.7968   XZ=            -81.8738   YZ=            -27.3496
 Octapole moment (field-independent basis, Debye-Ang**2):
  XXX=           1565.9365  YYY=            253.0289  ZZZ=           -204.2237  XYY=           1572.4511
  XXY=            399.6862  XXZ=           -825.1855  XZZ=            185.7120  YZZ=            -17.5914
  YYZ=           -556.7112  XYZ=           -292.4354
 Hexadecapole moment (field-independent basis, Debye-Ang**3):
 XXXX=         -76376.0473 YYYY=         -33553.8488 ZZZZ=         -13118.6669 XXXY=           4362.6021
 XXXZ=          -3697.2183 YYYX=           8725.7010 YYYZ=          -2654.2456 ZZZX=           -324.9683
 ZZZY=            211.5808 XXYY=         -11094.9318 XXZZ=         -12163.9488 YYZZ=          -7735.2416
 XXYZ=          -1716.3027 YYXZ=          -3624.9987 ZZXY=            525.2927
 N-N= 2.181634883083D+04 E-N=-5.611780585824D+04  KE= 5.290638203745D+03
 Leave Link  601 at Wed Sep 18 20:12:44 2019, MaxMem=  1342177280 cpu:              43.3 elap:               1.1
 FitSet:  NAtFit=   176 NAtPot=   176 NAtFrz=     0 MDM=   180 TotChg=   0.00000
 Merz-Kollman atomic radii used.
 Read replacement radii for each type of atom:
 Rad(20) =   1.700000000000D+00
 Atom Element Radius
    1     6    1.50
    2     6    1.50
    3     8    1.40
    4     1    1.20
    5     1    1.20
    6     1    1.20
    7     7    1.50
    8     6    1.50
    9     6    1.50
   10     8    1.40
   11     6    1.50
   12     6    1.50
   13     8    1.40
   14     8    1.40
   15     1    1.20
   16     1    1.20
   17     1    1.20
   18     1    1.20
   19     7    1.50
   20     6    1.50
   21     6    1.50
   22     8    1.40
   23     6    1.50
   24     6    1.50
   25     6    1.50
   26     6    1.50
   27     7    1.50
   28     1    1.20
   29     1    1.20
   30     1    1.20
   31     1    1.20
   32     1    1.20
   33     1    1.20
   34     1    1.20
   35     1    1.20
   36     1    1.20
   37     1    1.20
   38     1    1.20
   39     1    1.20
   40     1    1.20
   41     7    1.50
   42     6    1.50
   43     6    1.50
   44     8    1.40
   45     6    1.50
   46     6    1.50
   47     8    1.40
   48     8    1.40
   49     1    1.20
   50     1    1.20
   51     1    1.20
   52     1    1.20
   53     7    1.50
   54     6    1.50
   55     6    1.50
   56     8    1.40
   57     1    1.20
   58     1    1.20
   59     1    1.20
   60     7    1.50
   61     6    1.50
   62     6    1.50
   63     8    1.40
   64     6    1.50
   65     6    1.50
   66     7    1.50
   67     8    1.40
   68     1    1.20
   69     1    1.20
   70     1    1.20
   71     1    1.20
   72     1    1.20
   73     1    1.20
   74     7    1.50
   75     6    1.50
   76     6    1.50
   77     8    1.40
   78     1    1.20
   79     1    1.20
   80     1    1.20
   81     7    1.50
   82     6    1.50
   83     6    1.50
   84     8    1.40
   85     6    1.50
   86     6    1.50
   87     6    1.50
   88     6    1.50
   89     6    1.50
   90     6    1.50
   91     6    1.50
   92     8    1.40
   93     1    1.20
   94     1    1.20
   95     1    1.20
   96     1    1.20
   97     1    1.20
   98     1    1.20
   99     1    1.20
  100     1    1.20
  101     1    1.20
  102     7    1.50
  103     6    1.50
  104     6    1.50
  105     8    1.40
  106     6    1.50
  107     6    1.50
  108     6    1.50
  109     6    1.50
  110     1    1.20
  111     1    1.20
  112     1    1.20
  113     1    1.20
  114     1    1.20
  115     1    1.20
  116     1    1.20
  117     1    1.20
  118     1    1.20
  119     1    1.20
  120     1    1.20
  121     7    1.50
  122     6    1.50
  123     6    1.50
  124     8    1.40
  125     6    1.50
  126     8    1.40
  127     1    1.20
  128     1    1.20
  129     1    1.20
  130     1    1.20
  131     1    1.20
  132     7    1.50
  133     6    1.50
  134     6    1.50
  135     8    1.40
  136     6    1.50
  137     1    1.20
  138     1    1.20
  139     1    1.20
  140     1    1.20
  141     1    1.20
  142     7    1.50
  143     6    1.50
  144     6    1.50
  145     8    1.40
  146     6    1.50
  147     1    1.20
  148     1    1.20
  149     1    1.20
  150     1    1.20
  151     1    1.20
  152     7    1.50
  153     6    1.50
  154     6    1.50
  155     8    1.40
  156     6    1.50
  157     6    1.50
  158     6    1.50
  159     8    1.40
  160     8    1.40
  161     1    1.20
  162     1    1.20
  163     1    1.20
  164     1    1.20
  165     1    1.20
  166     1    1.20
  167     7    1.50
  168     6    1.50
  169     1    1.20
  170     1    1.20
  171     1    1.20
  172     1    1.20
  173    20    1.70
  174     8    1.40
[...]
 **** Fit       0.011018
 **** Fit       0.003491
 **** Fit      -0.005162
 **** Fit       0.011217
 **** Fit       0.005508
 **** Fit      -0.002048
 **** Fit      -0.008458
 **** Fit       0.000420
 **** Fit      -0.004318
 **** Fit      -0.020082
 **** Fit      -0.020897
 **** Fit      -0.011009
 **** Fit      -0.015126
 **** Fit      -0.022506
 **** Fit      -0.009607
 **** Fit      -0.012135
 **** Fit      -0.016306
 **** Fit      -0.021995
 **** Fit      -0.008263
 **** Fit      -0.009337
 **** Fit      -0.011482
 **** Fit      -0.014825
 **** Fit      -0.018557
 **** Fit       0.003644
 **** Fit      -0.007548
 **** Fit      -0.009697
 **** Fit      -0.012185
 **** Fit      -0.013412
 **** Fit      -0.009885
 **** Fit       0.006868
 **** Fit       0.002954
 **** Fit      -0.001591
 **** Fit      -0.005217
 **** Fit      -0.006322
 **** Fit      -0.008551
 **** Fit      -0.006385
 **** Fit      -0.000187
 **** Fit       0.001083
 **** Fit      -0.002515
 **** Fit      -0.004085
 **** Fit      -0.001341
 **** Fit       0.008029
 **** Fit       0.008073
 **** Fit       0.016459
 **** Fit       0.046069
 **** Fit       0.045184
 **** Fit       0.037478
 **** Fit       0.025504
 **** Fit       0.022985
 **** Fit       0.018244
 **** Fit       0.015531
 **** Fit       0.010111
 **** Fit       0.003543
 **** Fit      -0.002158
 **** Fit      -0.005194
 **** Fit      -0.004495
 **** Fit       0.012768
 **** Fit       0.006652
 **** Fit       0.002789
 **** Fit       0.005631
 **** Fit       0.012441
 **** Fit       0.009645
 **** Fit       0.042536
 **** Fit       0.042407
 **** Fit       0.039351
 **** Fit       0.033845
 **** Fit      -0.006554
 **** Fit      -0.008229
 **** Fit      -0.010122
 **** Fit      -0.004825
 **** Fit      -0.005394
 **** Fit      -0.006092
 **** Fit      -0.007600
 **** Fit      -0.009502
 **** Fit      -0.011670
 **** Fit      -0.003804
 **** Fit      -0.003814
 **** Fit      -0.004201
 **** Fit      -0.004965
 **** Fit      -0.005670
 **** Fit      -0.007053
 **** Fit      -0.008831
 **** Fit      -0.011081
 **** Fit      -0.013718
 **** Fit      -0.016392
 **** Fit      -0.003216
 **** Fit      -0.002884
 **** Fit      -0.002840
 **** Fit      -0.003129
 **** Fit      -0.003726
 **** Fit      -0.004578
 **** Fit      -0.005346
 **** Fit      -0.006509
 **** Fit      -0.007975
 **** Fit      -0.015402
 **** Fit      -0.018716
 **** Fit      -0.021871
 **** Fit      -0.002716
 **** Fit      -0.002200
 **** Fit      -0.001902
 **** Fit      -0.001899
 **** Fit      -0.002204
 **** Fit      -0.002763
 **** Fit      -0.003501
 **** Fit      -0.004363
 **** Fit      -0.005172
 **** Fit      -0.022831
 **** Fit      -0.027166
 **** Fit      -0.030791
 **** Fit      -0.002742
 **** Fit      -0.001965
 **** Fit      -0.001756
 **** Fit      -0.002529
 **** Fit      -0.003382
 **** Fit      -0.004262
 **** Fit      -0.005202
 **** Fit      -0.003072
 **** Fit      -0.002081
 **** Fit      -0.002593
 **** Fit      -0.003528
 **** Fit      -0.004393
 **** Fit      -0.004139
 **** Fit      -0.002940
 **** Fit      -0.001710
 **** Fit      -0.003940
 **** Fit      -0.004785
 **** Fit      -0.005845
 **** Fit      -0.004438
 **** Fit      -0.002948
 **** Fit      -0.004739
 **** Fit      -0.005530
 **** Fit      -0.005697
 **** Fit      -0.003819
 **** Fit      -0.005979
 **** Fit      -0.006702
 **** Fit      -0.007121
 **** Fit      -0.004631
 **** Fit      -0.007767
 **** Fit      -0.008414
 **** Fit      -0.006195
 **** Fit      -0.010390
 **** Fit      -0.010859
 **** Fit      -0.014140
 **** Fit      -0.014263
 **** Fit      -0.018488
 **** Fit      -0.019477
 **** Fit      -0.018959
 **** Fit      -0.024103
 **** Fit      -0.009911
 **** Fit      -0.012477
 **** Fit      -0.007278
 **** Fit      -0.008708
 **** Fit      -0.010716
 **** Fit      -0.013407
 **** Fit      -0.016657
 **** Fit      -0.006752
 **** Fit      -0.007906
 **** Fit      -0.009529
 **** Fit      -0.011795
 **** Fit      -0.014833
 **** Fit      -0.018642
 **** Fit      -0.022951
 **** Fit      -0.005879
 **** Fit      -0.006497
 **** Fit      -0.007444
 **** Fit      -0.008796
 **** Fit      -0.010731
 **** Fit      -0.013435
 **** Fit      -0.017078
 **** Fit      -0.021759
 **** Fit      -0.027366
 **** Fit      -0.005780
 **** Fit      -0.006555
 **** Fit      -0.007304
 **** Fit      -0.008395
 **** Fit      -0.009987
 **** Fit      -0.012259
 **** Fit      -0.015420
 **** Fit      -0.019704
 **** Fit      -0.025332
 **** Fit      -0.005999
 **** Fit      -0.006982
 **** Fit      -0.007593
 **** Fit      -0.008541
 **** Fit      -0.009981
 **** Fit      -0.012101
 **** Fit      -0.015141
 **** Fit      -0.019411
 **** Fit      -0.025306
 **** Fit      -0.006184
 **** Fit      -0.006563
 **** Fit      -0.007857
 **** Fit      -0.008323
 **** Fit      -0.009120
 **** Fit      -0.010389
 **** Fit      -0.012307
 **** Fit      -0.015112
 **** Fit      -0.019138
 **** Fit      -0.024860
 **** Fit      -0.007378
 **** Fit      -0.007589
 **** Fit      -0.009279
 **** Fit      -0.009612
 **** Fit      -0.010298
 **** Fit      -0.011467
 **** Fit      -0.013287
 **** Fit      -0.015997
 **** Fit      -0.019952
 **** Fit      -0.025696
 **** Fit      -0.009173
 **** Fit      -0.009177
 **** Fit      -0.011379
 **** Fit      -0.011595
 **** Fit      -0.012247
 **** Fit      -0.013466
 **** Fit      -0.015432
 **** Fit      -0.018423
 **** Fit      -0.022881
 **** Fit      -0.011774
 **** Fit      -0.011484
 **** Fit      -0.014321
 **** Fit      -0.014415
 **** Fit      -0.015096
 **** Fit      -0.016491
 **** Fit      -0.018792
 **** Fit      -0.022330
 **** Fit      -0.027676
 **** Fit      -0.014712
 **** Fit      -0.018286
 **** Fit      -0.018252
 **** Fit      -0.019017
 **** Fit      -0.020669
 **** Fit      -0.023379
 **** Fit      -0.027473
 **** Fit      -0.019064
 **** Fit      -0.023427
 **** Fit      -0.023319
 **** Fit      -0.024444
 **** Fit      -0.026815
 **** Fit      -0.030542
 **** Fit      -0.029739
 **** Fit      -0.029675
 **** Fit      -0.031437
 **** Fit      -0.008094
 **** Fit      -0.007818
 **** Fit      -0.009542
 **** Fit      -0.009896
 **** Fit      -0.008390
 **** Fit      -0.006928
 **** Fit      -0.006682
 **** Fit      -0.007539
 **** Fit      -0.009394
 **** Fit      -0.011310
 **** Fit      -0.012488
 **** Fit      -0.012252
 **** Fit      -0.010704
 **** Fit      -0.008723
 **** Fit      -0.007086
 **** Fit      -0.006016
 **** Fit      -0.005499
 **** Fit      -0.005543
 **** Fit      -0.006211
 **** Fit      -0.011229
 **** Fit      -0.013451
 **** Fit      -0.015213
 **** Fit      -0.015968
 **** Fit      -0.015399
 **** Fit      -0.013642
 **** Fit      -0.011308
 **** Fit      -0.009122
 **** Fit      -0.007414
 **** Fit      -0.006182
 **** Fit      -0.005333
 **** Fit      -0.004790
 **** Fit      -0.004528
 **** Fit      -0.004581
 **** Fit      -0.005009
 **** Fit      -0.016485
 **** Fit      -0.018849
 **** Fit      -0.020290
 **** Fit      -0.020411
 **** Fit      -0.019102
 **** Fit      -0.016608
 **** Fit      -0.013578
 **** Fit      -0.010818
 **** Fit      -0.008677
 **** Fit      -0.007086
 **** Fit      -0.005928
 **** Fit      -0.005089
 **** Fit      -0.004467
 **** Fit      -0.004016
 **** Fit      -0.003743
 **** Fit      -0.024102
 **** Fit      -0.026182
 **** Fit      -0.026743
 **** Fit      -0.025631
 **** Fit      -0.022974
 **** Fit      -0.011915
 **** Fit      -0.009457
 **** Fit      -0.007609
 **** Fit      -0.006269
 **** Fit      -0.005317
 **** Fit      -0.004591
 **** Fit      -0.003984
 **** Fit      -0.003471
 **** Fit      -0.034240
 **** Fit      -0.035392
 **** Fit      -0.034575
 **** Fit      -0.031973
 **** Fit      -0.010906
 **** Fit      -0.008548
 **** Fit      -0.006878
 **** Fit      -0.005789
 **** Fit      -0.005001
 **** Fit      -0.004307
 **** Fit      -0.003640
 **** Fit      -0.005524
 **** Fit      -0.004743
 **** Fit      -0.005655
 **** Fit      -0.001210
 **** Fit      -0.000794
 **** Fit      -0.000824
 **** Fit      -0.001256
 **** Fit      -0.000838
 **** Fit      -0.000143
 **** Fit       0.000160
 **** Fit       0.000060
 **** Fit      -0.000392
 **** Fit      -0.001104
 **** Fit      -0.001976
 **** Fit      -0.000958
 **** Fit       0.000082
 **** Fit       0.000772
 **** Fit       0.001051
 **** Fit       0.000922
 **** Fit       0.000443
 **** Fit      -0.000300
 **** Fit      -0.001214
 **** Fit      -0.002211
 **** Fit      -0.001392
 **** Fit      -0.000040
 **** Fit       0.001016
 **** Fit       0.001676
 **** Fit       0.001898
 **** Fit       0.001703
 **** Fit       0.001157
 **** Fit       0.000349
 **** Fit      -0.000629
 **** Fit      -0.001694
 **** Fit      -0.002777
 **** Fit      -0.001731
 **** Fit      -0.000023
 **** Fit       0.001362
 **** Fit       0.002288
 **** Fit       0.002684
 **** Fit       0.002560
 **** Fit       0.001992
 **** Fit       0.001093
 **** Fit      -0.000021
 **** Fit      -0.001241
 **** Fit      -0.002488
 **** Fit      -0.003699
 **** Fit      -0.006362
 **** Fit      -0.000325
 **** Fit       0.001495
 **** Fit       0.002777
 **** Fit       0.003406
 **** Fit       0.003375
 **** Fit       0.002769
 **** Fit       0.001731
 **** Fit       0.000422
 **** Fit      -0.001017
 **** Fit      -0.002476
 **** Fit      -0.003880
 **** Fit      -0.005187
 **** Fit      -0.008643
 **** Fit      -0.002107
 **** Fit       0.000547
 **** Fit       0.002622
 **** Fit       0.003877
 **** Fit       0.004215
 **** Fit       0.003702
 **** Fit       0.002523
 **** Fit       0.000918
 **** Fit      -0.000887
 **** Fit      -0.002716
 **** Fit      -0.004450
 **** Fit      -0.006029
 **** Fit      -0.007429
 **** Fit      -0.011984
 **** Fit      -0.000599
 **** Fit       0.002534
 **** Fit       0.004453
 **** Fit       0.004930
 **** Fit       0.004061
 **** Fit       0.002201
 **** Fit      -0.000206
 **** Fit      -0.002769
 **** Fit      -0.005213
 **** Fit      -0.007380
 **** Fit      -0.009218
 **** Fit      -0.010739
 **** Fit      -0.001913
 **** Fit      -0.005760
 **** Fit      -0.014167
 **** Fit      -0.015738
 **** Fit      -0.011192
 **** Fit       0.003498
 **** Fit      -0.004020
 **** Fit      -0.006024
 **** Fit       0.012449
 **** Fit       0.003066
 **** Fit      -0.001483
 **** Fit       0.003464
 **** Fit       0.018474
 **** Fit       0.020515
 **** Fit       0.009318
 **** Fit       0.002442
 **** Fit       0.006579
 **** Fit       0.020912
 **** Fit       0.014526
 **** Fit       0.005554
 **** Fit      -0.003607
 **** Fit       0.007933
 **** Fit       0.019308
 **** Fit       0.017436
 **** Fit       0.007508
 **** Fit       0.039712
 **** Fit       0.039733
 **** Fit       0.045448
 **** Fit       0.020234
 **** Fit       0.019030
 **** Fit       0.011553
 **** Fit       0.028241
 **** Fit       0.026926
 **** Fit       0.021041
 **** Fit       0.017502
 **** Fit       0.016668
 **** Fit       0.041380
 **** Fit       0.034157
 **** Fit       0.047088
 **** Fit       0.046844
 **** Fit       0.048659
 **** Fit       0.048059
 **** Fit       0.048165
 **** Fit       0.049539
 **** Fit       0.051450
 **** Fit       0.033595
 **** Fit       0.028873
 **** Fit       0.025682
 **** Fit       0.024071
 **** Fit       0.023545
 **** Fit       0.023496
 **** Fit       0.023534
 **** Fit       0.023571
 **** Fit       0.023894
 **** Fit       0.048736
 **** Fit       0.048317
 **** Fit       0.048942
 **** Fit       0.049973
 **** Fit       0.050660
 **** Fit       0.050255
 **** Fit       0.048191
 **** Fit       0.044323
 **** Fit       0.039122
 **** Fit       0.036545
 **** Fit       0.032670
 **** Fit       0.029849
 **** Fit       0.028166
 **** Fit       0.027341
 **** Fit       0.027090
 **** Fit       0.027339
 **** Fit       0.028266
 **** Fit       0.030163
 **** Fit       0.049554
 **** Fit       0.048501
 **** Fit       0.048004
 **** Fit       0.048156
 **** Fit       0.048514
 **** Fit       0.048419
 **** Fit       0.047244
 **** Fit       0.044657
 **** Fit       0.040849
 **** Fit       0.038422
 **** Fit       0.035148
 **** Fit       0.032753
 **** Fit       0.031403
 **** Fit       0.031014
 **** Fit       0.031579
 **** Fit       0.033250
 **** Fit       0.036167
 **** Fit       0.046634
 **** Fit       0.047286
 **** Fit       0.047161
 **** Fit       0.047069
 **** Fit       0.046994
 **** Fit       0.046406
 **** Fit       0.044752
 **** Fit       0.041916
 **** Fit       0.039638
 **** Fit       0.036774
 **** Fit       0.035069
 **** Fit       0.034916
 **** Fit       0.036426
 **** Fit       0.039407
 **** Fit       0.042768
 **** Fit       0.044901
 **** Fit       0.045578
 **** Fit       0.045516
 **** Fit       0.044693
 **** Fit       0.042651
 **** Fit       0.040478
 **** Fit       0.038324
 **** Fit       0.039015
 **** Fit       0.041850
 **** Fit       0.043569
 **** Fit       0.042995
 **** Fit       0.041153
 **** Fit       0.026903
 **** Fit       0.031451
 **** Fit       0.032898
 **** Fit       0.034988
 **** Fit       0.033562
 **** Fit       0.035383
 **** Fit       0.037411
 **** Fit       0.040047
 **** Fit       0.035377
 **** Fit       0.035611
 **** Fit       0.036754
 **** Fit       0.038360
 **** Fit       0.040331
 **** Fit       0.042814
 **** Fit       0.041131
 **** Fit       0.040731
 **** Fit       0.041418
 **** Fit       0.042793
 **** Fit       0.044718
 **** Fit       0.047201
 **** Fit       0.045548
 **** Fit       0.045175
 **** Fit       0.045891
 **** Fit       0.047319
 **** Fit       0.049182
 **** Fit       0.039203
 **** Fit       0.048976
 **** Fit       0.048726
 **** Fit       0.049352
 **** Fit       0.050252
 **** Fit       0.050598
 **** Fit       0.045272
 **** Fit       0.051708
 **** Fit       0.051090
 **** Fit       0.050891
 **** Fit       0.049996
 **** Fit       0.047477
 **** Fit       0.052174
 -----------------------------------------------------------------
 Leave Link  602 at Wed Sep 18 20:12:46 2019, MaxMem=  1342177280 cpu:             110.5 elap:               2.3

 Test job not archived.
 1\1\GINC-C506-122\SP\RB3LYP\SVP\C54H83Ca1N15O23\JAEBEOMH\18-Sep-2019\0
 \\#b3lyp/svp scf=(tight,noincore) Test #IOP(5/87=12) Density=Current P
 op=(MK,readradii) iop(6/33=2) iop(6/42=6)\\holoCaM_loop3_54.0\\0,1\C,0
 ,35.67,47.13,43.62\C,0,35.86,46.6,45.03\O,0,34.85,46.13,45.55\H,0,34.9
 82,47.975,43.64\H,0,36.631,47.454,43.22\H,0,35.259,46.343,42.988\N,0,3
 7.06,46.51,45.62\C,0,37.24,46.07,46.99\C,0,36.87,47.15,48.\O,0,37.45,4
 8.23,48.01\C,0,38.67,45.58,47.18\C,0,39.11,45.02,48.53\O,0,38.31,44.96
 ,49.49\O,0,40.27,44.58,48.67\H,0,37.9,46.7,45.09\H,0,36.49,45.29,47.11
 \H,0,39.37,46.4,47.\H,0,38.85,44.76,46.49\N,0,35.91,46.81,48.86\C,0,35
 .14,47.79,49.6\C,0,35.77,48.21,50.92\O,0,35.66,49.35,51.37\C,0,33.72,4
 7.23,49.71\C,0,32.68,48.17,50.31\C,0,31.31,47.54,50.53\C,0,30.37,48.6,
 51.1\N,0,29.02,48.11,51.42\H,0,35.57,45.86,48.82\H,0,35.18,48.67,48.97
 \H,0,33.75,46.28,50.25\H,0,33.37,46.87,48.75\H,0,32.5,49.04,49.67\H,0,
 33.05,48.47,51.29\H,0,31.33,46.81,51.34\H,0,31.04,47.03,49.6\H,0,30.37
 ,49.28,50.24\H,0,30.88,49.07,51.94\H,0,28.63,47.45,50.76\H,0,29.07,47.
 56,52.27\H,0,28.34,48.85,51.54\N,0,36.46,47.21,51.47\C,0,37.24,47.22,5
 2.69\C,0,38.76,47.29,52.51\O,0,39.43,47.85,53.37\C,0,36.78,46.09,53.59
 \C,0,36.84,44.77,52.84\O,0,37.95,44.19,52.74\O,0,35.84,44.27,52.28\H,0
 ,36.37,46.38,50.9\H,0,36.96,48.14,53.2\H,0,35.76,46.37,53.85\H,0,37.29
 ,46.08,54.55\N,0,39.3,46.7,51.44\C,0,40.66,46.96,51.01\C,0,41.63,45.82
 ,51.29\O,0,42.82,46.1,51.4\H,0,38.83,46.22,50.68\H,0,40.95,47.89,51.49
 \H,0,40.56,47.1,49.94\N,0,41.18,44.62,51.68\C,0,42.09,43.56,52.04\C,0,
 42.77,42.84,50.88\O,0,43.55,41.89,50.95\C,0,41.27,42.58,52.88\C,0,40.2
 8,41.75,52.08\N,0,40.15,40.48,52.46\O,0,39.58,42.23,51.18\H,0,40.19,44
 .4,51.65\H,0,42.95,43.9,52.61\H,0,40.7,43.21,53.57\H,0,41.89,41.81,53.
 33\H,0,40.63,40.02,53.21\H,0,39.59,39.87,51.88\N,0,42.5,43.38,49.69\C,
 0,43.,42.94,48.41\C,0,42.14,41.88,47.73\O,0,42.71,41.07,46.99\H,0,41.6
 7,43.96,49.68\H,0,44.02,42.6,48.55\H,0,43.05,43.84,47.8\N,0,40.83,41.8
 8,47.95\C,0,39.9,40.82,47.6\C,0,38.53,41.48,47.45\O,0,38.11,42.38,48.1
 8\C,0,39.87,39.69,48.62\C,0,41.15,38.9,48.67\C,0,41.96,38.96,49.81\C,0
 ,41.61,38.1,47.61\C,0,43.19,38.29,49.92\C,0,42.82,37.39,47.63\C,0,43.5
 6,37.5,48.82\O,0,44.77,36.87,48.73\H,0,40.45,42.6,48.56\H,0,40.24,40.4
 9,46.62\H,0,39.1,39.01,48.25\H,0,39.64,40.17,49.57\H,0,41.55,39.41,50.
 7\H,0,41.14,38.2,46.65\H,0,43.68,38.27,50.88\H,0,43.25,36.82,46.82\H,0
 ,45.02,36.42,47.92\N,0,37.78,40.86,46.55\C,0,36.41,41.15,46.17\C,0,35.
 58,39.87,46.23\O,0,35.93,38.78,45.78\C,0,36.32,41.8,44.8\C,0,37.26,42.
 98,44.55\C,0,34.9,42.3,44.55\C,0,37.7,43.15,43.1\H,0,38.17,40.03,46.11
 \H,0,36.02,41.74,47.\H,0,36.54,40.96,44.14\H,0,38.21,42.83,45.05\H,0,3
 6.83,43.89,44.99\H,0,34.66,43.1,45.25\H,0,34.83,42.71,43.54\H,0,34.23,
 41.44,44.52\H,0,36.88,43.42,42.44\H,0,38.42,43.97,43.08\H,0,38.04,42.1
 8,42.73\N,0,34.36,39.87,46.78\C,0,33.27,38.91,46.76\C,0,32.06,39.46,46
 .02\O,0,32.11,40.53,45.43\C,0,32.96,38.31,48.13\O,0,32.24,39.26,48.89\
 H,0,34.07,40.76,47.14\H,0,33.64,37.99,46.3\H,0,33.88,37.99,48.62\H,0,3
 2.29,37.46,47.96\H,0,31.83,38.69,49.55\N,0,31.04,38.59,45.96\C,0,29.85
 ,38.9,45.19\C,0,29.11,40.11,45.73\O,0,28.68,40.97,44.96\C,0,28.92,37.6
 9,45.17\H,0,31.05,37.78,46.55\H,0,30.08,39.22,44.18\H,0,28.09,37.76,45
 .89\H,0,28.55,37.44,44.18\H,0,29.56,36.86,45.45\N,0,29.06,40.22,47.06\
 C,0,28.46,41.35,47.73\C,0,29.19,42.65,47.41\O,0,28.47,43.65,47.31\C,0,
 28.41,41.08,49.23\H,0,29.22,39.4,47.63\H,0,27.39,41.46,47.54\H,0,29.4,
 40.97,49.67\H,0,27.89,41.92,49.68\H,0,27.89,40.14,49.42\N,0,30.49,42.6
 5,47.11\C,0,31.19,43.89,46.88\C,0,31.02,44.34,45.43\O,0,31.04,45.52,45
 .11\C,0,32.66,43.66,47.22\C,0,32.9,43.51,48.72\C,0,34.36,43.22,49.05\O
 ,0,34.78,42.09,49.38\O,0,35.13,44.21,49.11\H,0,31.01,41.81,46.89\H,0,3
 0.81,44.67,47.54\H,0,33.26,44.5,46.87\H,0,32.98,42.8,46.62\H,0,32.35,4
 2.62,49.02\H,0,32.5,44.44,49.12\N,0,30.78,43.4,44.52\C,0,30.46,43.75,4
 3.15\H,0,29.644,44.473,43.141\H,0,31.337,44.187,42.672\H,0,30.157,42.8
 55,42.607\H,0,30.78,42.45,44.86\Ca,0,37.06,42.93,50.47\O,0,37.08,40.33
 ,50.31\H,0,37.15,39.99,51.2\H,0,36.78,39.58,49.79\\Version=ES64L-G16Re
 vA.03\State=1-A\HF=-5333.5685533\RMSD=5.160e-09\Dipole=-16.4712687,-4.
 9042266,2.2753034\Quadrupole=11.143754,18.2959645,-29.4397185,-69.2349
 47,-106.8197196,2.0188736\PG=C01 [X(C54H83Ca1N15O23)]\\@


 NOBODY LOSES ALL THE TIME
 I HAD AN UNCLE NAMED
 SOL WHO WAS A BORN FAILURE AND
 NEARLY EVERYBODY SAID HE SHOULD HAVE GONE
 INTO VAUDEVILLE PERHAPS BECAUSE MY UNCLE SOL COULD
 SING MCCANN HE WAS A DIVER ON XMAS EVE LIKE HELL ITSELF WHICH
 MAY OR MAY NOT ACCOUNT FOR THE FACT THAT MY UNCLE
 SOL INDULGED IN THAT POSSIBLY MOST INEXCUSABLE
 OF ALL TO USE A HIGHFALOOTIN PHRASE
 LUXURIES THAT IS OR TO
 WIT FARMING AND BE
 IT NEEDLESSLY
 ADDED
 MY UNCLE SOL'S FARM     
 FAILED BECAUSE THE CHICKENS
 ATE THE VEGETABLES SO
 MY UNCLE SOL HAD A
 CHICKEN FARM TILL THE
 SKUNKS ATE THE CHICKENS WHEN 
 MY UNCLE SOL
 HAD A SKUNK FARM BUT
 THE SKUNKS CAUGHT COLD AND
 DIED AND SO
 MY UNCLE SOL IMITATED THE
 SKUNKS IN A SUBTLE MANNER
 OR BY DROWNING HIMSELF IN THE WATERTANK
 BUT SOMEBODY WHO'D GIVEN MY UNCLE SOL A VICTOR     
 VICTROLA AND RECORDS WHILE HE LIVED PRESENTED TO
 HIM UPON THE AUSPICIOUS OCCASION OF HIS DECEASE A
 SCRUMPTIOUS NOT TO MENTION SPLENDIFEROUS FUNERAL WITH
 TALL BOYS IN BLACK GLOVES AND FLOWERS AND EVERYTHING AND
 I REMEMBER WE ALL CRIED LIKE THE MISSOURI
 WHEN MY UNCLE SOL'S COFFIN LURCHED BECAUSE     
 SOMEBODY PRESSED A BUTTON
 (AND DOWN WENT
 MY UNCLE
 SOL
 AND STARTED A WORM FARM)
           E. E. CUMMINGS
 Job cpu time:       0 days  9 hours  4 minutes 44.2 seconds.
 Elapsed time:       0 days  0 hours 11 minutes 28.5 seconds.
 File lengths (MBytes):  RWF=   1517 Int=      0 D2E=      0 Chk=    171 Scr=      1
 Normal termination of Gaussian 16 at Wed Sep 18 20:12:49 2019.
