 Entering Gaussian System, Link 0=g16
 Initial command:
 /home1/apps/gaussian/16rA.03/g16/l1.exe "/scratch/01990/pengzhi/4328832/Gau-374943.inp" -scrdir="/scratch/01990/pengzhi/4328832/"
 Entering Link 1 = /home1/apps/gaussian/16rA.03/g16/l1.exe PID=    374945.
  
 Copyright (c) 1988,1990,1992,1993,1995,1998,2003,2009,2016,
            Gaussian, Inc.  All Rights Reserved.
  
 This is part of the Gaussian(R) 16 program.  It is based on
 the Gaussian(R) 09 system (copyright 2009, Gaussian, Inc.),
 the Gaussian(R) 03 system (copyright 2003, Gaussian, Inc.),
 the Gaussian(R) 98 system (copyright 1998, Gaussian, Inc.),
 the Gaussian(R) 94 system (copyright 1995, Gaussian, Inc.),
 the Gaussian 92(TM) system (copyright 1992, Gaussian, Inc.),
 the Gaussian 90(TM) system (copyright 1990, Gaussian, Inc.),
 the Gaussian 88(TM) system (copyright 1988, Gaussian, Inc.),
 the Gaussian 86(TM) system (copyright 1986, Carnegie Mellon
 University), and the Gaussian 82(TM) system (copyright 1983,
 Carnegie Mellon University). Gaussian is a federally registered
 trademark of Gaussian, Inc.
  
 This software contains proprietary and confidential information,
 including trade secrets, belonging to Gaussian, Inc.
  
 This software is provided under written license and may be
 used, copied, transmitted, or stored only in accord with that
 written license.
  
 The following legend is applicable only to US Government
 contracts under FAR:
  
                    RESTRICTED RIGHTS LEGEND
  
 Use, reproduction and disclosure by the US Government is
 subject to restrictions as set forth in subparagraphs (a)
 and (c) of the Commercial Computer Software - Restricted
 Rights clause in FAR 52.227-19.
  
 Gaussian, Inc.
 340 Quinnipiac St., Bldg. 40, Wallingford CT 06492
  
  
 ---------------------------------------------------------------
 Warning -- This program may not be used in any manner that
 competes with the business of Gaussian, Inc. or will provide
 assistance to any competitor of Gaussian, Inc.  The licensee
 of this program is prohibited from giving any competitor of
 Gaussian, Inc. access to this program.  By using this program,
 the user acknowledges that Gaussian, Inc. is engaged in the
 business of creating and licensing software in the field of
 computational chemistry and represents and warrants to the
 licensee that it is not a competitor of Gaussian, Inc. and that
 it will not use this program in any manner prohibited above.
 ---------------------------------------------------------------
  

 Cite this work as:
 Gaussian 16, Revision A.03,
 M. J. Frisch, G. W. Trucks, H. B. Schlegel, G. E. Scuseria, 
 M. A. Robb, J. R. Cheeseman, G. Scalmani, V. Barone, 
 G. A. Petersson, H. Nakatsuji, X. Li, M. Caricato, A. V. Marenich, 
 J. Bloino, B. G. Janesko, R. Gomperts, B. Mennucci, H. P. Hratchian, 
 J. V. Ortiz, A. F. Izmaylov, J. L. Sonnenberg, D. Williams-Young, 
 F. Ding, F. Lipparini, F. Egidi, J. Goings, B. Peng, A. Petrone, 
 T. Henderson, D. Ranasinghe, V. G. Zakrzewski, J. Gao, N. Rega, 
 G. Zheng, W. Liang, M. Hada, M. Ehara, K. Toyota, R. Fukuda, 
 J. Hasegawa, M. Ishida, T. Nakajima, Y. Honda, O. Kitao, H. Nakai, 
 T. Vreven, K. Throssell, J. A. Montgomery, Jr., J. E. Peralta, 
 F. Ogliaro, M. J. Bearpark, J. J. Heyd, E. N. Brothers, K. N. Kudin, 
 V. N. Staroverov, T. A. Keith, R. Kobayashi, J. Normand, 
 K. Raghavachari, A. P. Rendell, J. C. Burant, S. S. Iyengar, 
 J. Tomasi, M. Cossi, J. M. Millam, M. Klene, C. Adamo, R. Cammi, 
 J. W. Ochterski, R. L. Martin, K. Morokuma, O. Farkas, 
 J. B. Foresman, and D. J. Fox, Gaussian, Inc., Wallingford CT, 2016.
 
 ******************************************
 Gaussian 16:  ES64L-G16RevA.03 25-Dec-2016
                14-Sep-2019 
 ******************************************
 %chk=holoCaM_loop3_93.0.chk
 %nprocshared=48
 Will use up to   48 processors via shared memory.
 %mem=10GB
 %nosave
 ----------------------------------------------------------------------
 #b3lyp/svp scf=(tight,noincore) Test #IOP(5/87=12) Density=Current Pop
 =(MK,readradii) iop(6/33=2) iop(6/42=6)
 ----------------------------------------------------------------------
 1/30=1,38=1,172=1/1;
 2/12=2,17=6,18=5,40=1/2;
 3/5=18,7=101,11=2,25=1,30=1,74=-5/1,2,3;
 4//1;
 5/5=4,32=2,38=5,87=12/2;
 6/7=2,8=2,9=2,10=2,15=8,20=101,22=-1,28=1,33=2,42=6/1,2;
 99/5=1,9=1/99;
 ------------------
 holoCaM_loop3_93.0
 ------------------
 Symbolic Z-matrix:
 Charge =  0 Multiplicity = 1
 C                     90.94     56.1      4.92 
 C                     92.3      56.52     4.38 
 O                     93.24     55.74     4.18 
 H                     90.196    56.173    4.126 
 H                     90.992    55.071    5.275 
 H                     90.657    56.756    5.744 
 N                     92.55     57.82     4.23 
 C                     93.77     58.47     3.79 
 C                     94.85     58.32     4.85 
 O                     94.64     58.61     6.03 
 C                     93.41     59.9      3.37 
 C                     94.66     60.65     2.96 
 O                     94.53     61.77     2.41 
 O                     95.83     60.22     3.05 
 H                     91.74     58.38     4.44 
 H                     94.07     57.98     2.86 
 H                     92.92     60.41     4.2 
 H                     92.84     59.74     2.45 
 N                     96.03     57.85     4.44 
 C                     97.07     57.33     5.29 
 C                     98.03     58.42     5.75 
 O                     98.85     58.17     6.62 
 C                     97.77     56.1      4.7 
 C                     96.83     54.96     4.34 
 C                     97.57     53.8      3.68 
 C                     98.52     53.1      4.65 
 N                     99.78     52.72     3.99 
 H                     96.12     57.75     3.43 
 H                     96.66     56.85     6.17 
 H                     98.5      55.73     5.42 
 H                     98.41     56.48     3.9 
 H                     95.99     55.32     3.73 
 H                     96.41     54.62     5.28 
 H                     98.12     54.22     2.84 
 H                     96.85     53.01     3.47 
 H                     98.07     52.17     4.98 
 H                     98.75     53.64     5.57 
 H                     100.2     51.96     4.5 
 H                     99.59     52.4      3.05 
 H                     100.48    53.4      3.74 
 N                     97.96     59.62     5.16 
 C                     98.61     60.85     5.58 
 C                     97.76     62.12     5.66 
 O                     98.17     63.11     6.26 
 C                     99.78     61.22     4.67 
 C                     99.54     61.37     3.18 
 O                     100.54    61.34     2.42 
 O                     98.37     61.49     2.77 
 H                     97.3      59.61     4.4 
 H                     98.95     60.68     6.6 
 H                     100.52    60.43     4.77 
 H                     100.23    62.11     5.1 
 N                     96.5      61.98     5.25 
 C                     95.51     63.02     5.39 
 C                     95.68     64.27     4.54 
 O                     95.11     65.31     4.87 
 H                     96.17     61.09     4.89 
 H                     95.48     63.4      6.41 
 H                     94.54     62.55     5.21 
 N                     96.41     64.25     3.42 
 C                     96.7      65.35     2.52 
 C                     95.46     65.73     1.73 
 O                     95.53     66.58     0.84 
 C                     97.87     64.89     1.65 
 C                     97.65     63.93     0.5 
 N                     98.48     64.08    -0.54 
 O                     96.69     63.16     0.5 
 H                     96.62     63.28     3.21 
 H                     96.93     66.25     3.08 
 H                     98.6      64.44     2.33 
 H                     98.27     65.77     1.15 
 H                     99.3      64.68    -0.53 
 H                     98.29     63.43    -1.28 
 N                     94.33     65.06     1.96 
 C                     93.13     65.31     1.2 
 C                     92.95     64.56    -0.12 
 O                     92.07     64.95    -0.88 
 H                     94.3      64.26     2.58 
 H                     92.9      66.35     0.97 
 H                     92.32     65.11     1.9 
 N                     93.7      63.49    -0.36 
 C                     93.6      62.65    -1.54 
 C                     93.73     61.18    -1.21 
 O                     94.59     60.83    -0.4 
 C                     94.66     62.89    -2.61 
 C                     94.75     64.3     -3.13 
 C                     95.82     65.15    -2.82 
 C                     93.62     64.88    -3.72 
 C                     95.78     66.54    -3.01 
 C                     93.59     66.25    -4. 
 C                     94.67     67.1     -3.67 
 O                     94.6      68.44    -3.92 
 H                     94.51     63.36     0.24 
 H                     92.64     62.86    -2. 
 H                     94.48     62.2     -3.43 
 H                     95.62     62.5     -2.24 
 H                     96.64     64.7     -2.28 
 H                     92.81     64.21    -3.95 
 H                     96.69     67.08    -2.78 
 H                     92.73     66.65    -4.53 
 H                     93.72     68.65    -4.25 
 N                     92.95     60.32    -1.89 
 C                     93.23     58.91    -2.04 
 C                     93.9      58.67    -3.38 
 O                     93.57     59.21    -4.43 
 C                     92.02     58.03    -1.7 
 C                     91.29     58.29    -0.39 
 C                     92.31     56.55    -1.95 
 C                     91.87     57.67     0.87 
 H                     92.33     60.65    -2.61 
 H                     93.95     58.66    -1.26 
 H                     91.33     58.28    -2.51 
 H                     90.25     57.95    -0.45 
 H                     91.25     59.36    -0.22 
 H                     91.51     55.95    -1.51 
 H                     92.21     56.37    -3.02 
 H                     93.33     56.32    -1.63 
 H                     92.92     57.97     0.95 
 H                     91.36     58.02     1.77 
 H                     91.89     56.58     0.94 
 N                     94.97     57.87    -3.42 
 C                     95.67     57.32    -4.56 
 C                     95.56     55.81    -4.68 
 O                     95.09     55.18    -3.73 
 C                     97.09     57.86    -4.44 
 O                     97.68     57.68    -3.17 
 H                     95.34     57.55    -2.53 
 H                     95.32     57.73    -5.51 
 H                     97.22     58.89    -4.76 
 H                     97.64     57.33    -5.22 
 H                     98.64     57.72    -3.19 
 N                     95.83     55.14    -5.8 
 C                     95.79     53.7     -5.89 
 C                     96.74     52.96    -4.96 
 O                     96.36     51.91    -4.43 
 C                     95.99     53.29    -7.35 
 H                     96.1      55.66    -6.63 
 H                     94.8      53.31    -5.64 
 H                     96.01     52.2     -7.41 
 H                     95.17     53.61    -7.99 
 H                     96.96     53.69    -7.64 
 N                     97.86     53.59    -4.59 
 C                     98.68     53.07    -3.51 
 C                     98.01     53.      -2.15 
 O                     98.32     52.13    -1.34 
 C                     99.98     53.87    -3.5 
 H                     98.18     54.43    -5.04 
 H                     99.05     52.08    -3.79 
 H                     99.71     54.9     -3.3 
 H                     100.63    53.59    -2.66 
 H                     100.51    53.75    -4.44 
 N                     97.11     53.94    -1.85 
 C                     96.38     53.88    -0.6 
 C                     95.18     52.94    -0.71 
 O                     94.96     52.16     0.21 
 C                     96.13     55.29    -0.09 
 C                     97.34     56.22     0.03 
 C                     96.88     57.6      0.48 
 O                     97.79     58.26     1.02 
 O                     95.78     58.14     0.23 
 H                     96.8      54.54    -2.6 
 H                     97.04     53.48     0.16 
 H                     95.64     55.27     0.88 
 H                     95.42     55.7     -0.79 
 H                     97.91     56.22    -0.9 
 H                     98.02     55.67     0.69 
 N                     94.47     53.01    -1.84 
 C                     93.11     52.52    -1.95 
 H                     92.467    53.316   -2.324 
 H                     93.082    51.677   -2.64 
 H                     92.758    52.2     -0.969 
 H                     94.8      53.69    -2.5 
 Ca                    96.88     60.57     0.76 
 O                     96.95     60.08    -1.832 
 H                     97.29     60.79    -2.382 
 H                     97.05     59.29    -2.362 
 
 Stoichiometry    C54H83CaN15O23
 Framework group  C1[X(C54H83CaN15O23)]
 Deg. of freedom   522
 Full point group                 C1      NOp   1
 Largest Abelian subgroup         C1      NOp   1
 Largest concise Abelian subgroup C1      NOp   1
                         Standard orientation:                         
 ---------------------------------------------------------------------
 Center     Atomic      Atomic             Coordinates (Angstroms)
 Number     Number       Type             X           Y           Z
 ---------------------------------------------------------------------
      1          6           0        1.215916    4.011492    5.985496
      2          6           0        1.073611    3.691472    4.503965
      3          8           0        1.938655    3.936499    3.653281
      4          1           0        1.339615    3.084638    6.546692
      5          1           0        2.087972    4.647012    6.137827
      6          1           0        0.321788    4.529951    6.333542
      7          7           0       -0.098258    3.237226    4.061943
      8          6           0       -0.498985    2.913770    2.705737
      9          6           0       -0.608401    4.185420    1.879036
     10          8           0       -1.258993    5.156263    2.272475
     11          6           0       -1.752640    2.034861    2.787997
     12          6           0       -2.255499    1.717592    1.395311
     13          8           0       -3.159537    0.856975    1.269404
     14          8           0       -1.796138    2.184612    0.330990
     15          1           0       -0.748709    3.093120    4.816891
     16          1           0        0.271078    2.253010    2.299045
     17          1           0       -2.523851    2.554356    3.357609
     18          1           0       -1.357432    1.095630    3.186189
     19          7           0        0.042624    4.199873    0.713979
     20          6           0        0.346158    5.372147   -0.065854
     21          6           0       -0.765283    5.704627   -1.053505
     22          8           0       -0.739047    6.769665   -1.650838
     23          6           0        1.741779    5.328186   -0.699344
     24          6           0        2.871445    5.107633    0.294644
     25          6           0        4.224696    4.987390   -0.400376
     26          6           0        4.656405    6.302739   -1.046042
     27          7           0        5.303834    6.076303   -2.348794
     28          1           0        0.452703    3.306704    0.445119
     29          1           0        0.505178    6.237926    0.565049
     30          1           0        1.921834    6.267477   -1.222327
     31          1           0        1.668685    4.616712   -1.525456
     32          1           0        2.659840    4.249239    0.947088
     33          1           0        2.878481    5.987269    0.928513
     34          1           0        4.119814    4.207180   -1.151890
     35          1           0        4.990850    4.856070    0.362751
     36          1           0        5.408392    6.774913   -0.423252
     37          1           0        3.877501    7.058032   -1.163263
     38          1           0        5.897706    6.861754   -2.559705
     39          1           0        5.882619    5.248644   -2.303095
     40          1           0        4.781565    5.805593   -3.166627
     41          7           0       -1.729026    4.797310   -1.255927
     42          6           0       -2.981991    4.983567   -1.968097
     43          6           0       -4.269603    4.507212   -1.292123
     44          8           0       -5.365845    4.876145   -1.704848
     45          6           0       -2.976345    4.290470   -3.329525
     46          6           0       -2.678950    2.805066   -3.402531
     47          8           0       -2.350756    2.327821   -4.517441
     48          8           0       -2.745994    2.127942   -2.359263
     49          1           0       -1.531271    3.944501   -0.759026
     50          1           0       -3.109854    6.058734   -2.080197
     51          1           0       -2.207036    4.773492   -3.926646
     52          1           0       -3.922914    4.538282   -3.800796
     53          7           0       -4.095778    3.884053   -0.127323
     54          6           0       -5.192729    3.497925    0.726436
     55          6           0       -6.108279    2.387432    0.234019
     56          8           0       -7.235174    2.272035    0.715880
     57          1           0       -3.162574    3.728245    0.240716
     58          1           0       -5.867744    4.334073    0.902249
     59          1           0       -4.756430    3.247773    1.696625
     60          7           0       -5.697544    1.511529   -0.688906
     61          6           0       -6.447288    0.423859   -1.288037
     62          6           0       -6.649658   -0.697180   -0.283837
     63          8           0       -7.179818   -1.753373   -0.634387
     64          6           0       -5.665667    0.004348   -2.533219
     65          6           0       -4.416853   -0.843593   -2.415067
     66          7           0       -4.185327   -1.671022   -3.442080
     67          8           0       -3.750067   -0.838284   -1.380722
     68          1           0       -4.698015    1.638670   -0.806707
     69          1           0       -7.457905    0.741013   -1.521633
     70          1           0       -5.397399    0.929120   -3.053439
     71          1           0       -6.321506   -0.623235   -3.133565
     72          1           0       -4.703130   -1.649804   -4.316111
     73          1           0       -3.354357   -2.218261   -3.314728
     74          7           0       -6.159634   -0.543774    0.947034
     75          6           0       -6.245044   -1.590920    1.935108
     76          6           0       -5.140950   -2.648235    1.954172
     77          8           0       -5.337829   -3.663937    2.612722
     78          1           0       -5.591649    0.255359    1.200173
     79          1           0       -7.177747   -2.152686    1.978512
     80          1           0       -6.323700   -1.061805    2.883765
     81          7           0       -4.001022   -2.400278    1.318499
     82          6           0       -2.848930   -3.283614    1.298478
     83          6           0       -1.545189   -2.528477    1.427811
     84          8           0       -1.402940   -1.482001    0.793105
     85          6           0       -2.678252   -4.113390    0.030234
     86          6           0       -3.852102   -4.979576   -0.341785
     87          6           0       -4.682338   -4.694117   -1.433902
     88          6           0       -4.298221   -5.946570    0.567776
     89          6           0       -5.946906   -5.275894   -1.613354
     90          6           0       -5.515583   -6.604339    0.363890
     91          6           0       -6.351269   -6.298003   -0.734103
     92          8           0       -7.552007   -6.928173   -0.889389
     93          1           0       -4.006792   -1.623370    0.663228
     94          1           0       -2.972044   -3.986188    2.116117
     95          1           0       -1.784143   -4.721602    0.137693
     96          1           0       -2.356659   -3.443485   -0.781188
     97          1           0       -4.365187   -3.879823   -2.068598
     98          1           0       -3.645948   -6.150752    1.398890
     99          1           0       -6.469010   -5.012421   -2.524721
    100          1           0       -5.790997   -7.403987    1.045953
    101          1           0       -7.709531   -7.491714   -0.124531
    102          7           0       -0.572762   -3.091450    2.167978
    103          6           0        0.830956   -2.767508    2.051191
    104          6           0        1.513909   -3.799270    1.173044
    105          8           0        1.300251   -5.005514    1.221256
    106          6           0        1.481376   -2.469583    3.408502
    107          6           0        0.784581   -1.484855    4.336612
    108          6           0        2.982842   -2.216721    3.271895
    109          6           0        1.026734   -0.004335    4.096147
    110          1           0       -0.707446   -3.994845    2.589212
    111          1           0        0.878020   -1.808665    1.533789
    112          1           0        1.445506   -3.449713    3.890953
    113          1           0        1.056004   -1.675729    5.380976
    114          1           0       -0.286260   -1.639880    4.268303
    115          1           0        3.364283   -1.813918    4.213093
    116          1           0        3.474498   -3.185391    3.186733
    117          1           0        3.171819   -1.625617    2.371572
    118          1           0        0.787849    0.218802    3.051138
    119          1           0        0.384705    0.621519    4.719608
    120          1           0        2.041783    0.375696    4.232719
    121          7           0        2.357712   -3.370404    0.229343
    122          6           0        3.275871   -4.120755   -0.598943
    123          6           0        4.739191   -3.827271   -0.317585
    124          8           0        5.015211   -2.866892    0.404762
    125          6           0        2.821668   -3.846208   -2.027482
    126          8           0        2.643583   -2.479399   -2.333290
    127          1           0        2.414093   -2.367057    0.082660
    128          1           0        3.153724   -5.201210   -0.495030
    129          1           0        1.950172   -4.408827   -2.350210
    130          1           0        3.600600   -4.300022   -2.643207
    131          1           0        2.676168   -2.295533   -3.276016
    132          7           0        5.736321   -4.620621   -0.708132
    133          6           0        7.128684   -4.303497   -0.498232
    134          6           0        7.610620   -3.014055   -1.146366
    135          8           0        8.420063   -2.305648   -0.537464
    136          6           0        7.978246   -5.503468   -0.920148
    137          1           0        5.514614   -5.482363   -1.198486
    138          1           0        7.356083   -4.179963    0.563713
    139          1           0        9.033077   -5.244645   -0.808599
    140          1           0        7.815151   -6.373989   -0.287699
    141          1           0        7.752249   -5.671600   -1.971650
    142          7           0        6.974304   -2.598882   -2.246790
    143          6           0        7.192686   -1.261182   -2.768391
    144          6           0        6.798006   -0.122520   -1.845853
    145          8           0        7.397151    0.949447   -1.877653
    146          6           0        6.517176   -1.189951   -4.135400
    147          1           0        6.335780   -3.186284   -2.754476
    148          1           0        8.243370   -1.157963   -3.052658
    149          1           0        5.459700   -1.356865   -3.969018
    150          1           0        6.569670   -0.182222   -4.569251
    151          1           0        6.954368   -1.914122   -4.816091
    152          7           0        5.753101   -0.310948   -1.035748
    153          6           0        5.378558    0.708938   -0.077338
    154          6           0        6.224334    0.606608    1.191477
    155          8           0        6.668767    1.637422    1.684530
    156          6           0        3.866691    0.727333    0.079568
    157          6           0        3.028022    0.844061   -1.195740
    158          6           0        1.548907    0.768264   -0.842226
    159          8           0        0.817981    1.286608   -1.709616
    160          8           0        1.038745    0.136347    0.108834
    161          1           0        5.392003   -1.250107   -0.957088
    162          1           0        5.570163    1.678468   -0.520619
    163          1           0        3.555957    1.528244    0.745440
    164          1           0        3.643872   -0.200243    0.581718
    165          1           0        3.350880    0.103964   -1.929101
    166          1           0        3.394020    1.767514   -1.658104
    167          7           0        6.455984   -0.625092    1.655325
    168          6           0        6.863672   -0.891181    3.020897
    169          1           0        6.179024   -1.609766    3.470155
    170          1           0        7.873501   -1.300762    3.025561
    171          1           0        6.843734    0.036140    3.593908
    172          1           0        6.034338   -1.360513    1.118416
    173         20           0       -1.357260    0.183805   -1.176743
    174          8           0       -0.094048   -2.077795   -1.679657
    175          1           0       -0.577173   -2.716968   -2.209042
    176          1           0        0.825081   -2.324765   -1.775613
 ---------------------------------------------------------------------
 Rotational constants (GHZ):           0.0230263           0.0156602           0.0118415
 Standard basis: SVP (5D, 7F)
 There are  1809 symmetry adapted cartesian basis functions of A   symmetry.
 There are  1717 symmetry adapted basis functions of A   symmetry.
  1717 basis functions,  2922 primitive gaussians,  1809 cartesian basis functions
   358 alpha electrons      358 beta electrons
       nuclear repulsion energy     21773.3364210390 Hartrees.
 NAtoms=  176 NActive=  176 NUniq=  176 SFac= 1.00D+00 NAtFMM=   60 NAOKFM=T Big=T
 Integral buffers will be    131072 words long.
 Raffenetti 2 integral format.
 Two-electron integral symmetry is turned on.
 One-electron integrals computed using PRISM.
 NBasis=  1717 RedAO= T EigKep=  2.77D-04  NBF=  1717
 NBsUse=  1717 1.00D-06 EigRej= -1.00D+00 NBFU=  1717
 ExpMin= 1.98D-02 ExpMax= 3.51D+04 ExpMxC= 5.28D+03 IAcc=3 IRadAn=         5 AccDes= 0.00D+00
 Harris functional with IExCor=  402 and IRadAn=       5 diagonalized for initial guess.
 HarFok:  IExCor=  402 AccDes= 0.00D+00 IRadAn=         5 IDoV= 1 UseB2=F ITyADJ=14
 ICtDFT=  3500011 ScaDFX=  1.000000  1.000000  1.000000  1.000000
 FoFCou: FMM=F IPFlag=           0 FMFlag=      100000 FMFlg1=        2001
         NFxFlg=           0 DoJE=T BraDBF=F KetDBF=T FulRan=T
         wScrn=  0.000000 ICntrl=       500 IOpCl=  0 I1Cent=   200000004 NGrid=           0
         NMat0=    1 NMatS0=      1 NMatT0=    0 NMatD0=    1 NMtDS0=    0 NMtDT0=    0
 Petite list used in FoFCou.
 Requested convergence on RMS density matrix=1.00D-08 within 128 cycles.
 Requested convergence on MAX density matrix=1.00D-06.
 Requested convergence on             energy=1.00D-06.
 No special actions if energy rises.
 EnCoef did     4 forward-backward iterations
 EnCoef did   100 forward-backward iterations
 EnCoef did     4 forward-backward iterations
 EnCoef did     1 forward-backward iterations
 SCF Done:  E(RB3LYP) =  -5333.55873756     A.U. after   20 cycles
            NFock= 20  Conv=0.29D-08     -V/T= 2.0082
 SCF density gives NOpUse=  1 NOpAll=  1.
 Hyperfine terms turned off by default for NAtoms > 100.

 **********************************************************************

            Population analysis using the SCF density.

 **********************************************************************

 Orbital symmetries:
 BldTbl:  Degeneracy threshold= 1.00D-02
       Occupied  (A) (A) (A) (A) (A) (A) (A) (A) (A) (A) (A) (A)
                 (A) (A) (A) (A) (A) (A) (A) (A) (A) (A) (A) (A)
                 (A) (A) (A) (A) (A) (A) (A) (A) (A) (A) (A) (A)
                 (A) (A) (A) (A) (A) (A) (A) (A) (A) (A) (A) (A)
                 (A) (A) (A) (A) (A) (A) (A) (A) (A) (A) (A) (A)
                 (A) (A) (A) (A) (A) (A) (A) (A) (A) (A) (A) (A)
                 (A) (A) (A) (A) (A) (A) (A) (A) (A) (A) (A) (A)
                 (A) (A) (A) (A) (A) (A) (A) (A) (A) (A) (A) (A)
                 (A) (A) (A) (A) (A) (A) (A) (A) (A) (A) (A) (A)
                 (A) (A) (A) (A) (A) (A) (A) (A) (A) (A) (A) (A)
                 (A) (A) (A) (A) (A) (A) (A) (A) (A) (A) (A) (A)
                 (A) (A) (A) (A) (A) (A) (A) (A) (A) (A) (A) (A)
                 (A) (A) (A) (A) (A) (A) (A) (A) (A) (A) (A) (A)
                 (A) (A) (A) (A) (A) (A) (A) (A) (A) (A) (A) (A)
                 (A) (A) (A) (A) (A) (A) (A) (A) (A) (A) (A) (A)
                 (A) (A) (A) (A) (A) (A) (A) (A) (A) (A) (A) (A)
                 (A) (A) (A) (A) (A) (A) (A) (A) (A) (A) (A) (A)
                 (A) (A) (A) (A) (A) (A) (A) (A) (A) (A) (A) (A)
                 (A) (A) (A) (A) (A) (A) (A) (A) (A) (A) (A) (A)
                 (A) (A) (A) (A) (A) (A) (A) (A) (A) (A) (A) (A)
                 (A) (A) (A) (A) (A) (A) (A) (A) (A) (A) (A) (A)
                 (A) (A) (A) (A) (A) (A) (A) (A) (A) (A) (A) (A)
                 (A) (A) (A) (A) (A) (A) (A) (A) (A) (A) (A) (A)
                 (A) (A) (A) (A) (A) (A) (A) (A) (A) (A) (A) (A)
                 (A) (A) (A) (A) (A) (A) (A) (A) (A) (A) (A) (A)
                 (A) (A) (A) (A) (A) (A) (A) (A) (A) (A) (A) (A)
                 (A) (A) (A) (A) (A) (A) (A) (A) (A) (A) (A) (A)
                 (A) (A) (A) (A) (A) (A) (A) (A) (A) (A) (A) (A)
                 (A) (A) (A) (A) (A) (A) (A) (A) (A) (A) (A) (A)
                 (A) (A) (A) (A) (A) (A) (A) (A) (A) (A)
       Virtual   (A) (A) (A) (A) (A) (A) (A) (A) (A) (A) (A) (A)
                 (A) (A) (A) (A) (A) (A) (A) (A) (A) (A) (A) (A)
                 (A) (A) (A) (A) (A) (A) (A) (A) (A) (A) (A) (A)
                 (A) (A) (A) (A) (A) (A) (A) (A) (A) (A) (A) (A)
                 (A) (A) (A) (A) (A) (A) (A) (A) (A) (A) (A) (A)
                 (A) (A) (A) (A) (A) (A) (A) (A) (A) (A) (A) (A)
                 (A) (A) (A) (A) (A) (A) (A) (A) (A) (A) (A) (A)
                 (A) (A) (A) (A) (A) (A) (A) (A) (A) (A) (A) (A)
                 (A) (A) (A) (A) (A) (A) (A) (A) (A) (A) (A) (A)
                 (A) (A) (A) (A) (A) (A) (A) (A) (A) (A) (A) (A)
                 (A) (A) (A) (A) (A) (A) (A) (A) (A) (A) (A) (A)
                 (A) (A) (A) (A) (A) (A) (A) (A) (A) (A) (A) (A)
                 (A) (A) (A) (A) (A) (A) (A) (A) (A) (A) (A) (A)
                 (A) (A) (A) (A) (A) (A) (A) (A) (A) (A) (A) (A)
                 (A) (A) (A) (A) (A) (A) (A) (A) (A) (A) (A) (A)
                 (A) (A) (A) (A) (A) (A) (A) (A) (A) (A) (A) (A)
                 (A) (A) (A) (A) (A) (A) (A) (A) (A) (A) (A) (A)
                 (A) (A) (A) (A) (A) (A) (A) (A) (A) (A) (A) (A)
                 (A) (A) (A) (A) (A) (A) (A) (A) (A) (A) (A) (A)
                 (A) (A) (A) (A) (A) (A) (A) (A) (A) (A) (A) (A)
                 (A) (A) (A) (A) (A) (A) (A) (A) (A) (A) (A) (A)
                 (A) (A) (A) (A) (A) (A) (A) (A) (A) (A) (A) (A)
                 (A) (A) (A) (A) (A) (A) (A) (A) (A) (A) (A) (A)
                 (A) (A) (A) (A) (A) (A) (A) (A) (A) (A) (A) (A)
                 (A) (A) (A) (A) (A) (A) (A) (A) (A) (A) (A) (A)
                 (A) (A) (A) (A) (A) (A) (A) (A) (A) (A) (A) (A)
                 (A) (A) (A) (A) (A) (A) (A) (A) (A) (A) (A) (A)
                 (A) (A) (A) (A) (A) (A) (A) (A) (A) (A) (A) (A)
                 (A) (A) (A) (A) (A) (A) (A) (A) (A) (A) (A) (A)
                 (A) (A) (A) (A) (A) (A) (A) (A) (A) (A) (A) (A)
                 (A) (A) (A) (A) (A) (A) (A) (A) (A) (A) (A) (A)
                 (A) (A) (A) (A) (A) (A) (A) (A) (A) (A) (A) (A)
                 (A) (A) (A) (A) (A) (A) (A) (A) (A) (A) (A) (A)
                 (A) (A) (A) (A) (A) (A) (A) (A) (A) (A) (A) (A)
                 (A) (A) (A) (A) (A) (A) (A) (A) (A) (A) (A) (A)
                 (A) (A) (A) (A) (A) (A) (A) (A) (A) (A) (A) (A)
                 (A) (A) (A) (A) (A) (A) (A) (A) (A) (A) (A) (A)
                 (A) (A) (A) (A) (A) (A) (A) (A) (A) (A) (A) (A)
                 (A) (A) (A) (A) (A) (A) (A) (A) (A) (A) (A) (A)
                 (A) (A) (A) (A) (A) (A) (A) (A) (A) (A) (A) (A)
                 (A) (A) (A) (A) (A) (A) (A) (A) (A) (A) (A) (A)
                 (A) (A) (A) (A) (A) (A) (A) (A) (A) (A) (A) (A)
                 (A) (A) (A) (A) (A) (A) (A) (A) (A) (A) (A) (A)
                 (A) (A) (A) (A) (A) (A) (A) (A) (A) (A) (A) (A)
                 (A) (A) (A) (A) (A) (A) (A) (A) (A) (A) (A) (A)
                 (A) (A) (A) (A) (A) (A) (A) (A) (A) (A) (A) (A)
                 (A) (A) (A) (A) (A) (A) (A) (A) (A) (A) (A) (A)
                 (A) (A) (A) (A) (A) (A) (A) (A) (A) (A) (A) (A)
                 (A) (A) (A) (A) (A) (A) (A) (A) (A) (A) (A) (A)
                 (A) (A) (A) (A) (A) (A) (A) (A) (A) (A) (A) (A)
                 (A) (A) (A) (A) (A) (A) (A) (A) (A) (A) (A) (A)
                 (A) (A) (A) (A) (A) (A) (A) (A) (A) (A) (A) (A)
                 (A) (A) (A) (A) (A) (A) (A) (A) (A) (A) (A) (A)
                 (A) (A) (A) (A) (A) (A) (A) (A) (A) (A) (A) (A)
                 (A) (A) (A) (A) (A) (A) (A) (A) (A) (A) (A) (A)
                 (A) (A) (A) (A) (A) (A) (A) (A) (A) (A) (A) (A)
                 (A) (A) (A) (A) (A) (A) (A) (A) (A) (A) (A) (A)
                 (A) (A) (A) (A) (A) (A) (A) (A) (A) (A) (A) (A)
                 (A) (A) (A) (A) (A) (A) (A) (A) (A) (A) (A) (A)
                 (A) (A) (A) (A) (A) (A) (A) (A) (A) (A) (A) (A)
                 (A) (A) (A) (A) (A) (A) (A) (A) (A) (A) (A) (A)
                 (A) (A) (A) (A) (A) (A) (A) (A) (A) (A) (A) (A)
                 (A) (A) (A) (A) (A) (A) (A) (A) (A) (A) (A) (A)
                 (A) (A) (A) (A) (A) (A) (A) (A) (A) (A) (A) (A)
                 (A) (A) (A) (A) (A) (A) (A) (A) (A) (A) (A) (A)
                 (A) (A) (A) (A) (A) (A) (A) (A) (A) (A) (A) (A)
                 (A) (A) (A) (A) (A) (A) (A) (A) (A) (A) (A) (A)
                 (A) (A) (A) (A) (A) (A) (A) (A) (A) (A) (A) (A)
                 (A) (A) (A) (A) (A) (A) (A) (A) (A) (A) (A) (A)
                 (A) (A) (A) (A) (A) (A) (A) (A) (A) (A) (A) (A)
                 (A) (A) (A) (A) (A) (A) (A) (A) (A) (A) (A) (A)
                 (A) (A) (A) (A) (A) (A) (A) (A) (A) (A) (A) (A)
                 (A) (A) (A) (A) (A) (A) (A) (A) (A) (A) (A) (A)
                 (A) (A) (A) (A) (A) (A) (A) (A) (A) (A) (A) (A)
                 (A) (A) (A) (A) (A) (A) (A) (A) (A) (A) (A) (A)
                 (A) (A) (A) (A) (A) (A) (A) (A) (A) (A) (A) (A)
                 (A) (A) (A) (A) (A) (A) (A) (A) (A) (A) (A) (A)
                 (A) (A) (A) (A) (A) (A) (A) (A) (A) (A) (A) (A)
                 (A) (A) (A) (A) (A) (A) (A) (A) (A) (A) (A) (A)
                 (A) (A) (A) (A) (A) (A) (A) (A) (A) (A) (A) (A)
                 (A) (A) (A) (A) (A) (A) (A) (A) (A) (A) (A) (A)
                 (A) (A) (A) (A) (A) (A) (A) (A) (A) (A) (A) (A)
                 (A) (A) (A) (A) (A) (A) (A) (A) (A) (A) (A) (A)
                 (A) (A) (A) (A) (A) (A) (A) (A) (A) (A) (A) (A)
                 (A) (A) (A) (A) (A) (A) (A) (A) (A) (A) (A) (A)
                 (A) (A) (A) (A) (A) (A) (A) (A) (A) (A) (A) (A)
                 (A) (A) (A) (A) (A) (A) (A) (A) (A) (A) (A) (A)
                 (A) (A) (A) (A) (A) (A) (A) (A) (A) (A) (A) (A)
                 (A) (A) (A) (A) (A) (A) (A) (A) (A) (A) (A) (A)
                 (A) (A) (A) (A) (A) (A) (A) (A) (A) (A) (A) (A)
                 (A) (A) (A) (A) (A) (A) (A) (A) (A) (A) (A) (A)
                 (A) (A) (A) (A) (A) (A) (A) (A) (A) (A) (A) (A)
                 (A) (A) (A) (A) (A) (A) (A) (A) (A) (A) (A) (A)
                 (A) (A) (A) (A) (A) (A) (A) (A) (A) (A) (A) (A)
                 (A) (A) (A) (A) (A) (A) (A) (A) (A) (A) (A) (A)
                 (A) (A) (A) (A) (A) (A) (A) (A) (A) (A) (A) (A)
                 (A) (A) (A) (A) (A) (A) (A) (A) (A) (A) (A) (A)
                 (A) (A) (A) (A) (A) (A) (A) (A) (A) (A) (A) (A)
                 (A) (A) (A) (A) (A) (A) (A) (A) (A) (A) (A) (A)
                 (A) (A) (A) (A) (A) (A) (A) (A) (A) (A) (A) (A)
                 (A) (A) (A) (A) (A) (A) (A) (A) (A) (A) (A) (A)
                 (A) (A) (A) (A) (A) (A) (A) (A) (A) (A) (A) (A)
                 (A) (A) (A) (A) (A) (A) (A) (A) (A) (A) (A) (A)
                 (A) (A) (A) (A) (A) (A) (A) (A) (A) (A) (A) (A)
                 (A) (A) (A) (A) (A) (A) (A) (A) (A) (A) (A) (A)
                 (A) (A) (A) (A) (A) (A) (A) (A) (A) (A) (A) (A)
                 (A) (A) (A) (A) (A) (A) (A) (A) (A) (A) (A) (A)
                 (A) (A) (A) (A) (A) (A) (A) (A) (A) (A) (A) (A)
                 (A) (A) (A) (A) (A) (A) (A) (A) (A) (A) (A) (A)
                 (A) (A) (A) (A) (A) (A) (A) (A) (A) (A) (A) (A)
                 (A) (A) (A) (A) (A) (A) (A) (A) (A) (A) (A) (A)
                 (A) (A) (A) (A) (A) (A) (A) (A) (A) (A) (A) (A)
                 (A) (A) (A) (A) (A) (A) (A) (A) (A) (A) (A) (A)
                 (A) (A) (A)
 The electronic state is 1-A.
 Alpha  occ. eigenvalues -- -145.35393 -19.22111 -19.18239 -19.16376 -19.14944
 Alpha  occ. eigenvalues --  -19.13338 -19.12680 -19.12186 -19.11473 -19.10695
 Alpha  occ. eigenvalues --  -19.08224 -19.07736 -19.07552 -19.06860 -19.06560
 Alpha  occ. eigenvalues --  -19.05844 -19.05595 -19.05187 -19.04921 -19.04011
 Alpha  occ. eigenvalues --  -19.03855 -19.03245 -19.01570 -18.98857 -15.41136
 Alpha  occ. eigenvalues --  -14.57132 -14.42713 -14.40144 -14.38513 -14.37874
 Alpha  occ. eigenvalues --  -14.36895 -14.36446 -14.33797 -14.33660 -14.32654
 Alpha  occ. eigenvalues --  -14.32320 -14.31394 -14.30137 -14.30046 -14.29470
 Alpha  occ. eigenvalues --  -12.54766 -12.54702 -12.54690 -10.35163 -10.33333
 Alpha  occ. eigenvalues --  -10.32194 -10.31094 -10.30994 -10.30956 -10.29911
 Alpha  occ. eigenvalues --  -10.29845 -10.29658 -10.28094 -10.26852 -10.26847
 Alpha  occ. eigenvalues --  -10.26573 -10.26321 -10.25528 -10.25521 -10.24908
 Alpha  occ. eigenvalues --  -10.24276 -10.24034 -10.24032 -10.23920 -10.23838
 Alpha  occ. eigenvalues --  -10.23822 -10.23152 -10.22943 -10.22724 -10.22569
 Alpha  occ. eigenvalues --  -10.22466 -10.21440 -10.21400 -10.21304 -10.21212
 Alpha  occ. eigenvalues --  -10.21172 -10.20015 -10.20014 -10.19616 -10.19242
 Alpha  occ. eigenvalues --  -10.19017 -10.18910 -10.18885 -10.18818 -10.18594
 Alpha  occ. eigenvalues --  -10.18460 -10.18233 -10.17959 -10.17674 -10.17600
 Alpha  occ. eigenvalues --  -10.17588 -10.17499 -10.17437 -10.17422 -10.17312
 Alpha  occ. eigenvalues --  -10.16800 -10.11605  -1.78100  -1.12606  -1.10307
 Alpha  occ. eigenvalues --   -1.09586  -1.06198  -1.06196  -1.05975  -1.05786
 Alpha  occ. eigenvalues --   -1.05548  -1.04822  -1.04071  -1.03863  -1.03796
 Alpha  occ. eigenvalues --   -1.03484  -1.02065  -1.00976  -1.00869  -0.99989
 Alpha  occ. eigenvalues --   -0.99406  -0.99355  -0.98850  -0.98626  -0.98386
 Alpha  occ. eigenvalues --   -0.97375  -0.96595  -0.96449  -0.95411  -0.94779
 Alpha  occ. eigenvalues --   -0.93859  -0.93381  -0.92723  -0.91722  -0.90409
 Alpha  occ. eigenvalues --   -0.90283  -0.90016  -0.89579  -0.88373  -0.88262
 Alpha  occ. eigenvalues --   -0.87564  -0.87334  -0.86863  -0.85684  -0.84628
 Alpha  occ. eigenvalues --   -0.84572  -0.83409  -0.82576  -0.81534  -0.80618
 Alpha  occ. eigenvalues --   -0.80311  -0.79255  -0.78183  -0.77314  -0.76409
 Alpha  occ. eigenvalues --   -0.75393  -0.74825  -0.73241  -0.72819  -0.72633
 Alpha  occ. eigenvalues --   -0.72432  -0.72412  -0.71926  -0.71404  -0.71036
 Alpha  occ. eigenvalues --   -0.70376  -0.69842  -0.69524  -0.69292  -0.68086
 Alpha  occ. eigenvalues --   -0.67634  -0.66938  -0.66704  -0.65800  -0.64479
 Alpha  occ. eigenvalues --   -0.64423  -0.64183  -0.64080  -0.63393  -0.61707
 Alpha  occ. eigenvalues --   -0.61327  -0.61039  -0.61009  -0.60743  -0.60691
 Alpha  occ. eigenvalues --   -0.60386  -0.59995  -0.59880  -0.58823  -0.58309
 Alpha  occ. eigenvalues --   -0.57969  -0.57837  -0.57554  -0.57184  -0.57138
 Alpha  occ. eigenvalues --   -0.56660  -0.56143  -0.55894  -0.55666  -0.55327
 Alpha  occ. eigenvalues --   -0.55023  -0.54893  -0.54682  -0.54041  -0.53656
 Alpha  occ. eigenvalues --   -0.53603  -0.53188  -0.53102  -0.52616  -0.52409
 Alpha  occ. eigenvalues --   -0.51963  -0.51602  -0.51049  -0.50959  -0.50753
 Alpha  occ. eigenvalues --   -0.50298  -0.50047  -0.49698  -0.49379  -0.49153
 Alpha  occ. eigenvalues --   -0.49096  -0.48858  -0.48334  -0.48101  -0.48023
 Alpha  occ. eigenvalues --   -0.47962  -0.47451  -0.47261  -0.46954  -0.46885
 Alpha  occ. eigenvalues --   -0.46673  -0.46434  -0.46338  -0.45976  -0.45841
 Alpha  occ. eigenvalues --   -0.45429  -0.45268  -0.45100  -0.45081  -0.44906
 Alpha  occ. eigenvalues --   -0.44725  -0.44618  -0.44461  -0.44378  -0.44208
 Alpha  occ. eigenvalues --   -0.44123  -0.43940  -0.43783  -0.43685  -0.43525
 Alpha  occ. eigenvalues --   -0.43477  -0.43317  -0.42985  -0.42799  -0.42644
 Alpha  occ. eigenvalues --   -0.42302  -0.42193  -0.42133  -0.41987  -0.41726
 Alpha  occ. eigenvalues --   -0.41651  -0.41389  -0.41364  -0.41262  -0.41175
 Alpha  occ. eigenvalues --   -0.41026  -0.40834  -0.40709  -0.40663  -0.40418
 Alpha  occ. eigenvalues --   -0.40323  -0.39817  -0.39798  -0.39750  -0.39500
 Alpha  occ. eigenvalues --   -0.39293  -0.39185  -0.38893  -0.38826  -0.38668
 Alpha  occ. eigenvalues --   -0.38648  -0.38565  -0.38465  -0.38252  -0.38070
 Alpha  occ. eigenvalues --   -0.38012  -0.37913  -0.37817  -0.37633  -0.37482
 Alpha  occ. eigenvalues --   -0.37284  -0.36978  -0.36917  -0.36783  -0.36666
 Alpha  occ. eigenvalues --   -0.36631  -0.36484  -0.35885  -0.35784  -0.35673
 Alpha  occ. eigenvalues --   -0.35577  -0.35400  -0.35235  -0.35086  -0.34947
 Alpha  occ. eigenvalues --   -0.34879  -0.34684  -0.34597  -0.34052  -0.33988
 Alpha  occ. eigenvalues --   -0.33698  -0.33496  -0.33153  -0.33068  -0.32878
 Alpha  occ. eigenvalues --   -0.32674  -0.32449  -0.32102  -0.32072  -0.31882
 Alpha  occ. eigenvalues --   -0.31766  -0.31568  -0.31240  -0.31162  -0.30848
 Alpha  occ. eigenvalues --   -0.30375  -0.29558  -0.29280  -0.28866  -0.28752
 Alpha  occ. eigenvalues --   -0.28636  -0.28586  -0.28190  -0.27702  -0.26979
 Alpha  occ. eigenvalues --   -0.26461  -0.25860  -0.25560  -0.24898  -0.24814
 Alpha  occ. eigenvalues --   -0.24632  -0.24581  -0.24180  -0.23806  -0.23489
 Alpha  occ. eigenvalues --   -0.23321  -0.22955  -0.22836  -0.22744  -0.22690
 Alpha  occ. eigenvalues --   -0.22390  -0.22234  -0.21479  -0.20848  -0.20675
 Alpha  occ. eigenvalues --   -0.20603  -0.19784  -0.19169  -0.18772  -0.18622
 Alpha  occ. eigenvalues --   -0.18413  -0.17786  -0.15125
 Alpha virt. eigenvalues --   -0.09052  -0.05894  -0.04586  -0.03618  -0.02915
 Alpha virt. eigenvalues --   -0.02649  -0.02442  -0.01384  -0.00781  -0.00044
 Alpha virt. eigenvalues --    0.00045   0.00099   0.00204   0.00409   0.01791
 Alpha virt. eigenvalues --    0.02053   0.02402   0.02618   0.02841   0.03092
 Alpha virt. eigenvalues --    0.03180   0.03642   0.04070   0.04202   0.04475
 Alpha virt. eigenvalues --    0.04843   0.05264   0.05434   0.05498   0.05540
 Alpha virt. eigenvalues --    0.05731   0.05859   0.05961   0.06333   0.06344
 Alpha virt. eigenvalues --    0.06566   0.06784   0.06797   0.07188   0.07420
 Alpha virt. eigenvalues --    0.07706   0.07849   0.07876   0.08317   0.08690
 Alpha virt. eigenvalues --    0.08889   0.09113   0.09293   0.09388   0.09547
 Alpha virt. eigenvalues --    0.09796   0.10025   0.10252   0.10336   0.10616
 Alpha virt. eigenvalues --    0.10809   0.10811   0.11030   0.11245   0.11578
 Alpha virt. eigenvalues --    0.11731   0.11834   0.11900   0.12249   0.12424
 Alpha virt. eigenvalues --    0.12493   0.12568   0.12671   0.13052   0.13122
 Alpha virt. eigenvalues --    0.13233   0.13390   0.13619   0.14000   0.14089
 Alpha virt. eigenvalues --    0.14170   0.14344   0.14579   0.14735   0.14936
 Alpha virt. eigenvalues --    0.15067   0.15160   0.15507   0.15836   0.15945
 Alpha virt. eigenvalues --    0.16014   0.16223   0.16471   0.16661   0.16742
 Alpha virt. eigenvalues --    0.16887   0.17057   0.17383   0.17488   0.17579
 Alpha virt. eigenvalues --    0.17826   0.17905   0.18100   0.18330   0.18469
 Alpha virt. eigenvalues --    0.18546   0.18831   0.18961   0.19132   0.19262
 Alpha virt. eigenvalues --    0.19592   0.19748   0.20024   0.20278   0.20483
 Alpha virt. eigenvalues --    0.20632   0.20804   0.20963   0.21157   0.21258
 Alpha virt. eigenvalues --    0.21418   0.21642   0.21861   0.21963   0.22328
 Alpha virt. eigenvalues --    0.22600   0.22692   0.22961   0.23103   0.23440
 Alpha virt. eigenvalues --    0.23665   0.23808   0.23995   0.24054   0.24140
 Alpha virt. eigenvalues --    0.24496   0.24686   0.24923   0.25362   0.25673
 Alpha virt. eigenvalues --    0.25742   0.25783   0.26192   0.26344   0.26688
 Alpha virt. eigenvalues --    0.26728   0.26871   0.27098   0.27456   0.27551
 Alpha virt. eigenvalues --    0.27658   0.27924   0.27990   0.28306   0.28672
 Alpha virt. eigenvalues --    0.28878   0.29096   0.29234   0.29674   0.30026
 Alpha virt. eigenvalues --    0.30402   0.30571   0.30994   0.31506   0.31667
 Alpha virt. eigenvalues --    0.31796   0.32049   0.32145   0.32205   0.32473
 Alpha virt. eigenvalues --    0.32668   0.32753   0.33335   0.33390   0.34177
 Alpha virt. eigenvalues --    0.34690   0.34845   0.35018   0.35058   0.35322
 Alpha virt. eigenvalues --    0.35418   0.35740   0.35878   0.36245   0.36514
 Alpha virt. eigenvalues --    0.36760   0.36928   0.37260   0.37478   0.37647
 Alpha virt. eigenvalues --    0.37857   0.38036   0.38258   0.38718   0.38962
 Alpha virt. eigenvalues --    0.39194   0.39393   0.39540   0.40356   0.40433
 Alpha virt. eigenvalues --    0.40786   0.40865   0.41077   0.41291   0.41494
 Alpha virt. eigenvalues --    0.41868   0.42102   0.42276   0.42527   0.42745
 Alpha virt. eigenvalues --    0.42872   0.43194   0.43353   0.43464   0.43708
 Alpha virt. eigenvalues --    0.44099   0.44219   0.44400   0.44763   0.44907
 Alpha virt. eigenvalues --    0.45233   0.45420   0.45621   0.45681   0.45886
 Alpha virt. eigenvalues --    0.46118   0.46509   0.46632   0.46779   0.46908
 Alpha virt. eigenvalues --    0.47088   0.47367   0.47442   0.47712   0.47791
 Alpha virt. eigenvalues --    0.48089   0.48292   0.48576   0.48903   0.48987
 Alpha virt. eigenvalues --    0.49224   0.49723   0.49897   0.50019   0.50087
 Alpha virt. eigenvalues --    0.50337   0.50603   0.50856   0.51151   0.51284
 Alpha virt. eigenvalues --    0.51357   0.51601   0.51701   0.51971   0.52077
 Alpha virt. eigenvalues --    0.52160   0.52371   0.52802   0.52812   0.52867
 Alpha virt. eigenvalues --    0.53207   0.53467   0.53506   0.53767   0.54048
 Alpha virt. eigenvalues --    0.54124   0.54326   0.54563   0.54851   0.54950
 Alpha virt. eigenvalues --    0.55136   0.55345   0.55353   0.55442   0.55728
 Alpha virt. eigenvalues --    0.55909   0.56221   0.56234   0.56430   0.56671
 Alpha virt. eigenvalues --    0.56881   0.57131   0.57195   0.57205   0.57335
 Alpha virt. eigenvalues --    0.57622   0.57785   0.58109   0.58306   0.58329
 Alpha virt. eigenvalues --    0.58626   0.58664   0.58827   0.58946   0.59029
 Alpha virt. eigenvalues --    0.59153   0.59670   0.59724   0.59836   0.59927
 Alpha virt. eigenvalues --    0.60043   0.60226   0.60286   0.60552   0.60665
 Alpha virt. eigenvalues --    0.60786   0.60936   0.61019   0.61339   0.61492
 Alpha virt. eigenvalues --    0.61576   0.61939   0.61997   0.62030   0.62191
 Alpha virt. eigenvalues --    0.62348   0.62445   0.62539   0.62726   0.62745
 Alpha virt. eigenvalues --    0.62866   0.63157   0.63284   0.63350   0.63513
 Alpha virt. eigenvalues --    0.63701   0.63780   0.63951   0.64131   0.64326
 Alpha virt. eigenvalues --    0.64349   0.64386   0.64567   0.64672   0.64832
 Alpha virt. eigenvalues --    0.64918   0.65111   0.65184   0.65322   0.65433
 Alpha virt. eigenvalues --    0.65555   0.65649   0.65794   0.65935   0.66015
 Alpha virt. eigenvalues --    0.66110   0.66163   0.66301   0.66468   0.66547
 Alpha virt. eigenvalues --    0.66680   0.66797   0.66884   0.66947   0.67103
 Alpha virt. eigenvalues --    0.67221   0.67265   0.67399   0.67599   0.67713
 Alpha virt. eigenvalues --    0.67814   0.67979   0.68111   0.68257   0.68336
 Alpha virt. eigenvalues --    0.68379   0.68610   0.68754   0.68760   0.68900
 Alpha virt. eigenvalues --    0.68993   0.69185   0.69259   0.69429   0.69481
 Alpha virt. eigenvalues --    0.69584   0.69662   0.69956   0.70055   0.70203
 Alpha virt. eigenvalues --    0.70382   0.70478   0.70548   0.70626   0.70765
 Alpha virt. eigenvalues --    0.70925   0.71030   0.71215   0.71295   0.71343
 Alpha virt. eigenvalues --    0.71586   0.71732   0.71929   0.72106   0.72204
 Alpha virt. eigenvalues --    0.72327   0.72641   0.72725   0.72788   0.73057
 Alpha virt. eigenvalues --    0.73210   0.73282   0.73433   0.73579   0.73701
 Alpha virt. eigenvalues --    0.73905   0.74204   0.74364   0.74587   0.74787
 Alpha virt. eigenvalues --    0.74986   0.75223   0.75522   0.75737   0.75836
 Alpha virt. eigenvalues --    0.75955   0.76308   0.76431   0.76749   0.77054
 Alpha virt. eigenvalues --    0.77251   0.77435   0.77529   0.77810   0.78012
 Alpha virt. eigenvalues --    0.78370   0.78523   0.78655   0.78728   0.78942
 Alpha virt. eigenvalues --    0.79275   0.79476   0.79650   0.80197   0.80309
 Alpha virt. eigenvalues --    0.80585   0.80836   0.80926   0.81327   0.81389
 Alpha virt. eigenvalues --    0.81710   0.81969   0.82158   0.82470   0.82747
 Alpha virt. eigenvalues --    0.82954   0.83101   0.83427   0.83461   0.83917
 Alpha virt. eigenvalues --    0.83976   0.84234   0.84339   0.84608   0.85228
 Alpha virt. eigenvalues --    0.85493   0.85686   0.86036   0.86266   0.86373
 Alpha virt. eigenvalues --    0.86745   0.86868   0.87111   0.87405   0.88030
 Alpha virt. eigenvalues --    0.88439   0.88647   0.88800   0.89361   0.89606
 Alpha virt. eigenvalues --    0.89862   0.90235   0.90458   0.90844   0.90976
 Alpha virt. eigenvalues --    0.91268   0.91508   0.91816   0.92084   0.92233
 Alpha virt. eigenvalues --    0.92258   0.92819   0.93220   0.93507   0.93671
 Alpha virt. eigenvalues --    0.93835   0.94060   0.94493   0.94626   0.95129
 Alpha virt. eigenvalues --    0.95586   0.95740   0.96320   0.96435   0.96831
 Alpha virt. eigenvalues --    0.97365   0.97482   0.97735   0.98139   0.98351
 Alpha virt. eigenvalues --    0.98587   0.98876   0.99015   0.99119   0.99397
 Alpha virt. eigenvalues --    0.99538   0.99634   0.99989   1.00379   1.00807
 Alpha virt. eigenvalues --    1.01252   1.01392   1.02047   1.02577   1.02685
 Alpha virt. eigenvalues --    1.02938   1.03407   1.03659   1.03890   1.04170
 Alpha virt. eigenvalues --    1.04397   1.04502   1.04933   1.05590   1.06191
 Alpha virt. eigenvalues --    1.06255   1.06531   1.07042   1.07101   1.07285
 Alpha virt. eigenvalues --    1.07372   1.07715   1.08127   1.08298   1.08537
 Alpha virt. eigenvalues --    1.08765   1.08826   1.09213   1.09303   1.09490
 Alpha virt. eigenvalues --    1.09761   1.10155   1.10354   1.10673   1.10920
 Alpha virt. eigenvalues --    1.11461   1.11870   1.12030   1.12323   1.12553
 Alpha virt. eigenvalues --    1.12735   1.12973   1.13382   1.13716   1.14000
 Alpha virt. eigenvalues --    1.14355   1.14764   1.14990   1.15244   1.15356
 Alpha virt. eigenvalues --    1.15706   1.15749   1.15969   1.16183   1.16456
 Alpha virt. eigenvalues --    1.16732   1.17327   1.17434   1.17446   1.17731
 Alpha virt. eigenvalues --    1.18365   1.18774   1.19082   1.19354   1.19515
 Alpha virt. eigenvalues --    1.19942   1.20218   1.20461   1.20585   1.20749
 Alpha virt. eigenvalues --    1.21000   1.21326   1.21592   1.21738   1.21757
 Alpha virt. eigenvalues --    1.22024   1.22163   1.22565   1.22660   1.23594
 Alpha virt. eigenvalues --    1.23846   1.24043   1.24618   1.24961   1.25270
 Alpha virt. eigenvalues --    1.25667   1.25677   1.26090   1.26195   1.26352
 Alpha virt. eigenvalues --    1.26719   1.26946   1.27168   1.27290   1.27419
 Alpha virt. eigenvalues --    1.27670   1.27897   1.27956   1.28449   1.28459
 Alpha virt. eigenvalues --    1.28967   1.29303   1.29576   1.29927   1.30257
 Alpha virt. eigenvalues --    1.30543   1.30657   1.30863   1.31118   1.31309
 Alpha virt. eigenvalues --    1.31934   1.32120   1.32306   1.32831   1.33024
 Alpha virt. eigenvalues --    1.33240   1.33433   1.33515   1.33723   1.34209
 Alpha virt. eigenvalues --    1.34313   1.34847   1.35052   1.35383   1.35702
 Alpha virt. eigenvalues --    1.35771   1.35995   1.36079   1.36595   1.36952
 Alpha virt. eigenvalues --    1.37112   1.37286   1.37656   1.37866   1.38105
 Alpha virt. eigenvalues --    1.38406   1.38427   1.39090   1.39219   1.39604
 Alpha virt. eigenvalues --    1.39857   1.40336   1.40450   1.40678   1.40890
 Alpha virt. eigenvalues --    1.41392   1.41469   1.41615   1.41878   1.41923
 Alpha virt. eigenvalues --    1.42492   1.42689   1.42832   1.42953   1.43123
 Alpha virt. eigenvalues --    1.43450   1.43628   1.43890   1.44094   1.44484
 Alpha virt. eigenvalues --    1.44908   1.45060   1.45218   1.45519   1.45835
 Alpha virt. eigenvalues --    1.46348   1.46536   1.46838   1.47436   1.47750
 Alpha virt. eigenvalues --    1.47880   1.48123   1.48355   1.48982   1.49243
 Alpha virt. eigenvalues --    1.49432   1.49565   1.50347   1.50424   1.51302
 Alpha virt. eigenvalues --    1.51562   1.51739   1.51940   1.52049   1.52418
 Alpha virt. eigenvalues --    1.52644   1.52894   1.53206   1.53482   1.53814
 Alpha virt. eigenvalues --    1.53925   1.54164   1.54452   1.54473   1.55151
 Alpha virt. eigenvalues --    1.55335   1.55646   1.56537   1.56657   1.57074
 Alpha virt. eigenvalues --    1.57337   1.57687   1.57834   1.58587   1.58884
 Alpha virt. eigenvalues --    1.59190   1.59357   1.59517   1.60029   1.60217
 Alpha virt. eigenvalues --    1.60445   1.60766   1.61035   1.61167   1.61240
 Alpha virt. eigenvalues --    1.61415   1.61858   1.62200   1.62602   1.63097
 Alpha virt. eigenvalues --    1.63365   1.63907   1.64127   1.64312   1.64539
 Alpha virt. eigenvalues --    1.64889   1.65081   1.65270   1.65436   1.66012
 Alpha virt. eigenvalues --    1.66379   1.66875   1.67210   1.67350   1.67520
 Alpha virt. eigenvalues --    1.67682   1.68266   1.68530   1.69050   1.69108
 Alpha virt. eigenvalues --    1.69260   1.69590   1.70082   1.70211   1.70452
 Alpha virt. eigenvalues --    1.70587   1.70951   1.71149   1.71579   1.71634
 Alpha virt. eigenvalues --    1.71909   1.71995   1.72329   1.72583   1.72865
 Alpha virt. eigenvalues --    1.73064   1.73237   1.73441   1.73850   1.74131
 Alpha virt. eigenvalues --    1.74396   1.74582   1.74726   1.75015   1.75167
 Alpha virt. eigenvalues --    1.75340   1.75437   1.75569   1.75785   1.75950
 Alpha virt. eigenvalues --    1.76180   1.76291   1.76368   1.76655   1.76734
 Alpha virt. eigenvalues --    1.77004   1.77102   1.77319   1.77396   1.77767
 Alpha virt. eigenvalues --    1.77923   1.78172   1.78285   1.78403   1.78482
 Alpha virt. eigenvalues --    1.78698   1.78855   1.78912   1.79122   1.79216
 Alpha virt. eigenvalues --    1.79348   1.79726   1.79779   1.80018   1.80039
 Alpha virt. eigenvalues --    1.80289   1.80393   1.80484   1.80619   1.80698
 Alpha virt. eigenvalues --    1.80893   1.81059   1.81169   1.81385   1.81651
 Alpha virt. eigenvalues --    1.81710   1.82100   1.82131   1.82303   1.82588
 Alpha virt. eigenvalues --    1.82765   1.82853   1.83003   1.83441   1.83669
 Alpha virt. eigenvalues --    1.83837   1.84190   1.84328   1.84583   1.84882
 Alpha virt. eigenvalues --    1.85006   1.85136   1.85440   1.85711   1.85954
 Alpha virt. eigenvalues --    1.86343   1.86416   1.86690   1.87096   1.87144
 Alpha virt. eigenvalues --    1.87326   1.87574   1.87830   1.88067   1.88363
 Alpha virt. eigenvalues --    1.88634   1.88779   1.88891   1.89034   1.89310
 Alpha virt. eigenvalues --    1.89544   1.89777   1.89921   1.90163   1.90251
 Alpha virt. eigenvalues --    1.90440   1.90592   1.90843   1.90943   1.91147
 Alpha virt. eigenvalues --    1.91296   1.91434   1.91774   1.91780   1.92118
 Alpha virt. eigenvalues --    1.92317   1.92357   1.92741   1.92835   1.93055
 Alpha virt. eigenvalues --    1.93239   1.93577   1.93585   1.93938   1.94064
 Alpha virt. eigenvalues --    1.94338   1.94705   1.94778   1.94808   1.94974
 Alpha virt. eigenvalues --    1.95189   1.95392   1.95656   1.95798   1.96117
 Alpha virt. eigenvalues --    1.96188   1.96354   1.96838   1.97244   1.97445
 Alpha virt. eigenvalues --    1.97625   1.97760   1.97862   1.98160   1.98361
 Alpha virt. eigenvalues --    1.98565   1.98715   1.98944   1.99149   1.99219
 Alpha virt. eigenvalues --    1.99393   1.99516   1.99638   1.99976   2.00270
 Alpha virt. eigenvalues --    2.00478   2.00643   2.01076   2.01269   2.01291
 Alpha virt. eigenvalues --    2.01677   2.01967   2.02211   2.02308   2.02496
 Alpha virt. eigenvalues --    2.03041   2.03169   2.03548   2.03810   2.03996
 Alpha virt. eigenvalues --    2.04233   2.04396   2.04676   2.05125   2.05222
 Alpha virt. eigenvalues --    2.05608   2.05729   2.05917   2.06319   2.06686
 Alpha virt. eigenvalues --    2.07146   2.07210   2.07437   2.07614   2.07699
 Alpha virt. eigenvalues --    2.08114   2.08189   2.08427   2.08622   2.08875
 Alpha virt. eigenvalues --    2.09366   2.09840   2.09921   2.10069   2.10289
 Alpha virt. eigenvalues --    2.10545   2.10928   2.11438   2.12102   2.12219
 Alpha virt. eigenvalues --    2.12569   2.12960   2.13167   2.13608   2.13694
 Alpha virt. eigenvalues --    2.14001   2.14115   2.14517   2.15085   2.15333
 Alpha virt. eigenvalues --    2.15571   2.15706   2.15931   2.16037   2.16210
 Alpha virt. eigenvalues --    2.16464   2.16825   2.16942   2.17782   2.17846
 Alpha virt. eigenvalues --    2.18150   2.18261   2.18518   2.18646   2.19199
 Alpha virt. eigenvalues --    2.19520   2.19610   2.19896   2.20023   2.20270
 Alpha virt. eigenvalues --    2.20597   2.21127   2.21190   2.21244   2.21372
 Alpha virt. eigenvalues --    2.22048   2.22095   2.22329   2.22700   2.23004
 Alpha virt. eigenvalues --    2.23446   2.23832   2.24316   2.24453   2.24678
 Alpha virt. eigenvalues --    2.25495   2.26312   2.26381   2.26958   2.27223
 Alpha virt. eigenvalues --    2.27362   2.27595   2.28095   2.28441   2.28607
 Alpha virt. eigenvalues --    2.29261   2.29486   2.29584   2.29930   2.30251
 Alpha virt. eigenvalues --    2.30512   2.30879   2.31178   2.31635   2.31851
 Alpha virt. eigenvalues --    2.32149   2.32815   2.32936   2.33125   2.33655
 Alpha virt. eigenvalues --    2.34119   2.34358   2.34582   2.35152   2.35385
 Alpha virt. eigenvalues --    2.35488   2.35951   2.36377   2.36498   2.36850
 Alpha virt. eigenvalues --    2.37251   2.37321   2.37619   2.37725   2.38276
 Alpha virt. eigenvalues --    2.38750   2.39094   2.39229   2.39408   2.39626
 Alpha virt. eigenvalues --    2.40084   2.40490   2.40779   2.41042   2.41490
 Alpha virt. eigenvalues --    2.41591   2.42085   2.42496   2.42851   2.42991
 Alpha virt. eigenvalues --    2.43403   2.43447   2.43833   2.44400   2.44740
 Alpha virt. eigenvalues --    2.45134   2.45461   2.45574   2.46166   2.46442
 Alpha virt. eigenvalues --    2.46558   2.46767   2.47424   2.47790   2.48750
 Alpha virt. eigenvalues --    2.49357   2.50119   2.50682   2.50781   2.50860
 Alpha virt. eigenvalues --    2.51066   2.51451   2.51620   2.51749   2.51969
 Alpha virt. eigenvalues --    2.52392   2.52415   2.52787   2.53230   2.53288
 Alpha virt. eigenvalues --    2.53586   2.53900   2.54239   2.54275   2.54912
 Alpha virt. eigenvalues --    2.55129   2.55310   2.55780   2.55939   2.56326
 Alpha virt. eigenvalues --    2.56981   2.57286   2.57400   2.57759   2.58257
 Alpha virt. eigenvalues --    2.58928   2.59329   2.59542   2.59619   2.59977
 Alpha virt. eigenvalues --    2.60214   2.60636   2.60939   2.61072   2.61688
 Alpha virt. eigenvalues --    2.61896   2.62169   2.62637   2.62863   2.63211
 Alpha virt. eigenvalues --    2.63961   2.64318   2.64479   2.64577   2.64823
 Alpha virt. eigenvalues --    2.65237   2.65744   2.65920   2.66002   2.66257
 Alpha virt. eigenvalues --    2.66615   2.66815   2.66930   2.67136   2.67563
 Alpha virt. eigenvalues --    2.67853   2.68342   2.68591   2.68726   2.69136
 Alpha virt. eigenvalues --    2.69419   2.69798   2.69924   2.70413   2.70515
 Alpha virt. eigenvalues --    2.70714   2.71170   2.71648   2.71883   2.71935
 Alpha virt. eigenvalues --    2.72274   2.72816   2.72937   2.73313   2.73577
 Alpha virt. eigenvalues --    2.73804   2.73927   2.74364   2.74712   2.74920
 Alpha virt. eigenvalues --    2.75082   2.75237   2.75389   2.75911   2.76232
 Alpha virt. eigenvalues --    2.76388   2.76628   2.77010   2.77261   2.77601
 Alpha virt. eigenvalues --    2.77671   2.77771   2.77983   2.78133   2.78609
 Alpha virt. eigenvalues --    2.78661   2.79031   2.79112   2.79306   2.79351
 Alpha virt. eigenvalues --    2.79497   2.79677   2.79919   2.80365   2.80574
 Alpha virt. eigenvalues --    2.81168   2.81695   2.81770   2.82199   2.82432
 Alpha virt. eigenvalues --    2.82565   2.82774   2.82903   2.83289   2.83494
 Alpha virt. eigenvalues --    2.83693   2.83874   2.84551   2.84867   2.85286
 Alpha virt. eigenvalues --    2.85317   2.85704   2.85838   2.86250   2.86571
 Alpha virt. eigenvalues --    2.86950   2.87334   2.88031   2.88491   2.88729
 Alpha virt. eigenvalues --    2.89054   2.89470   2.89782   2.90178   2.90688
 Alpha virt. eigenvalues --    2.90921   2.91181   2.91262   2.91433   2.91450
 Alpha virt. eigenvalues --    2.91723   2.91871   2.92049   2.92310   2.92419
 Alpha virt. eigenvalues --    2.92773   2.93035   2.93552   2.93869   2.93914
 Alpha virt. eigenvalues --    2.94074   2.94174   2.94533   2.95329   2.95663
 Alpha virt. eigenvalues --    2.96119   2.96859   2.97134   2.97926   2.98142
 Alpha virt. eigenvalues --    2.98189   2.98329   2.98587   2.99240   2.99264
 Alpha virt. eigenvalues --    2.99701   3.00312   3.00500   3.00783   3.00986
 Alpha virt. eigenvalues --    3.01041   3.01620   3.02170   3.02447   3.02990
 Alpha virt. eigenvalues --    3.03091   3.03302   3.03998   3.04086   3.04664
 Alpha virt. eigenvalues --    3.04928   3.05326   3.05414   3.05850   3.06510
 Alpha virt. eigenvalues --    3.06776   3.07190   3.07387   3.07694   3.09194
 Alpha virt. eigenvalues --    3.09501   3.09709   3.10145   3.10635   3.11638
 Alpha virt. eigenvalues --    3.11698   3.12401   3.13461   3.13718   3.13919
 Alpha virt. eigenvalues --    3.14177   3.14313   3.14555   3.14608   3.14811
 Alpha virt. eigenvalues --    3.16173   3.16549   3.16873   3.17290   3.17480
 Alpha virt. eigenvalues --    3.17572   3.18051   3.18352   3.18873   3.19176
 Alpha virt. eigenvalues --    3.19256   3.19878   3.20155   3.20218   3.20755
 Alpha virt. eigenvalues --    3.21529   3.21664   3.22185   3.22836   3.23439
 Alpha virt. eigenvalues --    3.23893   3.24003   3.24121   3.24494   3.25044
 Alpha virt. eigenvalues --    3.25085   3.25920   3.26527   3.26909   3.27082
 Alpha virt. eigenvalues --    3.27504   3.27945   3.29649   3.30201   3.30690
 Alpha virt. eigenvalues --    3.31286   3.32489   3.33007   3.33478   3.33701
 Alpha virt. eigenvalues --    3.34448   3.34691   3.36184   3.38680   3.41586
 Alpha virt. eigenvalues --    3.41826   3.43788   3.49631   3.50134   3.50665
 Alpha virt. eigenvalues --    3.52232   3.52338   3.52918   3.54203   3.56035
 Alpha virt. eigenvalues --    3.56730   3.57518   3.58952   3.59143   3.59311
 Alpha virt. eigenvalues --    3.60327   3.60780   3.62099   3.63085   3.63923
 Alpha virt. eigenvalues --    3.64123   3.64816   3.65239   3.66262   3.67064
 Alpha virt. eigenvalues --    3.67939   3.68288   3.68832   3.69862   3.70729
 Alpha virt. eigenvalues --    3.71117   3.71150   3.71619   3.71859   3.72328
 Alpha virt. eigenvalues --    3.72667   3.73017   3.73302   3.74176   3.74927
 Alpha virt. eigenvalues --    3.77057   3.79636   3.82409   3.86269
          Condensed to atoms (all electrons):
 Mulliken charges:
               1
     1  C    0.049472
     2  C    0.020860
     3  O   -0.311111
     4  H    0.030563
     5  H    0.031538
     6  H    0.034174
     7  N   -0.102273
     8  C    0.067355
     9  C    0.091834
    10  O   -0.283752
    11  C    0.104218
    12  C    0.072752
    13  O   -0.376866
    14  O   -0.454390
    15  H    0.103335
    16  H   -0.006934
    17  H    0.023748
    18  H    0.025853
    19  N   -0.146153
    20  C    0.170857
    21  C    0.057227
    22  O   -0.299819
    23  C   -0.052811
    24  C    0.040534
    25  C   -0.006033
    26  C    0.032362
    27  N    0.067692
    28  H    0.152014
    29  H    0.000787
    30  H   -0.019736
    31  H    0.002745
    32  H    0.055836
    33  H    0.002775
    34  H    0.026691
    35  H    0.062715
    36  H    0.059976
    37  H    0.082607
    38  H    0.186495
    39  H    0.186693
    40  H    0.188244
    41  N   -0.142739
    42  C    0.146658
    43  C    0.060529
    44  O   -0.281766
    45  C    0.052559
    46  C    0.107758
    47  O   -0.391488
    48  O   -0.450002
    49  H    0.160956
    50  H    0.009601
    51  H   -0.012521
    52  H    0.016605
    53  N   -0.162404
    54  C    0.243823
    55  C   -0.021403
    56  O   -0.304705
    57  H    0.144499
    58  H    0.017845
    59  H    0.013296
    60  N   -0.184817
    61  C    0.200017
    62  C    0.038444
    63  O   -0.296093
    64  C    0.055832
    65  C    0.091504
    66  N   -0.032072
    67  O   -0.347999
    68  H    0.162314
    69  H    0.030928
    70  H    0.086367
    71  H    0.009548
    72  H    0.150169
    73  H    0.116712
    74  N   -0.133508
    75  C    0.206224
    76  C    0.037344
    77  O   -0.301994
    78  H    0.154376
    79  H    0.025814
    80  H    0.021719
    81  N   -0.129668
    82  C    0.114477
    83  C    0.150988
    84  O   -0.335048
    85  C    0.142868
    86  C    0.011236
    87  C   -0.003664
    88  C    0.015253
    89  C    0.013369
    90  C   -0.025645
    91  C    0.175145
    92  O   -0.194055
    93  H    0.171519
    94  H   -0.009266
    95  H   -0.015673
    96  H   -0.081287
    97  H   -0.095674
    98  H   -0.041942
    99  H   -0.029811
   100  H   -0.044303
   101  H    0.173755
   102  N   -0.121950
   103  C    0.105323
   104  C    0.058172
   105  O   -0.276185
   106  C   -0.086915
   107  C    0.071834
   108  C    0.062235
   109  C   -0.040421
   110  H    0.125466
   111  H    0.044602
   112  H   -0.027504
   113  H   -0.005862
   114  H   -0.008776
   115  H    0.014803
   116  H   -0.002795
   117  H    0.027765
   118  H    0.053462
   119  H   -0.000540
   120  H    0.010511
   121  N   -0.144037
   122  C    0.132974
   123  C    0.089312
   124  O   -0.286630
   125  C    0.201998
   126  O   -0.308503
   127  H    0.153379
   128  H    0.031420
   129  H    0.017320
   130  H   -0.029258
   131  H    0.204524
   132  N   -0.105134
   133  C    0.086429
   134  C    0.064304
   135  O   -0.246479
   136  C    0.025759
   137  H    0.123004
   138  H    0.036064
   139  H    0.048536
   140  H    0.042540
   141  H    0.003630
   142  N   -0.145330
   143  C    0.100542
   144  C    0.085234
   145  O   -0.281020
   146  C    0.026001
   147  H    0.103078
   148  H    0.023049
   149  H   -0.021183
   150  H    0.034420
   151  H    0.031530
   152  N   -0.176196
   153  C    0.149656
   154  C    0.073488
   155  O   -0.273951
   156  C   -0.002201
   157  C    0.087864
   158  C    0.136231
   159  O   -0.434128
   160  O   -0.384211
   161  H    0.118022
   162  H   -0.039719
   163  H    0.016340
   164  H   -0.012522
   165  H   -0.026344
   166  H   -0.038267
   167  N   -0.155775
   168  C    0.128393
   169  H    0.014633
   170  H    0.022699
   171  H    0.036388
   172  H    0.117028
   173  Ca   1.270132
   174  O   -0.289752
   175  H    0.168844
   176  H    0.160074
 Sum of Mulliken charges =  -0.00000
 Mulliken charges with hydrogens summed into heavy atoms:
               1
     1  C    0.145746
     2  C    0.020860
     3  O   -0.311111
     7  N    0.001062
     8  C    0.060420
     9  C    0.091834
    10  O   -0.283752
    11  C    0.153818
    12  C    0.072752
    13  O   -0.376866
    14  O   -0.454390
    19  N    0.005861
    20  C    0.171644
    21  C    0.057227
    22  O   -0.299819
    23  C   -0.069802
    24  C    0.099145
    25  C    0.083372
    26  C    0.174945
    27  N    0.629124
    41  N    0.018217
    42  C    0.156259
    43  C    0.060529
    44  O   -0.281766
    45  C    0.056643
    46  C    0.107758
    47  O   -0.391488
    48  O   -0.450002
    53  N   -0.017905
    54  C    0.274964
    55  C   -0.021403
    56  O   -0.304705
    60  N   -0.022503
    61  C    0.230945
    62  C    0.038444
    63  O   -0.296093
    64  C    0.151747
    65  C    0.091504
    66  N    0.234809
    67  O   -0.347999
    74  N    0.020869
    75  C    0.253757
    76  C    0.037344
    77  O   -0.301994
    81  N    0.041850
    82  C    0.105211
    83  C    0.150988
    84  O   -0.335048
    85  C    0.045908
    86  C    0.011236
    87  C   -0.099338
    88  C   -0.026689
    89  C   -0.016442
    90  C   -0.069947
    91  C    0.175145
    92  O   -0.020300
   102  N    0.003516
   103  C    0.149924
   104  C    0.058172
   105  O   -0.276185
   106  C   -0.114419
   107  C    0.057196
   108  C    0.102008
   109  C    0.023013
   121  N    0.009342
   122  C    0.164394
   123  C    0.089312
   124  O   -0.286630
   125  C    0.190061
   126  O   -0.103979
   132  N    0.017871
   133  C    0.122493
   134  C    0.064304
   135  O   -0.246479
   136  C    0.120465
   142  N   -0.042252
   143  C    0.123590
   144  C    0.085234
   145  O   -0.281020
   146  C    0.070767
   152  N   -0.058174
   153  C    0.109937
   154  C    0.073488
   155  O   -0.273951
   156  C    0.001617
   157  C    0.023253
   158  C    0.136231
   159  O   -0.434128
   160  O   -0.384211
   167  N   -0.038748
   168  C    0.202113
   173  Ca   1.270132
   174  O    0.039166
 DipInt: DoE/N= T F RetVal/Mat= T F Init=T NMatP=  1 IDeriv=0 Min/MaxMlt=  0  4
 Entering OneElI...
 OneElI was handed  1333951383 working-precision words.
 Multipole integrals L=0 to 4 MinM= 0 MaxM= 0.
 Requested accuracy = 0.1000D-12
 ShPair: Thresh= 1.00D-13 NBox=     0 BxSize= 0.00D+00 RnKept= 2.55D+01
         NSMCal=               327645 NSMKep=              162522
 PrmmSu-InSpLW:  IPartL=    0 NPrtUS=    1 NPrtUL=    1 DoSpLW=F IThBeg=    0 IThEnd=    0 NThAct=    1.
 PrsmSu:  NPrtUS=   1 ThrOK=F IAlg=1 NPAlg=1 LenDen=           0 ISkipM=0 DoSpLW=F IThBeg=    0 IThEnd=    0.
 Prism:   IPart=     0 DynPar=F LinDyn=F Incr=         512.
 PRISM was handed  1323801319 working-precision words and162522 shell-pairs
 IPart=  0 NShTot=      162522 NBatch=         375 AvBLen=       433.4
 PrsmSu-ThDecC:  IPartSL=    0    0 NPrtUSL=    1    1 IThBeg=    0 IThEnd=    0 CPU=   -1 GPU=   -1 NThAct=    1.
 PrSmSu:  NxtVal=            513.
 Electronic moments (au):
       -716.00000000         13.59448164         -3.36373961         -3.65295440
     -50815.85923762     -31372.23704668     -11817.04832155         64.92199671
        -61.00660455          9.35376490     -70402.20697536     -13459.59307381
     -19889.34518623      26275.39149328     102012.17446098      45981.61354527
     -10241.28757666     -18210.12495922      10059.02698734     -12548.03518907
   -7091112.25191509   -2903840.53691691    -593781.97193874     135927.62169855
     281753.04700133    -559900.06032290      66646.99196157     -70992.34209049
    -102039.05640998   -2189089.67481108    -600027.75359391    -411639.81682685
     -70586.05314068       2785.33186782      15004.75532461
 Electronic spatial extent (au):  <R**2>=          94005.1446
 DipInt: DoE/N= F T RetVal/Mat= T F Init=T NMatP=  1 IDeriv=0 Min/MaxMlt=  0  4
 Nuclear    moments (au):
        716.00000000          0.00000000          0.00000000         -0.00000000
      50361.70821533      31021.80137032      11433.93475943         -0.00000000
         -0.00000000         -0.00000000      71596.59258254      13627.50789204
      19997.55742616     -24426.96663446    -101969.73693363     -46633.36473598
      10592.77701965      18132.53270515     -10469.45649008      12126.07883152
    6893820.09679152    2804727.07193914     554906.46394141    -131091.05570087
    -287464.36330092     574950.52650639     -70417.22270992      69302.69059703
     104426.02844947    2155243.65366587     567430.53123627     388204.69418909
      67461.88591575     -10994.06382409     -13464.21126049
 Total      moments (au):
         -0.00000000         13.59448164         -3.36373961         -3.65295440
       -454.15102230       -350.43567636       -383.11356212         64.92199671
        -61.00660455          9.35376490       1194.38560719        167.91481822
        108.21223993       1848.42485882         42.43752734       -651.75119072
        351.48944299        -77.59225407       -410.42950274       -421.95635755
    -197292.15512357     -99113.46497777     -38875.50799734       4836.56599768
      -5711.31629959      15050.46618349      -3770.23074835      -1689.65149346
       2386.97203949     -33846.02114522     -32597.22235764     -23435.12263777
      -3124.16722493      -8208.73195627       1540.54406412
 Traceless Quadrup. (au):
        -58.25093537         45.46441057         12.78652481         64.92199671
        -61.00660455          9.35376490
 Charge=             -0.0000 electrons
 Dipole moment (field-independent basis, Debye):
    X=             34.5537    Y=             -8.5498    Z=             -9.2849  Tot=             36.7868
 Quadrupole moment (field-independent basis, Debye-Ang):
   XX=           -610.8487   YY=           -471.3480   ZZ=           -515.3009
   XY=             87.3223   XZ=            -82.0560   YZ=             12.5811
 Traceless Quadrupole moment (field-independent basis, Debye-Ang):
   XX=            -78.3495   YY=             61.1512   ZZ=             17.1983
   XY=             87.3223   XZ=            -82.0560   YZ=             12.5811
 Octapole moment (field-independent basis, Debye-Ang**2):
  XXX=            850.1177  YYY=            119.5153  ZZZ=             77.0213  XYY=           1315.6376
  XXY=             30.2054  XXZ=           -463.8914  XZZ=            250.1766  YZZ=            -55.2272
  YYZ=           -292.1279  XYZ=           -300.3323
 Hexadecapole moment (field-independent basis, Debye-Ang**3):
 XXXX=         -74309.6861 YYYY=         -37330.8836 ZZZZ=         -14642.3805 XXXY=           1821.6827
 XXXZ=          -2151.1556 YYYX=           5668.7273 YYYZ=          -1420.0497 ZZZX=           -636.4038
 ZZZY=            899.0481 XXYY=         -12748.0345 XXZZ=         -12277.6770 YYZZ=          -8826.7909
 XXYZ=          -1176.7112 YYXZ=          -3091.8021 ZZXY=            580.2428
 N-N= 2.177333642104D+04 E-N=-5.602686820035D+04  KE= 5.290344947288D+03
 Leave Link  601 at Sat Sep 14 23:27:43 2019, MaxMem=  1342177280 cpu:              47.6 elap:               1.2
 FitSet:  NAtFit=   176 NAtPot=   176 NAtFrz=     0 MDM=   180 TotChg=   0.00000
 Merz-Kollman atomic radii used.
 Read replacement radii for each type of atom:
 Rad(20) =   1.700000000000D+00
 Atom Element Radius
    1     6    1.50
    2     6    1.50
    3     8    1.40
    4     1    1.20
    5     1    1.20
    6     1    1.20
    7     7    1.50
    8     6    1.50
    9     6    1.50
   10     8    1.40
   11     6    1.50
   12     6    1.50
   13     8    1.40
   14     8    1.40
   15     1    1.20
   16     1    1.20
   17     1    1.20
   18     1    1.20
   19     7    1.50
   20     6    1.50
   21     6    1.50
   22     8    1.40
   23     6    1.50
   24     6    1.50
   25     6    1.50
   26     6    1.50
   27     7    1.50
   28     1    1.20
   29     1    1.20
   30     1    1.20
   31     1    1.20
   32     1    1.20
   33     1    1.20
   34     1    1.20
   35     1    1.20
   36     1    1.20
   37     1    1.20
   38     1    1.20
   39     1    1.20
   40     1    1.20
   41     7    1.50
   42     6    1.50
   43     6    1.50
   44     8    1.40
   45     6    1.50
   46     6    1.50
   47     8    1.40
   48     8    1.40
   49     1    1.20
   50     1    1.20
   51     1    1.20
   52     1    1.20
   53     7    1.50
   54     6    1.50
   55     6    1.50
   56     8    1.40
   57     1    1.20
   58     1    1.20
   59     1    1.20
   60     7    1.50
   61     6    1.50
   62     6    1.50
   63     8    1.40
   64     6    1.50
   65     6    1.50
   66     7    1.50
   67     8    1.40
   68     1    1.20
   69     1    1.20
   70     1    1.20
   71     1    1.20
   72     1    1.20
   73     1    1.20
   74     7    1.50
   75     6    1.50
   76     6    1.50
   77     8    1.40
   78     1    1.20
   79     1    1.20
   80     1    1.20
   81     7    1.50
   82     6    1.50
   83     6    1.50
   84     8    1.40
   85     6    1.50
   86     6    1.50
   87     6    1.50
   88     6    1.50
   89     6    1.50
   90     6    1.50
   91     6    1.50
   92     8    1.40
   93     1    1.20
   94     1    1.20
   95     1    1.20
   96     1    1.20
   97     1    1.20
   98     1    1.20
   99     1    1.20
  100     1    1.20
  101     1    1.20
  102     7    1.50
  103     6    1.50
  104     6    1.50
  105     8    1.40
  106     6    1.50
  107     6    1.50
  108     6    1.50
  109     6    1.50
  110     1    1.20
  111     1    1.20
  112     1    1.20
  113     1    1.20
  114     1    1.20
  115     1    1.20
  116     1    1.20
  117     1    1.20
  118     1    1.20
  119     1    1.20
  120     1    1.20
  121     7    1.50
  122     6    1.50
  123     6    1.50
  124     8    1.40
  125     6    1.50
  126     8    1.40
  127     1    1.20
  128     1    1.20
  129     1    1.20
  130     1    1.20
  131     1    1.20
  132     7    1.50
  133     6    1.50
  134     6    1.50
  135     8    1.40
  136     6    1.50
  137     1    1.20
  138     1    1.20
  139     1    1.20
  140     1    1.20
  141     1    1.20
  142     7    1.50
  143     6    1.50
  144     6    1.50
  145     8    1.40
  146     6    1.50
  147     1    1.20
  148     1    1.20
  149     1    1.20
  150     1    1.20
  151     1    1.20
  152     7    1.50
  153     6    1.50
  154     6    1.50
  155     8    1.40
  156     6    1.50
  157     6    1.50
  158     6    1.50
  159     8    1.40
  160     8    1.40
  161     1    1.20
  162     1    1.20
  163     1    1.20
  164     1    1.20
  165     1    1.20
  166     1    1.20
  167     7    1.50
  168     6    1.50
  169     1    1.20
  170     1    1.20
  171     1    1.20
  172     1    1.20
  173    20    1.70
  174     8    1.40
  175     1    1.20
  176     1    1.20
[...]
 **** Fit      -0.022405
 **** Fit      -0.022450
 **** Fit      -0.023251
 **** Fit      -0.024963
 **** Fit      -0.027491
 **** Fit      -0.030286
 **** Fit      -0.032273
 **** Fit      -0.032218
 **** Fit      -0.029576
 **** Fit      -0.024948
 **** Fit      -0.024760
 **** Fit      -0.025346
 **** Fit      -0.025315
 **** Fit      -0.024794
 **** Fit      -0.023901
 **** Fit      -0.022763
 **** Fit      -0.021523
 **** Fit      -0.020353
 **** Fit      -0.019465
 **** Fit      -0.019111
 **** Fit      -0.019577
 **** Fit      -0.021113
 **** Fit      -0.023799
 **** Fit      -0.027332
 **** Fit      -0.030851
 **** Fit      -0.033017
 **** Fit      -0.032616
 **** Fit      -0.029442
 **** Fit      -0.024455
 **** Fit      -0.023413
 **** Fit      -0.025624
 **** Fit      -0.025790
 **** Fit      -0.025403
 **** Fit      -0.024549
 **** Fit      -0.023311
 **** Fit      -0.021777
 **** Fit      -0.020048
 **** Fit      -0.018251
 **** Fit      -0.016549
 **** Fit      -0.015154
 **** Fit      -0.014339
 **** Fit      -0.014440
 **** Fit      -0.015795
 **** Fit      -0.018578
 **** Fit      -0.022524
 **** Fit      -0.026765
 **** Fit      -0.029944
 **** Fit      -0.030724
 **** Fit      -0.024802
 **** Fit      -0.026422
 **** Fit      -0.026150
 **** Fit      -0.025349
 **** Fit      -0.024073
 **** Fit      -0.022376
 **** Fit      -0.020321
 **** Fit      -0.017988
 **** Fit      -0.015479
 **** Fit      -0.012934
 **** Fit      -0.010543
 **** Fit      -0.008566
 **** Fit      -0.007373
 **** Fit      -0.022076
 **** Fit      -0.025107
 **** Fit      -0.026104
 **** Fit      -0.027256
 **** Fit      -0.026524
 **** Fit      -0.025296
 **** Fit      -0.023586
 **** Fit      -0.021420
 **** Fit      -0.018831
 **** Fit      -0.015873
 **** Fit      -0.012620
 **** Fit      -0.009179
 **** Fit      -0.005694
 **** Fit      -0.002357
 **** Fit      -0.027217
 **** Fit      -0.027487
 **** Fit      -0.028241
 **** Fit      -0.027011
 **** Fit      -0.025292
 **** Fit      -0.023059
 **** Fit      -0.020311
 **** Fit      -0.017058
 **** Fit      -0.013331
 **** Fit      -0.009188
 **** Fit      -0.004717
 **** Fit      -0.000033
 **** Fit      -0.029481
 **** Fit      -0.029033
 **** Fit      -0.029546
 **** Fit      -0.027766
 **** Fit      -0.025456
 **** Fit      -0.022562
 **** Fit      -0.019060
 **** Fit      -0.014942
 **** Fit      -0.010229
 **** Fit      -0.004977
 **** Fit       0.000712
 **** Fit      -0.031997
 **** Fit      -0.030897
 **** Fit      -0.031455
 **** Fit      -0.029102
 **** Fit      -0.026136
 **** Fit      -0.022495
 **** Fit      -0.018147
 **** Fit      -0.013079
 **** Fit      -0.007311
 **** Fit      -0.000926
 **** Fit       0.005912
 **** Fit      -0.033306
 **** Fit      -0.034475
 **** Fit      -0.031319
 **** Fit      -0.027326
 **** Fit      -0.022469
 **** Fit      -0.016734
 **** Fit      -0.010129
 **** Fit      -0.002729
 **** Fit       0.005255
 **** Fit      -0.022766
 **** Fit      -0.014986
 **** Fit      -0.006250
 **** Fit       0.003175
 **** Fit       0.012665
 **** Fit      -0.002750
 **** Fit       0.008277
 **** Fit       0.032478
 **** Fit       0.030122
 **** Fit      -0.004717
 **** Fit       0.025527
 **** Fit       0.020591
 **** Fit       0.012355
 **** Fit       0.002531
 **** Fit      -0.003513
 **** Fit       0.010180
 **** Fit       0.018129
 **** Fit       0.009982
 **** Fit       0.009464
 **** Fit       0.017633
 **** Fit      -0.005776
 **** Fit      -0.044160
 **** Fit      -0.005743
 **** Fit      -0.010801
 **** Fit      -0.017848
 **** Fit      -0.026755
 **** Fit      -0.037127
 **** Fit      -0.048550
 **** Fit      -0.006463
 **** Fit      -0.010444
 **** Fit      -0.015709
 **** Fit      -0.022854
 **** Fit      -0.031972
 **** Fit      -0.042793
 **** Fit      -0.055037
 **** Fit       0.006950
 **** Fit       0.009849
 **** Fit       0.010600
 **** Fit       0.008646
 **** Fit      -0.009361
 **** Fit      -0.014078
 **** Fit      -0.020027
 **** Fit      -0.027969
 **** Fit      -0.038131
 **** Fit      -0.050147
 **** Fit      -0.014660
 **** Fit      -0.006796
 **** Fit      -0.002225
 **** Fit      -0.000617
 **** Fit      -0.001962
 **** Fit      -0.005250
 **** Fit      -0.016498
 **** Fit      -0.022791
 **** Fit      -0.031617
 **** Fit      -0.042844
 **** Fit      -0.038671
 **** Fit      -0.023977
 **** Fit      -0.015024
 **** Fit      -0.011481
 **** Fit      -0.012452
 **** Fit      -0.024355
 **** Fit      -0.033468
 **** Fit      -0.043995
 **** Fit      -0.043053
 **** Fit      -0.030068
 **** Fit      -0.022246
 **** Fit      -0.033105
 **** Fit       0.015158
 **** Fit      -0.019726
 **** Fit       0.032352
 **** Fit       0.015031
 **** Fit       0.028388
 **** Fit       0.022087
 **** Fit       0.015608
 **** Fit       0.023189
 **** Fit       0.030085
 **** Fit       0.025107
 **** Fit       0.029418
 **** Fit       0.033944
 **** Fit       0.048215
 **** Fit       0.039560
 **** Fit       0.050897
 **** Fit       0.062749
 **** Fit       0.035246
 **** Fit       0.041321
 **** Fit       0.049367
 **** Fit       0.056194
 **** Fit       0.058142
 **** Fit       0.052916
 **** Fit       0.041134
 **** Fit       0.025495
 **** Fit       0.008416
 **** Fit       0.035249
 **** Fit       0.039852
 **** Fit       0.044440
 **** Fit       0.045483
 **** Fit       0.040285
 **** Fit       0.029135
 **** Fit       0.014728
 **** Fit       0.000132
 **** Fit       0.032492
 **** Fit       0.035372
 **** Fit       0.034983
 **** Fit       0.028020
 **** Fit       0.015946
 **** Fit       0.004215
 **** Fit       0.027435
 **** Fit       0.026658
 **** Fit       0.017807
 **** Fit       0.020267
 **** Fit      -0.025687
 **** Fit      -0.027399
 **** Fit      -0.031190
 **** Fit      -0.035134
 **** Fit       0.005234
 **** Fit       0.004927
 **** Fit       0.004108
 **** Fit       0.004330
 **** Fit       0.005508
 **** Fit       0.006403
 **** Fit       0.006047
 **** Fit       0.004559
 **** Fit       0.003555
 **** Fit       0.004343
 **** Fit       0.005795
 **** Fit       0.007067
 **** Fit       0.007661
 **** Fit       0.007504
 **** Fit       0.006786
 **** Fit       0.005730
 **** Fit       0.004121
 **** Fit       0.003034
 **** Fit       0.004444
 **** Fit       0.006153
 **** Fit       0.008292
 **** Fit       0.007465
 **** Fit       0.006452
 **** Fit       0.005307
 **** Fit       0.003621
 **** Fit       0.002393
 **** Fit       0.001346
 **** Fit       0.003522
 **** Fit       0.005589
 **** Fit       0.009142
 **** Fit       0.008262
 **** Fit       0.007260
 **** Fit       0.006136
 **** Fit       0.004904
 **** Fit       0.003080
 **** Fit       0.001746
 **** Fit       0.000514
 **** Fit       0.003569
 **** Fit       0.009773
 **** Fit       0.008884
 **** Fit       0.007922
 **** Fit       0.006869
 **** Fit       0.005703
 **** Fit       0.004426
 **** Fit       0.000969
 **** Fit      -0.000523
 **** Fit       0.000632
 **** Fit       0.010765
 **** Fit       0.009850
 **** Fit       0.008886
 **** Fit      -0.001599
 **** Fit      -0.003306
 **** Fit       0.011808
 **** Fit       0.010877
 **** Fit       0.009902
 **** Fit      -0.004898
 **** Fit      -0.007016
 **** Fit      -0.002974
 **** Fit       0.012200
 **** Fit       0.011172
 **** Fit      -0.006566
 **** Fit      -0.009125
 **** Fit       0.013705
 **** Fit       0.012611
 **** Fit      -0.011552
 **** Fit      -0.015070
 **** Fit      -0.010987
 **** Fit       0.015671
 **** Fit       0.014568
 **** Fit      -0.014767
 **** Fit      -0.019230
 **** Fit       0.018064
 **** Fit       0.017467
 **** Fit       0.016108
 **** Fit      -0.018280
 **** Fit      -0.022043
 **** Fit      -0.022136
 **** Fit       0.008049
 **** Fit       0.008473
 **** Fit       0.009176
 **** Fit       0.008790
 **** Fit       0.007611
 **** Fit       0.009187
 **** Fit       0.010090
 **** Fit       0.010310
 **** Fit       0.010086
 **** Fit       0.009480
 **** Fit       0.011388
 **** Fit       0.011201
 **** Fit       0.010799
 **** Fit       0.010157
 **** Fit       0.012391
 **** Fit       0.012269
 **** Fit       0.012052
 **** Fit       0.011628
 **** Fit       0.010980
 **** Fit       0.013170
 **** Fit       0.013154
 **** Fit       0.013003
 **** Fit       0.012627
 **** Fit       0.012002
 **** Fit       0.014070
 **** Fit       0.014006
 **** Fit       0.013706
 **** Fit       0.013130
 **** Fit       0.012299
 **** Fit       0.015075
 **** Fit       0.015012
 **** Fit       0.014640
 **** Fit       0.013912
 **** Fit       0.015946
 **** Fit       0.016176
 **** Fit       0.016140
 **** Fit       0.015682
 **** Fit       0.016764
 **** Fit       0.017302
 **** Fit       0.017454
 **** Fit       0.017005
 **** Fit       0.017843
 **** Fit       0.018713
 **** Fit       0.003894
 **** Fit       0.007640
 **** Fit       0.006493
 **** Fit       0.005222
 **** Fit       0.003305
 **** Fit       0.001896
 **** Fit       0.008392
 **** Fit       0.007271
 **** Fit       0.006027
 **** Fit       0.004695
 **** Fit       0.002661
 **** Fit       0.001132
 **** Fit      -0.000437
 **** Fit       0.010367
 **** Fit       0.009361
 **** Fit       0.008200
 **** Fit       0.006919
 **** Fit       0.005557
 **** Fit       0.004136
 **** Fit       0.001865
 **** Fit       0.000276
 **** Fit      -0.001409
 **** Fit      -0.003204
 **** Fit       0.011454
 **** Fit       0.010377
 **** Fit       0.009124
 **** Fit       0.007755
 **** Fit       0.006326
 **** Fit       0.004868
 **** Fit       0.003387
 **** Fit       0.000805
 **** Fit      -0.000894
 **** Fit      -0.002732
 **** Fit      -0.004777
 **** Fit       0.013146
 **** Fit       0.011990
 **** Fit       0.010560
 **** Fit       0.008964
 **** Fit       0.007307
 **** Fit       0.005655
 **** Fit       0.004034
 **** Fit       0.002430
 **** Fit      -0.000650
 **** Fit      -0.002398
 **** Fit      -0.004311
 **** Fit      -0.006499
 **** Fit      -0.009096
 **** Fit       0.013875
 **** Fit       0.012222
 **** Fit       0.010299
 **** Fit       0.008291
 **** Fit       0.006326
 **** Fit       0.004465
 **** Fit       0.002710
 **** Fit       0.001026
 **** Fit      -0.002669
 **** Fit      -0.004444
 **** Fit      -0.006409
 **** Fit      -0.008713
 **** Fit      -0.011551
 **** Fit       0.014658
 **** Fit       0.012279
 **** Fit       0.009682
 **** Fit       0.007138
 **** Fit       0.004791
 **** Fit       0.002685
 **** Fit       0.000792
 **** Fit      -0.000960
 **** Fit      -0.005476
 **** Fit      -0.007277
 **** Fit      -0.009320
 **** Fit      -0.011814
 **** Fit      -0.015039
 **** Fit       0.012773
 **** Fit       0.009082
 **** Fit       0.005646
 **** Fit       0.002672
 **** Fit       0.000181
 **** Fit      -0.001910
 **** Fit      -0.003743
 **** Fit      -0.009382
 **** Fit      -0.011096
 **** Fit      -0.013143
 **** Fit      -0.015800
 **** Fit       0.003196
 **** Fit      -0.000730
 **** Fit      -0.003708
 **** Fit      -0.005955
 **** Fit      -0.007754
 **** Fit      -0.014806
 **** Fit      -0.016144
 **** Fit      -0.017951
 **** Fit      -0.020537
 **** Fit      -0.013625
 **** Fit      -0.024182
 **** Fit       0.002303
 **** Fit       0.002107
 **** Fit       0.000829
 **** Fit       0.000888
 **** Fit       0.002356
 **** Fit       0.001746
 **** Fit       0.000276
 **** Fit      -0.000831
 **** Fit      -0.001287
 **** Fit      -0.000852
 **** Fit       0.000467
 **** Fit       0.002285
 **** Fit       0.001199
 **** Fit      -0.000319
 **** Fit      -0.001683
 **** Fit      -0.002791
 **** Fit      -0.003495
 **** Fit      -0.003627
 **** Fit      -0.003059
 **** Fit      -0.001779
 **** Fit       0.000043
 **** Fit       0.002100
 **** Fit      -0.001191
 **** Fit      -0.002738
 **** Fit      -0.004160
 **** Fit      -0.005373
 **** Fit      -0.006250
 **** Fit      -0.006645
 **** Fit      -0.006427
 **** Fit      -0.005513
 **** Fit      -0.003918
 **** Fit      -0.001799
 **** Fit       0.000582
 **** Fit      -0.002363
 **** Fit      -0.004135
 **** Fit      -0.005856
 **** Fit      -0.007474
 **** Fit      -0.008882
 **** Fit      -0.009932
 **** Fit      -0.010470
 **** Fit      -0.010371
 **** Fit      -0.009546
 **** Fit      -0.007959
 **** Fit      -0.005691
 **** Fit      -0.002982
 **** Fit      -0.000120
 **** Fit      -0.003807
 **** Fit      -0.005824
 **** Fit      -0.007852
 **** Fit      -0.009877
 **** Fit      -0.011815
 **** Fit      -0.013514
 **** Fit      -0.014790
 **** Fit      -0.015471
 **** Fit      -0.015440
 **** Fit      -0.014634
 **** Fit      -0.013018
 **** Fit      -0.010619
 **** Fit      -0.007609
 **** Fit      -0.004315
 **** Fit      -0.008153
 **** Fit      -0.010687
 **** Fit      -0.013331
 **** Fit      -0.016002
 **** Fit      -0.018508
 **** Fit      -0.020572
 **** Fit      -0.021900
 **** Fit      -0.022280
 **** Fit      -0.021638
 **** Fit      -0.020002
 **** Fit      -0.017431
 **** Fit      -0.014036
 **** Fit      -0.010094
 **** Fit      -0.006067
 **** Fit      -0.014117
 **** Fit      -0.017556
 **** Fit      -0.021226
 **** Fit      -0.017304
 **** Fit      -0.012360
 **** Fit      -0.018596
 **** Fit       0.013149
 **** Fit       0.001493
 **** Fit      -0.016150
 **** Fit       0.021303
 **** Fit       0.017453
 **** Fit       0.009835
 **** Fit      -0.001400
 **** Fit      -0.022167
 **** Fit       0.004679
 **** Fit       0.003032
 **** Fit      -0.006262
 **** Fit       0.019802
 **** Fit       0.027163
 **** Fit       0.020915
 **** Fit       0.044228
 **** Fit       0.033448
 **** Fit       0.028465
 **** Fit       0.030625
 **** Fit       0.037901
 **** Fit       0.048235
 **** Fit       0.039246
 **** Fit       0.037491
 **** Fit       0.044917
 **** Fit       0.041214
 **** Fit       0.037472
 **** Fit       0.040397
 **** Fit       0.044330
 **** Fit       0.042067
 **** Fit       0.041428
 **** Fit       0.042939
 **** Fit       0.045920
 **** Fit       0.050205
 **** Fit       0.046757
 **** Fit       0.046192
 **** Fit       0.047692
 **** Fit       0.050731
 **** Fit       0.055171
 **** Fit       0.051813
 **** Fit       0.049783
 **** Fit       0.050338
 **** Fit       0.052759
 **** Fit       0.056685
 **** Fit       0.052548
 **** Fit       0.052270
 **** Fit       0.054016
 **** Fit       0.057285
 **** Fit       0.061618
 **** Fit       0.040521
 **** Fit       0.054615
 **** Fit       0.053268
 **** Fit       0.053959
 **** Fit       0.056313
 **** Fit       0.059634
 **** Fit       0.062938
 **** Fit       0.064840
 **** Fit       0.056303
 **** Fit       0.050325
 **** Fit       0.040615
 **** Fit       0.042919
 **** Fit       0.053200
 **** Fit       0.053078
 **** Fit       0.054291
 **** Fit       0.056545
 **** Fit       0.058046
 **** Fit       0.051831
 **** Fit       0.046864
 **** Fit       0.046152
 **** Fit       0.049772
 **** Fit       0.051803
 **** Fit       0.053184
 **** Fit       0.049665
 -----------------------------------------------------------------
 Leave Link  602 at Sat Sep 14 23:27:46 2019, MaxMem=  1342177280 cpu:             137.6 elap:               2.9

 Test job not archived.
 1\1\GINC-C506-073\SP\RB3LYP\SVP\C54H83Ca1N15O23\PENGZHI\14-Sep-2019\0\
 \#b3lyp/svp scf=(tight,noincore) Test #IOP(5/87=12) Density=Current Po
 p=(MK,readradii) iop(6/33=2) iop(6/42=6)\\holoCaM_loop3_93.0\\0,1\C,0,
 90.94,56.1,4.92\C,0,92.3,56.52,4.38\O,0,93.24,55.74,4.18\H,0,90.196,56
 .173,4.126\H,0,90.992,55.071,5.275\H,0,90.657,56.756,5.744\N,0,92.55,5
 7.82,4.23\C,0,93.77,58.47,3.79\C,0,94.85,58.32,4.85\O,0,94.64,58.61,6.
 03\C,0,93.41,59.9,3.37\C,0,94.66,60.65,2.96\O,0,94.53,61.77,2.41\O,0,9
 5.83,60.22,3.05\H,0,91.74,58.38,4.44\H,0,94.07,57.98,2.86\H,0,92.92,60
 .41,4.2\H,0,92.84,59.74,2.45\N,0,96.03,57.85,4.44\C,0,97.07,57.33,5.29
 \C,0,98.03,58.42,5.75\O,0,98.85,58.17,6.62\C,0,97.77,56.1,4.7\C,0,96.8
 3,54.96,4.34\C,0,97.57,53.8,3.68\C,0,98.52,53.1,4.65\N,0,99.78,52.72,3
 .99\H,0,96.12,57.75,3.43\H,0,96.66,56.85,6.17\H,0,98.5,55.73,5.42\H,0,
 98.41,56.48,3.9\H,0,95.99,55.32,3.73\H,0,96.41,54.62,5.28\H,0,98.12,54
 .22,2.84\H,0,96.85,53.01,3.47\H,0,98.07,52.17,4.98\H,0,98.75,53.64,5.5
 7\H,0,100.2,51.96,4.5\H,0,99.59,52.4,3.05\H,0,100.48,53.4,3.74\N,0,97.
 96,59.62,5.16\C,0,98.61,60.85,5.58\C,0,97.76,62.12,5.66\O,0,98.17,63.1
 1,6.26\C,0,99.78,61.22,4.67\C,0,99.54,61.37,3.18\O,0,100.54,61.34,2.42
 \O,0,98.37,61.49,2.77\H,0,97.3,59.61,4.4\H,0,98.95,60.68,6.6\H,0,100.5
 2,60.43,4.77\H,0,100.23,62.11,5.1\N,0,96.5,61.98,5.25\C,0,95.51,63.02,
 5.39\C,0,95.68,64.27,4.54\O,0,95.11,65.31,4.87\H,0,96.17,61.09,4.89\H,
 0,95.48,63.4,6.41\H,0,94.54,62.55,5.21\N,0,96.41,64.25,3.42\C,0,96.7,6
 5.35,2.52\C,0,95.46,65.73,1.73\O,0,95.53,66.58,0.84\C,0,97.87,64.89,1.
 65\C,0,97.65,63.93,0.5\N,0,98.48,64.08,-0.54\O,0,96.69,63.16,0.5\H,0,9
 6.62,63.28,3.21\H,0,96.93,66.25,3.08\H,0,98.6,64.44,2.33\H,0,98.27,65.
 77,1.15\H,0,99.3,64.68,-0.53\H,0,98.29,63.43,-1.28\N,0,94.33,65.06,1.9
 6\C,0,93.13,65.31,1.2\C,0,92.95,64.56,-0.12\O,0,92.07,64.95,-0.88\H,0,
 94.3,64.26,2.58\H,0,92.9,66.35,0.97\H,0,92.32,65.11,1.9\N,0,93.7,63.49
 ,-0.36\C,0,93.6,62.65,-1.54\C,0,93.73,61.18,-1.21\O,0,94.59,60.83,-0.4
 \C,0,94.66,62.89,-2.61\C,0,94.75,64.3,-3.13\C,0,95.82,65.15,-2.82\C,0,
 93.62,64.88,-3.72\C,0,95.78,66.54,-3.01\C,0,93.59,66.25,-4.\C,0,94.67,
 67.1,-3.67\O,0,94.6,68.44,-3.92\H,0,94.51,63.36,0.24\H,0,92.64,62.86,-
 2.\H,0,94.48,62.2,-3.43\H,0,95.62,62.5,-2.24\H,0,96.64,64.7,-2.28\H,0,
 92.81,64.21,-3.95\H,0,96.69,67.08,-2.78\H,0,92.73,66.65,-4.53\H,0,93.7
 2,68.65,-4.25\N,0,92.95,60.32,-1.89\C,0,93.23,58.91,-2.04\C,0,93.9,58.
 67,-3.38\O,0,93.57,59.21,-4.43\C,0,92.02,58.03,-1.7\C,0,91.29,58.29,-0
 .39\C,0,92.31,56.55,-1.95\C,0,91.87,57.67,0.87\H,0,92.33,60.65,-2.61\H
 ,0,93.95,58.66,-1.26\H,0,91.33,58.28,-2.51\H,0,90.25,57.95,-0.45\H,0,9
 1.25,59.36,-0.22\H,0,91.51,55.95,-1.51\H,0,92.21,56.37,-3.02\H,0,93.33
 ,56.32,-1.63\H,0,92.92,57.97,0.95\H,0,91.36,58.02,1.77\H,0,91.89,56.58
 ,0.94\N,0,94.97,57.87,-3.42\C,0,95.67,57.32,-4.56\C,0,95.56,55.81,-4.6
 8\O,0,95.09,55.18,-3.73\C,0,97.09,57.86,-4.44\O,0,97.68,57.68,-3.17\H,
 0,95.34,57.55,-2.53\H,0,95.32,57.73,-5.51\H,0,97.22,58.89,-4.76\H,0,97
 .64,57.33,-5.22\H,0,98.64,57.72,-3.19\N,0,95.83,55.14,-5.8\C,0,95.79,5
 3.7,-5.89\C,0,96.74,52.96,-4.96\O,0,96.36,51.91,-4.43\C,0,95.99,53.29,
 -7.35\H,0,96.1,55.66,-6.63\H,0,94.8,53.31,-5.64\H,0,96.01,52.2,-7.41\H
 ,0,95.17,53.61,-7.99\H,0,96.96,53.69,-7.64\N,0,97.86,53.59,-4.59\C,0,9
 8.68,53.07,-3.51\C,0,98.01,53.,-2.15\O,0,98.32,52.13,-1.34\C,0,99.98,5
 3.87,-3.5\H,0,98.18,54.43,-5.04\H,0,99.05,52.08,-3.79\H,0,99.71,54.9,-
 3.3\H,0,100.63,53.59,-2.66\H,0,100.51,53.75,-4.44\N,0,97.11,53.94,-1.8
 5\C,0,96.38,53.88,-0.6\C,0,95.18,52.94,-0.71\O,0,94.96,52.16,0.21\C,0,
 96.13,55.29,-0.09\C,0,97.34,56.22,0.03\C,0,96.88,57.6,0.48\O,0,97.79,5
 8.26,1.02\O,0,95.78,58.14,0.23\H,0,96.8,54.54,-2.6\H,0,97.04,53.48,0.1
 6\H,0,95.64,55.27,0.88\H,0,95.42,55.7,-0.79\H,0,97.91,56.22,-0.9\H,0,9
 8.02,55.67,0.69\N,0,94.47,53.01,-1.84\C,0,93.11,52.52,-1.95\H,0,92.467
 ,53.316,-2.324\H,0,93.082,51.677,-2.64\H,0,92.758,52.2,-0.969\H,0,94.8
 ,53.69,-2.5\Ca,0,96.88,60.57,0.76\O,0,96.95,60.08,-1.832\H,0,97.29,60.
 79,-2.382\H,0,97.05,59.29,-2.362\\Version=ES64L-G16RevA.03\State=1-A\H
 F=-5333.5587376\RMSD=2.908e-09\Dipole=3.7158648,-11.4747637,-7.9994312
 \Quadrupole=19.9437373,-27.9830794,8.0393421,-66.0138427,-19.139806,-7
 4.0886376\PG=C01 [X(C54H83Ca1N15O23)]\\@


 Some scientists claim that hydrogen, because it is so
 plentiful, is the basic building block of the universe. 
 I dispute that. I say that stupidity is far more
 abundant than hydrogen, and THAT is the basic building 
 block of the universe.
                   --Frank Zappa
 Job cpu time:       0 days  9 hours 59 minutes 53.4 seconds.
 Elapsed time:       0 days  0 hours 12 minutes 38.2 seconds.
 File lengths (MBytes):  RWF=   1517 Int=      0 D2E=      0 Chk=    171 Scr=      1
 Normal termination of Gaussian 16 at Sat Sep 14 23:27:48 2019.
