 Entering Gaussian System, Link 0=g09
 Initial command:
 /home/pcieplak/g09/g09/l1.exe "/scratch1/pcieplak/holo_13.0/Gau-29944.inp" -scrdir="/scratch1/pcieplak/holo_13.0/"
 Entering Link 1 = /home/pcieplak/g09/g09/l1.exe PID=     29945.
  
 Copyright (c) 1988,1990,1992,1993,1995,1998,2003,2009,2013,
            Gaussian, Inc.  All Rights Reserved.
  
 This is part of the Gaussian(R) 09 program.  It is based on
 the Gaussian(R) 03 system (copyright 2003, Gaussian, Inc.),
 the Gaussian(R) 98 system (copyright 1998, Gaussian, Inc.),
 the Gaussian(R) 94 system (copyright 1995, Gaussian, Inc.),
 the Gaussian 92(TM) system (copyright 1992, Gaussian, Inc.),
 the Gaussian 90(TM) system (copyright 1990, Gaussian, Inc.),
 the Gaussian 88(TM) system (copyright 1988, Gaussian, Inc.),
 the Gaussian 86(TM) system (copyright 1986, Carnegie Mellon
 University), and the Gaussian 82(TM) system (copyright 1983,
 Carnegie Mellon University). Gaussian is a federally registered
 trademark of Gaussian, Inc.
  
 This software contains proprietary and confidential information,
 including trade secrets, belonging to Gaussian, Inc.
  
 This software is provided under written license and may be
 used, copied, transmitted, or stored only in accord with that
 written license.
  
 The following legend is applicable only to US Government
 contracts under FAR:
  
                    RESTRICTED RIGHTS LEGEND
  
 Use, reproduction and disclosure by the US Government is
 subject to restrictions as set forth in subparagraphs (a)
 and (c) of the Commercial Computer Software - Restricted
 Rights clause in FAR 52.227-19.
  
 Gaussian, Inc.
 340 Quinnipiac St., Bldg. 40, Wallingford CT 06492
  
  
 ---------------------------------------------------------------
 Warning -- This program may not be used in any manner that
 competes with the business of Gaussian, Inc. or will provide
 assistance to any competitor of Gaussian, Inc.  The licensee
 of this program is prohibited from giving any competitor of
 Gaussian, Inc. access to this program.  By using this program,
 the user acknowledges that Gaussian, Inc. is engaged in the
 business of creating and licensing software in the field of
 computational chemistry and represents and warrants to the
 licensee that it is not a competitor of Gaussian, Inc. and that
 it will not use this program in any manner prohibited above.
 ---------------------------------------------------------------
  

 Cite this work as:
 Gaussian 09, Revision D.01,
 M. J. Frisch, G. W. Trucks, H. B. Schlegel, G. E. Scuseria, 
 M. A. Robb, J. R. Cheeseman, G. Scalmani, V. Barone, B. Mennucci, 
 G. A. Petersson, H. Nakatsuji, M. Caricato, X. Li, H. P. Hratchian, 
 A. F. Izmaylov, J. Bloino, G. Zheng, J. L. Sonnenberg, M. Hada, 
 M. Ehara, K. Toyota, R. Fukuda, J. Hasegawa, M. Ishida, T. Nakajima, 
 Y. Honda, O. Kitao, H. Nakai, T. Vreven, J. A. Montgomery, Jr., 
 J. E. Peralta, F. Ogliaro, M. Bearpark, J. J. Heyd, E. Brothers, 
 K. N. Kudin, V. N. Staroverov, T. Keith, R. Kobayashi, J. Normand, 
 K. Raghavachari, A. Rendell, J. C. Burant, S. S. Iyengar, J. Tomasi, 
 M. Cossi, N. Rega, J. M. Millam, M. Klene, J. E. Knox, J. B. Cross, 
 V. Bakken, C. Adamo, J. Jaramillo, R. Gomperts, R. E. Stratmann, 
 O. Yazyev, A. J. Austin, R. Cammi, C. Pomelli, J. W. Ochterski, 
 R. L. Martin, K. Morokuma, V. G. Zakrzewski, G. A. Voth, 
 P. Salvador, J. J. Dannenberg, S. Dapprich, A. D. Daniels, 
 O. Farkas, J. B. Foresman, J. V. Ortiz, J. Cioslowski, 
 and D. J. Fox, Gaussian, Inc., Wallingford CT, 2013.
 
 ******************************************
 Gaussian 09:  ES64L-G09RevD.01 24-Apr-2013
                16-Sep-2019 
 ******************************************
 %Nproc=12
 Will use up to   12 processors via shared memory.
 %chk=chk1mol
 %mem=32GB
 ----------------------------------------------------------------------
 #maxdisk=50GB #B3LYP/SVP Density=Current scf=(tight) #IOP(5/87=12)Pop=
 (MK,readradii) iop(6/33=2) iop(6/42=6)
 ----------------------------------------------------------------------
 1/30=1,38=1/1;
 2/12=2,17=6,18=5,40=1/2;
 3/5=18,7=101,11=2,16=1,25=1,30=1,74=-5/1,2,3;
 4//1;
 5/5=2,32=2,38=5,87=12/2;
 6/7=2,8=2,9=2,10=2,15=8,20=101,22=-1,28=1,33=2,42=6/1,2;
 99/5=1,9=1/99;
 ------------
 SOL molecule
 ------------
 Symbolic Z-matrix:
 Charge =  0 Multiplicity = 1
 C                     94.19     53.99     3.604 
 C                     95.23     55.05     3.254 
 O                     96.25     54.67     2.684 
 H                     93.28     54.171    3.031 
 H                     94.581    53.002    3.36 
 H                     93.964    54.04     4.669 
 N                     95.05     56.33     3.574 
 C                     96.04     57.37     3.354 
 C                     97.15     57.36     4.394 
 O                     96.92     57.61     5.574 
 C                     95.41     58.7      2.954 
 C                     96.39     59.86     2.944 
 O                     96.09     60.95     3.474 
 O                     97.5      59.67     2.404 
 H                     94.25     56.52     4.164 
 H                     96.59     57.12     2.444 
 H                     94.72     59.02     3.734 
 H                     94.97     58.61     1.964 
 N                     98.43     57.26     4.024 
 C                     99.6      57.13     4.864 
 C                     100.57    58.31     4.814 
 O                     101.62    58.23     5.434 
 C                     100.22    55.74     4.814 
 C                     99.14     54.69     4.994 
 C                     99.72     53.31     5.304 
 C                     98.88     52.53     6.314 
 N                     97.63     51.94     5.814 
 H                     98.57     57.04     3.054 
 H                     99.29     57.19     5.904 
 H                     101.01    55.67     5.564 
 H                     100.63    55.66     3.804 
 H                     98.44     54.58     4.164 
 H                     98.56     55.03     5.854 
 H                     100.62    53.42     5.914 
 H                     99.93     52.73     4.404 
 H                     98.67     53.09     7.224 
 H                     99.43     51.69     6.724 
 H                     96.98     52.7      5.684 
 H                     97.78     51.44     4.944 
 H                     97.17     51.37     6.504 
 N                     100.22    59.45     4.214 
 C                     100.92    60.7      4.454 
 C                     100.01    61.92     4.514 
 O                     100.47    63.05     4.384 
 C                     102.      60.99     3.424 
 C                     101.63    60.9      1.954 
 O                     102.52    60.97     1.084 
 O                     100.42    60.83     1.654 
 H                     99.24     59.54     3.974 
 H                     101.37    60.61     5.444 
 H                     102.68    60.16     3.604 
 H                     102.55    61.91     3.614 
 N                     98.72     61.79     4.844 
 C                     97.94     62.98     5.104 
 C                     97.5      63.83     3.924 
 O                     96.91     64.89     4.154 
 H                     98.35     60.92     5.204 
 H                     98.52     63.51     5.864 
 H                     97.       62.61     5.534 
 N                     97.6      63.31     2.704 
 C                     97.42     64.       1.444 
 C                     96.05     63.66     0.864 
 O                     95.72     64.25    -0.156 
 C                     98.67     63.93     0.574 
 C                     98.66     62.87    -0.516 
 N                     98.92     63.29    -1.756 
 O                     98.19     61.76    -0.296 
 H                     97.53     62.3      2.734 
 H                     97.38     65.05     1.744 
 H                     99.6      63.82     1.144 
 H                     98.75     64.92     0.114 
 H                     99.32     64.2     -1.936 
 H                     99.04     62.67    -2.546 
 N                     95.18     62.81     1.404 
 C                     93.87     62.48     0.874 
 C                     93.86     61.46    -0.256 
 O                     92.76     61.12    -0.676 
 H                     95.49     62.35     2.244 
 H                     93.33     63.36     0.514 
 H                     93.3      62.12     1.724 
 N                     94.98     60.97    -0.796 
 C                     94.96     60.07    -1.926 
 C                     95.8      58.81    -1.736 
 O                     96.65     58.73    -0.846 
 C                     95.39     60.81    -3.186 
 C                     94.69     62.13    -3.406 
 C                     95.6      63.16    -3.716 
 C                     93.3      62.23    -3.336 
 C                     95.08     64.44    -3.916 
 C                     92.82     63.54    -3.516 
 C                     93.7      64.63    -3.726 
 O                     93.2      65.9     -3.796 
 H                     95.86     61.29    -0.426 
 H                     93.94     59.73    -2.066 
 H                     95.12     60.12    -3.986 
 H                     96.47     60.9     -3.056 
 H                     96.67     63.01    -3.726 
 H                     92.7      61.36    -3.156 
 H                     95.71     65.28    -4.156 
 H                     91.77     63.78    -3.486 
 H                     92.29     65.88    -3.516 
 N                     95.45     57.76    -2.476 
 C                     96.08     56.45    -2.396 
 C                     97.12     56.36    -3.496 
 O                     96.79     56.51    -4.676 
 C                     95.06     55.32    -2.496 
 C                     93.86     55.55    -1.586 
 C                     95.65     53.91    -2.366 
 C                     94.04     55.73    -0.086 
 H                     94.68     57.84    -3.126 
 H                     96.56     56.39    -1.426 
 H                     94.81     55.31    -3.556 
 H                     93.2      54.7     -1.756 
 H                     93.29     56.41    -1.946 
 H                     94.91     53.12    -2.476 
 H                     96.36     53.75    -3.176 
 H                     96.09     53.77    -1.386 
 H                     93.12     55.63     0.484 
 H                     94.76     55.08     0.404 
 H                     94.63     56.63     0.084 
 N                     98.34     55.88    -3.226 
 C                     99.38     55.48    -4.156 
 C                     99.52     53.97    -4.236 
 O                     98.86     53.21    -3.526 
 C                     100.71    56.09    -3.716 
 O                     101.09    55.76    -2.396 
 H                     98.6      55.78    -2.256 
 H                     99.24     55.85    -5.176 
 H                     100.66    57.18    -3.836 
 H                     101.5     55.78    -4.396 
 H                     100.49    56.17    -1.776 
 N                     100.5     53.46    -4.986 
 C                     100.7     52.03    -5.166 
 C                     101.07    51.23    -3.926 
 O                     100.52    50.19    -3.556 
 C                     101.74    51.98    -6.286 
 H                     100.9     54.15    -5.616 
 H                     99.75     51.59    -5.446 
 H                     101.81    50.93    -6.576 
 H                     101.43    52.71    -7.026 
 H                     102.7     52.08    -5.786 
 N                     102.05    51.73    -3.166 
 C                     102.37    51.34    -1.806 
 C                     101.17    51.22    -0.886 
 O                     101.05    50.26    -0.126 
 C                     103.3     52.45    -1.346 
 H                     102.52    52.55    -3.526 
 H                     102.92    50.4     -1.746 
 H                     104.21    52.39    -1.956 
 H                     102.79    53.39    -1.556 
 H                     103.56    52.37    -0.296 
 N                     100.23    52.16    -1.026 
 C                     99.17     52.24    -0.036 
 C                     98.11     51.23    -0.436 
 O                     97.54     50.6      0.444 
 C                     98.63     53.67     0.054 
 C                     99.57     54.68     0.704 
 C                     99.25     56.15     0.484 
 O                     98.91     56.96     1.374 
 O                     99.44     56.64    -0.656 
 H                     100.37    52.87    -1.726 
 H                     99.59     52.03     0.944 
 H                     97.69     53.62     0.614 
 H                     98.44     54.09    -0.936 
 H                     100.58    54.5      0.344 
 H                     99.56     54.58     1.794 
 N                     97.81     51.13    -1.736 
 C                     96.96     50.09    -2.276 
 H                     96.046    50.536   -2.668 
 H                     97.484    49.572   -3.079 
 H                     96.708    49.38    -1.488 
 H                     98.29     51.68    -2.436 
 Ca                    98.92     59.25     0.28 
 O                     101.536   58.88    -0.176 
 H                     101.946   58.8     -1.036 
 H                     101.956   59.65     0.214 
 
 Stoichiometry    C54H83CaN15O23
 Framework group  C1[X(C54H83CaN15O23)]
 Deg. of freedom   522
 Full point group                 C1      NOp   1
 Largest Abelian subgroup         C1      NOp   1
 Largest concise Abelian subgroup C1      NOp   1
                         Standard orientation:                         
 ---------------------------------------------------------------------
 Center     Atomic      Atomic             Coordinates (Angstroms)
 Number     Number       Type             X           Y           Z
 ---------------------------------------------------------------------
      1          6           0        1.786206    2.332816    5.517037
      2          6           0        1.147706    2.222026    4.135826
      3          8           0        1.900047    2.038136    3.181956
      4          1           0        1.469207    1.490086    6.132266
      5          1           0        2.871855    2.320744    5.418132
      6          1           0        1.473272    3.264183    5.988661
      7          7           0       -0.167806    2.343037    3.968544
      8          6           0       -0.826244    2.341512    2.673725
      9          6           0       -0.702683    3.671187    1.945372
     10          8           0       -1.226743    4.690414    2.386211
     11          6           0       -2.178363    1.636935    2.707599
     12          6           0       -2.992409    1.819034    1.438636
     13          8           0       -4.202806    2.119782    1.497727
     14          8           0       -2.399227    1.672914    0.349332
     15          1           0       -0.683409    2.632958    4.789701
     16          1           0       -0.263608    1.677147    2.014059
     17          1           0       -2.821470    2.127966    3.437120
     18          1           0       -2.029142    0.572971    2.873468
     19          7           0       -0.178720    3.729878    0.717643
     20          6           0        0.112594    4.900952   -0.079301
     21          6           0       -0.715474    5.040169   -1.356298
     22          8           0       -0.463093    5.961029   -2.118939
     23          6           0        1.603873    5.182950   -0.204064
     24          6           0        2.254038    5.119618    1.165087
     25          6           0        3.656252    5.728454    1.168949
     26          6           0        3.962093    6.497934    2.452872
     27          7           0        4.261009    5.693854    3.646482
     28          1           0        0.251923    2.878178    0.404508
     29          1           0       -0.228593    5.781550    0.458695
     30          1           0        1.749102    6.144737   -0.699415
     31          1           0        1.986263    4.363810   -0.818382
     32          1           0        2.318627    4.127876    1.615949
     33          1           0        1.607812    5.718563    1.809491
     34          1           0        3.689659    6.574534    0.478129
     35          1           0        4.431917    4.999987    0.927744
     36          1           0        3.203343    7.237813    2.703226
     37          1           0        4.828882    7.139045    2.335169
     38          1           0        3.388171    5.294097    3.955266
     39          1           0        4.938859    4.967220    3.441732
     40          1           0        4.536863    6.258635    4.432311
     41          7           0       -1.772187    4.252362   -1.568002
     42          6           0       -2.797069    4.574747   -2.545644
     43          6           0       -4.211790    4.228544   -2.099764
     44          8           0       -5.120883    4.138217   -2.918782
     45          6           0       -2.570734    3.909108   -3.893642
     46          6           0       -2.310622    2.413243   -3.918731
     47          8           0       -1.961110    1.861220   -4.980339
     48          8           0       -2.527659    1.759717   -2.877194
     49          1           0       -2.086534    3.711501   -0.771286
     50          1           0       -2.774150    5.659460   -2.662143
     51          1           0       -1.633121    4.372326   -4.193658
     52          1           0       -3.317811    4.169849   -4.641231
     53          7           0       -4.514593    4.151464   -0.798891
     54          6           0       -5.902584    4.037726   -0.408196
     55          6           0       -6.601535    2.702082   -0.597988
     56          8           0       -7.808157    2.631894   -0.345526
     57          1           0       -3.868520    4.461745   -0.084948
     58          1           0       -6.382683    4.884786   -0.905080
     59          1           0       -5.900299    4.187677    0.679421
     60          7           0       -5.852396    1.631014   -0.843759
     61          6           0       -6.312589    0.316397   -1.238862
     62          6           0       -6.267360   -0.625163   -0.038729
     63          8           0       -6.721231   -1.749846   -0.201484
     64          6           0       -5.730246   -0.109798   -2.581819
     65          6           0       -4.528723   -1.039343   -2.517881
     66          7           0       -4.615119   -2.171578   -3.219436
     67          8           0       -3.658359   -0.869021   -1.672389
     68          1           0       -4.927628    1.736518   -0.444293
     69          1           0       -7.368605    0.484636   -1.463862
     70          1           0       -5.473850    0.729370   -3.239055
     71          1           0       -6.551666   -0.616669   -3.098010
     72          1           0       -5.324604   -2.306298   -3.925822
     73          1           0       -3.848013   -2.820181   -3.336752
     74          7           0       -5.814768   -0.302414    1.170401
     75          6           0       -5.771594   -1.179008    2.326091
     76          6           0       -4.600097   -2.150280    2.366423
     77          8           0       -4.509431   -2.856523    3.363920
     78          1           0       -5.454599    0.633167    1.261320
     79          1           0       -6.682706   -1.773663    2.435000
     80          1           0       -5.754602   -0.517823    3.186059
     81          7           0       -3.721888   -2.263895    1.365454
     82          6           0       -2.666087   -3.250037    1.375898
     83          6           0       -1.280916   -2.685413    1.072913
     84          8           0       -1.136033   -1.571631    0.563502
     85          6           0       -3.001959   -4.379584    0.410801
     86          6           0       -4.398544   -4.934844    0.559248
     87          6           0       -5.052943   -5.045372   -0.683590
     88          6           0       -4.896390   -5.311353    1.807202
     89          6           0       -6.365136   -5.521752   -0.680250
     90          6           0       -6.229370   -5.759312    1.769798
     91          6           0       -6.967646   -5.790539    0.561256
     92          8           0       -8.289521   -6.136835    0.584195
     93          1           0       -3.846038   -1.671466    0.560895
     94          1           0       -2.606164   -3.666708    2.375095
     95          1           0       -2.276659   -5.152237    0.667603
     96          1           0       -2.807946   -3.929188   -0.564341
     97          1           0       -4.609357   -4.706907   -1.608885
     98          1           0       -4.280717   -5.242836    2.682161
     99          1           0       -6.932757   -5.634700   -1.588627
    100          1           0       -6.755805   -6.081461    2.653023
    101          1           0       -8.579553   -6.153611    1.491112
    102          7           0       -0.250830   -3.390998    1.535162
    103          6           0        1.143292   -2.990846    1.409852
    104          6           0        1.729170   -3.697879    0.202975
    105          8           0        1.719628   -4.930689    0.140621
    106          6           0        1.938787   -3.292314    2.676187
    107          6           0        1.212371   -2.828414    3.932418
    108          6           0        3.406242   -2.847562    2.632932
    109          6           0        0.808518   -1.372180    4.108730
    110          1           0       -0.418854   -4.253016    2.035655
    111          1           0        1.150218   -1.918634    1.251069
    112          1           0        2.079427   -4.371110    2.625016
    113          1           0        1.858895   -3.111365    4.762446
    114          1           0        0.311647   -3.430452    4.075056
    115          1           0        3.962446   -3.104592    3.532027
    116          1           0        3.910153   -3.376396    1.825338
    117          1           0        3.475289   -1.770517    2.539092
    118          1           0        0.535818   -1.110123    5.127681
    119          1           0        1.529120   -0.621124    3.796241
    120          1           0        0.095294   -1.115927    3.326014
    121          7           0        2.472118   -3.015713   -0.677013
    122          6           0        3.317311   -3.531690   -1.738104
    123          6           0        4.792341   -3.415775   -1.396120
    124          8           0        5.186949   -2.875760   -0.361728
    125          6           0        3.033458   -2.761368   -3.026759
    126          8           0        3.199768   -1.363023   -2.914185
    127          1           0        2.454872   -2.008095   -0.623091
    128          1           0        3.123774   -4.575650   -2.001906
    129          1           0        2.016827   -2.997149   -3.367155
    130          1           0        3.676244   -3.127716   -3.823763
    131          1           0        2.527687   -1.004014   -2.338061
    132          7           0        5.689949   -3.769524   -2.319246
    133          6           0        7.125581   -3.737282   -2.084251
    134          6           0        7.746428   -2.371623   -1.831221
    135          8           0        8.499960   -2.091291   -0.896019
    136          6           0        7.677631   -4.467138   -3.309425
    137          1           0        5.272950   -4.308034   -3.073645
    138          1           0        7.325849   -4.254685   -1.153291
    139          1           0        8.740175   -4.616582   -3.109004
    140          1           0        7.044461   -5.334650   -3.461472
    141          1           0        7.758207   -3.705365   -4.080664
    142          7           0        7.406916   -1.397055   -2.681485
    143          6           0        7.605213    0.026290   -2.484344
    144          6           0        7.206151    0.533931   -1.111809
    145          8           0        7.931095    1.308969   -0.489416
    146          6           0        6.734830    0.641964   -3.566923
    147          1           0        6.835971   -1.671296   -3.469974
    148          1           0        8.632595    0.346375   -2.662481
    149          1           0        7.162840    0.354659   -4.535460
    150          1           0        5.747194    0.192555   -3.464915
    151          1           0        6.683565    1.723240   -3.498260
    152          7           0        6.084418    0.016775   -0.600865
    153          6           0        5.523235    0.614586    0.598216
    154          6           0        6.251624    0.005343    1.782266
    155          8           0        6.516910    0.721336    2.737869
    156          6           0        4.009198    0.391392    0.647984
    157          6           0        3.199586    1.199566   -0.360769
    158          6           0        1.768639    0.747952   -0.605993
    159          8           0        0.741989    1.403949   -0.324111
    160          8           0        1.577722   -0.318420   -1.240187
    161          1           0        5.588871   -0.670829   -1.144311
    162          1           0        5.652515    1.692261    0.545262
    163          1           0        3.685744    0.632870    1.666201
    164          1           0        3.748877   -0.644681    0.421300
    165          1           0        3.721060    1.191462   -1.314760
    166          1           0        3.083686    2.236526   -0.029887
    167          7           0        6.508497   -1.307057    1.742002
    168          6           0        7.350707   -1.980291    2.707993
    169          1           0        6.748891   -2.679147    3.288850
    170          1           0        8.137818   -2.525360    2.187354
    171          1           0        7.798067   -1.244388    3.376471
    172          1           0        6.258976   -1.873103    0.941857
    173         20           0       -1.201542    0.148658   -1.367168
    174          8           0       -0.031938    0.568572   -3.742877
    175          1           0        0.321944   -0.108786   -4.317379
    176          1           0       -0.712436    0.992565   -4.270657
 ---------------------------------------------------------------------
 Rotational constants (GHZ):      0.0244663      0.0147104      0.0121699
 Standard basis: SVP (5D, 7F)
 There are  1809 symmetry adapted cartesian basis functions of A   symmetry.
 There are  1717 symmetry adapted basis functions of A   symmetry.
  1717 basis functions,  2922 primitive gaussians,  1809 cartesian basis functions
   358 alpha electrons      358 beta electrons
       nuclear repulsion energy     21792.9669025537 Hartrees.
 NAtoms=  176 NActive=  176 NUniq=  176 SFac= 1.00D+00 NAtFMM=   60 NAOKFM=T Big=T
 Integral buffers will be    131072 words long.
 Raffenetti 2 integral format.
 Two-electron integral symmetry is turned on.
 One-electron integrals computed using PRISM.
 NBasis=  1717 RedAO= T EigKep=  2.89D-04  NBF=  1717
 NBsUse=  1717 1.00D-06 EigRej= -1.00D+00 NBFU=  1717
 ExpMin= 1.98D-02 ExpMax= 3.51D+04 ExpMxC= 5.28D+03 IAcc=3 IRadAn=         5 AccDes= 0.00D+00
 Harris functional with IExCor=  402 and IRadAn=       5 diagonalized for initial guess.
 HarFok:  IExCor=  402 AccDes= 0.00D+00 IRadAn=         5 IDoV= 1 UseB2=F ITyADJ=14
 ICtDFT=  3500011 ScaDFX=  1.000000  1.000000  1.000000  1.000000
 FoFCou: FMM=F IPFlag=           0 FMFlag=      100000 FMFlg1=        2001
         NFxFlg=           0 DoJE=T BraDBF=F KetDBF=T FulRan=T
         wScrn=  0.000000 ICntrl=     500 IOpCl=  0 I1Cent=   200000004 NGrid=           0
         NMat0=    1 NMatS0=      1 NMatT0=    0 NMatD0=    1 NMtDS0=    0 NMtDT0=    0
 Petite list used in FoFCou.
 Requested convergence on RMS density matrix=1.00D-08 within 128 cycles.
 Requested convergence on MAX density matrix=1.00D-06.
 Requested convergence on             energy=1.00D-06.
 No special actions if energy rises.
 SCF Done:  E(RB3LYP) =  -5333.61094656     A.U. after   15 cycles
            NFock= 15  Conv=0.43D-08     -V/T= 2.0081

 **********************************************************************

            Population analysis using the SCF density.

 **********************************************************************

 Orbital symmetries:
 BldTbl:  Degeneracy threshold= 1.00D-02
       Occupied  (A) (A) (A) (A) (A) (A) (A) (A) (A) (A) (A) (A)
                 (A) (A) (A) (A) (A) (A) (A) (A) (A) (A) (A) (A)
                 (A) (A) (A) (A) (A) (A) (A) (A) (A) (A) (A) (A)
                 (A) (A) (A) (A) (A) (A) (A) (A) (A) (A) (A) (A)
                 (A) (A) (A) (A) (A) (A) (A) (A) (A) (A) (A) (A)
                 (A) (A) (A) (A) (A) (A) (A) (A) (A) (A) (A) (A)
                 (A) (A) (A) (A) (A) (A) (A) (A) (A) (A) (A) (A)
                 (A) (A) (A) (A) (A) (A) (A) (A) (A) (A) (A) (A)
                 (A) (A) (A) (A) (A) (A) (A) (A) (A) (A) (A) (A)
                 (A) (A) (A) (A) (A) (A) (A) (A) (A) (A) (A) (A)
                 (A) (A) (A) (A) (A) (A) (A) (A) (A) (A) (A) (A)
                 (A) (A) (A) (A) (A) (A) (A) (A) (A) (A) (A) (A)
                 (A) (A) (A) (A) (A) (A) (A) (A) (A) (A) (A) (A)
                 (A) (A) (A) (A) (A) (A) (A) (A) (A) (A) (A) (A)
                 (A) (A) (A) (A) (A) (A) (A) (A) (A) (A) (A) (A)
                 (A) (A) (A) (A) (A) (A) (A) (A) (A) (A) (A) (A)
                 (A) (A) (A) (A) (A) (A) (A) (A) (A) (A) (A) (A)
                 (A) (A) (A) (A) (A) (A) (A) (A) (A) (A) (A) (A)
                 (A) (A) (A) (A) (A) (A) (A) (A) (A) (A) (A) (A)
                 (A) (A) (A) (A) (A) (A) (A) (A) (A) (A) (A) (A)
                 (A) (A) (A) (A) (A) (A) (A) (A) (A) (A) (A) (A)
                 (A) (A) (A) (A) (A) (A) (A) (A) (A) (A) (A) (A)
                 (A) (A) (A) (A) (A) (A) (A) (A) (A) (A) (A) (A)
                 (A) (A) (A) (A) (A) (A) (A) (A) (A) (A) (A) (A)
                 (A) (A) (A) (A) (A) (A) (A) (A) (A) (A) (A) (A)
                 (A) (A) (A) (A) (A) (A) (A) (A) (A) (A) (A) (A)
                 (A) (A) (A) (A) (A) (A) (A) (A) (A) (A) (A) (A)
                 (A) (A) (A) (A) (A) (A) (A) (A) (A) (A) (A) (A)
                 (A) (A) (A) (A) (A) (A) (A) (A) (A) (A) (A) (A)
                 (A) (A) (A) (A) (A) (A) (A) (A) (A) (A)
       Virtual   (A) (A) (A) (A) (A) (A) (A) (A) (A) (A) (A) (A)
                 (A) (A) (A) (A) (A) (A) (A) (A) (A) (A) (A) (A)
                 (A) (A) (A) (A) (A) (A) (A) (A) (A) (A) (A) (A)
                 (A) (A) (A) (A) (A) (A) (A) (A) (A) (A) (A) (A)
                 (A) (A) (A) (A) (A) (A) (A) (A) (A) (A) (A) (A)
                 (A) (A) (A) (A) (A) (A) (A) (A) (A) (A) (A) (A)
                 (A) (A) (A) (A) (A) (A) (A) (A) (A) (A) (A) (A)
                 (A) (A) (A) (A) (A) (A) (A) (A) (A) (A) (A) (A)
                 (A) (A) (A) (A) (A) (A) (A) (A) (A) (A) (A) (A)
                 (A) (A) (A) (A) (A) (A) (A) (A) (A) (A) (A) (A)
                 (A) (A) (A) (A) (A) (A) (A) (A) (A) (A) (A) (A)
                 (A) (A) (A) (A) (A) (A) (A) (A) (A) (A) (A) (A)
                 (A) (A) (A) (A) (A) (A) (A) (A) (A) (A) (A) (A)
                 (A) (A) (A) (A) (A) (A) (A) (A) (A) (A) (A) (A)
                 (A) (A) (A) (A) (A) (A) (A) (A) (A) (A) (A) (A)
                 (A) (A) (A) (A) (A) (A) (A) (A) (A) (A) (A) (A)
                 (A) (A) (A) (A) (A) (A) (A) (A) (A) (A) (A) (A)
                 (A) (A) (A) (A) (A) (A) (A) (A) (A) (A) (A) (A)
                 (A) (A) (A) (A) (A) (A) (A) (A) (A) (A) (A) (A)
                 (A) (A) (A) (A) (A) (A) (A) (A) (A) (A) (A) (A)
                 (A) (A) (A) (A) (A) (A) (A) (A) (A) (A) (A) (A)
                 (A) (A) (A) (A) (A) (A) (A) (A) (A) (A) (A) (A)
                 (A) (A) (A) (A) (A) (A) (A) (A) (A) (A) (A) (A)
                 (A) (A) (A) (A) (A) (A) (A) (A) (A) (A) (A) (A)
                 (A) (A) (A) (A) (A) (A) (A) (A) (A) (A) (A) (A)
                 (A) (A) (A) (A) (A) (A) (A) (A) (A) (A) (A) (A)
                 (A) (A) (A) (A) (A) (A) (A) (A) (A) (A) (A) (A)
                 (A) (A) (A) (A) (A) (A) (A) (A) (A) (A) (A) (A)
                 (A) (A) (A) (A) (A) (A) (A) (A) (A) (A) (A) (A)
                 (A) (A) (A) (A) (A) (A) (A) (A) (A) (A) (A) (A)
                 (A) (A) (A) (A) (A) (A) (A) (A) (A) (A) (A) (A)
                 (A) (A) (A) (A) (A) (A) (A) (A) (A) (A) (A) (A)
                 (A) (A) (A) (A) (A) (A) (A) (A) (A) (A) (A) (A)
                 (A) (A) (A) (A) (A) (A) (A) (A) (A) (A) (A) (A)
                 (A) (A) (A) (A) (A) (A) (A) (A) (A) (A) (A) (A)
                 (A) (A) (A) (A) (A) (A) (A) (A) (A) (A) (A) (A)
                 (A) (A) (A) (A) (A) (A) (A) (A) (A) (A) (A) (A)
                 (A) (A) (A) (A) (A) (A) (A) (A) (A) (A) (A) (A)
                 (A) (A) (A) (A) (A) (A) (A) (A) (A) (A) (A) (A)
                 (A) (A) (A) (A) (A) (A) (A) (A) (A) (A) (A) (A)
                 (A) (A) (A) (A) (A) (A) (A) (A) (A) (A) (A) (A)
                 (A) (A) (A) (A) (A) (A) (A) (A) (A) (A) (A) (A)
                 (A) (A) (A) (A) (A) (A) (A) (A) (A) (A) (A) (A)
                 (A) (A) (A) (A) (A) (A) (A) (A) (A) (A) (A) (A)
                 (A) (A) (A) (A) (A) (A) (A) (A) (A) (A) (A) (A)
                 (A) (A) (A) (A) (A) (A) (A) (A) (A) (A) (A) (A)
                 (A) (A) (A) (A) (A) (A) (A) (A) (A) (A) (A) (A)
                 (A) (A) (A) (A) (A) (A) (A) (A) (A) (A) (A) (A)
                 (A) (A) (A) (A) (A) (A) (A) (A) (A) (A) (A) (A)
                 (A) (A) (A) (A) (A) (A) (A) (A) (A) (A) (A) (A)
                 (A) (A) (A) (A) (A) (A) (A) (A) (A) (A) (A) (A)
                 (A) (A) (A) (A) (A) (A) (A) (A) (A) (A) (A) (A)
                 (A) (A) (A) (A) (A) (A) (A) (A) (A) (A) (A) (A)
                 (A) (A) (A) (A) (A) (A) (A) (A) (A) (A) (A) (A)
                 (A) (A) (A) (A) (A) (A) (A) (A) (A) (A) (A) (A)
                 (A) (A) (A) (A) (A) (A) (A) (A) (A) (A) (A) (A)
                 (A) (A) (A) (A) (A) (A) (A) (A) (A) (A) (A) (A)
                 (A) (A) (A) (A) (A) (A) (A) (A) (A) (A) (A) (A)
                 (A) (A) (A) (A) (A) (A) (A) (A) (A) (A) (A) (A)
                 (A) (A) (A) (A) (A) (A) (A) (A) (A) (A) (A) (A)
                 (A) (A) (A) (A) (A) (A) (A) (A) (A) (A) (A) (A)
                 (A) (A) (A) (A) (A) (A) (A) (A) (A) (A) (A) (A)
                 (A) (A) (A) (A) (A) (A) (A) (A) (A) (A) (A) (A)
                 (A) (A) (A) (A) (A) (A) (A) (A) (A) (A) (A) (A)
                 (A) (A) (A) (A) (A) (A) (A) (A) (A) (A) (A) (A)
                 (A) (A) (A) (A) (A) (A) (A) (A) (A) (A) (A) (A)
                 (A) (A) (A) (A) (A) (A) (A) (A) (A) (A) (A) (A)
                 (A) (A) (A) (A) (A) (A) (A) (A) (A) (A) (A) (A)
                 (A) (A) (A) (A) (A) (A) (A) (A) (A) (A) (A) (A)
                 (A) (A) (A) (A) (A) (A) (A) (A) (A) (A) (A) (A)
                 (A) (A) (A) (A) (A) (A) (A) (A) (A) (A) (A) (A)
                 (A) (A) (A) (A) (A) (A) (A) (A) (A) (A) (A) (A)
                 (A) (A) (A) (A) (A) (A) (A) (A) (A) (A) (A) (A)
                 (A) (A) (A) (A) (A) (A) (A) (A) (A) (A) (A) (A)
                 (A) (A) (A) (A) (A) (A) (A) (A) (A) (A) (A) (A)
                 (A) (A) (A) (A) (A) (A) (A) (A) (A) (A) (A) (A)
                 (A) (A) (A) (A) (A) (A) (A) (A) (A) (A) (A) (A)
                 (A) (A) (A) (A) (A) (A) (A) (A) (A) (A) (A) (A)
                 (A) (A) (A) (A) (A) (A) (A) (A) (A) (A) (A) (A)
                 (A) (A) (A) (A) (A) (A) (A) (A) (A) (A) (A) (A)
                 (A) (A) (A) (A) (A) (A) (A) (A) (A) (A) (A) (A)
                 (A) (A) (A) (A) (A) (A) (A) (A) (A) (A) (A) (A)
                 (A) (A) (A) (A) (A) (A) (A) (A) (A) (A) (A) (A)
                 (A) (A) (A) (A) (A) (A) (A) (A) (A) (A) (A) (A)
                 (A) (A) (A) (A) (A) (A) (A) (A) (A) (A) (A) (A)
                 (A) (A) (A) (A) (A) (A) (A) (A) (A) (A) (A) (A)
                 (A) (A) (A) (A) (A) (A) (A) (A) (A) (A) (A) (A)
                 (A) (A) (A) (A) (A) (A) (A) (A) (A) (A) (A) (A)
                 (A) (A) (A) (A) (A) (A) (A) (A) (A) (A) (A) (A)
                 (A) (A) (A) (A) (A) (A) (A) (A) (A) (A) (A) (A)
                 (A) (A) (A) (A) (A) (A) (A) (A) (A) (A) (A) (A)
                 (A) (A) (A) (A) (A) (A) (A) (A) (A) (A) (A) (A)
                 (A) (A) (A) (A) (A) (A) (A) (A) (A) (A) (A) (A)
                 (A) (A) (A) (A) (A) (A) (A) (A) (A) (A) (A) (A)
                 (A) (A) (A) (A) (A) (A) (A) (A) (A) (A) (A) (A)
                 (A) (A) (A) (A) (A) (A) (A) (A) (A) (A) (A) (A)
                 (A) (A) (A) (A) (A) (A) (A) (A) (A) (A) (A) (A)
                 (A) (A) (A) (A) (A) (A) (A) (A) (A) (A) (A) (A)
                 (A) (A) (A) (A) (A) (A) (A) (A) (A) (A) (A) (A)
                 (A) (A) (A) (A) (A) (A) (A) (A) (A) (A) (A) (A)
                 (A) (A) (A) (A) (A) (A) (A) (A) (A) (A) (A) (A)
                 (A) (A) (A) (A) (A) (A) (A) (A) (A) (A) (A) (A)
                 (A) (A) (A) (A) (A) (A) (A) (A) (A) (A) (A) (A)
                 (A) (A) (A) (A) (A) (A) (A) (A) (A) (A) (A) (A)
                 (A) (A) (A) (A) (A) (A) (A) (A) (A) (A) (A) (A)
                 (A) (A) (A) (A) (A) (A) (A) (A) (A) (A) (A) (A)
                 (A) (A) (A) (A) (A) (A) (A) (A) (A) (A) (A) (A)
                 (A) (A) (A) (A) (A) (A) (A) (A) (A) (A) (A) (A)
                 (A) (A) (A) (A) (A) (A) (A) (A) (A) (A) (A) (A)
                 (A) (A) (A) (A) (A) (A) (A) (A) (A) (A) (A) (A)
                 (A) (A) (A) (A) (A) (A) (A) (A) (A) (A) (A) (A)
                 (A) (A) (A) (A) (A) (A) (A) (A) (A) (A) (A) (A)
                 (A) (A) (A) (A) (A) (A) (A) (A) (A) (A) (A) (A)
                 (A) (A) (A)
 The electronic state is 1-A.
 Alpha  occ. eigenvalues -- -145.37262 -19.14560 -19.13890 -19.13653 -19.12794
 Alpha  occ. eigenvalues --  -19.12170 -19.11637 -19.11168 -19.10704 -19.10585
 Alpha  occ. eigenvalues --  -19.10570 -19.10282 -19.09141 -19.07911 -19.07445
 Alpha  occ. eigenvalues --  -19.07408 -19.07044 -19.05753 -19.05571 -19.05170
 Alpha  occ. eigenvalues --  -19.05119 -19.04505 -19.03043 -19.02065 -15.43056
 Alpha  occ. eigenvalues --  -14.57375 -14.39380 -14.38444 -14.37588 -14.37130
 Alpha  occ. eigenvalues --  -14.37104 -14.36331 -14.34813 -14.34172 -14.32767
 Alpha  occ. eigenvalues --  -14.32505 -14.32157 -14.31835 -14.31253 -14.29320
 Alpha  occ. eigenvalues --  -12.56673 -12.56625 -12.56610 -10.33991 -10.31697
 Alpha  occ. eigenvalues --  -10.31693 -10.30713 -10.30591 -10.29954 -10.29801
 Alpha  occ. eigenvalues --  -10.29258 -10.27675 -10.26913 -10.26630 -10.26495
 Alpha  occ. eigenvalues --  -10.26320 -10.26182 -10.26050 -10.25964 -10.25853
 Alpha  occ. eigenvalues --  -10.25094 -10.24947 -10.24600 -10.23881 -10.23838
 Alpha  occ. eigenvalues --  -10.23565 -10.23547 -10.23470 -10.22895 -10.22708
 Alpha  occ. eigenvalues --  -10.22656 -10.22556 -10.22467 -10.22295 -10.21998
 Alpha  occ. eigenvalues --  -10.21065 -10.21053 -10.20350 -10.20284 -10.20117
 Alpha  occ. eigenvalues --  -10.20070 -10.19748 -10.19702 -10.19287 -10.19251
 Alpha  occ. eigenvalues --  -10.19168 -10.18717 -10.18370 -10.18333 -10.18122
 Alpha  occ. eigenvalues --  -10.17946 -10.17822 -10.17801 -10.17696 -10.17651
 Alpha  occ. eigenvalues --  -10.17189 -10.13003  -1.79900  -1.12760  -1.07846
 Alpha  occ. eigenvalues --   -1.07462  -1.07330  -1.06989  -1.06094  -1.05674
 Alpha  occ. eigenvalues --   -1.04833  -1.04559  -1.04174  -1.03500  -1.03410
 Alpha  occ. eigenvalues --   -1.02065  -1.01646  -1.01592  -1.01298  -1.00581
 Alpha  occ. eigenvalues --   -1.00336  -1.00256  -0.99664  -0.98811  -0.98254
 Alpha  occ. eigenvalues --   -0.97099  -0.96439  -0.96203  -0.95143  -0.94948
 Alpha  occ. eigenvalues --   -0.93848  -0.93672  -0.92687  -0.92001  -0.91924
 Alpha  occ. eigenvalues --   -0.91182  -0.90706  -0.90311  -0.89128  -0.89080
 Alpha  occ. eigenvalues --   -0.88631  -0.87732  -0.87640  -0.87377  -0.86766
 Alpha  occ. eigenvalues --   -0.83736  -0.82991  -0.82376  -0.80994  -0.80195
 Alpha  occ. eigenvalues --   -0.78895  -0.78756  -0.78500  -0.77538  -0.76272
 Alpha  occ. eigenvalues --   -0.75782  -0.75086  -0.74637  -0.73627  -0.73347
 Alpha  occ. eigenvalues --   -0.73107  -0.72903  -0.72539  -0.71714  -0.70751
 Alpha  occ. eigenvalues --   -0.70188  -0.69257  -0.68936  -0.68512  -0.68275
 Alpha  occ. eigenvalues --   -0.67234  -0.66093  -0.66031  -0.65885  -0.65080
 Alpha  occ. eigenvalues --   -0.64639  -0.63254  -0.63035  -0.62490  -0.61710
 Alpha  occ. eigenvalues --   -0.61665  -0.61438  -0.60790  -0.60693  -0.60544
 Alpha  occ. eigenvalues --   -0.60201  -0.59988  -0.58759  -0.58678  -0.57921
 Alpha  occ. eigenvalues --   -0.57792  -0.57401  -0.57210  -0.56787  -0.56162
 Alpha  occ. eigenvalues --   -0.55841  -0.55571  -0.55208  -0.55123  -0.54753
 Alpha  occ. eigenvalues --   -0.54540  -0.54169  -0.53616  -0.53515  -0.53239
 Alpha  occ. eigenvalues --   -0.53174  -0.53004  -0.52578  -0.52375  -0.52000
 Alpha  occ. eigenvalues --   -0.51841  -0.51188  -0.50741  -0.50707  -0.50339
 Alpha  occ. eigenvalues --   -0.50234  -0.50019  -0.49409  -0.49347  -0.49123
 Alpha  occ. eigenvalues --   -0.48955  -0.48797  -0.48607  -0.48508  -0.48184
 Alpha  occ. eigenvalues --   -0.47956  -0.47832  -0.47751  -0.47152  -0.47027
 Alpha  occ. eigenvalues --   -0.46623  -0.46477  -0.46405  -0.46114  -0.46062
 Alpha  occ. eigenvalues --   -0.45899  -0.45341  -0.45198  -0.45102  -0.45033
 Alpha  occ. eigenvalues --   -0.44881  -0.44745  -0.44617  -0.44310  -0.44287
 Alpha  occ. eigenvalues --   -0.44223  -0.44085  -0.43966  -0.43854  -0.43688
 Alpha  occ. eigenvalues --   -0.43313  -0.43306  -0.43241  -0.43010  -0.42981
 Alpha  occ. eigenvalues --   -0.42707  -0.42541  -0.42447  -0.42226  -0.42159
 Alpha  occ. eigenvalues --   -0.41972  -0.41807  -0.41721  -0.41475  -0.41240
 Alpha  occ. eigenvalues --   -0.41169  -0.41062  -0.40751  -0.40568  -0.40326
 Alpha  occ. eigenvalues --   -0.40240  -0.40162  -0.40046  -0.39845  -0.39821
 Alpha  occ. eigenvalues --   -0.39563  -0.39520  -0.39469  -0.39282  -0.39141
 Alpha  occ. eigenvalues --   -0.38989  -0.38922  -0.38845  -0.38814  -0.38545
 Alpha  occ. eigenvalues --   -0.38346  -0.38196  -0.38108  -0.37831  -0.37722
 Alpha  occ. eigenvalues --   -0.37642  -0.37617  -0.37470  -0.37281  -0.37088
 Alpha  occ. eigenvalues --   -0.36907  -0.36552  -0.36515  -0.36193  -0.36116
 Alpha  occ. eigenvalues --   -0.35803  -0.35642  -0.35638  -0.35355  -0.35253
 Alpha  occ. eigenvalues --   -0.35049  -0.34832  -0.34574  -0.34295  -0.34121
 Alpha  occ. eigenvalues --   -0.34063  -0.33803  -0.33385  -0.33341  -0.33088
 Alpha  occ. eigenvalues --   -0.32987  -0.32729  -0.32025  -0.31914  -0.31648
 Alpha  occ. eigenvalues --   -0.30885  -0.30717  -0.30430  -0.30056  -0.29825
 Alpha  occ. eigenvalues --   -0.29798  -0.29528  -0.29470  -0.29120  -0.29027
 Alpha  occ. eigenvalues --   -0.28710  -0.28379  -0.28196  -0.27633  -0.27319
 Alpha  occ. eigenvalues --   -0.27062  -0.26872  -0.26682  -0.26251  -0.26021
 Alpha  occ. eigenvalues --   -0.25706  -0.25496  -0.24852  -0.24655  -0.24325
 Alpha  occ. eigenvalues --   -0.24078  -0.23946  -0.23683  -0.23645  -0.23578
 Alpha  occ. eigenvalues --   -0.22793  -0.22643  -0.22377  -0.22078  -0.21913
 Alpha  occ. eigenvalues --   -0.21279  -0.20999  -0.20805  -0.20507  -0.20206
 Alpha  occ. eigenvalues --   -0.19958  -0.19452  -0.18180
 Alpha virt. eigenvalues --   -0.09435  -0.03525  -0.03002  -0.02366  -0.01377
 Alpha virt. eigenvalues --   -0.00978  -0.00738  -0.00447  -0.00354  -0.00305
 Alpha virt. eigenvalues --    0.00078   0.00220   0.00555   0.00992   0.01661
 Alpha virt. eigenvalues --    0.01977   0.02177   0.02441   0.02804   0.03183
 Alpha virt. eigenvalues --    0.03559   0.03639   0.03819   0.04020   0.04077
 Alpha virt. eigenvalues --    0.04681   0.04977   0.05142   0.05489   0.05899
 Alpha virt. eigenvalues --    0.06156   0.06321   0.06423   0.06518   0.06535
 Alpha virt. eigenvalues --    0.06854   0.06897   0.07169   0.07446   0.07676
 Alpha virt. eigenvalues --    0.07946   0.08082   0.08301   0.08483   0.08679
 Alpha virt. eigenvalues --    0.08819   0.08936   0.09325   0.09536   0.09702
 Alpha virt. eigenvalues --    0.09759   0.10005   0.10059   0.10196   0.10504
 Alpha virt. eigenvalues --    0.10818   0.10991   0.11342   0.11437   0.11511
 Alpha virt. eigenvalues --    0.11663   0.12054   0.12101   0.12414   0.12549
 Alpha virt. eigenvalues --    0.12729   0.12753   0.12920   0.13065   0.13292
 Alpha virt. eigenvalues --    0.13598   0.13755   0.13799   0.14219   0.14274
 Alpha virt. eigenvalues --    0.14420   0.14544   0.14797   0.14878   0.15115
 Alpha virt. eigenvalues --    0.15348   0.15375   0.15473   0.15674   0.15936
 Alpha virt. eigenvalues --    0.16071   0.16266   0.16382   0.16645   0.16681
 Alpha virt. eigenvalues --    0.16868   0.17056   0.17241   0.17372   0.17508
 Alpha virt. eigenvalues --    0.17538   0.17869   0.18203   0.18233   0.18387
 Alpha virt. eigenvalues --    0.18753   0.18913   0.19168   0.19292   0.19364
 Alpha virt. eigenvalues --    0.19688   0.19896   0.20181   0.20335   0.20473
 Alpha virt. eigenvalues --    0.20532   0.20622   0.20818   0.20893   0.21069
 Alpha virt. eigenvalues --    0.21267   0.21813   0.21888   0.22188   0.22308
 Alpha virt. eigenvalues --    0.22536   0.22799   0.22819   0.22847   0.23062
 Alpha virt. eigenvalues --    0.23428   0.23540   0.23906   0.24190   0.24300
 Alpha virt. eigenvalues --    0.24576   0.24848   0.25070   0.25338   0.25555
 Alpha virt. eigenvalues --    0.25727   0.25876   0.26223   0.26278   0.26526
 Alpha virt. eigenvalues --    0.26708   0.26797   0.27164   0.27358   0.27475
 Alpha virt. eigenvalues --    0.27977   0.28184   0.28204   0.28500   0.28671
 Alpha virt. eigenvalues --    0.28933   0.29030   0.29597   0.29811   0.30269
 Alpha virt. eigenvalues --    0.30456   0.30569   0.30764   0.30876   0.31132
 Alpha virt. eigenvalues --    0.31247   0.31416   0.31668   0.32038   0.32123
 Alpha virt. eigenvalues --    0.32371   0.32609   0.32880   0.33036   0.33216
 Alpha virt. eigenvalues --    0.33311   0.33475   0.33763   0.33914   0.34223
 Alpha virt. eigenvalues --    0.34964   0.35191   0.35370   0.36038   0.36526
 Alpha virt. eigenvalues --    0.36890   0.37118   0.37559   0.37776   0.37996
 Alpha virt. eigenvalues --    0.38185   0.38280   0.38630   0.39067   0.39078
 Alpha virt. eigenvalues --    0.39162   0.39743   0.39981   0.40083   0.40520
 Alpha virt. eigenvalues --    0.40642   0.41021   0.41218   0.41399   0.41771
 Alpha virt. eigenvalues --    0.41879   0.42186   0.42325   0.42597   0.42638
 Alpha virt. eigenvalues --    0.42784   0.43062   0.43422   0.43656   0.43985
 Alpha virt. eigenvalues --    0.44229   0.44383   0.44686   0.44978   0.45187
 Alpha virt. eigenvalues --    0.45405   0.45517   0.45679   0.45874   0.46053
 Alpha virt. eigenvalues --    0.46171   0.46267   0.46481   0.46671   0.46716
 Alpha virt. eigenvalues --    0.47017   0.47517   0.47558   0.47724   0.47824
 Alpha virt. eigenvalues --    0.48065   0.48275   0.48450   0.48645   0.48895
 Alpha virt. eigenvalues --    0.49081   0.49312   0.49344   0.49540   0.49607
 Alpha virt. eigenvalues --    0.50205   0.50269   0.50441   0.50907   0.50997
 Alpha virt. eigenvalues --    0.51122   0.51367   0.51556   0.51757   0.51834
 Alpha virt. eigenvalues --    0.52087   0.52111   0.52434   0.52873   0.52968
 Alpha virt. eigenvalues --    0.53192   0.53411   0.53466   0.53571   0.53637
 Alpha virt. eigenvalues --    0.53950   0.54105   0.54290   0.54408   0.54634
 Alpha virt. eigenvalues --    0.54817   0.55078   0.55228   0.55321   0.55518
 Alpha virt. eigenvalues --    0.55670   0.55984   0.56112   0.56314   0.56410
 Alpha virt. eigenvalues --    0.56767   0.56924   0.57018   0.57288   0.57420
 Alpha virt. eigenvalues --    0.57648   0.57862   0.58152   0.58286   0.58344
 Alpha virt. eigenvalues --    0.58552   0.58625   0.58694   0.58902   0.59083
 Alpha virt. eigenvalues --    0.59351   0.59535   0.59609   0.59755   0.59886
 Alpha virt. eigenvalues --    0.60021   0.60197   0.60260   0.60373   0.60492
 Alpha virt. eigenvalues --    0.60738   0.60800   0.60998   0.61147   0.61294
 Alpha virt. eigenvalues --    0.61495   0.61614   0.61674   0.61792   0.61878
 Alpha virt. eigenvalues --    0.62110   0.62253   0.62276   0.62515   0.62610
 Alpha virt. eigenvalues --    0.62640   0.62664   0.62890   0.63061   0.63097
 Alpha virt. eigenvalues --    0.63350   0.63522   0.63756   0.63826   0.63944
 Alpha virt. eigenvalues --    0.63990   0.64257   0.64336   0.64414   0.64560
 Alpha virt. eigenvalues --    0.64665   0.64827   0.64866   0.65023   0.65126
 Alpha virt. eigenvalues --    0.65317   0.65408   0.65492   0.65592   0.65702
 Alpha virt. eigenvalues --    0.65750   0.65907   0.65958   0.66083   0.66192
 Alpha virt. eigenvalues --    0.66312   0.66350   0.66407   0.66771   0.66846
 Alpha virt. eigenvalues --    0.66991   0.67092   0.67171   0.67242   0.67364
 Alpha virt. eigenvalues --    0.67472   0.67584   0.67656   0.67725   0.67894
 Alpha virt. eigenvalues --    0.67986   0.68127   0.68246   0.68454   0.68538
 Alpha virt. eigenvalues --    0.68596   0.68743   0.68887   0.68984   0.69069
 Alpha virt. eigenvalues --    0.69320   0.69461   0.69536   0.69615   0.69775
 Alpha virt. eigenvalues --    0.69826   0.70026   0.70080   0.70305   0.70427
 Alpha virt. eigenvalues --    0.70503   0.70564   0.70791   0.71025   0.71097
 Alpha virt. eigenvalues --    0.71248   0.71319   0.71565   0.71618   0.72098
 Alpha virt. eigenvalues --    0.72279   0.72309   0.72417   0.72687   0.72981
 Alpha virt. eigenvalues --    0.73118   0.73270   0.73592   0.73755   0.73861
 Alpha virt. eigenvalues --    0.74121   0.74164   0.74445   0.74533   0.74767
 Alpha virt. eigenvalues --    0.74849   0.75125   0.75315   0.75368   0.75510
 Alpha virt. eigenvalues --    0.75891   0.76064   0.76186   0.76457   0.76541
 Alpha virt. eigenvalues --    0.76621   0.77074   0.77288   0.77688   0.77749
 Alpha virt. eigenvalues --    0.78198   0.78357   0.78525   0.78849   0.78928
 Alpha virt. eigenvalues --    0.79254   0.79319   0.79426   0.79773   0.80111
 Alpha virt. eigenvalues --    0.80245   0.80604   0.80737   0.80898   0.81141
 Alpha virt. eigenvalues --    0.81206   0.81337   0.81660   0.81983   0.82206
 Alpha virt. eigenvalues --    0.82303   0.82850   0.83356   0.83453   0.83536
 Alpha virt. eigenvalues --    0.83804   0.84307   0.84512   0.84767   0.84983
 Alpha virt. eigenvalues --    0.85414   0.85661   0.85938   0.86056   0.86396
 Alpha virt. eigenvalues --    0.86951   0.87364   0.87715   0.87872   0.88242
 Alpha virt. eigenvalues --    0.88481   0.88867   0.89096   0.89520   0.89599
 Alpha virt. eigenvalues --    0.90034   0.90163   0.90433   0.90558   0.90672
 Alpha virt. eigenvalues --    0.91337   0.91428   0.91875   0.92144   0.92817
 Alpha virt. eigenvalues --    0.93195   0.93607   0.93892   0.94023   0.94202
 Alpha virt. eigenvalues --    0.94474   0.94647   0.94918   0.95007   0.95171
 Alpha virt. eigenvalues --    0.95680   0.95915   0.96061   0.96223   0.96694
 Alpha virt. eigenvalues --    0.97203   0.97209   0.97608   0.97633   0.98175
 Alpha virt. eigenvalues --    0.98455   0.98515   0.98778   0.99129   0.99331
 Alpha virt. eigenvalues --    0.99745   0.99813   1.00024   1.00725   1.00973
 Alpha virt. eigenvalues --    1.01299   1.01463   1.02116   1.02447   1.02660
 Alpha virt. eigenvalues --    1.03063   1.03181   1.03417   1.04094   1.04604
 Alpha virt. eigenvalues --    1.04681   1.04970   1.05077   1.05263   1.05720
 Alpha virt. eigenvalues --    1.05850   1.06023   1.06300   1.06700   1.07243
 Alpha virt. eigenvalues --    1.07378   1.07754   1.07908   1.08234   1.08684
 Alpha virt. eigenvalues --    1.09007   1.09382   1.09773   1.09956   1.10216
 Alpha virt. eigenvalues --    1.10349   1.10650   1.10907   1.11216   1.11453
 Alpha virt. eigenvalues --    1.11657   1.11967   1.12277   1.13219   1.13497
 Alpha virt. eigenvalues --    1.13608   1.13937   1.14083   1.14515   1.14672
 Alpha virt. eigenvalues --    1.14851   1.15142   1.15354   1.15423   1.15700
 Alpha virt. eigenvalues --    1.16168   1.16275   1.16653   1.16814   1.17225
 Alpha virt. eigenvalues --    1.17646   1.18223   1.18316   1.18460   1.18703
 Alpha virt. eigenvalues --    1.19118   1.19400   1.19563   1.19784   1.19944
 Alpha virt. eigenvalues --    1.20168   1.20280   1.20675   1.20817   1.20981
 Alpha virt. eigenvalues --    1.21040   1.21541   1.21702   1.21971   1.22169
 Alpha virt. eigenvalues --    1.22307   1.22652   1.22803   1.23151   1.23570
 Alpha virt. eigenvalues --    1.23713   1.23883   1.24255   1.24460   1.24544
 Alpha virt. eigenvalues --    1.24784   1.24977   1.25412   1.25802   1.25949
 Alpha virt. eigenvalues --    1.26325   1.26384   1.26566   1.26914   1.27139
 Alpha virt. eigenvalues --    1.27451   1.27762   1.28139   1.28453   1.28683
 Alpha virt. eigenvalues --    1.28867   1.29401   1.29552   1.29945   1.30084
 Alpha virt. eigenvalues --    1.30393   1.30641   1.30780   1.30958   1.31089
 Alpha virt. eigenvalues --    1.31289   1.31556   1.31765   1.32101   1.32245
 Alpha virt. eigenvalues --    1.32554   1.32940   1.33592   1.33756   1.34292
 Alpha virt. eigenvalues --    1.34674   1.34873   1.35217   1.35564   1.35863
 Alpha virt. eigenvalues --    1.36021   1.36199   1.36716   1.37016   1.37128
 Alpha virt. eigenvalues --    1.37438   1.37559   1.37990   1.38213   1.38619
 Alpha virt. eigenvalues --    1.38654   1.38966   1.39207   1.39374   1.39736
 Alpha virt. eigenvalues --    1.40044   1.40164   1.40361   1.40703   1.40967
 Alpha virt. eigenvalues --    1.41418   1.41495   1.41847   1.42072   1.42464
 Alpha virt. eigenvalues --    1.42744   1.42886   1.43183   1.43333   1.43829
 Alpha virt. eigenvalues --    1.44245   1.44359   1.44499   1.44816   1.44994
 Alpha virt. eigenvalues --    1.45563   1.45714   1.45815   1.45970   1.46235
 Alpha virt. eigenvalues --    1.46367   1.46803   1.46998   1.47166   1.47543
 Alpha virt. eigenvalues --    1.47761   1.47958   1.48212   1.48399   1.48977
 Alpha virt. eigenvalues --    1.49437   1.49581   1.49682   1.49866   1.50288
 Alpha virt. eigenvalues --    1.51235   1.51654   1.51901   1.52204   1.52254
 Alpha virt. eigenvalues --    1.52896   1.53088   1.53258   1.53700   1.53893
 Alpha virt. eigenvalues --    1.54223   1.54352   1.54836   1.55160   1.55580
 Alpha virt. eigenvalues --    1.56020   1.56235   1.56401   1.56716   1.57139
 Alpha virt. eigenvalues --    1.57536   1.58068   1.58467   1.58953   1.59363
 Alpha virt. eigenvalues --    1.59653   1.60146   1.60369   1.60707   1.60969
 Alpha virt. eigenvalues --    1.61184   1.61303   1.61436   1.61738   1.62144
 Alpha virt. eigenvalues --    1.62312   1.62473   1.63098   1.63327   1.63518
 Alpha virt. eigenvalues --    1.64006   1.64275   1.64452   1.65028   1.65204
 Alpha virt. eigenvalues --    1.65586   1.65688   1.66183   1.66332   1.66654
 Alpha virt. eigenvalues --    1.66698   1.67081   1.67135   1.67402   1.67590
 Alpha virt. eigenvalues --    1.67822   1.68192   1.68320   1.68948   1.69289
 Alpha virt. eigenvalues --    1.69435   1.69545   1.69847   1.70173   1.70221
 Alpha virt. eigenvalues --    1.70353   1.70484   1.70816   1.70884   1.71241
 Alpha virt. eigenvalues --    1.71780   1.71808   1.72032   1.72463   1.72631
 Alpha virt. eigenvalues --    1.72675   1.73110   1.73153   1.73493   1.73626
 Alpha virt. eigenvalues --    1.73956   1.74542   1.74779   1.75072   1.75174
 Alpha virt. eigenvalues --    1.75403   1.75633   1.75812   1.75883   1.76099
 Alpha virt. eigenvalues --    1.76162   1.76304   1.76489   1.76585   1.76804
 Alpha virt. eigenvalues --    1.76956   1.77090   1.77315   1.77499   1.77519
 Alpha virt. eigenvalues --    1.77614   1.77903   1.77959   1.78242   1.78477
 Alpha virt. eigenvalues --    1.78598   1.78862   1.79000   1.79071   1.79238
 Alpha virt. eigenvalues --    1.79368   1.79415   1.79662   1.79701   1.79842
 Alpha virt. eigenvalues --    1.79979   1.80180   1.80300   1.80330   1.80444
 Alpha virt. eigenvalues --    1.80581   1.80876   1.81320   1.81591   1.81755
 Alpha virt. eigenvalues --    1.81940   1.82077   1.82209   1.82332   1.82540
 Alpha virt. eigenvalues --    1.82726   1.82921   1.83070   1.83325   1.83440
 Alpha virt. eigenvalues --    1.83465   1.83643   1.83832   1.84071   1.84426
 Alpha virt. eigenvalues --    1.84654   1.84663   1.84966   1.84986   1.85423
 Alpha virt. eigenvalues --    1.85804   1.85853   1.85998   1.86364   1.86577
 Alpha virt. eigenvalues --    1.87081   1.87364   1.87599   1.87717   1.88005
 Alpha virt. eigenvalues --    1.88254   1.88487   1.88565   1.88753   1.88984
 Alpha virt. eigenvalues --    1.89046   1.89336   1.89506   1.89755   1.89884
 Alpha virt. eigenvalues --    1.90023   1.90191   1.90376   1.90637   1.90707
 Alpha virt. eigenvalues --    1.90753   1.90905   1.91070   1.91303   1.91500
 Alpha virt. eigenvalues --    1.91909   1.92085   1.92210   1.92386   1.92574
 Alpha virt. eigenvalues --    1.92822   1.92983   1.93242   1.93592   1.93724
 Alpha virt. eigenvalues --    1.94048   1.94215   1.94422   1.94629   1.94818
 Alpha virt. eigenvalues --    1.95022   1.95152   1.95376   1.95579   1.95835
 Alpha virt. eigenvalues --    1.95938   1.96129   1.96806   1.97025   1.97109
 Alpha virt. eigenvalues --    1.97342   1.97774   1.97831   1.98053   1.98276
 Alpha virt. eigenvalues --    1.98599   1.98706   1.98872   1.99017   1.99234
 Alpha virt. eigenvalues --    1.99391   1.99802   1.99885   2.00183   2.00249
 Alpha virt. eigenvalues --    2.00573   2.01025   2.01081   2.01462   2.01887
 Alpha virt. eigenvalues --    2.02134   2.02364   2.02601   2.02947   2.03135
 Alpha virt. eigenvalues --    2.03256   2.03363   2.03689   2.04090   2.04158
 Alpha virt. eigenvalues --    2.04695   2.04725   2.05021   2.05419   2.05543
 Alpha virt. eigenvalues --    2.05797   2.05976   2.06300   2.06493   2.06572
 Alpha virt. eigenvalues --    2.06871   2.07184   2.07652   2.07793   2.08032
 Alpha virt. eigenvalues --    2.08340   2.08628   2.09013   2.09188   2.09318
 Alpha virt. eigenvalues --    2.09581   2.09863   2.09949   2.10308   2.10549
 Alpha virt. eigenvalues --    2.11085   2.11375   2.11475   2.11889   2.11968
 Alpha virt. eigenvalues --    2.12394   2.12639   2.12746   2.12971   2.13111
 Alpha virt. eigenvalues --    2.13787   2.13963   2.14155   2.14509   2.15206
 Alpha virt. eigenvalues --    2.15415   2.15567   2.15763   2.15902   2.16289
 Alpha virt. eigenvalues --    2.16422   2.16584   2.17061   2.17494   2.17614
 Alpha virt. eigenvalues --    2.17998   2.18357   2.18689   2.19055   2.19319
 Alpha virt. eigenvalues --    2.19409   2.19660   2.19812   2.19822   2.20313
 Alpha virt. eigenvalues --    2.20858   2.20943   2.22013   2.22169   2.22525
 Alpha virt. eigenvalues --    2.22803   2.22961   2.23373   2.23795   2.23979
 Alpha virt. eigenvalues --    2.24176   2.24606   2.24854   2.25071   2.25377
 Alpha virt. eigenvalues --    2.25875   2.26030   2.26333   2.26852   2.27549
 Alpha virt. eigenvalues --    2.27730   2.28142   2.28600   2.28641   2.28835
 Alpha virt. eigenvalues --    2.29234   2.29517   2.29688   2.30198   2.30501
 Alpha virt. eigenvalues --    2.30742   2.31194   2.31448   2.32035   2.32354
 Alpha virt. eigenvalues --    2.32597   2.32895   2.32924   2.33469   2.33820
 Alpha virt. eigenvalues --    2.34028   2.34335   2.34837   2.35021   2.35331
 Alpha virt. eigenvalues --    2.35503   2.36201   2.36513   2.36602   2.37156
 Alpha virt. eigenvalues --    2.37273   2.37601   2.37791   2.38281   2.38488
 Alpha virt. eigenvalues --    2.38698   2.39011   2.39527   2.39791   2.39944
 Alpha virt. eigenvalues --    2.40239   2.40491   2.40761   2.41114   2.41233
 Alpha virt. eigenvalues --    2.41738   2.41875   2.42115   2.42422   2.42705
 Alpha virt. eigenvalues --    2.42847   2.42919   2.43272   2.43690   2.43715
 Alpha virt. eigenvalues --    2.44043   2.44254   2.44748   2.45141   2.45548
 Alpha virt. eigenvalues --    2.45976   2.46525   2.46588   2.47104   2.47369
 Alpha virt. eigenvalues --    2.47744   2.48163   2.48624   2.48808   2.49330
 Alpha virt. eigenvalues --    2.49468   2.50199   2.50414   2.50799   2.50847
 Alpha virt. eigenvalues --    2.51087   2.51402   2.52124   2.52496   2.52706
 Alpha virt. eigenvalues --    2.52851   2.53651   2.54003   2.54962   2.55135
 Alpha virt. eigenvalues --    2.55333   2.55590   2.55811   2.56196   2.56296
 Alpha virt. eigenvalues --    2.56893   2.57119   2.57933   2.58226   2.58295
 Alpha virt. eigenvalues --    2.58800   2.59144   2.59615   2.60047   2.60155
 Alpha virt. eigenvalues --    2.60298   2.60343   2.60753   2.61146   2.61426
 Alpha virt. eigenvalues --    2.61613   2.62169   2.62520   2.63003   2.63107
 Alpha virt. eigenvalues --    2.63350   2.63983   2.64226   2.64649   2.64791
 Alpha virt. eigenvalues --    2.65325   2.65368   2.65529   2.65755   2.66294
 Alpha virt. eigenvalues --    2.66560   2.66655   2.67143   2.67251   2.67458
 Alpha virt. eigenvalues --    2.67792   2.68042   2.68238   2.68403   2.68907
 Alpha virt. eigenvalues --    2.69122   2.69997   2.70222   2.70488   2.70763
 Alpha virt. eigenvalues --    2.71169   2.71557   2.71716   2.72128   2.72207
 Alpha virt. eigenvalues --    2.72520   2.72706   2.72724   2.73344   2.73455
 Alpha virt. eigenvalues --    2.73691   2.73931   2.73940   2.74361   2.74452
 Alpha virt. eigenvalues --    2.74800   2.74843   2.75000   2.75413   2.75747
 Alpha virt. eigenvalues --    2.75951   2.76071   2.76478   2.76629   2.76705
 Alpha virt. eigenvalues --    2.76796   2.76998   2.77799   2.78367   2.78484
 Alpha virt. eigenvalues --    2.78801   2.79003   2.79363   2.79848   2.80199
 Alpha virt. eigenvalues --    2.80370   2.80920   2.81215   2.81529   2.81586
 Alpha virt. eigenvalues --    2.82311   2.82648   2.82706   2.83429   2.83634
 Alpha virt. eigenvalues --    2.83763   2.84048   2.84244   2.84603   2.84897
 Alpha virt. eigenvalues --    2.85101   2.85368   2.85779   2.85993   2.86116
 Alpha virt. eigenvalues --    2.86359   2.86449   2.87064   2.87154   2.88101
 Alpha virt. eigenvalues --    2.88191   2.88639   2.89003   2.89162   2.89694
 Alpha virt. eigenvalues --    2.90122   2.90201   2.90206   2.90646   2.90878
 Alpha virt. eigenvalues --    2.91139   2.91689   2.92197   2.92525   2.92775
 Alpha virt. eigenvalues --    2.93277   2.93856   2.93868   2.93981   2.94222
 Alpha virt. eigenvalues --    2.94408   2.94826   2.95236   2.95320   2.95711
 Alpha virt. eigenvalues --    2.96245   2.96530   2.96563   2.97039   2.97317
 Alpha virt. eigenvalues --    2.97650   2.97755   2.98176   2.98428   2.98795
 Alpha virt. eigenvalues --    2.98982   2.99302   2.99462   2.99710   3.00121
 Alpha virt. eigenvalues --    3.00418   3.00629   3.00778   3.00915   3.01158
 Alpha virt. eigenvalues --    3.01283   3.01658   3.02122   3.02400   3.02473
 Alpha virt. eigenvalues --    3.03058   3.03214   3.03342   3.03433   3.03625
 Alpha virt. eigenvalues --    3.04026   3.04959   3.05150   3.05528   3.06092
 Alpha virt. eigenvalues --    3.07163   3.07204   3.07470   3.07904   3.08392
 Alpha virt. eigenvalues --    3.08891   3.09442   3.09672   3.10755   3.11713
 Alpha virt. eigenvalues --    3.12334   3.13546   3.13619   3.13693   3.13890
 Alpha virt. eigenvalues --    3.13932   3.14494   3.15279   3.15637   3.15851
 Alpha virt. eigenvalues --    3.16353   3.16520   3.16787   3.17000   3.17286
 Alpha virt. eigenvalues --    3.17877   3.18113   3.18392   3.18707   3.18911
 Alpha virt. eigenvalues --    3.19064   3.19102   3.19595   3.19701   3.20109
 Alpha virt. eigenvalues --    3.20222   3.20799   3.21075   3.21646   3.21969
 Alpha virt. eigenvalues --    3.22614   3.22742   3.23389   3.23631   3.23892
 Alpha virt. eigenvalues --    3.24064   3.24899   3.25172   3.25970   3.26001
 Alpha virt. eigenvalues --    3.26497   3.27397   3.28310   3.29623   3.30133
 Alpha virt. eigenvalues --    3.31306   3.31580   3.32062   3.32530   3.32994
 Alpha virt. eigenvalues --    3.34543   3.36637   3.38244   3.38274   3.38397
 Alpha virt. eigenvalues --    3.40939   3.43375   3.46347   3.50538   3.51448
 Alpha virt. eigenvalues --    3.52063   3.54144   3.54604   3.54887   3.57478
 Alpha virt. eigenvalues --    3.57780   3.58405   3.59056   3.59325   3.59646
 Alpha virt. eigenvalues --    3.60024   3.60641   3.60948   3.61995   3.62996
 Alpha virt. eigenvalues --    3.64151   3.65689   3.66378   3.67146   3.67572
 Alpha virt. eigenvalues --    3.67870   3.68141   3.68727   3.69282   3.70014
 Alpha virt. eigenvalues --    3.70223   3.70377   3.70565   3.70990   3.71420
 Alpha virt. eigenvalues --    3.72019   3.72418   3.73095   3.73581   3.76386
 Alpha virt. eigenvalues --    3.77397   3.83693   3.88281   3.95019
          Condensed to atoms (all electrons):
 Mulliken charges:
               1
     1  C    0.050612
     2  C    0.008850
     3  O   -0.300770
     4  H    0.048896
     5  H    0.019231
     6  H    0.010478
     7  N   -0.107224
     8  C    0.133130
     9  C    0.015786
    10  O   -0.305296
    11  C    0.143639
    12  C    0.100374
    13  O   -0.380996
    14  O   -0.456520
    15  H    0.117024
    16  H    0.002844
    17  H   -0.008863
    18  H    0.025403
    19  N   -0.142935
    20  C    0.121774
    21  C    0.054291
    22  O   -0.292675
    23  C    0.035190
    24  C   -0.023217
    25  C    0.041323
    26  C   -0.026650
    27  N    0.076042
    28  H    0.139214
    29  H    0.015091
    30  H    0.020007
    31  H    0.015681
    32  H    0.039932
    33  H   -0.007626
    34  H    0.036817
    35  H    0.046380
    36  H    0.068503
    37  H    0.049829
    38  H    0.191941
    39  H    0.212685
    40  H    0.185078
    41  N   -0.121855
    42  C    0.122508
    43  C    0.061516
    44  O   -0.289309
    45  C    0.095199
    46  C    0.131367
    47  O   -0.399708
    48  O   -0.462008
    49  H    0.149064
    50  H    0.015720
    51  H   -0.001499
    52  H    0.027257
    53  N   -0.153125
    54  C    0.206399
    55  C    0.044191
    56  O   -0.303108
    57  H    0.114630
    58  H    0.024264
    59  H    0.018730
    60  N   -0.176379
    61  C    0.160945
    62  C    0.019327
    63  O   -0.303543
    64  C    0.104829
    65  C    0.111346
    66  N   -0.040522
    67  O   -0.363389
    68  H    0.152088
    69  H    0.026448
    70  H    0.075719
    71  H   -0.004100
    72  H    0.131638
    73  H    0.122720
    74  N   -0.154601
    75  C    0.248387
    76  C    0.048676
    77  O   -0.317394
    78  H    0.137219
    79  H    0.040007
    80  H    0.025281
    81  N   -0.122486
    82  C    0.049410
    83  C    0.150834
    84  O   -0.372218
    85  C    0.158009
    86  C   -0.028646
    87  C    0.029453
    88  C    0.077298
    89  C   -0.008276
    90  C   -0.050321
    91  C    0.169017
    92  O   -0.192380
    93  H    0.143136
    94  H    0.011801
    95  H   -0.005119
    96  H   -0.038973
    97  H   -0.066147
    98  H   -0.025419
    99  H   -0.036005
   100  H   -0.048513
   101  H    0.165757
   102  N   -0.117284
   103  C    0.131988
   104  C    0.073196
   105  O   -0.297338
   106  C   -0.092409
   107  C    0.072665
   108  C    0.041665
   109  C   -0.022753
   110  H    0.138017
   111  H    0.004413
   112  H   -0.012112
   113  H   -0.008895
   114  H   -0.016967
   115  H    0.001850
   116  H    0.031161
   117  H    0.012765
   118  H    0.015877
   119  H    0.011303
   120  H    0.022388
   121  N   -0.125670
   122  C    0.083569
   123  C    0.110797
   124  O   -0.287707
   125  C    0.240408
   126  O   -0.339695
   127  H    0.133421
   128  H    0.024731
   129  H   -0.000131
   130  H   -0.027088
   131  H    0.172363
   132  N   -0.142409
   133  C    0.085668
   134  C    0.043027
   135  O   -0.243617
   136  C    0.064646
   137  H    0.123952
   138  H    0.017055
   139  H    0.032401
   140  H    0.038588
   141  H    0.007345
   142  N   -0.132999
   143  C    0.115936
   144  C    0.065892
   145  O   -0.259985
   146  C    0.002334
   147  H    0.108618
   148  H    0.011940
   149  H    0.019969
   150  H    0.026707
   151  H    0.028453
   152  N   -0.172005
   153  C    0.138455
   154  C    0.089060
   155  O   -0.295224
   156  C   -0.015941
   157  C    0.092727
   158  C    0.210997
   159  O   -0.414216
   160  O   -0.452147
   161  H    0.126332
   162  H   -0.030454
   163  H    0.038599
   164  H   -0.002001
   165  H    0.018442
   166  H   -0.017974
   167  N   -0.170977
   168  C    0.125627
   169  H    0.004790
   170  H    0.027092
   171  H    0.028714
   172  H    0.140135
   173  Ca   1.300605
   174  O   -0.321145
   175  H    0.158235
   176  H    0.145806
 Sum of Mulliken charges =   0.00000
 Mulliken charges with hydrogens summed into heavy atoms:
               1
     1  C    0.129217
     2  C    0.008850
     3  O   -0.300770
     7  N    0.009800
     8  C    0.135975
     9  C    0.015786
    10  O   -0.305296
    11  C    0.160179
    12  C    0.100374
    13  O   -0.380996
    14  O   -0.456520
    19  N   -0.003721
    20  C    0.136865
    21  C    0.054291
    22  O   -0.292675
    23  C    0.070879
    24  C    0.009089
    25  C    0.124520
    26  C    0.091682
    27  N    0.665746
    41  N    0.027209
    42  C    0.138228
    43  C    0.061516
    44  O   -0.289309
    45  C    0.120957
    46  C    0.131367
    47  O   -0.399708
    48  O   -0.462008
    53  N   -0.038494
    54  C    0.249393
    55  C    0.044191
    56  O   -0.303108
    60  N   -0.024291
    61  C    0.187393
    62  C    0.019327
    63  O   -0.303543
    64  C    0.176449
    65  C    0.111346
    66  N    0.213836
    67  O   -0.363389
    74  N   -0.017382
    75  C    0.313675
    76  C    0.048676
    77  O   -0.317394
    81  N    0.020650
    82  C    0.061211
    83  C    0.150834
    84  O   -0.372218
    85  C    0.113917
    86  C   -0.028646
    87  C   -0.036694
    88  C    0.051879
    89  C   -0.044281
    90  C   -0.098834
    91  C    0.169017
    92  O   -0.026623
   102  N    0.020733
   103  C    0.136401
   104  C    0.073196
   105  O   -0.297338
   106  C   -0.104521
   107  C    0.046803
   108  C    0.087440
   109  C    0.026815
   121  N    0.007751
   122  C    0.108300
   123  C    0.110797
   124  O   -0.287707
   125  C    0.213189
   126  O   -0.167332
   132  N   -0.018457
   133  C    0.102724
   134  C    0.043027
   135  O   -0.243617
   136  C    0.142981
   142  N   -0.024381
   143  C    0.127876
   144  C    0.065892
   145  O   -0.259985
   146  C    0.077464
   152  N   -0.045673
   153  C    0.108001
   154  C    0.089060
   155  O   -0.295224
   156  C    0.020657
   157  C    0.093195
   158  C    0.210997
   159  O   -0.414216
   160  O   -0.452147
   167  N   -0.030842
   168  C    0.186222
   173  Ca   1.300605
   174  O   -0.017104
 DipInt: DoE/N= T F RetVal/Mat= T F Init=T NMatP=  1 IDeriv=0 Min/MaxMlt=  0  4
 Entering OneElI...
 OneElI was handed  4286741430 working-precision words.
 Multipole integrals L=0 to 4 MinM= 0 MaxM= 0.
 Requested accuracy = 0.1000D-12
 ShPair: Thresh= 1.00D-13 NBox=     0 BxSize= 0.00D+00 RnKept= 2.55D+01
         NSMCal=               327645 NSMKep=              162817
 PrsmSu:  NPrtUS=   1 ThrOK=F IAlg=1 NPAlg=1 LenDen=           0.
 Prism:   IPart=     0 DynPar=F LinDyn=F Incr=         512.
 PRISM was handed  4276586646 working-precision words and162817 shell-pairs
 IPart=  0 NShTot=      162817 NBatch=         457 AvBLen=       356.3
 PrSmSu:  NxtVal=            513.
 Electronic moments (au):
       -716.00000000          8.90386610          0.85272725          4.31367809
     -52926.35525674     -27128.94295627     -13664.98271295         71.10251847
         -0.08429557         99.36753101     -64915.22192944     -14869.16786827
      -6204.71519678      38768.01829629      94007.76079415      36991.96816418
     -15887.96989934     -12772.38915165     -10582.11779092     -48275.54493516
   -7776682.06440998   -2210351.89755570    -641260.71790250      -3389.76208424
     432747.14914006    -552922.17858864     -29478.64911905     -76391.83648001
     -28122.58822921   -1943982.99013651    -790485.05763051    -440072.60468690
     -73794.00344990     -24394.03680908      57977.82562511
 Electronic spatial extent (au):  <R**2>=          93720.2809
 DipInt: DoE/N= F T RetVal/Mat= T F Init=T NMatP=  1 IDeriv=0 Min/MaxMlt=  0  4
 Nuclear    moments (au):
        716.00000000          0.00000000          0.00000000          0.00000000
      52436.59202636      26781.66723109      13295.14488848          0.00000000
          0.00000000          0.00000000      65351.47951878      15800.25908803
       6633.60778385     -37578.22656307     -94117.39192031     -37105.63631160
      16360.79597237      12832.27890009      11301.24113955      48769.24692284
    7564735.49592898    2123702.44405751     596620.29161867       8070.16023907
    -437887.87167016     561383.67660494      38905.40805419      77675.30611512
      35013.83799655    1904052.09285010     757649.64031819     421632.57196050
      79192.94395815      27521.78298626     -53956.03863585
 Total      moments (au):
          0.00000000          8.90386610          0.85272725          4.31367809
       -489.76323037       -347.27572517       -369.83782448         71.10251847
         -0.08429557         99.36753101        436.25758934        931.09121976
        428.89258707       1189.79173322       -109.63112616       -113.66814742
        472.82607303         59.88974844        719.12334863        493.70198768
    -211946.56848099     -86649.45349819     -44640.42628383       4680.39815483
      -5140.72253010       8461.49801630       9426.75893515       1283.46963511
       6891.24976734     -39930.89728641     -32835.41731232     -18440.03272640
       5398.94050826       3127.74617718       4021.78698926
 Traceless Quadrup. (au):
        -87.47097037         55.01653483         32.45443553         71.10251847
         -0.08429557         99.36753101
 Charge=              0.0000 electrons
 Dipole moment (field-independent basis, Debye):
    X=             22.6314    Y=              2.1674    Z=             10.9643  Tot=             25.2407
 Quadrupole moment (field-independent basis, Debye-Ang):
   XX=           -658.7483   YY=           -467.0977   ZZ=           -497.4445
   XY=             95.6353   XZ=             -0.1134   YZ=            133.6527
 Traceless Quadrupole moment (field-independent basis, Debye-Ang):
   XX=           -117.6514   YY=             73.9991   ZZ=             43.6523
   XY=             95.6353   XZ=             -0.1134   YZ=            133.6527
 Octapole moment (field-independent basis, Debye-Ang**2):
  XXX=            310.5113  YYY=            662.7148  ZZZ=            305.2692  XYY=            846.8479
  XXY=            -78.0312  XXZ=            -80.9046  XZZ=            336.5394  YZZ=             42.6272
  YYZ=            511.8443  XYZ=            351.3980
 Hexadecapole moment (field-independent basis, Debye-Ang**3):
 XXXX=         -79829.2356 YYYY=         -32636.3370 ZZZZ=         -16813.7240 XXXY=           1762.8623
 XXXZ=          -1936.2425 YYYX=           3187.0057 YYYZ=           3550.5692 ZZZX=            483.4162
 ZZZY=           2595.5749 XXYY=         -15039.8897 XXZZ=         -12367.3919 YYZZ=          -6945.4001
 XXYZ=           2033.4997 YYXZ=           1178.0591 ZZXY=           1514.7977
 N-N= 2.179296690255D+04 E-N=-5.606528786316D+04  KE= 5.290728282105D+03
 Leave Link  601 at Mon Sep 16 18:10:28 2019, MaxMem=  4294967296 cpu:        21.9
 FitSet:  NAtFit=   176 NAtPot=   176 NAtFrz=     0 MDM=   180 TotChg=   0.00000
 Merz-Kollman atomic radii used.
 Read replacement radii for each type of atom:
 Rad(20) =   1.700000000000D+00
 Atom Element Radius
    1     6    1.50
    2     6    1.50
    3     8    1.40
    4     1    1.20
    5     1    1.20
    6     1    1.20
    7     7    1.50
    8     6    1.50
    9     6    1.50
   10     8    1.40
   11     6    1.50
   12     6    1.50
   13     8    1.40
   14     8    1.40
   15     1    1.20
   16     1    1.20
   17     1    1.20
   18     1    1.20
   19     7    1.50
   20     6    1.50
   21     6    1.50
   22     8    1.40
   23     6    1.50
   24     6    1.50
   25     6    1.50
   26     6    1.50
   27     7    1.50
   28     1    1.20
   29     1    1.20
   30     1    1.20
   31     1    1.20
   32     1    1.20
   33     1    1.20
   34     1    1.20
   35     1    1.20
   36     1    1.20
   37     1    1.20
   38     1    1.20
   39     1    1.20
   40     1    1.20
   41     7    1.50
   42     6    1.50
   43     6    1.50
   44     8    1.40
   45     6    1.50
   46     6    1.50
   47     8    1.40
   48     8    1.40
   49     1    1.20
   50     1    1.20
   51     1    1.20
   52     1    1.20
   53     7    1.50
   54     6    1.50
   55     6    1.50
   56     8    1.40
   57     1    1.20
   58     1    1.20
   59     1    1.20
   60     7    1.50
   61     6    1.50
   62     6    1.50
   63     8    1.40
   64     6    1.50
   65     6    1.50
   66     7    1.50
   67     8    1.40
   68     1    1.20
   69     1    1.20
   70     1    1.20
   71     1    1.20
   72     1    1.20
   73     1    1.20
   74     7    1.50
   75     6    1.50
   76     6    1.50
   77     8    1.40
   78     1    1.20
   79     1    1.20
   80     1    1.20
   81     7    1.50
   82     6    1.50
   83     6    1.50
   84     8    1.40
   85     6    1.50
   86     6    1.50
   87     6    1.50
   88     6    1.50
   89     6    1.50
   90     6    1.50
   91     6    1.50
   92     8    1.40
   93     1    1.20
   94     1    1.20
   95     1    1.20
   96     1    1.20
   97     1    1.20
   98     1    1.20
   99     1    1.20
  100     1    1.20
  101     1    1.20
  102     7    1.50
  103     6    1.50
  104     6    1.50
  105     8    1.40
  106     6    1.50
  107     6    1.50
  108     6    1.50
  109     6    1.50
  110     1    1.20
  111     1    1.20
  112     1    1.20
  113     1    1.20
  114     1    1.20
  115     1    1.20
  116     1    1.20
  117     1    1.20
  118     1    1.20
  119     1    1.20
  120     1    1.20
  121     7    1.50
  122     6    1.50
  123     6    1.50
  124     8    1.40
  125     6    1.50
  126     8    1.40
  127     1    1.20
  128     1    1.20
  129     1    1.20
  130     1    1.20
  131     1    1.20
  132     7    1.50
  133     6    1.50
  134     6    1.50
  135     8    1.40
  136     6    1.50
  137     1    1.20
  138     1    1.20
  139     1    1.20
  140     1    1.20
  141     1    1.20
  142     7    1.50
  143     6    1.50
  144     6    1.50
  145     8    1.40
  146     6    1.50
  147     1    1.20
  148     1    1.20
  149     1    1.20
  150     1    1.20
  151     1    1.20
  152     7    1.50
  153     6    1.50
  154     6    1.50
  155     8    1.40
  156     6    1.50
  157     6    1.50
  158     6    1.50
  159     8    1.40
  160     8    1.40
  161     1    1.20
  162     1    1.20
  163     1    1.20
  164     1    1.20
  165     1    1.20
  166     1    1.20
  167     7    1.50
  168     6    1.50
  169     1    1.20
  170     1    1.20
  171     1    1.20
  172     1    1.20
  173    20    1.70
  174     8    1.40
  175     1    1.20
  176     1    1.20
 Generate VDW surfaces: Layer= 4 Dens= 6 Start= 1.400 Inc= 0.200

 **********************************************************************

            Electrostatic Properties Using The SCF Density

 **********************************************************************

       Atomic Center    1 is at   1.786206  2.332816  5.517037
       Atomic Center    2 is at   1.147706  2.222026  4.135826
       Atomic Center    3 is at   1.900047  2.038136  3.181956
       Atomic Center    4 is at   1.469207  1.490086  6.132266
[...]
 **** Fit      -0.016520
 **** Fit      -0.012204
 **** Fit      -0.006436
 **** Fit       0.000872
 **** Fit       0.009747
 **** Fit       0.019991
 **** Fit       0.030848
 **** Fit       0.038598
 **** Fit      -0.008956
 **** Fit      -0.008920
 **** Fit      -0.023333
 **** Fit      -0.023465
 **** Fit      -0.022201
 **** Fit      -0.019631
 **** Fit      -0.015734
 **** Fit      -0.010422
 **** Fit      -0.003559
 **** Fit       0.005010
 **** Fit       0.015393
 **** Fit       0.027468
 **** Fit       0.032187
 **** Fit      -0.026090
 **** Fit      -0.026333
 **** Fit      -0.025207
 **** Fit      -0.022758
 **** Fit      -0.018943
 **** Fit      -0.013659
 **** Fit      -0.006749
 **** Fit       0.001984
 **** Fit       0.012743
 **** Fit       0.025622
 **** Fit      -0.029484
 **** Fit      -0.029833
 **** Fit      -0.028882
 **** Fit      -0.026621
 **** Fit      -0.022980
 **** Fit      -0.017858
 **** Fit      -0.011118
 **** Fit      -0.002595
 **** Fit       0.007890
 **** Fit       0.020449
 **** Fit      -0.033716
 **** Fit      -0.034238
 **** Fit      -0.033475
 **** Fit      -0.031338
 **** Fit      -0.027725
 **** Fit      -0.022540
 **** Fit      -0.015692
 **** Fit      -0.007092
 **** Fit       0.003331
 **** Fit       0.015542
 **** Fit       0.029153
 **** Fit      -0.039150
 **** Fit      -0.040037
 **** Fit      -0.039552
 **** Fit      -0.037488
 **** Fit      -0.033694
 **** Fit      -0.028099
 **** Fit      -0.020704
 **** Fit      -0.011563
 **** Fit      -0.000796
 **** Fit       0.011304
 **** Fit       0.024026
 **** Fit      -0.017728
 **** Fit      -0.006454
 **** Fit       0.018642
 **** Fit       0.020143
 **** Fit       0.015928
 **** Fit       0.015973
 **** Fit       0.011634
 **** Fit       0.006528
 **** Fit      -0.003382
 **** Fit      -0.009386
 **** Fit      -0.015843
 **** Fit      -0.022471
 **** Fit      -0.017083
 **** Fit      -0.027664
 **** Fit       0.016866
 **** Fit       0.035193
 **** Fit       0.010379
 **** Fit       0.027453
 **** Fit       0.018223
 **** Fit       0.011134
 **** Fit       0.020360
 **** Fit       0.009736
 **** Fit       0.018656
 **** Fit       0.013708
 **** Fit       0.019266
 **** Fit       0.022027
 **** Fit       0.015697
 **** Fit       0.015174
 **** Fit       0.013608
 **** Fit       0.012950
 **** Fit       0.011719
 **** Fit       0.011420
 **** Fit       0.009707
 **** Fit       0.007550
 **** Fit       0.004831
 **** Fit       0.007654
 **** Fit       0.004949
 **** Fit       0.001682
 **** Fit      -0.002218
 **** Fit       0.005744
 **** Fit       0.002739
 **** Fit      -0.000887
 **** Fit      -0.005212
 **** Fit      -0.010265
 **** Fit      -0.016057
 **** Fit      -0.000113
 **** Fit      -0.004229
 **** Fit      -0.009154
 **** Fit      -0.014682
 **** Fit      -0.020147
 **** Fit      -0.004116
 **** Fit      -0.009175
 **** Fit      -0.014617
 **** Fit      -0.009131
 **** Fit      -0.000536
 **** Fit      -0.000484
 **** Fit      -0.001979
 **** Fit      -0.000549
 **** Fit       0.000581
 **** Fit       0.000416
 **** Fit      -0.002566
 **** Fit      -0.000477
 **** Fit       0.001036
 **** Fit       0.000347
 **** Fit      -0.005452
 **** Fit      -0.002801
 **** Fit       0.001419
 **** Fit       0.000781
 **** Fit       0.000132
 **** Fit      -0.008308
 **** Fit      -0.004706
 **** Fit       0.001733
 **** Fit       0.001085
 **** Fit       0.000447
 **** Fit      -0.000195
 **** Fit      -0.009103
 **** Fit      -0.004880
 **** Fit       0.001788
 **** Fit       0.001166
 **** Fit       0.000544
 **** Fit      -0.000095
 **** Fit      -0.000740
 **** Fit      -0.010293
 **** Fit      -0.005393
 **** Fit       0.001947
 **** Fit       0.001313
 **** Fit       0.000675
 **** Fit      -0.000003
 **** Fit      -0.000723
 **** Fit      -0.001457
 **** Fit       0.002007
 **** Fit       0.001384
 **** Fit       0.000749
 **** Fit       0.000056
 **** Fit      -0.000712
 **** Fit      -0.001542
 **** Fit      -0.002398
 **** Fit      -0.004564
 **** Fit       0.002105
 **** Fit       0.001496
 **** Fit       0.000873
 **** Fit       0.000181
 **** Fit      -0.000613
 **** Fit      -0.001515
 **** Fit      -0.002501
 **** Fit      -0.003529
 **** Fit      -0.006118
 **** Fit       0.002139
 **** Fit       0.001566
 **** Fit       0.000973
 **** Fit       0.000305
 **** Fit      -0.000481
 **** Fit      -0.001411
 **** Fit      -0.002479
 **** Fit      -0.003649
 **** Fit      -0.004876
 **** Fit      -0.007932
 **** Fit      -0.009440
 **** Fit       0.002243
 **** Fit       0.001713
 **** Fit       0.001153
 **** Fit      -0.006436
 **** Fit      -0.011922
 **** Fit      -0.013818
 **** Fit       0.002509
 **** Fit       0.002051
 **** Fit       0.001530
 **** Fit      -0.014910
 **** Fit      -0.017103
 **** Fit      -0.019495
 **** Fit      -0.022333
 **** Fit       0.002566
 **** Fit       0.002317
 **** Fit       0.001899
 **** Fit      -0.021094
 **** Fit      -0.023697
 **** Fit      -0.026727
 **** Fit      -0.030487
 **** Fit      -0.035306
 **** Fit       0.001521
 **** Fit       0.002090
 **** Fit       0.002322
 **** Fit       0.002199
 **** Fit      -0.026388
 **** Fit      -0.029223
 **** Fit      -0.032556
 **** Fit      -0.036710
 **** Fit       0.000880
 **** Fit       0.001882
 **** Fit       0.002198
 **** Fit      -0.036315
 **** Fit      -0.039857
 **** Fit       0.001639
 **** Fit       0.002054
 **** Fit       0.002116
 **** Fit       0.001541
 **** Fit       0.001131
 **** Fit       0.002783
 **** Fit       0.003394
 **** Fit       0.002712
 **** Fit      -0.000413
 **** Fit       0.001651
 **** Fit       0.003553
 **** Fit       0.004500
 **** Fit       0.004468
 **** Fit       0.003877
 **** Fit       0.003038
 **** Fit       0.002086
 **** Fit      -0.000226
 **** Fit       0.002388
 **** Fit       0.004489
 **** Fit       0.005625
 **** Fit       0.005773
 **** Fit       0.005347
 **** Fit       0.004693
 **** Fit       0.003952
 **** Fit       0.003169
 **** Fit       0.002365
 **** Fit      -0.001709
 **** Fit       0.006282
 **** Fit       0.005498
 **** Fit       0.004747
 **** Fit       0.004013
 **** Fit       0.003280
 **** Fit       0.002551
 **** Fit       0.006436
 **** Fit       0.005546
 **** Fit       0.004789
 **** Fit       0.004082
 **** Fit       0.003387
 **** Fit       0.002699
 **** Fit       0.006185
 **** Fit       0.005351
 **** Fit       0.004663
 **** Fit       0.004020
 **** Fit       0.003382
 **** Fit       0.002741
 **** Fit       0.005356
 **** Fit       0.004706
 **** Fit       0.004119
 **** Fit       0.003527
 **** Fit       0.002913
 **** Fit       0.005058
 **** Fit       0.004526
 **** Fit       0.004055
 **** Fit       0.003561
 **** Fit       0.003014
 **** Fit       0.004167
 **** Fit       0.003871
 **** Fit       0.003542
 **** Fit       0.003125
 **** Fit       0.002612
 **** Fit       0.003344
 **** Fit       0.003293
 **** Fit       0.003161
 **** Fit       0.002874
 **** Fit       0.002384
 **** Fit       0.002596
 **** Fit       0.002586
 **** Fit       0.000077
 **** Fit      -0.000796
 **** Fit      -0.001821
 **** Fit      -0.002986
 **** Fit      -0.004274
 **** Fit      -0.007323
 **** Fit      -0.009045
 **** Fit       0.001019
 **** Fit       0.000311
 **** Fit      -0.000573
 **** Fit      -0.001630
 **** Fit      -0.002847
 **** Fit      -0.004211
 **** Fit      -0.005708
 **** Fit      -0.009380
 **** Fit      -0.011338
 **** Fit      -0.013428
 **** Fit       0.001215
 **** Fit       0.000505
 **** Fit      -0.000412
 **** Fit      -0.001521
 **** Fit      -0.002805
 **** Fit      -0.004247
 **** Fit      -0.005830
 **** Fit      -0.007544
 **** Fit      -0.012041
 **** Fit      -0.014282
 **** Fit      -0.016667
 **** Fit       0.001535
 **** Fit       0.000843
 **** Fit      -0.000121
 **** Fit      -0.001325
 **** Fit      -0.002733
 **** Fit      -0.004318
 **** Fit      -0.006056
 **** Fit      -0.007929
 **** Fit      -0.009925
 **** Fit      -0.015617
 **** Fit      -0.018295
 **** Fit      -0.021118
 **** Fit      -0.024125
 **** Fit       0.001995
 **** Fit       0.001579
 **** Fit       0.000682
 **** Fit      -0.000608
 **** Fit      -0.002206
 **** Fit      -0.004048
 **** Fit      -0.006085
 **** Fit      -0.008281
 **** Fit      -0.010611
 **** Fit      -0.013059
 **** Fit      -0.020595
 **** Fit      -0.023875
 **** Fit      -0.027265
 **** Fit      -0.030801
 **** Fit       0.001819
 **** Fit       0.000741
 **** Fit      -0.000988
 **** Fit      -0.003168
 **** Fit      -0.005663
 **** Fit      -0.008384
 **** Fit      -0.011274
 **** Fit      -0.014289
 **** Fit      -0.017401
 **** Fit      -0.001528
 **** Fit      -0.004602
 **** Fit      -0.008086
 **** Fit      -0.011824
 **** Fit      -0.015726
 **** Fit      -0.002315
 **** Fit      -0.001903
 **** Fit      -0.003367
 **** Fit      -0.004193
 **** Fit      -0.003042
 **** Fit      -0.001515
 **** Fit      -0.001144
 **** Fit      -0.001802
 **** Fit      -0.003089
 **** Fit      -0.004783
 **** Fit      -0.006464
 **** Fit      -0.007150
 **** Fit      -0.006156
 **** Fit      -0.004088
 **** Fit      -0.000438
 **** Fit      -0.000935
 **** Fit      -0.002011
 **** Fit      -0.003141
 **** Fit      -0.004672
 **** Fit      -0.006669
 **** Fit      -0.008971
 **** Fit      -0.010991
 **** Fit      -0.011785
 **** Fit      -0.010756
 **** Fit      -0.008308
 **** Fit      -0.000515
 **** Fit      -0.001164
 **** Fit      -0.002531
 **** Fit      -0.003620
 **** Fit      -0.005064
 **** Fit      -0.007017
 **** Fit      -0.009600
 **** Fit      -0.012771
 **** Fit      -0.013109
 **** Fit      -0.000933
 **** Fit      -0.001665
 **** Fit      -0.003370
 **** Fit      -0.004485
 **** Fit      -0.005928
 **** Fit      -0.007877
 **** Fit      -0.010550
 **** Fit      -0.014164
 **** Fit      -0.001618
 **** Fit      -0.002445
 **** Fit      -0.004541
 **** Fit      -0.005696
 **** Fit      -0.007141
 **** Fit      -0.009053
 **** Fit      -0.011666
 **** Fit      -0.015293
 **** Fit      -0.002623
 **** Fit      -0.003548
 **** Fit      -0.006069
 **** Fit      -0.007357
 **** Fit      -0.008942
 **** Fit      -0.011018
 **** Fit      -0.013857
 **** Fit      -0.017861
 **** Fit      -0.004930
 **** Fit      -0.007986
 **** Fit      -0.009419
 **** Fit      -0.011143
 **** Fit      -0.013360
 **** Fit      -0.016353
 **** Fit      -0.020552
 **** Fit      -0.010344
 **** Fit      -0.011977
 **** Fit      -0.013903
 **** Fit      -0.016345
 **** Fit      -0.019606
 **** Fit      -0.024141
 **** Fit      -0.015162
 **** Fit      -0.017433
 **** Fit      -0.020316
 **** Fit      -0.024176
 **** Fit      -0.025198
 **** Fit      -0.029846
 **** Fit       0.035833
 **** Fit       0.034190
 **** Fit       0.032226
 **** Fit       0.038733
 **** Fit       0.037152
 **** Fit       0.035575
 **** Fit       0.040882
 **** Fit       0.039051
 **** Fit       0.037606
 **** Fit       0.040342
 **** Fit       0.038650
 **** Fit       0.037432
 **** Fit       0.037533
 **** Fit       0.036580
 **** Fit       0.035953
 **** Fit       0.032579
 **** Fit       0.032975
 **** Fit      -0.029150
 **** Fit      -0.025007
 **** Fit      -0.028243
 **** Fit      -0.031539
 **** Fit      -0.034728
 **** Fit      -0.021608
 **** Fit      -0.022404
 **** Fit      -0.024424
 **** Fit      -0.027150
 **** Fit      -0.030281
 **** Fit      -0.033635
 **** Fit      -0.037013
 **** Fit      -0.040064
 **** Fit      -0.022804
 **** Fit      -0.023895
 **** Fit      -0.026058
 **** Fit      -0.028875
 **** Fit      -0.032105
 **** Fit      -0.035593
 **** Fit      -0.039149
 **** Fit      -0.042423
 **** Fit      -0.022057
 **** Fit      -0.022655
 **** Fit      -0.024470
 **** Fit      -0.027086
 **** Fit      -0.030228
 **** Fit      -0.033738
 **** Fit      -0.037512
 **** Fit      -0.041427
 **** Fit       0.014806
 **** Fit       0.021240
 **** Fit      -0.019698
 **** Fit      -0.021690
 **** Fit      -0.024335
 **** Fit      -0.027480
 **** Fit      -0.031007
 **** Fit      -0.034865
 **** Fit      -0.039055
 **** Fit      -0.043633
 **** Fit      -0.007769
 **** Fit       0.003796
 **** Fit       0.012175
 **** Fit      -0.017392
 **** Fit      -0.020743
 **** Fit      -0.024363
 **** Fit      -0.028272
 **** Fit      -0.032500
 **** Fit      -0.037145
 **** Fit      -0.042429
 **** Fit      -0.004125
 **** Fit      -0.015780
 **** Fit      -0.020321
 **** Fit      -0.024930
 **** Fit      -0.029767
 **** Fit      -0.035049
 **** Fit      -0.041164
 **** Fit      -0.020557
 **** Fit      -0.026092
 **** Fit      -0.031994
 **** Fit      -0.038765
 **** Fit      -0.022147
 **** Fit      -0.028913
 **** Fit      -0.036580
 **** Fit      -0.025943
 **** Fit      -0.034920
 **** Fit      -0.032443
 **** Fit       0.032995
 **** Fit       0.025725
 **** Fit       0.027927
 **** Fit       0.028814
 **** Fit       0.018376
 **** Fit       0.022347
 **** Fit       0.024548
 **** Fit       0.025810
 **** Fit      -0.012951
 **** Fit      -0.015439
 **** Fit       0.007997
 **** Fit       0.014634
 **** Fit       0.018802
 **** Fit       0.021342
 **** Fit       0.022859
 **** Fit       0.023600
 **** Fit      -0.005667
 **** Fit      -0.008905
 **** Fit      -0.012537
 **** Fit      -0.003955
 **** Fit       0.005293
 **** Fit       0.011604
 **** Fit       0.015746
 **** Fit       0.018356
 **** Fit       0.019828
 **** Fit       0.020255
 **** Fit       0.019459
 **** Fit       0.017153
 **** Fit       0.013219
 **** Fit       0.008024
 **** Fit       0.002579
 **** Fit      -0.002054
 **** Fit      -0.002619
 **** Fit      -0.006734
 **** Fit      -0.011248
 **** Fit      -0.016456
 **** Fit      -0.003244
 **** Fit       0.004940
 **** Fit       0.010485
 **** Fit       0.014039
 **** Fit       0.016053
 **** Fit       0.016710
 **** Fit       0.015976
 **** Fit       0.013774
 **** Fit       0.010250
 **** Fit       0.005935
 **** Fit       0.001532
 **** Fit      -0.001392
 **** Fit      -0.005960
 **** Fit      -0.011034
 **** Fit      -0.016792
 **** Fit      -0.011934
 **** Fit      -0.002143
 **** Fit       0.004784
 **** Fit       0.009333
 **** Fit       0.011945
 **** Fit       0.012878
 **** Fit       0.012230
 **** Fit       0.010110
 **** Fit       0.006829
 **** Fit       0.002875
 **** Fit      -0.001538
 **** Fit      -0.006551
 **** Fit      -0.012281
 **** Fit      -0.018772
 **** Fit      -0.013348
 **** Fit      -0.003967
 **** Fit       0.002697
 **** Fit       0.006767
 **** Fit       0.008538
 **** Fit       0.008251
 **** Fit       0.006186
 **** Fit       0.002775
 **** Fit      -0.002807
 **** Fit      -0.008610
 **** Fit      -0.015365
 **** Fit      -0.022225
 **** Fit      -0.018150
 **** Fit      -0.008593
 **** Fit      -0.001065
 **** Fit       0.003050
 **** Fit       0.003749
 **** Fit       0.001540
 **** Fit      -0.005089
 **** Fit      -0.011906
 **** Fit      -0.016595
 **** Fit      -0.012699
 **** Fit      -0.004754
 **** Fit      -0.001709
 **** Fit      -0.008370
 -----------------------------------------------------------------
 Leave Link  602 at Mon Sep 16 18:10:41 2019, MaxMem=  4294967296 cpu:       152.9

 Test job not archived.
 1\1\GINC-N005\SP\RB3LYP\SVP\C54H83Ca1N15O23\PCIEPLAK\16-Sep-2019\0\\#m
 axdisk=50GB #B3LYP/SVP Density=Current scf=(tight) #IOP(5/87=12)Pop=(M
 K,readradii) iop(6/33=2) iop(6/42=6)\\SOL molecule\\0,1\C,0,94.19,53.9
 9,3.604\C,0,95.23,55.05,3.254\O,0,96.25,54.67,2.684\H,0,93.28,54.171,3
 .031\H,0,94.581,53.002,3.36\H,0,93.964,54.04,4.669\N,0,95.05,56.33,3.5
 74\C,0,96.04,57.37,3.354\C,0,97.15,57.36,4.394\O,0,96.92,57.61,5.574\C
 ,0,95.41,58.7,2.954\C,0,96.39,59.86,2.944\O,0,96.09,60.95,3.474\O,0,97
 .5,59.67,2.404\H,0,94.25,56.52,4.164\H,0,96.59,57.12,2.444\H,0,94.72,5
 9.02,3.734\H,0,94.97,58.61,1.964\N,0,98.43,57.26,4.024\C,0,99.6,57.13,
 4.864\C,0,100.57,58.31,4.814\O,0,101.62,58.23,5.434\C,0,100.22,55.74,4
 .814\C,0,99.14,54.69,4.994\C,0,99.72,53.31,5.304\C,0,98.88,52.53,6.314
 \N,0,97.63,51.94,5.814\H,0,98.57,57.04,3.054\H,0,99.29,57.19,5.904\H,0
 ,101.01,55.67,5.564\H,0,100.63,55.66,3.804\H,0,98.44,54.58,4.164\H,0,9
 8.56,55.03,5.854\H,0,100.62,53.42,5.914\H,0,99.93,52.73,4.404\H,0,98.6
 7,53.09,7.224\H,0,99.43,51.69,6.724\H,0,96.98,52.7,5.684\H,0,97.78,51.
 44,4.944\H,0,97.17,51.37,6.504\N,0,100.22,59.45,4.214\C,0,100.92,60.7,
 4.454\C,0,100.01,61.92,4.514\O,0,100.47,63.05,4.384\C,0,102.,60.99,3.4
 24\C,0,101.63,60.9,1.954\O,0,102.52,60.97,1.084\O,0,100.42,60.83,1.654
 \H,0,99.24,59.54,3.974\H,0,101.37,60.61,5.444\H,0,102.68,60.16,3.604\H
 ,0,102.55,61.91,3.614\N,0,98.72,61.79,4.844\C,0,97.94,62.98,5.104\C,0,
 97.5,63.83,3.924\O,0,96.91,64.89,4.154\H,0,98.35,60.92,5.204\H,0,98.52
 ,63.51,5.864\H,0,97.,62.61,5.534\N,0,97.6,63.31,2.704\C,0,97.42,64.,1.
 444\C,0,96.05,63.66,0.864\O,0,95.72,64.25,-0.156\C,0,98.67,63.93,0.574
 \C,0,98.66,62.87,-0.516\N,0,98.92,63.29,-1.756\O,0,98.19,61.76,-0.296\
 H,0,97.53,62.3,2.734\H,0,97.38,65.05,1.744\H,0,99.6,63.82,1.144\H,0,98
 .75,64.92,0.114\H,0,99.32,64.2,-1.936\H,0,99.04,62.67,-2.546\N,0,95.18
 ,62.81,1.404\C,0,93.87,62.48,0.874\C,0,93.86,61.46,-0.256\O,0,92.76,61
 .12,-0.676\H,0,95.49,62.35,2.244\H,0,93.33,63.36,0.514\H,0,93.3,62.12,
 1.724\N,0,94.98,60.97,-0.796\C,0,94.96,60.07,-1.926\C,0,95.8,58.81,-1.
 736\O,0,96.65,58.73,-0.846\C,0,95.39,60.81,-3.186\C,0,94.69,62.13,-3.4
 06\C,0,95.6,63.16,-3.716\C,0,93.3,62.23,-3.336\C,0,95.08,64.44,-3.916\
 C,0,92.82,63.54,-3.516\C,0,93.7,64.63,-3.726\O,0,93.2,65.9,-3.796\H,0,
 95.86,61.29,-0.426\H,0,93.94,59.73,-2.066\H,0,95.12,60.12,-3.986\H,0,9
 6.47,60.9,-3.056\H,0,96.67,63.01,-3.726\H,0,92.7,61.36,-3.156\H,0,95.7
 1,65.28,-4.156\H,0,91.77,63.78,-3.486\H,0,92.29,65.88,-3.516\N,0,95.45
 ,57.76,-2.476\C,0,96.08,56.45,-2.396\C,0,97.12,56.36,-3.496\O,0,96.79,
 56.51,-4.676\C,0,95.06,55.32,-2.496\C,0,93.86,55.55,-1.586\C,0,95.65,5
 3.91,-2.366\C,0,94.04,55.73,-0.086\H,0,94.68,57.84,-3.126\H,0,96.56,56
 .39,-1.426\H,0,94.81,55.31,-3.556\H,0,93.2,54.7,-1.756\H,0,93.29,56.41
 ,-1.946\H,0,94.91,53.12,-2.476\H,0,96.36,53.75,-3.176\H,0,96.09,53.77,
 -1.386\H,0,93.12,55.63,0.484\H,0,94.76,55.08,0.404\H,0,94.63,56.63,0.0
 84\N,0,98.34,55.88,-3.226\C,0,99.38,55.48,-4.156\C,0,99.52,53.97,-4.23
 6\O,0,98.86,53.21,-3.526\C,0,100.71,56.09,-3.716\O,0,101.09,55.76,-2.3
 96\H,0,98.6,55.78,-2.256\H,0,99.24,55.85,-5.176\H,0,100.66,57.18,-3.83
 6\H,0,101.5,55.78,-4.396\H,0,100.49,56.17,-1.776\N,0,100.5,53.46,-4.98
 6\C,0,100.7,52.03,-5.166\C,0,101.07,51.23,-3.926\O,0,100.52,50.19,-3.5
 56\C,0,101.74,51.98,-6.286\H,0,100.9,54.15,-5.616\H,0,99.75,51.59,-5.4
 46\H,0,101.81,50.93,-6.576\H,0,101.43,52.71,-7.026\H,0,102.7,52.08,-5.
 786\N,0,102.05,51.73,-3.166\C,0,102.37,51.34,-1.806\C,0,101.17,51.22,-
 0.886\O,0,101.05,50.26,-0.126\C,0,103.3,52.45,-1.346\H,0,102.52,52.55,
 -3.526\H,0,102.92,50.4,-1.746\H,0,104.21,52.39,-1.956\H,0,102.79,53.39
 ,-1.556\H,0,103.56,52.37,-0.296\N,0,100.23,52.16,-1.026\C,0,99.17,52.2
 4,-0.036\C,0,98.11,51.23,-0.436\O,0,97.54,50.6,0.444\C,0,98.63,53.67,0
 .054\C,0,99.57,54.68,0.704\C,0,99.25,56.15,0.484\O,0,98.91,56.96,1.374
 \O,0,99.44,56.64,-0.656\H,0,100.37,52.87,-1.726\H,0,99.59,52.03,0.944\
 H,0,97.69,53.62,0.614\H,0,98.44,54.09,-0.936\H,0,100.58,54.5,0.344\H,0
 ,99.56,54.58,1.794\N,0,97.81,51.13,-1.736\C,0,96.96,50.09,-2.276\H,0,9
 6.046,50.536,-2.668\H,0,97.484,49.572,-3.079\H,0,96.708,49.38,-1.488\H
 ,0,98.29,51.68,-2.436\Ca,0,98.92,59.25,0.28\O,0,101.536,58.88,-0.176\H
 ,0,101.946,58.8,-1.036\H,0,101.956,59.65,0.214\\Version=ES64L-G09RevD.
 01\State=1-A\HF=-5333.6109466\RMSD=4.264e-09\Dipole=-1.1491919,-9.8603
 336,0.25879\Quadrupole=-18.5218417,-54.0825681,72.6044098,6.9410435,-4
 9.3551464,-118.4960818\PG=C01 [X(C54H83Ca1N15O23)]\\@


 FRICTION IS A DRAG,
 AND ENTROPY AIN'T WHAT IT USED TO BE.
 Job cpu time:       0 days 13 hours  4 minutes  4.3 seconds.
 File lengths (MBytes):  RWF=   1513 Int=      0 D2E=      0 Chk=    103 Scr=      1
 Normal termination of Gaussian 09 at Mon Sep 16 18:10:42 2019.
