 Entering Gaussian System, Link 0=g16
 Initial command:
 /home1/apps/gaussian/16rA.03/g16/l1.exe "/scratch/01990/pengzhi/4328828/Gau-81348.inp" -scrdir="/scratch/01990/pengzhi/4328828/"
 Entering Link 1 = /home1/apps/gaussian/16rA.03/g16/l1.exe PID=     81349.
  
 Copyright (c) 1988,1990,1992,1993,1995,1998,2003,2009,2016,
            Gaussian, Inc.  All Rights Reserved.
  
 This is part of the Gaussian(R) 16 program.  It is based on
 the Gaussian(R) 09 system (copyright 2009, Gaussian, Inc.),
 the Gaussian(R) 03 system (copyright 2003, Gaussian, Inc.),
 the Gaussian(R) 98 system (copyright 1998, Gaussian, Inc.),
 the Gaussian(R) 94 system (copyright 1995, Gaussian, Inc.),
 the Gaussian 92(TM) system (copyright 1992, Gaussian, Inc.),
 the Gaussian 90(TM) system (copyright 1990, Gaussian, Inc.),
 the Gaussian 88(TM) system (copyright 1988, Gaussian, Inc.),
 the Gaussian 86(TM) system (copyright 1986, Carnegie Mellon
 University), and the Gaussian 82(TM) system (copyright 1983,
 Carnegie Mellon University). Gaussian is a federally registered
 trademark of Gaussian, Inc.
  
 This software contains proprietary and confidential information,
 including trade secrets, belonging to Gaussian, Inc.
  
 This software is provided under written license and may be
 used, copied, transmitted, or stored only in accord with that
 written license.
  
 The following legend is applicable only to US Government
 contracts under FAR:
  
                    RESTRICTED RIGHTS LEGEND
  
 Use, reproduction and disclosure by the US Government is
 subject to restrictions as set forth in subparagraphs (a)
 and (c) of the Commercial Computer Software - Restricted
 Rights clause in FAR 52.227-19.
  
 Gaussian, Inc.
 340 Quinnipiac St., Bldg. 40, Wallingford CT 06492
  
  
 ---------------------------------------------------------------
 Warning -- This program may not be used in any manner that
 competes with the business of Gaussian, Inc. or will provide
 assistance to any competitor of Gaussian, Inc.  The licensee
 of this program is prohibited from giving any competitor of
 Gaussian, Inc. access to this program.  By using this program,
 the user acknowledges that Gaussian, Inc. is engaged in the
 business of creating and licensing software in the field of
 computational chemistry and represents and warrants to the
 licensee that it is not a competitor of Gaussian, Inc. and that
 it will not use this program in any manner prohibited above.
 ---------------------------------------------------------------
  

 Cite this work as:
 Gaussian 16, Revision A.03,
 M. J. Frisch, G. W. Trucks, H. B. Schlegel, G. E. Scuseria, 
 M. A. Robb, J. R. Cheeseman, G. Scalmani, V. Barone, 
 G. A. Petersson, H. Nakatsuji, X. Li, M. Caricato, A. V. Marenich, 
 J. Bloino, B. G. Janesko, R. Gomperts, B. Mennucci, H. P. Hratchian, 
 J. V. Ortiz, A. F. Izmaylov, J. L. Sonnenberg, D. Williams-Young, 
 F. Ding, F. Lipparini, F. Egidi, J. Goings, B. Peng, A. Petrone, 
 T. Henderson, D. Ranasinghe, V. G. Zakrzewski, J. Gao, N. Rega, 
 G. Zheng, W. Liang, M. Hada, M. Ehara, K. Toyota, R. Fukuda, 
 J. Hasegawa, M. Ishida, T. Nakajima, Y. Honda, O. Kitao, H. Nakai, 
 T. Vreven, K. Throssell, J. A. Montgomery, Jr., J. E. Peralta, 
 F. Ogliaro, M. J. Bearpark, J. J. Heyd, E. N. Brothers, K. N. Kudin, 
 V. N. Staroverov, T. A. Keith, R. Kobayashi, J. Normand, 
 K. Raghavachari, A. P. Rendell, J. C. Burant, S. S. Iyengar, 
 J. Tomasi, M. Cossi, J. M. Millam, M. Klene, C. Adamo, R. Cammi, 
 J. W. Ochterski, R. L. Martin, K. Morokuma, O. Farkas, 
 J. B. Foresman, and D. J. Fox, Gaussian, Inc., Wallingford CT, 2016.
 
 ******************************************
 Gaussian 16:  ES64L-G16RevA.03 25-Dec-2016
                14-Sep-2019 
 ******************************************
 %chk=holoCaM_loop3_89.0.chk
 %nprocshared=48
 Will use up to   48 processors via shared memory.
 %mem=10GB
 %nosave
 ----------------------------------------------------------------------
 #b3lyp/svp scf=(tight,noincore) Test #IOP(5/87=12) Density=Current Pop
 =(MK,readradii) iop(6/33=2) iop(6/42=6)
 ----------------------------------------------------------------------
 1/30=1,38=1,172=1/1;
 2/12=2,17=6,18=5,40=1/2;
 3/5=18,7=101,11=2,25=1,30=1,74=-5/1,2,3;
 4//1;
 5/5=4,32=2,38=5,87=12/2;
 6/7=2,8=2,9=2,10=2,15=8,20=101,22=-1,28=1,33=2,42=6/1,2;
 99/5=1,9=1/99;
 ------------------
 holoCaM_loop3_89.0
 ------------------
 Symbolic Z-matrix:
 Charge =  0 Multiplicity = 1
 C                     55.09     47.05     34.9 
 C                     54.95     45.75     35.68 
 O                     54.27     45.65     36.69 
 H                     56.118    47.157    34.554 
 H                     54.418    47.033    34.042 
 H                     54.835    47.891    35.545 
 N                     55.62     44.7      35.2 
 C                     55.76     43.39     35.8 
 C                     56.47     43.41     37.15 
 O                     57.36     44.23     37.31 
 C                     56.48     42.43     34.87 
 C                     56.58     41.       35.4 
 O                     55.78     40.12     35.04 
 O                     57.53     40.72     36.17 
 H                     56.01     44.73     34.27 
 H                     54.76     42.96     35.89 
 H                     57.51     42.79     34.88 
 H                     56.15     42.42     33.83 
 N                     56.23     42.47     38.07 
 C                     56.69     42.55     39.44 
 C                     57.44     41.34     39.98 
 O                     57.76     41.41     41.17 
 C                     55.47     42.83     40.31 
 C                     54.97     44.27     40.2 
 C                     55.97     45.24     40.83 
 C                     55.19     46.55     40.9 
 N                     55.85     47.7      41.55 
 H                     55.43     41.88     37.91 
 H                     57.45     43.33     39.52 
 H                     55.67     42.73     41.37 
 H                     54.61     42.2      40.09 
 H                     54.07     44.31     40.82 
 H                     54.91     44.55     39.15 
 H                     56.87     45.23     40.21 
 H                     56.22     44.81     41.8 
 H                     54.29     46.26     41.44 
 H                     54.91     46.86     39.89 
 H                     55.2      48.46     41.67 
 H                     56.12     47.5      42.51 
 H                     56.7      47.95     41.08 
 N                     57.97     40.43     39.16 
 C                     58.37     39.09     39.55 
 C                     59.25     38.33     38.57 
 O                     59.92     37.42     39.06 
 C                     57.11     38.26     39.75 
 C                     56.1      38.29     38.6 
 O                     56.4      38.       37.42 
 O                     54.94     38.53     38.98 
 H                     57.91     40.62     38.17 
 H                     58.87     39.16     40.51 
 H                     56.57     38.43     40.68 
 H                     57.37     37.2      39.86 
 N                     59.16     38.61     37.27 
 C                     59.97     37.87     36.32 
 C                     59.49     36.5      35.86 
 O                     60.29     35.7      35.4 
 H                     58.6      39.41     37.01 
 H                     60.95     37.67     36.76 
 H                     60.08     38.51     35.44 
 N                     58.18     36.25     35.89 
 C                     57.56     35.02     35.43 
 C                     57.19     34.95     33.96 
 O                     56.59     33.97     33.51 
 C                     56.41     34.76     36.4 
 C                     55.06     35.28     35.94 
 N                     54.02     34.47     36.14 
 O                     54.98     36.29     35.25 
 H                     57.5      36.89     36.27 
 H                     58.37     34.31     35.6 
 H                     56.64     35.11     37.41 
 H                     56.31     33.67     36.48 
 H                     54.11     33.57     36.59 
 H                     53.14     34.65     35.67 
 N                     57.52     36.04     33.26 
 C                     57.26     36.27     31.86 
 C                     55.82     36.56     31.45 
 O                     55.62     36.73     30.25 
 H                     57.94     36.78     33.8 
 H                     57.52     35.43     31.22 
 H                     57.83     37.16     31.6 
 N                     54.85     36.71     32.36 
 C                     53.43     36.92     32.17 
 C                     53.       38.23     32.83 
 O                     53.72     38.63     33.74 
 C                     52.67     35.7      32.7 
 C                     52.96     34.36     32.07 
 C                     52.78     33.2      32.83 
 C                     53.26     34.19     30.71 
 C                     53.01     31.93     32.3 
 C                     53.43     32.92     30.15 
 C                     53.4      31.76     30.95 
 O                     53.32     30.49     30.45 
 H                     55.11     36.64     33.33 
 H                     53.2      36.98     31.11 
 H                     51.6      35.89     32.66 
 H                     52.91     35.58     33.76 
 H                     52.61     33.32     33.89 
 H                     53.4      35.07     30.1 
 H                     53.08     31.1      32.99 
 H                     53.54     32.79     29.08 
 H                     52.84     30.51     29.62 
 N                     51.9      38.81     32.35 
 C                     51.23     39.84     33.13 
 C                     50.02     39.29     33.85 
 O                     49.3      38.52     33.23 
 C                     50.93     40.93     32.11 
 C                     52.19     41.61     31.59 
 C                     49.88     41.93     32.61 
 C                     52.84     42.62     32.53 
 H                     51.37     38.27     31.68 
 H                     51.92     40.23     33.88 
 H                     50.47     40.45     31.24 
 H                     51.92     42.2      30.71 
 H                     52.96     40.89     31.3 
 H                     49.79     42.83     32.01 
 H                     48.91     41.45     32.63 
 H                     50.21     42.1      33.64 
 H                     53.79     43.       32.17 
 H                     52.23     43.51     32.68 
 H                     52.95     42.19     33.52 
 N                     49.92     39.63     35.14 
 C                     48.82     39.51     36.09 
 C                     47.99     40.75     36.32 
 O                     48.43     41.85     35.99 
 C                     49.22     38.94     37.45 
 O                     49.52     37.59     37.17 
 H                     50.67     40.26     35.4 
 H                     48.06     38.85     35.65 
 H                     48.37     38.98     38.13 
 H                     50.11     39.43     37.83 
 H                     49.35     37.14     38. 
 N                     46.82     40.72     36.98 
 C                     45.92     41.85     37.08 
 C                     46.47     43.13     37.68 
 O                     46.41     44.17     37.02 
 C                     44.87     41.31     38.05 
 H                     46.49     39.84     37.34 
 H                     45.5      42.05     36.1 
 H                     44.08     42.04     38.17 
 H                     44.41     40.46     37.54 
 H                     45.27     40.97     39.01 
 N                     47.19     43.02     38.8 
 C                     47.9      44.15     39.35 
 C                     48.96     44.78     38.46 
 O                     48.98     46.       38.36 
 C                     48.51     43.58     40.63 
 H                     47.2      42.21     39.41 
 H                     47.22     44.9      39.76 
 H                     49.1      42.7      40.36 
 H                     49.22     44.31     41.01 
 H                     47.77     43.34     41.39 
 N                     49.69     43.98     37.67 
 C                     50.6      44.49     36.66 
 C                     49.91     45.2      35.5 
 O                     50.49     46.17     35.03 
 C                     51.44     43.35     36.1 
 C                     52.26     42.75     37.25 
 C                     52.94     41.45     36.86 
 O                     54.06     41.11     37.31 
 O                     52.36     40.62     36.13 
 H                     49.43     43.01     37.59 
 H                     51.31     45.14     37.18 
 H                     52.13     43.87     35.44 
 H                     50.81     42.63     35.59 
 H                     51.65     42.45     38.09 
 H                     53.03     43.48     37.51 
 N                     48.73     44.75     35.08 
 C                     47.89     45.56     34.23 
 H                     46.99     45.845    34.775 
 H                     48.432    46.457    33.93 
 H                     47.612    44.99     33.344 
 H                     48.42     43.83     35.37 
 Ca                    54.06     38.74     36.45 
 O                     51.9      37.37     35.65 
 H                     51.65     36.46     35.53 
 H                     51.13     37.78     36.05 
 
 Stoichiometry    C54H83CaN15O23
 Framework group  C1[X(C54H83CaN15O23)]
 Deg. of freedom   522
 Full point group                 C1      NOp   1
 Largest Abelian subgroup         C1      NOp   1
 Largest concise Abelian subgroup C1      NOp   1
                         Standard orientation:                         
 ---------------------------------------------------------------------
 Center     Atomic      Atomic             Coordinates (Angstroms)
 Number     Number       Type             X           Y           Z
 ---------------------------------------------------------------------
      1          6           0        4.540570    2.848665    4.861772
      2          6           0        3.823431    2.726103    3.524352
      3          8           0        4.413558    2.602624    2.461807
      4          1           0        4.022463    3.576308    5.486312
      5          1           0        4.545898    1.879874    5.361223
      6          1           0        5.566442    3.178017    4.696110
      7          7           0        2.489697    2.761319    3.565742
      8          6           0        1.569944    2.785568    2.448081
      9          6           0        1.719883    4.017624    1.561201
     10          8           0        2.020470    5.070707    2.100426
     11          6           0        0.129414    2.677320    2.915045
     12          6           0       -0.893051    2.601054    1.781666
     13          8           0       -1.354131    1.512311    1.399509
     14          8           0       -1.300782    3.676165    1.279977
     15          1           0        2.007341    2.659906    4.446054
     16          1           0        1.724154    1.869092    1.874241
     17          1           0       -0.060983    3.645764    3.380304
     18          1           0       -0.084023    1.911081    3.661987
     19          7           0        1.390329    3.979896    0.265991
     20          6           0        1.713740    5.029488   -0.676698
     21          6           0        0.566578    5.564054   -1.523136
     22          8           0        0.885429    6.409385   -2.364059
     23          6           0        2.817974    4.497502   -1.582986
     24          6           0        4.182936    4.439160   -0.898022
     25          6           0        4.716370    5.847351   -0.632987
     26          6           0        6.170453    5.602223   -0.239345
     27          7           0        7.017079    6.786986    0.005937
     28          1           0        1.233755    3.067715   -0.130381
     29          1           0        2.015438    5.924981   -0.129460
     30          1           0        3.010481    5.133043   -2.438923
     31          1           0        2.636443    3.495619   -1.967925
     32          1           0        4.854945    3.988932   -1.634024
     33          1           0        4.073800    3.976727    0.081133
     34          1           0        4.068681    6.306145    0.118349
     35          1           0        4.586544    6.388269   -1.570459
     36          1           0        6.547178    5.020267   -1.079051
     37          1           0        6.203264    4.983213    0.660849
     38          1           0        7.981347    6.516919    0.114344
     39          1           0        7.060805    7.405606   -0.800225
     40          1           0        6.655800    7.348542    0.754290
     41          7           0       -0.705646    5.362831   -1.173341
     42          6           0       -1.845208    5.497399   -2.062718
     43          6           0       -3.216408    5.556561   -1.407957
     44          8           0       -4.099998    6.086477   -2.082907
     45          6           0       -1.854482    4.300947   -3.003417
     46          6           0       -1.753007    2.926159   -2.337713
     47          8           0       -2.539102    2.540949   -1.443192
     48          8           0       -0.879554    2.203198   -2.849579
     49          1           0       -0.866917    4.902828   -0.288927
     50          1           0       -1.691062    6.385368   -2.666249
     51          1           0       -1.139258    4.334082   -3.823635
     52          1           0       -2.798216    4.267179   -3.561561
     53          7           0       -3.398162    4.951854   -0.234162
     54          6           0       -4.709727    4.972278    0.386788
     55          6           0       -5.753639    3.964228   -0.074714
     56          8           0       -6.939068    4.188868    0.114743
     57          1           0       -2.575791    4.590299    0.228639
     58          1           0       -5.181282    5.940608    0.202470
     59          1           0       -4.548187    4.834432    1.459636
     60          7           0       -5.328149    2.811897   -0.594897
     61          6           0       -6.192549    1.726797   -1.024167
     62          6           0       -6.585000    0.708411    0.030144
     63          8           0       -7.252694   -0.283899   -0.273838
     64          6           0       -5.524377    1.146014   -2.268047
     65          6           0       -4.625873   -0.049599   -2.007856
     66          7           0       -4.722677   -1.056446   -2.876527
     67          8           0       -4.008849   -0.151546   -0.953585
     68          1           0       -4.356778    2.604375   -0.767448
     69          1           0       -7.091085    2.280831   -1.297626
     70          1           0       -4.998571    1.911682   -2.844918
     71          1           0       -6.333082    0.788697   -2.918295
     72          1           0       -5.338539   -1.027241   -3.676815
     73          1           0       -4.324904   -1.960961   -2.649971
     74          7           0       -6.099932    0.967333    1.248614
     75          6           0       -6.276760    0.159370    2.430320
     76          6           0       -5.504916   -1.153706    2.507045
     77          8           0       -5.689265   -1.834890    3.512482
     78          1           0       -5.510682    1.782847    1.306244
     79          1           0       -7.302445   -0.163173    2.593836
     80          1           0       -5.914294    0.768065    3.256581
     81          7           0       -4.610076   -1.495088    1.572048
     82          6           0       -3.836163   -2.711156    1.434799
     83          6           0       -2.342359   -2.387138    1.447527
     84          8           0       -2.041789   -1.244487    1.115100
     85          6           0       -4.282846   -3.446323    0.167161
     86          6           0       -5.724539   -3.881867    0.075399
     87          6           0       -6.316264   -4.007266   -1.185449
     88          6           0       -6.475825   -4.317196    1.177469
     89          6           0       -7.638211   -4.426098   -1.339513
     90          6           0       -7.779891   -4.800244    1.030918
     91          6           0       -8.428466   -4.781508   -0.220281
     92          8           0       -9.593818   -5.445401   -0.485803
     93          1           0       -4.452778   -0.843019    0.821406
     94          1           0       -4.046950   -3.383195    2.261861
     95          1           0       -3.638132   -4.305222   -0.003825
     96          1           0       -4.125414   -2.783057   -0.687762
     97          1           0       -5.770933   -3.618186   -2.032875
     98          1           0       -6.040166   -4.234864    2.162113
     99          1           0       -8.104600   -4.281114   -2.304583
    100          1           0       -8.308505   -5.247021    1.864499
    101          1           0       -9.639317   -6.230012    0.063758
    102          7           0       -1.520046   -3.366023    1.824867
    103          6           0       -0.098407   -3.266312    1.529573
    104          6           0        0.276200   -4.097250    0.323666
    105          8           0       -0.223668   -5.209599    0.231403
    106          6           0        0.572684   -3.684012    2.830981
    107          6           0        0.349298   -2.680402    3.954932
    108          6           0        2.052019   -4.041765    2.641033
    109          6           0        1.187795   -1.408025    3.890283
    110          1           0       -1.940410   -4.277320    1.944164
    111          1           0        0.152673   -2.226600    1.313569
    112          1           0        0.098538   -4.613423    3.163067
    113          1           0        0.649497   -3.150161    4.895467
    114          1           0       -0.698131   -2.378302    4.038769
    115          1           0        2.615821   -4.141289    3.563162
    116          1           0        2.127254   -4.980256    2.106921
    117          1           0        2.391691   -3.234529    1.984000
    118          1           0        0.922923   -0.674193    4.643831
    119          1           0        2.248998   -1.593473    4.052012
    120          1           0        1.130928   -0.974755    2.897235
    121          7           0        1.046692   -3.479020   -0.578461
    122          6           0        1.797838   -3.987409   -1.720485
    123          6           0        3.274283   -4.219313   -1.506635
    124          8           0        3.843998   -3.692136   -0.552691
    125          6           0        1.619139   -3.178255   -3.004166
    126          8           0        0.286095   -3.444220   -3.382526
    127          1           0        1.293978   -2.550333   -0.256916
    128          1           0        1.468477   -5.017403   -1.913966
    129          1           0        2.288394   -3.558561   -3.774857
    130          1           0        1.728560   -2.116264   -2.812326
    131          1           0        0.289522   -3.325716   -4.334495
    132          7           0        4.030749   -4.896465   -2.386762
    133          6           0        5.405912   -5.279232   -2.143210
    134          6           0        6.392443   -4.172738   -1.821765
    135          8           0        7.034768   -4.235337   -0.770908
    136          6           0        5.799941   -5.856376   -3.502124
    137          1           0        3.597921   -5.254813   -3.221714
    138          1           0        5.425979   -6.032612   -1.362943
    139          1           0        6.805907   -6.252033   -3.448382
    140          1           0        5.150791   -6.722670   -3.651587
    141          1           0        5.668870   -5.169065   -4.343327
    142          7           0        6.352456   -3.077264   -2.585465
    143          6           0        7.124584   -1.903297   -2.255132
    144          6           0        6.826564   -1.254593   -0.912386
    145          8           0        7.771439   -0.936404   -0.201916
    146          6           0        6.819093   -0.956109   -3.414835
    147          1           0        5.902809   -3.014225   -3.492187
    148          1           0        8.195540   -2.065346   -2.395823
    149          1           0        5.733779   -0.840779   -3.479598
    150          1           0        7.207954    0.023950   -3.150883
    151          1           0        7.237255   -1.286914   -4.362732
    152          7           0        5.559614   -1.243166   -0.474544
    153          6           0        5.193401   -0.810364    0.862195
    154          6           0        5.691758   -1.728193    1.973514
    155          8           0        6.041479   -1.186742    3.014055
    156          6           0        3.678777   -0.696249    0.970320
    157          6           0        3.204819    0.356966   -0.040126
    158          6           0        1.694939    0.371348   -0.196823
    159          8           0        1.047343    1.421415   -0.421496
    160          8           0        1.042236   -0.692676   -0.191076
    161          1           0        4.868109   -1.774967   -0.978437
    162          1           0        5.565998    0.212483    0.971535
    163          1           0        3.545885   -0.280411    1.966070
    164          1           0        3.215179   -1.667525    0.839550
    165          1           0        3.540803    0.155198   -1.047154
    166          1           0        3.523740    1.330924    0.338154
    167          7           0        5.737634   -3.039921    1.753141
    168          6           0        6.495381   -3.909255    2.621632
    169          1           0        7.339973   -4.324686    2.071787
    170          1           0        6.862843   -3.340718    3.476097
    171          1           0        5.856898   -4.719733    2.971840
    172          1           0        5.238653   -3.425788    0.960219
    173         20           0       -1.172408    0.341542   -0.934409
    174          8           0       -1.542100   -2.230186   -1.591708
    175          1           0       -2.203563   -2.755248   -2.029631
    176          1           0       -0.707800   -2.569235   -1.923357
 ---------------------------------------------------------------------
 Rotational constants (GHZ):           0.0228675           0.0155232           0.0114155
 Standard basis: SVP (5D, 7F)
 There are  1809 symmetry adapted cartesian basis functions of A   symmetry.
 There are  1717 symmetry adapted basis functions of A   symmetry.
  1717 basis functions,  2922 primitive gaussians,  1809 cartesian basis functions
   358 alpha electrons      358 beta electrons
       nuclear repulsion energy     21706.7386605908 Hartrees.
 NAtoms=  176 NActive=  176 NUniq=  176 SFac= 1.00D+00 NAtFMM=   60 NAOKFM=T Big=T
 Integral buffers will be    131072 words long.
 Raffenetti 2 integral format.
 Two-electron integral symmetry is turned on.
 One-electron integrals computed using PRISM.
 NBasis=  1717 RedAO= T EigKep=  2.88D-04  NBF=  1717
 NBsUse=  1717 1.00D-06 EigRej= -1.00D+00 NBFU=  1717
 ExpMin= 1.98D-02 ExpMax= 3.51D+04 ExpMxC= 5.28D+03 IAcc=3 IRadAn=         5 AccDes= 0.00D+00
 Harris functional with IExCor=  402 and IRadAn=       5 diagonalized for initial guess.
 HarFok:  IExCor=  402 AccDes= 0.00D+00 IRadAn=         5 IDoV= 1 UseB2=F ITyADJ=14
 ICtDFT=  3500011 ScaDFX=  1.000000  1.000000  1.000000  1.000000
 FoFCou: FMM=F IPFlag=           0 FMFlag=      100000 FMFlg1=        2001
         NFxFlg=           0 DoJE=T BraDBF=F KetDBF=T FulRan=T
         wScrn=  0.000000 ICntrl=       500 IOpCl=  0 I1Cent=   200000004 NGrid=           0
         NMat0=    1 NMatS0=      1 NMatT0=    0 NMatD0=    1 NMtDS0=    0 NMtDT0=    0
 Petite list used in FoFCou.
 Requested convergence on RMS density matrix=1.00D-08 within 128 cycles.
 Requested convergence on MAX density matrix=1.00D-06.
 Requested convergence on             energy=1.00D-06.
 No special actions if energy rises.
 EnCoef did     3 forward-backward iterations
 EnCoef did     1 forward-backward iterations
 EnCoef did     5 forward-backward iterations
 EnCoef did     2 forward-backward iterations
 SCF Done:  E(RB3LYP) =  -5333.57626751     A.U. after   20 cycles
            NFock= 20  Conv=0.46D-08     -V/T= 2.0081
 SCF density gives NOpUse=  1 NOpAll=  1.
 Hyperfine terms turned off by default for NAtoms > 100.

 **********************************************************************

            Population analysis using the SCF density.

 **********************************************************************

 Orbital symmetries:
 BldTbl:  Degeneracy threshold= 1.00D-02
       Occupied  (A) (A) (A) (A) (A) (A) (A) (A) (A) (A) (A) (A)
                 (A) (A) (A) (A) (A) (A) (A) (A) (A) (A) (A) (A)
                 (A) (A) (A) (A) (A) (A) (A) (A) (A) (A) (A) (A)
                 (A) (A) (A) (A) (A) (A) (A) (A) (A) (A) (A) (A)
                 (A) (A) (A) (A) (A) (A) (A) (A) (A) (A) (A) (A)
                 (A) (A) (A) (A) (A) (A) (A) (A) (A) (A) (A) (A)
                 (A) (A) (A) (A) (A) (A) (A) (A) (A) (A) (A) (A)
                 (A) (A) (A) (A) (A) (A) (A) (A) (A) (A) (A) (A)
                 (A) (A) (A) (A) (A) (A) (A) (A) (A) (A) (A) (A)
                 (A) (A) (A) (A) (A) (A) (A) (A) (A) (A) (A) (A)
                 (A) (A) (A) (A) (A) (A) (A) (A) (A) (A) (A) (A)
                 (A) (A) (A) (A) (A) (A) (A) (A) (A) (A) (A) (A)
                 (A) (A) (A) (A) (A) (A) (A) (A) (A) (A) (A) (A)
                 (A) (A) (A) (A) (A) (A) (A) (A) (A) (A) (A) (A)
                 (A) (A) (A) (A) (A) (A) (A) (A) (A) (A) (A) (A)
                 (A) (A) (A) (A) (A) (A) (A) (A) (A) (A) (A) (A)
                 (A) (A) (A) (A) (A) (A) (A) (A) (A) (A) (A) (A)
                 (A) (A) (A) (A) (A) (A) (A) (A) (A) (A) (A) (A)
                 (A) (A) (A) (A) (A) (A) (A) (A) (A) (A) (A) (A)
                 (A) (A) (A) (A) (A) (A) (A) (A) (A) (A) (A) (A)
                 (A) (A) (A) (A) (A) (A) (A) (A) (A) (A) (A) (A)
                 (A) (A) (A) (A) (A) (A) (A) (A) (A) (A) (A) (A)
                 (A) (A) (A) (A) (A) (A) (A) (A) (A) (A) (A) (A)
                 (A) (A) (A) (A) (A) (A) (A) (A) (A) (A) (A) (A)
                 (A) (A) (A) (A) (A) (A) (A) (A) (A) (A) (A) (A)
                 (A) (A) (A) (A) (A) (A) (A) (A) (A) (A) (A) (A)
                 (A) (A) (A) (A) (A) (A) (A) (A) (A) (A) (A) (A)
                 (A) (A) (A) (A) (A) (A) (A) (A) (A) (A) (A) (A)
                 (A) (A) (A) (A) (A) (A) (A) (A) (A) (A) (A) (A)
                 (A) (A) (A) (A) (A) (A) (A) (A) (A) (A)
       Virtual   (A) (A) (A) (A) (A) (A) (A) (A) (A) (A) (A) (A)
                 (A) (A) (A) (A) (A) (A) (A) (A) (A) (A) (A) (A)
                 (A) (A) (A) (A) (A) (A) (A) (A) (A) (A) (A) (A)
                 (A) (A) (A) (A) (A) (A) (A) (A) (A) (A) (A) (A)
                 (A) (A) (A) (A) (A) (A) (A) (A) (A) (A) (A) (A)
                 (A) (A) (A) (A) (A) (A) (A) (A) (A) (A) (A) (A)
                 (A) (A) (A) (A) (A) (A) (A) (A) (A) (A) (A) (A)
                 (A) (A) (A) (A) (A) (A) (A) (A) (A) (A) (A) (A)
                 (A) (A) (A) (A) (A) (A) (A) (A) (A) (A) (A) (A)
                 (A) (A) (A) (A) (A) (A) (A) (A) (A) (A) (A) (A)
                 (A) (A) (A) (A) (A) (A) (A) (A) (A) (A) (A) (A)
                 (A) (A) (A) (A) (A) (A) (A) (A) (A) (A) (A) (A)
                 (A) (A) (A) (A) (A) (A) (A) (A) (A) (A) (A) (A)
                 (A) (A) (A) (A) (A) (A) (A) (A) (A) (A) (A) (A)
                 (A) (A) (A) (A) (A) (A) (A) (A) (A) (A) (A) (A)
                 (A) (A) (A) (A) (A) (A) (A) (A) (A) (A) (A) (A)
                 (A) (A) (A) (A) (A) (A) (A) (A) (A) (A) (A) (A)
                 (A) (A) (A) (A) (A) (A) (A) (A) (A) (A) (A) (A)
                 (A) (A) (A) (A) (A) (A) (A) (A) (A) (A) (A) (A)
                 (A) (A) (A) (A) (A) (A) (A) (A) (A) (A) (A) (A)
                 (A) (A) (A) (A) (A) (A) (A) (A) (A) (A) (A) (A)
                 (A) (A) (A) (A) (A) (A) (A) (A) (A) (A) (A) (A)
                 (A) (A) (A) (A) (A) (A) (A) (A) (A) (A) (A) (A)
                 (A) (A) (A) (A) (A) (A) (A) (A) (A) (A) (A) (A)
                 (A) (A) (A) (A) (A) (A) (A) (A) (A) (A) (A) (A)
                 (A) (A) (A) (A) (A) (A) (A) (A) (A) (A) (A) (A)
                 (A) (A) (A) (A) (A) (A) (A) (A) (A) (A) (A) (A)
                 (A) (A) (A) (A) (A) (A) (A) (A) (A) (A) (A) (A)
                 (A) (A) (A) (A) (A) (A) (A) (A) (A) (A) (A) (A)
                 (A) (A) (A) (A) (A) (A) (A) (A) (A) (A) (A) (A)
                 (A) (A) (A) (A) (A) (A) (A) (A) (A) (A) (A) (A)
                 (A) (A) (A) (A) (A) (A) (A) (A) (A) (A) (A) (A)
                 (A) (A) (A) (A) (A) (A) (A) (A) (A) (A) (A) (A)
                 (A) (A) (A) (A) (A) (A) (A) (A) (A) (A) (A) (A)
                 (A) (A) (A) (A) (A) (A) (A) (A) (A) (A) (A) (A)
                 (A) (A) (A) (A) (A) (A) (A) (A) (A) (A) (A) (A)
                 (A) (A) (A) (A) (A) (A) (A) (A) (A) (A) (A) (A)
                 (A) (A) (A) (A) (A) (A) (A) (A) (A) (A) (A) (A)
                 (A) (A) (A) (A) (A) (A) (A) (A) (A) (A) (A) (A)
                 (A) (A) (A) (A) (A) (A) (A) (A) (A) (A) (A) (A)
                 (A) (A) (A) (A) (A) (A) (A) (A) (A) (A) (A) (A)
                 (A) (A) (A) (A) (A) (A) (A) (A) (A) (A) (A) (A)
                 (A) (A) (A) (A) (A) (A) (A) (A) (A) (A) (A) (A)
                 (A) (A) (A) (A) (A) (A) (A) (A) (A) (A) (A) (A)
                 (A) (A) (A) (A) (A) (A) (A) (A) (A) (A) (A) (A)
                 (A) (A) (A) (A) (A) (A) (A) (A) (A) (A) (A) (A)
                 (A) (A) (A) (A) (A) (A) (A) (A) (A) (A) (A) (A)
                 (A) (A) (A) (A) (A) (A) (A) (A) (A) (A) (A) (A)
                 (A) (A) (A) (A) (A) (A) (A) (A) (A) (A) (A) (A)
                 (A) (A) (A) (A) (A) (A) (A) (A) (A) (A) (A) (A)
                 (A) (A) (A) (A) (A) (A) (A) (A) (A) (A) (A) (A)
                 (A) (A) (A) (A) (A) (A) (A) (A) (A) (A) (A) (A)
                 (A) (A) (A) (A) (A) (A) (A) (A) (A) (A) (A) (A)
                 (A) (A) (A) (A) (A) (A) (A) (A) (A) (A) (A) (A)
                 (A) (A) (A) (A) (A) (A) (A) (A) (A) (A) (A) (A)
                 (A) (A) (A) (A) (A) (A) (A) (A) (A) (A) (A) (A)
                 (A) (A) (A) (A) (A) (A) (A) (A) (A) (A) (A) (A)
                 (A) (A) (A) (A) (A) (A) (A) (A) (A) (A) (A) (A)
                 (A) (A) (A) (A) (A) (A) (A) (A) (A) (A) (A) (A)
                 (A) (A) (A) (A) (A) (A) (A) (A) (A) (A) (A) (A)
                 (A) (A) (A) (A) (A) (A) (A) (A) (A) (A) (A) (A)
                 (A) (A) (A) (A) (A) (A) (A) (A) (A) (A) (A) (A)
                 (A) (A) (A) (A) (A) (A) (A) (A) (A) (A) (A) (A)
                 (A) (A) (A) (A) (A) (A) (A) (A) (A) (A) (A) (A)
                 (A) (A) (A) (A) (A) (A) (A) (A) (A) (A) (A) (A)
                 (A) (A) (A) (A) (A) (A) (A) (A) (A) (A) (A) (A)
                 (A) (A) (A) (A) (A) (A) (A) (A) (A) (A) (A) (A)
                 (A) (A) (A) (A) (A) (A) (A) (A) (A) (A) (A) (A)
                 (A) (A) (A) (A) (A) (A) (A) (A) (A) (A) (A) (A)
                 (A) (A) (A) (A) (A) (A) (A) (A) (A) (A) (A) (A)
                 (A) (A) (A) (A) (A) (A) (A) (A) (A) (A) (A) (A)
                 (A) (A) (A) (A) (A) (A) (A) (A) (A) (A) (A) (A)
                 (A) (A) (A) (A) (A) (A) (A) (A) (A) (A) (A) (A)
                 (A) (A) (A) (A) (A) (A) (A) (A) (A) (A) (A) (A)
                 (A) (A) (A) (A) (A) (A) (A) (A) (A) (A) (A) (A)
                 (A) (A) (A) (A) (A) (A) (A) (A) (A) (A) (A) (A)
                 (A) (A) (A) (A) (A) (A) (A) (A) (A) (A) (A) (A)
                 (A) (A) (A) (A) (A) (A) (A) (A) (A) (A) (A) (A)
                 (A) (A) (A) (A) (A) (A) (A) (A) (A) (A) (A) (A)
                 (A) (A) (A) (A) (A) (A) (A) (A) (A) (A) (A) (A)
                 (A) (A) (A) (A) (A) (A) (A) (A) (A) (A) (A) (A)
                 (A) (A) (A) (A) (A) (A) (A) (A) (A) (A) (A) (A)
                 (A) (A) (A) (A) (A) (A) (A) (A) (A) (A) (A) (A)
                 (A) (A) (A) (A) (A) (A) (A) (A) (A) (A) (A) (A)
                 (A) (A) (A) (A) (A) (A) (A) (A) (A) (A) (A) (A)
                 (A) (A) (A) (A) (A) (A) (A) (A) (A) (A) (A) (A)
                 (A) (A) (A) (A) (A) (A) (A) (A) (A) (A) (A) (A)
                 (A) (A) (A) (A) (A) (A) (A) (A) (A) (A) (A) (A)
                 (A) (A) (A) (A) (A) (A) (A) (A) (A) (A) (A) (A)
                 (A) (A) (A) (A) (A) (A) (A) (A) (A) (A) (A) (A)
                 (A) (A) (A) (A) (A) (A) (A) (A) (A) (A) (A) (A)
                 (A) (A) (A) (A) (A) (A) (A) (A) (A) (A) (A) (A)
                 (A) (A) (A) (A) (A) (A) (A) (A) (A) (A) (A) (A)
                 (A) (A) (A) (A) (A) (A) (A) (A) (A) (A) (A) (A)
                 (A) (A) (A) (A) (A) (A) (A) (A) (A) (A) (A) (A)
                 (A) (A) (A) (A) (A) (A) (A) (A) (A) (A) (A) (A)
                 (A) (A) (A) (A) (A) (A) (A) (A) (A) (A) (A) (A)
                 (A) (A) (A) (A) (A) (A) (A) (A) (A) (A) (A) (A)
                 (A) (A) (A) (A) (A) (A) (A) (A) (A) (A) (A) (A)
                 (A) (A) (A) (A) (A) (A) (A) (A) (A) (A) (A) (A)
                 (A) (A) (A) (A) (A) (A) (A) (A) (A) (A) (A) (A)
                 (A) (A) (A) (A) (A) (A) (A) (A) (A) (A) (A) (A)
                 (A) (A) (A) (A) (A) (A) (A) (A) (A) (A) (A) (A)
                 (A) (A) (A) (A) (A) (A) (A) (A) (A) (A) (A) (A)
                 (A) (A) (A) (A) (A) (A) (A) (A) (A) (A) (A) (A)
                 (A) (A) (A) (A) (A) (A) (A) (A) (A) (A) (A) (A)
                 (A) (A) (A) (A) (A) (A) (A) (A) (A) (A) (A) (A)
                 (A) (A) (A) (A) (A) (A) (A) (A) (A) (A) (A) (A)
                 (A) (A) (A) (A) (A) (A) (A) (A) (A) (A) (A) (A)
                 (A) (A) (A) (A) (A) (A) (A) (A) (A) (A) (A) (A)
                 (A) (A) (A) (A) (A) (A) (A) (A) (A) (A) (A) (A)
                 (A) (A) (A) (A) (A) (A) (A) (A) (A) (A) (A) (A)
                 (A) (A) (A) (A) (A) (A) (A) (A) (A) (A) (A) (A)
                 (A) (A) (A)
 The electronic state is 1-A.
 Alpha  occ. eigenvalues -- -145.35213 -19.19501 -19.16988 -19.14455 -19.14263
 Alpha  occ. eigenvalues --  -19.12047 -19.12025 -19.10510 -19.09332 -19.09259
 Alpha  occ. eigenvalues --  -19.08826 -19.08445 -19.08093 -19.06932 -19.05796
 Alpha  occ. eigenvalues --  -19.05773 -19.05480 -19.05468 -19.05247 -19.04925
 Alpha  occ. eigenvalues --  -19.04676 -19.04064 -19.01355 -19.01130 -15.40983
 Alpha  occ. eigenvalues --  -14.57171 -14.40559 -14.38579 -14.37739 -14.36606
 Alpha  occ. eigenvalues --  -14.35288 -14.34410 -14.33367 -14.32782 -14.31747
 Alpha  occ. eigenvalues --  -14.31452 -14.30650 -14.30251 -14.29927 -14.29530
 Alpha  occ. eigenvalues --  -12.54588 -12.54565 -12.54537 -10.33004 -10.32629
 Alpha  occ. eigenvalues --  -10.30896 -10.30740 -10.29442 -10.28952 -10.27779
 Alpha  occ. eigenvalues --  -10.27697 -10.27678 -10.27619 -10.27125 -10.27105
 Alpha  occ. eigenvalues --  -10.25587 -10.24843 -10.24621 -10.24558 -10.24436
 Alpha  occ. eigenvalues --  -10.24337 -10.23995 -10.23982 -10.23569 -10.23431
 Alpha  occ. eigenvalues --  -10.23303 -10.22817 -10.21915 -10.21828 -10.21587
 Alpha  occ. eigenvalues --  -10.21469 -10.20802 -10.20599 -10.20516 -10.20444
 Alpha  occ. eigenvalues --  -10.20330 -10.20280 -10.19404 -10.19039 -10.18862
 Alpha  occ. eigenvalues --  -10.18456 -10.18281 -10.18238 -10.18118 -10.18026
 Alpha  occ. eigenvalues --  -10.17827 -10.17813 -10.17786 -10.17611 -10.17494
 Alpha  occ. eigenvalues --  -10.17425 -10.17327 -10.16530 -10.16404 -10.15261
 Alpha  occ. eigenvalues --  -10.14828 -10.13907  -1.77955  -1.12220  -1.08461
 Alpha  occ. eigenvalues --   -1.07860  -1.06368  -1.05548  -1.05370  -1.04976
 Alpha  occ. eigenvalues --   -1.04889  -1.03668  -1.03450  -1.03083  -1.03075
 Alpha  occ. eigenvalues --   -1.02060  -1.01920  -1.01471  -0.99731  -0.99565
 Alpha  occ. eigenvalues --   -0.99372  -0.98983  -0.98709  -0.98401  -0.98319
 Alpha  occ. eigenvalues --   -0.97249  -0.96896  -0.96189  -0.95226  -0.94044
 Alpha  occ. eigenvalues --   -0.93066  -0.92531  -0.92447  -0.91347  -0.90147
 Alpha  occ. eigenvalues --   -0.90141  -0.89759  -0.88840  -0.88648  -0.88175
 Alpha  occ. eigenvalues --   -0.88004  -0.87725  -0.86571  -0.86161  -0.85806
 Alpha  occ. eigenvalues --   -0.83714  -0.83420  -0.81116  -0.80082  -0.79010
 Alpha  occ. eigenvalues --   -0.78925  -0.78021  -0.77214  -0.76641  -0.76062
 Alpha  occ. eigenvalues --   -0.73689  -0.73349  -0.72939  -0.72658  -0.72101
 Alpha  occ. eigenvalues --   -0.71917  -0.71543  -0.70921  -0.70680  -0.70418
 Alpha  occ. eigenvalues --   -0.69668  -0.69622  -0.68825  -0.68449  -0.67392
 Alpha  occ. eigenvalues --   -0.66453  -0.66356  -0.65705  -0.65282  -0.63935
 Alpha  occ. eigenvalues --   -0.63130  -0.62649  -0.62559  -0.61980  -0.60931
 Alpha  occ. eigenvalues --   -0.60778  -0.60670  -0.60516  -0.60432  -0.59848
 Alpha  occ. eigenvalues --   -0.58940  -0.58791  -0.58575  -0.57642  -0.57500
 Alpha  occ. eigenvalues --   -0.57438  -0.56915  -0.56379  -0.56200  -0.55862
 Alpha  occ. eigenvalues --   -0.55527  -0.55448  -0.55346  -0.55152  -0.54798
 Alpha  occ. eigenvalues --   -0.54382  -0.54282  -0.54208  -0.53456  -0.53329
 Alpha  occ. eigenvalues --   -0.53317  -0.52991  -0.52491  -0.52207  -0.51809
 Alpha  occ. eigenvalues --   -0.51424  -0.50876  -0.49899  -0.49884  -0.49477
 Alpha  occ. eigenvalues --   -0.49117  -0.48923  -0.48826  -0.48390  -0.48224
 Alpha  occ. eigenvalues --   -0.48082  -0.47800  -0.47567  -0.47498  -0.47424
 Alpha  occ. eigenvalues --   -0.47025  -0.46819  -0.46540  -0.46201  -0.46023
 Alpha  occ. eigenvalues --   -0.45754  -0.45584  -0.45375  -0.45168  -0.44946
 Alpha  occ. eigenvalues --   -0.44871  -0.44750  -0.44627  -0.44212  -0.44095
 Alpha  occ. eigenvalues --   -0.43986  -0.43873  -0.43727  -0.43656  -0.43490
 Alpha  occ. eigenvalues --   -0.43461  -0.43304  -0.43232  -0.42904  -0.42633
 Alpha  occ. eigenvalues --   -0.42537  -0.42464  -0.42374  -0.42063  -0.41991
 Alpha  occ. eigenvalues --   -0.41854  -0.41779  -0.41433  -0.41322  -0.41239
 Alpha  occ. eigenvalues --   -0.41170  -0.40942  -0.40630  -0.40518  -0.40408
 Alpha  occ. eigenvalues --   -0.40389  -0.40319  -0.40146  -0.39944  -0.39748
 Alpha  occ. eigenvalues --   -0.39672  -0.39623  -0.39517  -0.39285  -0.39178
 Alpha  occ. eigenvalues --   -0.39053  -0.38917  -0.38777  -0.38555  -0.38510
 Alpha  occ. eigenvalues --   -0.38167  -0.37980  -0.37770  -0.37671  -0.37572
 Alpha  occ. eigenvalues --   -0.37451  -0.37266  -0.37123  -0.36891  -0.36845
 Alpha  occ. eigenvalues --   -0.36703  -0.36567  -0.36422  -0.36156  -0.36140
 Alpha  occ. eigenvalues --   -0.35934  -0.35811  -0.35710  -0.35541  -0.35466
 Alpha  occ. eigenvalues --   -0.35229  -0.35126  -0.34972  -0.34585  -0.34304
 Alpha  occ. eigenvalues --   -0.34152  -0.34052  -0.33891  -0.33767  -0.33602
 Alpha  occ. eigenvalues --   -0.33240  -0.32971  -0.32811  -0.32626  -0.32283
 Alpha  occ. eigenvalues --   -0.32154  -0.32100  -0.31907  -0.31644  -0.31185
 Alpha  occ. eigenvalues --   -0.31053  -0.30754  -0.30486  -0.30464  -0.30265
 Alpha  occ. eigenvalues --   -0.30171  -0.30050  -0.29430  -0.28196  -0.27681
 Alpha  occ. eigenvalues --   -0.27537  -0.27339  -0.27060  -0.26587  -0.26189
 Alpha  occ. eigenvalues --   -0.25670  -0.25306  -0.24858  -0.24546  -0.24418
 Alpha  occ. eigenvalues --   -0.24367  -0.24277  -0.24160  -0.24137  -0.23688
 Alpha  occ. eigenvalues --   -0.23425  -0.22863  -0.22448  -0.22354  -0.22147
 Alpha  occ. eigenvalues --   -0.21895  -0.21781  -0.21208  -0.21195  -0.21106
 Alpha  occ. eigenvalues --   -0.20996  -0.20727  -0.20613  -0.19647  -0.19311
 Alpha  occ. eigenvalues --   -0.19140  -0.18778  -0.16438
 Alpha virt. eigenvalues --   -0.09386  -0.03726  -0.03190  -0.02447  -0.02379
 Alpha virt. eigenvalues --   -0.01714  -0.01033  -0.00584   0.00022   0.00439
 Alpha virt. eigenvalues --    0.00592   0.00919   0.01387   0.01406   0.01861
 Alpha virt. eigenvalues --    0.02628   0.02709   0.03317   0.04254   0.04365
 Alpha virt. eigenvalues --    0.04644   0.04767   0.04816   0.05140   0.05334
 Alpha virt. eigenvalues --    0.05460   0.05731   0.05789   0.05979   0.06095
 Alpha virt. eigenvalues --    0.06330   0.06546   0.06597   0.06895   0.06949
 Alpha virt. eigenvalues --    0.07067   0.07660   0.07908   0.08236   0.08672
 Alpha virt. eigenvalues --    0.08756   0.08826   0.08943   0.09104   0.09164
 Alpha virt. eigenvalues --    0.09512   0.09687   0.09993   0.10189   0.10242
 Alpha virt. eigenvalues --    0.10638   0.10707   0.10880   0.11051   0.11335
 Alpha virt. eigenvalues --    0.11661   0.11702   0.11867   0.12150   0.12375
 Alpha virt. eigenvalues --    0.12585   0.12789   0.12868   0.12964   0.13077
 Alpha virt. eigenvalues --    0.13246   0.13480   0.13695   0.13979   0.14042
 Alpha virt. eigenvalues --    0.14146   0.14487   0.14602   0.14757   0.14976
 Alpha virt. eigenvalues --    0.15247   0.15513   0.15670   0.15786   0.15822
 Alpha virt. eigenvalues --    0.16104   0.16228   0.16358   0.16488   0.16710
 Alpha virt. eigenvalues --    0.16772   0.16963   0.17169   0.17276   0.17602
 Alpha virt. eigenvalues --    0.17684   0.17801   0.18092   0.18366   0.18571
 Alpha virt. eigenvalues --    0.18739   0.18806   0.18873   0.19101   0.19368
 Alpha virt. eigenvalues --    0.19756   0.19914   0.19966   0.20237   0.20556
 Alpha virt. eigenvalues --    0.20663   0.20991   0.21098   0.21157   0.21411
 Alpha virt. eigenvalues --    0.21589   0.21726   0.21945   0.21985   0.22224
 Alpha virt. eigenvalues --    0.22264   0.22649   0.22796   0.22852   0.23048
 Alpha virt. eigenvalues --    0.23212   0.23407   0.23596   0.23860   0.24022
 Alpha virt. eigenvalues --    0.24260   0.24681   0.24751   0.24895   0.25121
 Alpha virt. eigenvalues --    0.25302   0.25431   0.25642   0.26008   0.26232
 Alpha virt. eigenvalues --    0.26576   0.26979   0.27050   0.27230   0.27275
 Alpha virt. eigenvalues --    0.27440   0.27606   0.27721   0.28154   0.28397
 Alpha virt. eigenvalues --    0.28616   0.29031   0.29105   0.29477   0.29629
 Alpha virt. eigenvalues --    0.29921   0.30345   0.30570   0.30609   0.31075
 Alpha virt. eigenvalues --    0.31193   0.31340   0.31472   0.31882   0.32201
 Alpha virt. eigenvalues --    0.32383   0.32610   0.32723   0.32848   0.33401
 Alpha virt. eigenvalues --    0.33459   0.33669   0.33799   0.34001   0.34515
 Alpha virt. eigenvalues --    0.34774   0.35145   0.35379   0.35438   0.35765
 Alpha virt. eigenvalues --    0.36193   0.36290   0.36545   0.37040   0.37212
 Alpha virt. eigenvalues --    0.37829   0.37978   0.38208   0.38479   0.38726
 Alpha virt. eigenvalues --    0.38891   0.39156   0.39373   0.39668   0.39842
 Alpha virt. eigenvalues --    0.40105   0.40481   0.40664   0.40799   0.41186
 Alpha virt. eigenvalues --    0.41537   0.41766   0.42014   0.42273   0.42412
 Alpha virt. eigenvalues --    0.42511   0.42851   0.43145   0.43614   0.43656
 Alpha virt. eigenvalues --    0.43789   0.43950   0.44104   0.44327   0.44480
 Alpha virt. eigenvalues --    0.44594   0.44829   0.45160   0.45410   0.45500
 Alpha virt. eigenvalues --    0.45758   0.45849   0.46255   0.46397   0.46602
 Alpha virt. eigenvalues --    0.46865   0.47279   0.47324   0.47480   0.47609
 Alpha virt. eigenvalues --    0.47891   0.48157   0.48417   0.48457   0.48741
 Alpha virt. eigenvalues --    0.48961   0.49033   0.49251   0.49583   0.49677
 Alpha virt. eigenvalues --    0.50011   0.50227   0.50334   0.50482   0.50817
 Alpha virt. eigenvalues --    0.50849   0.51053   0.51433   0.51526   0.51700
 Alpha virt. eigenvalues --    0.51765   0.52066   0.52272   0.52440   0.52597
 Alpha virt. eigenvalues --    0.52783   0.52963   0.52989   0.53183   0.53314
 Alpha virt. eigenvalues --    0.53388   0.53670   0.53792   0.54087   0.54378
 Alpha virt. eigenvalues --    0.54695   0.54759   0.54917   0.54983   0.55307
 Alpha virt. eigenvalues --    0.55528   0.55602   0.55750   0.55997   0.56021
 Alpha virt. eigenvalues --    0.56190   0.56439   0.56907   0.57233   0.57359
 Alpha virt. eigenvalues --    0.57597   0.57763   0.57961   0.58097   0.58274
 Alpha virt. eigenvalues --    0.58695   0.58905   0.58925   0.58991   0.59221
 Alpha virt. eigenvalues --    0.59305   0.59430   0.59651   0.59805   0.59966
 Alpha virt. eigenvalues --    0.60171   0.60259   0.60378   0.60650   0.60847
 Alpha virt. eigenvalues --    0.60986   0.61079   0.61104   0.61155   0.61167
 Alpha virt. eigenvalues --    0.61433   0.61529   0.61775   0.61833   0.62033
 Alpha virt. eigenvalues --    0.62236   0.62453   0.62619   0.62695   0.62891
 Alpha virt. eigenvalues --    0.62981   0.63096   0.63222   0.63359   0.63462
 Alpha virt. eigenvalues --    0.63608   0.63752   0.63907   0.64005   0.64130
 Alpha virt. eigenvalues --    0.64252   0.64404   0.64586   0.64720   0.64903
 Alpha virt. eigenvalues --    0.65032   0.65058   0.65111   0.65178   0.65250
 Alpha virt. eigenvalues --    0.65502   0.65674   0.65712   0.65796   0.66113
 Alpha virt. eigenvalues --    0.66266   0.66278   0.66359   0.66454   0.66523
 Alpha virt. eigenvalues --    0.66707   0.66944   0.66958   0.67161   0.67199
 Alpha virt. eigenvalues --    0.67258   0.67317   0.67470   0.67577   0.67678
 Alpha virt. eigenvalues --    0.67764   0.67909   0.68065   0.68149   0.68309
 Alpha virt. eigenvalues --    0.68408   0.68442   0.68579   0.68733   0.68877
 Alpha virt. eigenvalues --    0.69050   0.69081   0.69291   0.69310   0.69428
 Alpha virt. eigenvalues --    0.69656   0.69685   0.69801   0.70001   0.70069
 Alpha virt. eigenvalues --    0.70145   0.70326   0.70442   0.70582   0.70770
 Alpha virt. eigenvalues --    0.70892   0.70975   0.71047   0.71217   0.71279
 Alpha virt. eigenvalues --    0.71392   0.71521   0.71623   0.71954   0.72013
 Alpha virt. eigenvalues --    0.72113   0.72264   0.72409   0.72569   0.72613
 Alpha virt. eigenvalues --    0.72732   0.72849   0.73017   0.73198   0.73321
 Alpha virt. eigenvalues --    0.73630   0.73829   0.73920   0.74011   0.74282
 Alpha virt. eigenvalues --    0.74464   0.74603   0.74759   0.74905   0.75121
 Alpha virt. eigenvalues --    0.75449   0.75625   0.75875   0.75987   0.76330
 Alpha virt. eigenvalues --    0.76539   0.76707   0.76937   0.76976   0.77275
 Alpha virt. eigenvalues --    0.77538   0.77572   0.77814   0.78170   0.78214
 Alpha virt. eigenvalues --    0.78694   0.78938   0.79233   0.79372   0.79787
 Alpha virt. eigenvalues --    0.79898   0.80100   0.80421   0.81033   0.81116
 Alpha virt. eigenvalues --    0.81266   0.81804   0.82115   0.82271   0.82513
 Alpha virt. eigenvalues --    0.83034   0.83161   0.83293   0.83314   0.83422
 Alpha virt. eigenvalues --    0.83729   0.83815   0.84221   0.84547   0.84722
 Alpha virt. eigenvalues --    0.85217   0.85388   0.85509   0.86101   0.86620
 Alpha virt. eigenvalues --    0.86716   0.87099   0.87327   0.87659   0.87987
 Alpha virt. eigenvalues --    0.88048   0.88319   0.88349   0.88823   0.88833
 Alpha virt. eigenvalues --    0.89246   0.89521   0.89875   0.90160   0.90325
 Alpha virt. eigenvalues --    0.90604   0.91163   0.91372   0.91538   0.91931
 Alpha virt. eigenvalues --    0.92200   0.92685   0.93004   0.93470   0.93728
 Alpha virt. eigenvalues --    0.93968   0.94216   0.94703   0.94950   0.95198
 Alpha virt. eigenvalues --    0.95643   0.95858   0.96094   0.96362   0.96534
 Alpha virt. eigenvalues --    0.96817   0.97037   0.97092   0.97376   0.97567
 Alpha virt. eigenvalues --    0.97904   0.98187   0.98474   0.98572   0.98923
 Alpha virt. eigenvalues --    0.99136   0.99635   1.00095   1.00190   1.00203
 Alpha virt. eigenvalues --    1.00441   1.01019   1.01154   1.01510   1.01670
 Alpha virt. eigenvalues --    1.02286   1.02512   1.02887   1.03092   1.03307
 Alpha virt. eigenvalues --    1.03472   1.04290   1.04841   1.05198   1.05327
 Alpha virt. eigenvalues --    1.05434   1.05757   1.05986   1.06342   1.06698
 Alpha virt. eigenvalues --    1.07043   1.07178   1.07330   1.07407   1.07927
 Alpha virt. eigenvalues --    1.08345   1.08556   1.08678   1.09040   1.09242
 Alpha virt. eigenvalues --    1.09741   1.09767   1.10310   1.10472   1.10753
 Alpha virt. eigenvalues --    1.11136   1.11574   1.11780   1.11855   1.12126
 Alpha virt. eigenvalues --    1.12551   1.12602   1.13035   1.13421   1.13519
 Alpha virt. eigenvalues --    1.14082   1.14133   1.14842   1.15049   1.15410
 Alpha virt. eigenvalues --    1.15703   1.15807   1.15984   1.16454   1.16695
 Alpha virt. eigenvalues --    1.16919   1.17169   1.17559   1.18052   1.18137
 Alpha virt. eigenvalues --    1.18365   1.18540   1.18966   1.19031   1.19275
 Alpha virt. eigenvalues --    1.19584   1.20036   1.20139   1.20230   1.20568
 Alpha virt. eigenvalues --    1.20799   1.20860   1.21401   1.21480   1.21543
 Alpha virt. eigenvalues --    1.22050   1.22335   1.22544   1.22713   1.23168
 Alpha virt. eigenvalues --    1.23380   1.23613   1.23777   1.23940   1.24169
 Alpha virt. eigenvalues --    1.24511   1.24723   1.24986   1.25081   1.25700
 Alpha virt. eigenvalues --    1.25993   1.26198   1.26374   1.26507   1.26525
 Alpha virt. eigenvalues --    1.26972   1.27046   1.27338   1.27470   1.27673
 Alpha virt. eigenvalues --    1.27734   1.27982   1.28584   1.28688   1.28848
 Alpha virt. eigenvalues --    1.29053   1.29400   1.29847   1.30230   1.30434
 Alpha virt. eigenvalues --    1.30927   1.31010   1.31261   1.31644   1.31817
 Alpha virt. eigenvalues --    1.32404   1.32562   1.32813   1.33111   1.33428
 Alpha virt. eigenvalues --    1.33666   1.33885   1.34292   1.34469   1.34616
 Alpha virt. eigenvalues --    1.35083   1.35295   1.35568   1.35972   1.36084
 Alpha virt. eigenvalues --    1.36362   1.36504   1.36989   1.37336   1.37435
 Alpha virt. eigenvalues --    1.37815   1.37950   1.38493   1.38713   1.38919
 Alpha virt. eigenvalues --    1.39288   1.39801   1.40276   1.40351   1.40415
 Alpha virt. eigenvalues --    1.40590   1.41016   1.41228   1.41721   1.41860
 Alpha virt. eigenvalues --    1.42080   1.42446   1.42847   1.43062   1.43400
 Alpha virt. eigenvalues --    1.43529   1.43848   1.44169   1.44395   1.44619
 Alpha virt. eigenvalues --    1.44986   1.45583   1.45678   1.46154   1.46625
 Alpha virt. eigenvalues --    1.46972   1.47299   1.47488   1.47652   1.48011
 Alpha virt. eigenvalues --    1.48231   1.48429   1.48528   1.48688   1.49247
 Alpha virt. eigenvalues --    1.49484   1.49546   1.49923   1.50274   1.50718
 Alpha virt. eigenvalues --    1.50859   1.50925   1.51443   1.51700   1.51891
 Alpha virt. eigenvalues --    1.52108   1.52356   1.52461   1.52551   1.53021
 Alpha virt. eigenvalues --    1.53329   1.53407   1.53844   1.54206   1.54376
 Alpha virt. eigenvalues --    1.54438   1.54670   1.55074   1.55187   1.55584
 Alpha virt. eigenvalues --    1.55744   1.56086   1.56567   1.56611   1.56933
 Alpha virt. eigenvalues --    1.57228   1.57533   1.57716   1.58657   1.59169
 Alpha virt. eigenvalues --    1.59571   1.60326   1.60530   1.61036   1.61312
 Alpha virt. eigenvalues --    1.61501   1.61837   1.62237   1.62634   1.62955
 Alpha virt. eigenvalues --    1.63381   1.63634   1.63666   1.63971   1.64149
 Alpha virt. eigenvalues --    1.64466   1.64720   1.65038   1.65274   1.65772
 Alpha virt. eigenvalues --    1.66108   1.66509   1.66747   1.66870   1.66959
 Alpha virt. eigenvalues --    1.67325   1.67823   1.68249   1.68409   1.68656
 Alpha virt. eigenvalues --    1.68912   1.69245   1.69383   1.69762   1.70110
 Alpha virt. eigenvalues --    1.70408   1.70501   1.70834   1.71008   1.71587
 Alpha virt. eigenvalues --    1.71691   1.71940   1.72061   1.72242   1.72362
 Alpha virt. eigenvalues --    1.72923   1.73005   1.73156   1.73417   1.73722
 Alpha virt. eigenvalues --    1.73756   1.74102   1.74411   1.74558   1.74795
 Alpha virt. eigenvalues --    1.74949   1.75053   1.75153   1.75304   1.75658
 Alpha virt. eigenvalues --    1.75784   1.75885   1.76192   1.76286   1.76396
 Alpha virt. eigenvalues --    1.76563   1.76676   1.77149   1.77310   1.77624
 Alpha virt. eigenvalues --    1.77734   1.77907   1.78134   1.78406   1.78538
 Alpha virt. eigenvalues --    1.78739   1.78939   1.79244   1.79377   1.79747
 Alpha virt. eigenvalues --    1.79946   1.80098   1.80283   1.80403   1.80448
 Alpha virt. eigenvalues --    1.80581   1.80718   1.80795   1.81204   1.81519
 Alpha virt. eigenvalues --    1.81645   1.81687   1.81946   1.82087   1.82357
 Alpha virt. eigenvalues --    1.82523   1.82655   1.82913   1.83117   1.83174
 Alpha virt. eigenvalues --    1.83505   1.83570   1.83866   1.83900   1.84037
 Alpha virt. eigenvalues --    1.84356   1.84648   1.84677   1.84835   1.85047
 Alpha virt. eigenvalues --    1.85149   1.85392   1.85609   1.85758   1.85981
 Alpha virt. eigenvalues --    1.86231   1.86560   1.86683   1.86780   1.86972
 Alpha virt. eigenvalues --    1.86993   1.87202   1.87384   1.87503   1.87549
 Alpha virt. eigenvalues --    1.87774   1.87948   1.88355   1.88542   1.88655
 Alpha virt. eigenvalues --    1.88797   1.88861   1.89249   1.89370   1.89639
 Alpha virt. eigenvalues --    1.89734   1.89889   1.90097   1.90291   1.90439
 Alpha virt. eigenvalues --    1.90578   1.90862   1.91218   1.91297   1.91602
 Alpha virt. eigenvalues --    1.91935   1.92065   1.92244   1.92276   1.92540
 Alpha virt. eigenvalues --    1.92660   1.92715   1.92982   1.93324   1.93503
 Alpha virt. eigenvalues --    1.93686   1.93942   1.94059   1.94183   1.94488
 Alpha virt. eigenvalues --    1.94764   1.94782   1.95285   1.95447   1.95535
 Alpha virt. eigenvalues --    1.95654   1.95951   1.96149   1.96450   1.96758
 Alpha virt. eigenvalues --    1.97025   1.97247   1.97335   1.97634   1.97757
 Alpha virt. eigenvalues --    1.97971   1.98337   1.98537   1.98656   1.98829
 Alpha virt. eigenvalues --    1.99057   1.99532   1.99666   1.99694   1.99996
 Alpha virt. eigenvalues --    2.00296   2.00379   2.00769   2.00978   2.01041
 Alpha virt. eigenvalues --    2.01129   2.01348   2.01520   2.01705   2.01793
 Alpha virt. eigenvalues --    2.02206   2.02367   2.02676   2.02809   2.03093
 Alpha virt. eigenvalues --    2.03196   2.03649   2.03768   2.03992   2.04252
 Alpha virt. eigenvalues --    2.04525   2.04985   2.05230   2.05875   2.05916
 Alpha virt. eigenvalues --    2.06374   2.06504   2.06838   2.06982   2.07404
 Alpha virt. eigenvalues --    2.07624   2.07749   2.08105   2.08193   2.08430
 Alpha virt. eigenvalues --    2.08676   2.08884   2.09155   2.09596   2.09852
 Alpha virt. eigenvalues --    2.10087   2.10312   2.10842   2.11234   2.11363
 Alpha virt. eigenvalues --    2.11607   2.11902   2.12155   2.12753   2.12893
 Alpha virt. eigenvalues --    2.13111   2.13470   2.13966   2.14034   2.14456
 Alpha virt. eigenvalues --    2.14590   2.14945   2.15038   2.15258   2.15428
 Alpha virt. eigenvalues --    2.15934   2.15950   2.16296   2.16518   2.16620
 Alpha virt. eigenvalues --    2.16765   2.17430   2.17575   2.17753   2.17929
 Alpha virt. eigenvalues --    2.18134   2.18528   2.18982   2.19093   2.19518
 Alpha virt. eigenvalues --    2.19858   2.20095   2.20882   2.21466   2.21701
 Alpha virt. eigenvalues --    2.22074   2.22318   2.22628   2.22758   2.22951
 Alpha virt. eigenvalues --    2.23068   2.23540   2.23806   2.24067   2.24593
 Alpha virt. eigenvalues --    2.24981   2.25037   2.25370   2.26119   2.26533
 Alpha virt. eigenvalues --    2.26872   2.27214   2.27478   2.27657   2.28001
 Alpha virt. eigenvalues --    2.28285   2.29175   2.29280   2.29359   2.29958
 Alpha virt. eigenvalues --    2.30266   2.30469   2.31427   2.31710   2.31968
 Alpha virt. eigenvalues --    2.32551   2.32768   2.33161   2.33371   2.33686
 Alpha virt. eigenvalues --    2.34090   2.34201   2.34569   2.34816   2.35107
 Alpha virt. eigenvalues --    2.35669   2.35774   2.36111   2.36292   2.36386
 Alpha virt. eigenvalues --    2.36459   2.36796   2.37013   2.37173   2.37371
 Alpha virt. eigenvalues --    2.37774   2.37862   2.38266   2.38672   2.38978
 Alpha virt. eigenvalues --    2.39418   2.39676   2.39748   2.39924   2.40781
 Alpha virt. eigenvalues --    2.41267   2.41636   2.41704   2.41760   2.42185
 Alpha virt. eigenvalues --    2.42424   2.42622   2.43107   2.43380   2.43516
 Alpha virt. eigenvalues --    2.43621   2.44290   2.44975   2.45118   2.45172
 Alpha virt. eigenvalues --    2.45384   2.45889   2.46333   2.46671   2.46766
 Alpha virt. eigenvalues --    2.47825   2.47965   2.48424   2.48750   2.49122
 Alpha virt. eigenvalues --    2.49663   2.49908   2.50725   2.50853   2.51422
 Alpha virt. eigenvalues --    2.51620   2.51961   2.52294   2.52659   2.52770
 Alpha virt. eigenvalues --    2.53086   2.53537   2.53694   2.54119   2.54421
 Alpha virt. eigenvalues --    2.54628   2.55091   2.55981   2.56386   2.56560
 Alpha virt. eigenvalues --    2.56694   2.57149   2.57296   2.57776   2.58209
 Alpha virt. eigenvalues --    2.58771   2.59049   2.59325   2.59989   2.60113
 Alpha virt. eigenvalues --    2.60136   2.60476   2.61025   2.61444   2.61489
 Alpha virt. eigenvalues --    2.61585   2.61710   2.61767   2.62275   2.62666
 Alpha virt. eigenvalues --    2.62691   2.63252   2.63426   2.63569   2.63640
 Alpha virt. eigenvalues --    2.63814   2.64108   2.64187   2.64848   2.65000
 Alpha virt. eigenvalues --    2.65361   2.65502   2.66413   2.66669   2.66886
 Alpha virt. eigenvalues --    2.67193   2.67422   2.68068   2.68232   2.68780
 Alpha virt. eigenvalues --    2.69078   2.69184   2.69610   2.69937   2.70363
 Alpha virt. eigenvalues --    2.70546   2.70692   2.70959   2.71136   2.71419
 Alpha virt. eigenvalues --    2.71586   2.72194   2.72441   2.72517   2.72687
 Alpha virt. eigenvalues --    2.72770   2.73498   2.73597   2.73781   2.73985
 Alpha virt. eigenvalues --    2.74039   2.74377   2.74495   2.74939   2.75264
 Alpha virt. eigenvalues --    2.75417   2.75515   2.76024   2.76290   2.76641
 Alpha virt. eigenvalues --    2.76827   2.77362   2.77371   2.77742   2.77761
 Alpha virt. eigenvalues --    2.77901   2.77969   2.78639   2.78650   2.78980
 Alpha virt. eigenvalues --    2.79130   2.79340   2.79617   2.79775   2.79916
 Alpha virt. eigenvalues --    2.80794   2.81324   2.81350   2.81500   2.81725
 Alpha virt. eigenvalues --    2.82197   2.82262   2.82659   2.82931   2.83274
 Alpha virt. eigenvalues --    2.83365   2.83509   2.83730   2.84246   2.84620
 Alpha virt. eigenvalues --    2.84788   2.85110   2.85744   2.85972   2.86299
 Alpha virt. eigenvalues --    2.86553   2.86989   2.87447   2.87694   2.88669
 Alpha virt. eigenvalues --    2.88849   2.89375   2.89811   2.89976   2.90349
 Alpha virt. eigenvalues --    2.90747   2.91195   2.91266   2.91446   2.91663
 Alpha virt. eigenvalues --    2.91762   2.92188   2.92341   2.93093   2.93111
 Alpha virt. eigenvalues --    2.93251   2.93311   2.93639   2.93708   2.93888
 Alpha virt. eigenvalues --    2.94134   2.94391   2.95238   2.95600   2.95929
 Alpha virt. eigenvalues --    2.96481   2.96584   2.96789   2.97061   2.97197
 Alpha virt. eigenvalues --    2.97420   2.97696   2.97967   2.98451   2.98601
 Alpha virt. eigenvalues --    2.98883   2.99173   2.99370   3.00079   3.00309
 Alpha virt. eigenvalues --    3.00556   3.00956   3.01155   3.01538   3.01790
 Alpha virt. eigenvalues --    3.02272   3.02625   3.02739   3.03142   3.03724
 Alpha virt. eigenvalues --    3.04117   3.04500   3.04744   3.05788   3.06017
 Alpha virt. eigenvalues --    3.06847   3.07475   3.07596   3.08039   3.08075
 Alpha virt. eigenvalues --    3.08172   3.08469   3.08971   3.09395   3.09618
 Alpha virt. eigenvalues --    3.10075   3.10150   3.10640   3.11276   3.11693
 Alpha virt. eigenvalues --    3.13086   3.13528   3.13616   3.13743   3.13935
 Alpha virt. eigenvalues --    3.14499   3.14952   3.15467   3.15764   3.16343
 Alpha virt. eigenvalues --    3.16444   3.16602   3.16958   3.17133   3.17795
 Alpha virt. eigenvalues --    3.18627   3.18762   3.18902   3.19151   3.19765
 Alpha virt. eigenvalues --    3.20206   3.20661   3.20793   3.20826   3.21231
 Alpha virt. eigenvalues --    3.21364   3.21821   3.22177   3.22355   3.23006
 Alpha virt. eigenvalues --    3.23470   3.23667   3.24133   3.24429   3.24701
 Alpha virt. eigenvalues --    3.24739   3.25398   3.25611   3.27070   3.27741
 Alpha virt. eigenvalues --    3.28175   3.29868   3.29954   3.30466   3.30922
 Alpha virt. eigenvalues --    3.31632   3.32329   3.32909   3.33140   3.34502
 Alpha virt. eigenvalues --    3.36545   3.37548   3.37919   3.38981   3.40620
 Alpha virt. eigenvalues --    3.40903   3.44957   3.48405   3.50085   3.51978
 Alpha virt. eigenvalues --    3.52750   3.53555   3.54070   3.54903   3.55338
 Alpha virt. eigenvalues --    3.56971   3.58023   3.58240   3.58623   3.59206
 Alpha virt. eigenvalues --    3.59550   3.60697   3.61609   3.61778   3.62152
 Alpha virt. eigenvalues --    3.63526   3.66579   3.68107   3.68707   3.68976
 Alpha virt. eigenvalues --    3.69874   3.69938   3.70799   3.70927   3.71514
 Alpha virt. eigenvalues --    3.71760   3.72274   3.72577   3.73083   3.73476
 Alpha virt. eigenvalues --    3.73855   3.74339   3.75070   3.75934   3.76108
 Alpha virt. eigenvalues --    3.78306   3.79324   3.79704   3.88656
          Condensed to atoms (all electrons):
 Mulliken charges:
               1
     1  C    0.046305
     2  C    0.045432
     3  O   -0.299632
     4  H    0.019551
     5  H    0.051539
     6  H    0.013525
     7  N   -0.093273
     8  C    0.069999
     9  C    0.053569
    10  O   -0.314648
    11  C    0.112520
    12  C    0.101511
    13  O   -0.407273
    14  O   -0.393054
    15  H    0.109907
    16  H   -0.000711
    17  H   -0.012549
    18  H    0.001494
    19  N   -0.120467
    20  C    0.096468
    21  C    0.072812
    22  O   -0.317660
    23  C    0.083417
    24  C   -0.056232
    25  C   -0.039454
    26  C    0.002172
    27  N    0.100372
    28  H    0.150473
    29  H    0.023844
    30  H   -0.011526
    31  H    0.010707
    32  H   -0.007932
    33  H    0.071812
    34  H    0.056408
    35  H    0.013892
    36  H    0.055428
    37  H    0.092001
    38  H    0.188698
    39  H    0.180453
    40  H    0.196971
    41  N   -0.127858
    42  C    0.147866
    43  C    0.039228
    44  O   -0.300536
    45  C    0.112535
    46  C    0.080829
    47  O   -0.410453
    48  O   -0.421763
    49  H    0.151628
    50  H    0.001957
    51  H   -0.007585
    52  H   -0.002427
    53  N   -0.132247
    54  C    0.232670
    55  C    0.013311
    56  O   -0.282038
    57  H    0.134507
    58  H    0.022074
    59  H    0.022412
    60  N   -0.193211
    61  C    0.134046
    62  C    0.064198
    63  O   -0.284933
    64  C    0.055038
    65  C    0.077278
    66  N   -0.033732
    67  O   -0.322038
    68  H    0.153684
    69  H    0.028642
    70  H    0.061987
    71  H    0.004886
    72  H    0.134863
    73  H    0.114623
    74  N   -0.139914
    75  C    0.225392
    76  C    0.021636
    77  O   -0.313358
    78  H    0.140109
    79  H    0.040378
    80  H    0.032908
    81  N   -0.114988
    82  C    0.082009
    83  C    0.131345
    84  O   -0.295650
    85  C    0.147820
    86  C    0.013164
    87  C    0.012432
    88  C    0.006004
    89  C   -0.012729
    90  C   -0.052944
    91  C    0.180975
    92  O   -0.229172
    93  H    0.157138
    94  H    0.004365
    95  H    0.005151
    96  H   -0.070629
    97  H   -0.102191
    98  H   -0.013596
    99  H   -0.024116
   100  H   -0.033771
   101  H    0.175613
   102  N   -0.111248
   103  C    0.136962
   104  C    0.027829
   105  O   -0.271123
   106  C   -0.121777
   107  C    0.049639
   108  C    0.103366
   109  C   -0.016539
   110  H    0.127956
   111  H    0.043513
   112  H   -0.022217
   113  H   -0.012094
   114  H    0.010745
   115  H    0.017298
   116  H   -0.001551
   117  H   -0.004741
   118  H    0.001641
   119  H    0.007169
   120  H    0.028110
   121  N   -0.143160
   122  C    0.139726
   123  C    0.070843
   124  O   -0.275690
   125  C    0.206478
   126  O   -0.300415
   127  H    0.145858
   128  H    0.022739
   129  H   -0.012508
   130  H    0.026365
   131  H    0.171779
   132  N   -0.129621
   133  C    0.106502
   134  C    0.096145
   135  O   -0.236975
   136  C   -0.006304
   137  H    0.113398
   138  H    0.023472
   139  H    0.039230
   140  H    0.021665
   141  H    0.018787
   142  N   -0.134315
   143  C    0.097052
   144  C    0.074199
   145  O   -0.253184
   146  C    0.003800
   147  H    0.106208
   148  H    0.012702
   149  H   -0.002549
   150  H    0.022725
   151  H    0.025972
   152  N   -0.153189
   153  C    0.118687
   154  C    0.074816
   155  O   -0.280237
   156  C   -0.040881
   157  C    0.069084
   158  C    0.170465
   159  O   -0.423236
   160  O   -0.448160
   161  H    0.116109
   162  H    0.003249
   163  H    0.033258
   164  H    0.042517
   165  H   -0.014328
   166  H    0.034047
   167  N   -0.160134
   168  C    0.131659
   169  H    0.025905
   170  H    0.034031
   171  H    0.000285
   172  H    0.129593
   173  Ca   1.256922
   174  O   -0.292982
   175  H    0.163141
   176  H    0.175825
 Sum of Mulliken charges =  -0.00000
 Mulliken charges with hydrogens summed into heavy atoms:
               1
     1  C    0.130920
     2  C    0.045432
     3  O   -0.299632
     7  N    0.016634
     8  C    0.069288
     9  C    0.053569
    10  O   -0.314648
    11  C    0.101464
    12  C    0.101511
    13  O   -0.407273
    14  O   -0.393054
    19  N    0.030006
    20  C    0.120313
    21  C    0.072812
    22  O   -0.317660
    23  C    0.082598
    24  C    0.007648
    25  C    0.030846
    26  C    0.149601
    27  N    0.666494
    41  N    0.023770
    42  C    0.149823
    43  C    0.039228
    44  O   -0.300536
    45  C    0.102522
    46  C    0.080829
    47  O   -0.410453
    48  O   -0.421763
    53  N    0.002260
    54  C    0.277156
    55  C    0.013311
    56  O   -0.282038
    60  N   -0.039527
    61  C    0.162688
    62  C    0.064198
    63  O   -0.284933
    64  C    0.121911
    65  C    0.077278
    66  N    0.215754
    67  O   -0.322038
    74  N    0.000196
    75  C    0.298678
    76  C    0.021636
    77  O   -0.313358
    81  N    0.042150
    82  C    0.086373
    83  C    0.131345
    84  O   -0.295650
    85  C    0.082343
    86  C    0.013164
    87  C   -0.089759
    88  C   -0.007592
    89  C   -0.036845
    90  C   -0.086715
    91  C    0.180975
    92  O   -0.053559
   102  N    0.016708
   103  C    0.180474
   104  C    0.027829
   105  O   -0.271123
   106  C   -0.143995
   107  C    0.048289
   108  C    0.114372
   109  C    0.020381
   121  N    0.002698
   122  C    0.162465
   123  C    0.070843
   124  O   -0.275690
   125  C    0.220335
   126  O   -0.128636
   132  N   -0.016222
   133  C    0.129974
   134  C    0.096145
   135  O   -0.236975
   136  C    0.073379
   142  N   -0.028108
   143  C    0.109754
   144  C    0.074199
   145  O   -0.253184
   146  C    0.049949
   152  N   -0.037080
   153  C    0.121936
   154  C    0.074816
   155  O   -0.280237
   156  C    0.034894
   157  C    0.088803
   158  C    0.170465
   159  O   -0.423236
   160  O   -0.448160
   167  N   -0.030541
   168  C    0.191880
   173  Ca   1.256922
   174  O    0.045984
 DipInt: DoE/N= T F RetVal/Mat= T F Init=T NMatP=  1 IDeriv=0 Min/MaxMlt=  0  4
 Entering OneElI...
 OneElI was handed  1333951383 working-precision words.
 Multipole integrals L=0 to 4 MinM= 0 MaxM= 0.
 Requested accuracy = 0.1000D-12
 ShPair: Thresh= 1.00D-13 NBox=     0 BxSize= 0.00D+00 RnKept= 2.55D+01
         NSMCal=               327645 NSMKep=              160443
 PrmmSu-InSpLW:  IPartL=    0 NPrtUS=    1 NPrtUL=    1 DoSpLW=F IThBeg=    0 IThEnd=    0 NThAct=    1.
 PrsmSu:  NPrtUS=   1 ThrOK=F IAlg=1 NPAlg=1 LenDen=           0 ISkipM=0 DoSpLW=F IThBeg=    0 IThEnd=    0.
 Prism:   IPart=     0 DynPar=F LinDyn=F Incr=         512.
 PRISM was handed  1323879047 working-precision words and160443 shell-pairs
 IPart=  0 NShTot=      160443 NBatch=         368 AvBLen=       436.0
 PrsmSu-ThDecC:  IPartSL=    0    0 NPrtUSL=    1    1 IThBeg=    0 IThEnd=    0 CPU=   -1 GPU=   -1 NThAct=    1.
 PrSmSu:  NxtVal=            513.
 Electronic moments (au):
       -716.00000000         11.96028098         -0.86021377         -5.31933137
     -52523.71654477     -32778.47927920     -10702.41361497        149.25806105
        -32.53698621         51.89785012      50848.05819995     -47627.32106935
     -11708.90990656     -17261.71002964      91306.25669590      12617.03966171
     -21904.26078082       6019.95612189      26445.33916428     -30654.36714896
   -7723326.70844744   -2799297.70778807    -400403.12307856    -618669.10966960
     194976.59261850    -273496.04052497      63937.06888858     -38669.14932876
     -51858.42433080   -2584522.11769162    -667063.23098684    -431025.09437283
    -152124.19667138      61530.69488102      79902.67323934
 Electronic spatial extent (au):  <R**2>=          96004.6094
 DipInt: DoE/N= F T RetVal/Mat= T F Init=T NMatP=  1 IDeriv=0 Min/MaxMlt=  0  4
 Nuclear    moments (au):
        716.00000000          0.00000000         -0.00000000          0.00000000
      52131.09798215      32433.08727991      10319.08792609          0.00000000
          0.00000000         -0.00000000     -48767.91957768      48083.74925989
      11461.37211169      19409.81918754     -89921.60119547     -13196.02938817
      22080.08129854      -6325.60856808     -26386.79991455      30763.52836767
    7537683.74228945    2700306.63351636     365526.26236186     651047.43744780
    -201162.02761683     300283.19505259     -59602.64986277      39336.34302482
      55415.00458200    2559248.65960032     632610.91870676     406374.17122199
     153910.02562006     -65311.97049189     -80932.55110807
 Total      moments (au):
         -0.00000000         11.96028098         -0.86021377         -5.31933137
       -392.61856262       -345.39199929       -383.32568888        149.25806105
        -32.53698621         51.89785012       2080.13862227        456.42819054
       -247.53779487       2148.10915791       1384.65550043       -578.98972646
        175.82051773       -305.65244619         58.53924973        109.16121871
    -185642.96615799     -98991.07427170     -34876.86071670      32378.32777819
      -6185.43499833      26787.15452762       4334.41902580        667.19369607
       3556.58025120     -25273.45809130     -34452.31228008     -24650.92315084
       1785.82894867      -3781.27561088      -1029.87786873
 Traceless Quadrup. (au):
        -18.83981236         28.38675098         -9.54693862        149.25806105
        -32.53698621         51.89785012
 Charge=             -0.0000 electrons
 Dipole moment (field-independent basis, Debye):
    X=             30.4000    Y=             -2.1864    Z=            -13.5204  Tot=             33.3428
 Quadrupole moment (field-independent basis, Debye-Ang):
   XX=           -528.0854   YY=           -464.5641   ZZ=           -515.5862
   XY=            200.7572   XZ=            -43.7634   YZ=             69.8044
 Traceless Quadrupole moment (field-independent basis, Debye-Ang):
   XX=            -25.3402   YY=             38.1812   ZZ=            -12.8410
   XY=            200.7572   XZ=            -43.7634   YZ=             69.8044
 Octapole moment (field-independent basis, Debye-Ang**2):
  XXX=           1480.5625  YYY=            324.8680  ZZZ=           -176.1879  XYY=           1528.9413
  XXY=            985.5444  XXZ=           -412.1026  XZZ=            125.1423  YZZ=           -217.5516
  YYZ=             41.6660  XYZ=             77.6967
 Hexadecapole moment (field-independent basis, Debye-Ang**3):
 XXXX=         -69922.0429 YYYY=         -37284.7854 ZZZZ=         -13136.2981 XXXY=          12195.2308
 XXXZ=          -2329.7314 YYYX=          10089.3269 YYYZ=           1632.5500 ZZZX=            251.2971
 ZZZY=           1339.5787 XXYY=          -9519.1962 XXZZ=         -12976.3928 YYZZ=          -9284.7197
 XXYZ=            672.6288 YYXZ=          -1424.2097 ZZXY=           -387.9014
 N-N= 2.170673866059D+04 E-N=-5.589829616297D+04  KE= 5.290920936129D+03
 Leave Link  601 at Sat Sep 14 23:27:34 2019, MaxMem=  1342177280 cpu:              43.5 elap:               1.1
 FitSet:  NAtFit=   176 NAtPot=   176 NAtFrz=     0 MDM=   180 TotChg=   0.00000
 Merz-Kollman atomic radii used.
 Read replacement radii for each type of atom:
 Rad(20) =   1.700000000000D+00
 Atom Element Radius
    1     6    1.50
    2     6    1.50
    3     8    1.40
    4     1    1.20
    5     1    1.20
    6     1    1.20
    7     7    1.50
    8     6    1.50
    9     6    1.50
   10     8    1.40
   11     6    1.50
   12     6    1.50
   13     8    1.40
   14     8    1.40
   15     1    1.20
   16     1    1.20
   17     1    1.20
   18     1    1.20
   19     7    1.50
   20     6    1.50
   21     6    1.50
   22     8    1.40
   23     6    1.50
   24     6    1.50
   25     6    1.50
   26     6    1.50
   27     7    1.50
   28     1    1.20
   29     1    1.20
   30     1    1.20
   31     1    1.20
   32     1    1.20
   33     1    1.20
   34     1    1.20
   35     1    1.20
   36     1    1.20
   37     1    1.20
   38     1    1.20
   39     1    1.20
   40     1    1.20
   41     7    1.50
   42     6    1.50
   43     6    1.50
   44     8    1.40
   45     6    1.50
   46     6    1.50
   47     8    1.40
   48     8    1.40
   49     1    1.20
   50     1    1.20
   51     1    1.20
   52     1    1.20
   53     7    1.50
   54     6    1.50
   55     6    1.50
   56     8    1.40
   57     1    1.20
   58     1    1.20
   59     1    1.20
   60     7    1.50
   61     6    1.50
   62     6    1.50
   63     8    1.40
   64     6    1.50
   65     6    1.50
   66     7    1.50
   67     8    1.40
   68     1    1.20
   69     1    1.20
   70     1    1.20
   71     1    1.20
   72     1    1.20
   73     1    1.20
   74     7    1.50
   75     6    1.50
   76     6    1.50
   77     8    1.40
   78     1    1.20
   79     1    1.20
   80     1    1.20
   81     7    1.50
   82     6    1.50
   83     6    1.50
   84     8    1.40
   85     6    1.50
   86     6    1.50
   87     6    1.50
   88     6    1.50
   89     6    1.50
   90     6    1.50
   91     6    1.50
   92     8    1.40
   93     1    1.20
   94     1    1.20
   95     1    1.20
   96     1    1.20
   97     1    1.20
   98     1    1.20
   99     1    1.20
  100     1    1.20
  101     1    1.20
  102     7    1.50
  103     6    1.50
  104     6    1.50
  105     8    1.40
  106     6    1.50
  107     6    1.50
  108     6    1.50
  109     6    1.50
  110     1    1.20
  111     1    1.20
  112     1    1.20
  113     1    1.20
  114     1    1.20
  115     1    1.20
  116     1    1.20
  117     1    1.20
  118     1    1.20
  119     1    1.20
  120     1    1.20
  121     7    1.50
  122     6    1.50
  123     6    1.50
  124     8    1.40
  125     6    1.50
  126     8    1.40
  127     1    1.20
  128     1    1.20
  129     1    1.20
  130     1    1.20
  131     1    1.20
  132     7    1.50
  133     6    1.50
  134     6    1.50
  135     8    1.40
  136     6    1.50
  137     1    1.20
  138     1    1.20
  139     1    1.20
  140     1    1.20
  141     1    1.20
  142     7    1.50
  143     6    1.50
  144     6    1.50
  145     8    1.40
  146     6    1.50
  147     1    1.20
  148     1    1.20
  149     1    1.20
  150     1    1.20
  151     1    1.20
  152     7    1.50
  153     6    1.50
  154     6    1.50
  155     8    1.40
  156     6    1.50
  157     6    1.50
  158     6    1.50
  159     8    1.40
  160     8    1.40
  161     1    1.20
  162     1    1.20
  163     1    1.20
  164     1    1.20
  165     1    1.20
  166     1    1.20
  167     7    1.50
[...]
 **** Fit       0.036766
 **** Fit       0.033923
 **** Fit       0.031693
 **** Fit       0.029999
 **** Fit       0.028761
 **** Fit       0.028759
 **** Fit       0.028170
 **** Fit       0.027886
 **** Fit       0.027830
 **** Fit       0.027923
 **** Fit       0.028113
 **** Fit       0.028413
 **** Fit       0.028938
 **** Fit       0.036817
 **** Fit       0.040095
 **** Fit       0.043049
 **** Fit       0.044953
 **** Fit       0.045232
 **** Fit       0.043810
 **** Fit       0.041211
 **** Fit       0.038205
 **** Fit       0.035373
 **** Fit       0.032986
 **** Fit       0.031111
 **** Fit       0.029720
 **** Fit       0.029612
 **** Fit       0.028932
 **** Fit       0.028618
 **** Fit       0.028586
 **** Fit       0.028787
 **** Fit       0.029263
 **** Fit       0.030171
 **** Fit       0.031705
 **** Fit       0.033920
 **** Fit       0.036562
 **** Fit       0.039026
 **** Fit       0.040540
 **** Fit       0.040557
 **** Fit       0.039130
 **** Fit       0.036864
 **** Fit       0.034461
 **** Fit       0.032361
 **** Fit       0.030739
 **** Fit       0.030491
 **** Fit       0.029727
 **** Fit       0.029544
 **** Fit       0.029902
 **** Fit       0.030908
 **** Fit       0.032690
 **** Fit       0.034964
 **** Fit       0.036801
 **** Fit       0.037176
 **** Fit       0.035927
 **** Fit       0.033865
 **** Fit       0.031900
 **** Fit       0.031423
 **** Fit       0.030812
 **** Fit       0.031679
 **** Fit       0.033610
 **** Fit       0.034530
 **** Fit       0.033185
 **** Fit       0.032448
 **** Fit       0.011122
 **** Fit       0.014707
 **** Fit       0.016881
 **** Fit      -0.036143
 **** Fit      -0.036904
 **** Fit      -0.036275
 **** Fit      -0.035157
 **** Fit      -0.035179
 **** Fit      -0.035762
 **** Fit      -0.036412
 **** Fit      -0.037466
 **** Fit      -0.037309
 **** Fit      -0.036278
 **** Fit      -0.034668
 **** Fit      -0.033396
 **** Fit      -0.033362
 **** Fit      -0.034043
 **** Fit      -0.034664
 **** Fit      -0.035041
 **** Fit      -0.035332
 **** Fit      -0.035907
 **** Fit      -0.036821
 **** Fit      -0.037864
 **** Fit      -0.038012
 **** Fit      -0.037468
 **** Fit      -0.036281
 **** Fit      -0.034458
 **** Fit      -0.031785
 **** Fit      -0.032782
 **** Fit      -0.033449
 **** Fit      -0.033813
 **** Fit      -0.033925
 **** Fit      -0.033856
 **** Fit      -0.035672
 **** Fit      -0.037011
 **** Fit      -0.038164
 **** Fit      -0.038521
 **** Fit      -0.038293
 **** Fit      -0.037574
 **** Fit      -0.036384
 **** Fit      -0.034606
 **** Fit      -0.030382
 **** Fit      -0.031404
 **** Fit      -0.032014
 **** Fit      -0.032373
 **** Fit      -0.032510
 **** Fit      -0.032404
 **** Fit      -0.037126
 **** Fit      -0.038450
 **** Fit      -0.038953
 **** Fit      -0.038895
 **** Fit      -0.038407
 **** Fit      -0.037578
 **** Fit      -0.036408
 **** Fit      -0.028387
 **** Fit      -0.030713
 **** Fit      -0.030809
 **** Fit      -0.030638
 **** Fit      -0.037230
 **** Fit      -0.038818
 **** Fit      -0.039420
 **** Fit      -0.039451
 **** Fit      -0.039067
 **** Fit      -0.038400
 **** Fit      -0.037533
 **** Fit      -0.036464
 **** Fit      -0.028748
 **** Fit      -0.037448
 **** Fit      -0.039375
 **** Fit      -0.040027
 **** Fit      -0.040106
 **** Fit      -0.039773
 **** Fit      -0.039179
 **** Fit      -0.038463
 **** Fit      -0.037733
 **** Fit      -0.037003
 **** Fit      -0.037956
 **** Fit      -0.040251
 **** Fit      -0.040921
 **** Fit      -0.040998
 **** Fit      -0.040641
 **** Fit      -0.040013
 **** Fit      -0.039299
 **** Fit      -0.038691
 **** Fit      -0.038360
 **** Fit      -0.038813
 **** Fit      -0.041613
 **** Fit      -0.042294
 **** Fit      -0.042308
 **** Fit      -0.041819
 **** Fit      -0.041022
 **** Fit      -0.040164
 **** Fit      -0.039550
 **** Fit      -0.039529
 **** Fit      -0.040448
 **** Fit      -0.040111
 **** Fit      -0.043713
 **** Fit      -0.044403
 **** Fit      -0.044329
 **** Fit      -0.043645
 **** Fit      -0.042573
 **** Fit      -0.041421
 **** Fit      -0.040594
 **** Fit      -0.040614
 **** Fit      -0.042132
 **** Fit      -0.042143
 **** Fit      -0.046946
 **** Fit      -0.047684
 **** Fit      -0.047465
 **** Fit      -0.046441
 **** Fit      -0.044882
 **** Fit      -0.043182
 **** Fit      -0.041876
 **** Fit      -0.041665
 **** Fit      -0.043471
 **** Fit      -0.045186
 **** Fit      -0.050744
 **** Fit      -0.048304
 **** Fit      -0.045617
 **** Fit      -0.043399
 **** Fit      -0.042541
 **** Fit      -0.049772
 **** Fit       0.008160
 **** Fit      -0.002761
 **** Fit       0.013879
 **** Fit       0.002502
 **** Fit      -0.003534
 **** Fit       0.009970
 **** Fit      -0.014931
 **** Fit      -0.037610
 **** Fit      -0.040316
 **** Fit      -0.031904
 **** Fit      -0.026926
 **** Fit      -0.028350
 **** Fit      -0.020914
 **** Fit      -0.017308
 **** Fit      -0.016301
 **** Fit      -0.010361
 **** Fit      -0.008430
 **** Fit      -0.011252
 **** Fit      -0.004217
 **** Fit      -0.001124
 **** Fit       0.001137
 **** Fit       0.004055
 **** Fit       0.004903
 **** Fit       0.006970
 **** Fit       0.007904
 **** Fit       0.008434
 **** Fit       0.019385
 **** Fit       0.018832
 **** Fit       0.020964
 **** Fit       0.019339
 **** Fit       0.017033
 **** Fit       0.021276
 **** Fit       0.018543
 **** Fit       0.020296
 **** Fit       0.016535
 **** Fit       0.012520
 **** Fit       0.009193
 **** Fit       0.008655
 **** Fit       0.012772
 **** Fit       0.022370
 **** Fit       0.018383
 **** Fit       0.015972
 **** Fit       0.017529
 **** Fit       0.023979
 **** Fit       0.025346
 **** Fit       0.022637
 **** Fit       0.026720
 **** Fit       0.033690
 **** Fit       0.029149
 **** Fit      -0.016887
 **** Fit      -0.014061
 **** Fit      -0.012362
 **** Fit      -0.011700
 **** Fit      -0.020776
 **** Fit      -0.016842
 **** Fit      -0.013878
 **** Fit      -0.011873
 **** Fit      -0.010686
 **** Fit      -0.010158
 **** Fit      -0.010134
 **** Fit      -0.010510
 **** Fit      -0.023201
 **** Fit      -0.018333
 **** Fit      -0.014641
 **** Fit      -0.008861
 **** Fit      -0.009315
 **** Fit      -0.010004
 **** Fit      -0.028471
 **** Fit      -0.022219
 **** Fit      -0.017297
 **** Fit      -0.013609
 **** Fit      -0.007901
 **** Fit      -0.008433
 **** Fit      -0.009108
 **** Fit      -0.009965
 **** Fit      -0.011037
 **** Fit      -0.027829
 **** Fit      -0.006939
 **** Fit      -0.007525
 **** Fit      -0.008197
 **** Fit      -0.009005
 **** Fit      -0.009991
 **** Fit      -0.011188
 **** Fit      -0.006775
 **** Fit      -0.007456
 **** Fit      -0.008228
 **** Fit      -0.009143
 **** Fit      -0.010238
 **** Fit      -0.011548
 **** Fit      -0.013106
 **** Fit      -0.015702
 **** Fit      -0.006045
 **** Fit      -0.006754
 **** Fit      -0.007507
 **** Fit      -0.008360
 **** Fit      -0.009366
 **** Fit      -0.010566
 **** Fit      -0.011996
 **** Fit      -0.013690
 **** Fit      -0.016551
 **** Fit      -0.019098
 **** Fit      -0.005444
 **** Fit      -0.006198
 **** Fit      -0.006949
 **** Fit      -0.007753
 **** Fit      -0.008667
 **** Fit      -0.009747
 **** Fit      -0.011041
 **** Fit      -0.012584
 **** Fit      -0.014406
 **** Fit      -0.017541
 **** Fit      -0.020264
 **** Fit      -0.023502
 **** Fit      -0.027450
 **** Fit      -0.005629
 **** Fit      -0.006425
 **** Fit      -0.007215
 **** Fit      -0.025370
 **** Fit      -0.029656
 **** Fit      -0.034896
 **** Fit      -0.041447
 **** Fit      -0.004745
 **** Fit      -0.005702
 **** Fit      -0.006592
 **** Fit      -0.027655
 **** Fit      -0.032342
 **** Fit      -0.037940
 **** Fit      -0.044648
 **** Fit      -0.004912
 **** Fit      -0.006029
 **** Fit      -0.035736
 **** Fit      -0.041878
 **** Fit      -0.003930
 **** Fit      -0.005387
 **** Fit      -0.003551
 **** Fit      -0.005523
 **** Fit       0.001422
 **** Fit      -0.000105
 **** Fit      -0.002425
 **** Fit      -0.005183
 **** Fit      -0.008030
 **** Fit      -0.015061
 **** Fit      -0.008888
 **** Fit      -0.009969
 **** Fit      -0.011322
 **** Fit      -0.013000
 **** Fit      -0.015717
 **** Fit      -0.018396
 **** Fit      -0.007468
 **** Fit      -0.008223
 **** Fit      -0.009154
 **** Fit      -0.010311
 **** Fit      -0.011748
 **** Fit      -0.013527
 **** Fit      -0.016653
 **** Fit      -0.019456
 **** Fit      -0.022875
 **** Fit      -0.007204
 **** Fit      -0.007912
 **** Fit      -0.008747
 **** Fit      -0.009755
 **** Fit      -0.010988
 **** Fit      -0.012503
 **** Fit      -0.014365
 **** Fit      -0.018025
 **** Fit      -0.021012
 **** Fit      -0.024682
 **** Fit      -0.029155
 **** Fit      -0.007151
 **** Fit      -0.007883
 **** Fit      -0.008688
 **** Fit      -0.009612
 **** Fit      -0.010705
 **** Fit      -0.012022
 **** Fit      -0.013629
 **** Fit      -0.015600
 **** Fit      -0.020020
 **** Fit      -0.023359
 **** Fit      -0.027537
 **** Fit      -0.032732
 **** Fit      -0.039043
 **** Fit      -0.007108
 **** Fit      -0.008001
 **** Fit      -0.008890
 **** Fit      -0.009820
 **** Fit      -0.010850
 **** Fit      -0.012042
 **** Fit      -0.013467
 **** Fit      -0.015205
 **** Fit      -0.017350
 **** Fit      -0.022897
 **** Fit      -0.026685
 **** Fit      -0.031534
 **** Fit      -0.037710
 **** Fit      -0.008336
 **** Fit      -0.009519
 **** Fit      -0.010628
 **** Fit      -0.011717
 **** Fit      -0.012865
 **** Fit      -0.014160
 **** Fit      -0.015696
 **** Fit      -0.017577
 **** Fit      -0.019927
 **** Fit      -0.027079
 **** Fit      -0.031272
 **** Fit      -0.036713
 **** Fit      -0.015171
 **** Fit      -0.016388
 **** Fit      -0.017732
 **** Fit      -0.019331
 **** Fit      -0.021317
 **** Fit      -0.023839
 **** Fit      -0.018727
 **** Fit      -0.017876
 **** Fit      -0.021278
 **** Fit      -0.022483
 **** Fit      -0.019720
 **** Fit      -0.016659
 **** Fit      -0.015936
 **** Fit      -0.017219
 **** Fit      -0.020551
 **** Fit      -0.024429
 **** Fit      -0.027387
 **** Fit      -0.027585
 **** Fit      -0.024794
 **** Fit      -0.020782
 **** Fit      -0.017281
 **** Fit      -0.014956
 **** Fit      -0.013841
 **** Fit      -0.013854
 **** Fit      -0.014969
 **** Fit      -0.016800
 **** Fit      -0.019850
 **** Fit      -0.023770
 **** Fit      -0.028293
 **** Fit      -0.032563
 **** Fit      -0.031268
 **** Fit      -0.026489
 **** Fit      -0.021820
 **** Fit      -0.018040
 **** Fit      -0.012462
 **** Fit      -0.012081
 **** Fit      -0.012302
 **** Fit      -0.013126
 **** Fit      -0.014594
 **** Fit      -0.016649
 **** Fit      -0.019584
 **** Fit      -0.023421
 **** Fit      -0.028256
 **** Fit      -0.033945
 **** Fit      -0.031274
 **** Fit      -0.025285
 **** Fit      -0.011070
 **** Fit      -0.011749
 **** Fit      -0.012858
 **** Fit      -0.014456
 **** Fit      -0.016796
 **** Fit      -0.019705
 **** Fit      -0.023515
 **** Fit      -0.028469
 **** Fit      -0.034775
 **** Fit      -0.011600
 **** Fit      -0.012882
 **** Fit      -0.014576
 **** Fit      -0.017264
 **** Fit      -0.020111
 **** Fit      -0.023795
 **** Fit      -0.028604
 **** Fit      -0.034902
 **** Fit      -0.013275
 **** Fit      -0.015038
 **** Fit      -0.018080
 **** Fit      -0.021048
 **** Fit      -0.024871
 **** Fit      -0.029883
 **** Fit      -0.036569
 **** Fit      -0.015728
 **** Fit      -0.019268
 **** Fit      -0.022339
 **** Fit      -0.026234
 **** Fit      -0.031293
 **** Fit      -0.038029
 **** Fit      -0.024126
 **** Fit      -0.028207
 **** Fit      -0.033434
 **** Fit      -0.036914
 **** Fit      -0.011491
 **** Fit      -0.009843
 **** Fit      -0.010816
 **** Fit      -0.008937
 **** Fit      -0.008070
 **** Fit      -0.008044
 **** Fit      -0.008729
 **** Fit      -0.012573
 **** Fit      -0.009746
 **** Fit      -0.007999
 **** Fit      -0.007007
 **** Fit      -0.006525
 **** Fit      -0.006486
 **** Fit      -0.006860
 **** Fit      -0.007595
 **** Fit      -0.006284
 **** Fit      -0.005660
 **** Fit      -0.005275
 **** Fit      -0.005159
 **** Fit      -0.005343
 **** Fit      -0.005817
 **** Fit      -0.006542
 **** Fit      -0.004665
 **** Fit      -0.004322
 **** Fit      -0.004092
 **** Fit      -0.004083
 **** Fit      -0.004333
 **** Fit      -0.004834
 **** Fit      -0.005548
 **** Fit      -0.006420
 **** Fit      -0.003611
 **** Fit      -0.003293
 **** Fit      -0.003125
 **** Fit      -0.003181
 **** Fit      -0.003480
 **** Fit      -0.004009
 **** Fit      -0.004728
 **** Fit      -0.005587
 **** Fit      -0.003124
 **** Fit      -0.002650
 **** Fit      -0.002355
 **** Fit      -0.002311
 **** Fit      -0.002537
 **** Fit      -0.003021
 **** Fit      -0.003727
 **** Fit      -0.004603
 **** Fit      -0.002174
 **** Fit      -0.001711
 **** Fit      -0.001550
 **** Fit      -0.001691
 **** Fit      -0.002120
 **** Fit      -0.002806
 **** Fit      -0.003699
 **** Fit      -0.004734
 **** Fit      -0.001319
 **** Fit      -0.000906
 **** Fit      -0.000853
 **** Fit      -0.001144
 **** Fit      -0.001752
 **** Fit      -0.002634
 **** Fit      -0.003726
 **** Fit      -0.000863
 **** Fit      -0.000256
 **** Fit      -0.000107
 **** Fit      -0.000397
 **** Fit      -0.001093
 **** Fit      -0.002144
 **** Fit      -0.003473
 **** Fit       0.000156
 **** Fit       0.000631
 **** Fit       0.000513
 **** Fit      -0.000168
 **** Fit      -0.001358
 **** Fit      -0.002970
 **** Fit       0.000134
 **** Fit       0.001168
 **** Fit       0.001375
 **** Fit       0.000804
 **** Fit      -0.000492
 **** Fit      -0.002425
 **** Fit      -0.000401
 **** Fit       0.001429
 **** Fit       0.001939
 **** Fit       0.001228
 **** Fit       0.008230
 **** Fit       0.017226
 **** Fit       0.025771
 **** Fit       0.013903
 **** Fit       0.024133
 **** Fit       0.027641
 **** Fit       0.029215
 **** Fit       0.027977
 **** Fit       0.022259
 **** Fit       0.009509
 **** Fit       0.016679
 **** Fit       0.019734
 **** Fit       0.017643
 **** Fit       0.030511
 **** Fit       0.028930
 **** Fit       0.033755
 **** Fit       0.033853
 **** Fit       0.016147
 **** Fit       0.011724
 **** Fit       0.027959
 **** Fit       0.024979
 **** Fit       0.021899
 **** Fit       0.018371
 **** Fit       0.014316
 **** Fit       0.031370
 **** Fit       0.028225
 **** Fit       0.025131
 **** Fit       0.021637
 **** Fit       0.038082
 **** Fit       0.034312
 **** Fit       0.031240
 **** Fit       0.028200
 **** Fit       0.043287
 **** Fit       0.038927
 **** Fit       0.035683
 **** Fit       0.032794
 **** Fit       0.042880
 **** Fit       0.039671
 **** Fit       0.046972
 **** Fit       0.043734
 **** Fit       0.041541
 **** Fit       0.047035
 **** Fit       0.045033
 **** Fit       0.043126
 **** Fit       0.045402
 **** Fit       0.045522
 -----------------------------------------------------------------
 Leave Link  602 at Sat Sep 14 23:27:36 2019, MaxMem=  1342177280 cpu:             127.8 elap:               2.7

 Test job not archived.
 1\1\GINC-C502-043\SP\RB3LYP\SVP\C54H83Ca1N15O23\PENGZHI\14-Sep-2019\0\
 \#b3lyp/svp scf=(tight,noincore) Test #IOP(5/87=12) Density=Current Po
 p=(MK,readradii) iop(6/33=2) iop(6/42=6)\\holoCaM_loop3_89.0\\0,1\C,0,
 55.09,47.05,34.9\C,0,54.95,45.75,35.68\O,0,54.27,45.65,36.69\H,0,56.11
 8,47.157,34.554\H,0,54.418,47.033,34.042\H,0,54.835,47.891,35.545\N,0,
 55.62,44.7,35.2\C,0,55.76,43.39,35.8\C,0,56.47,43.41,37.15\O,0,57.36,4
 4.23,37.31\C,0,56.48,42.43,34.87\C,0,56.58,41.,35.4\O,0,55.78,40.12,35
 .04\O,0,57.53,40.72,36.17\H,0,56.01,44.73,34.27\H,0,54.76,42.96,35.89\
 H,0,57.51,42.79,34.88\H,0,56.15,42.42,33.83\N,0,56.23,42.47,38.07\C,0,
 56.69,42.55,39.44\C,0,57.44,41.34,39.98\O,0,57.76,41.41,41.17\C,0,55.4
 7,42.83,40.31\C,0,54.97,44.27,40.2\C,0,55.97,45.24,40.83\C,0,55.19,46.
 55,40.9\N,0,55.85,47.7,41.55\H,0,55.43,41.88,37.91\H,0,57.45,43.33,39.
 52\H,0,55.67,42.73,41.37\H,0,54.61,42.2,40.09\H,0,54.07,44.31,40.82\H,
 0,54.91,44.55,39.15\H,0,56.87,45.23,40.21\H,0,56.22,44.81,41.8\H,0,54.
 29,46.26,41.44\H,0,54.91,46.86,39.89\H,0,55.2,48.46,41.67\H,0,56.12,47
 .5,42.51\H,0,56.7,47.95,41.08\N,0,57.97,40.43,39.16\C,0,58.37,39.09,39
 .55\C,0,59.25,38.33,38.57\O,0,59.92,37.42,39.06\C,0,57.11,38.26,39.75\
 C,0,56.1,38.29,38.6\O,0,56.4,38.,37.42\O,0,54.94,38.53,38.98\H,0,57.91
 ,40.62,38.17\H,0,58.87,39.16,40.51\H,0,56.57,38.43,40.68\H,0,57.37,37.
 2,39.86\N,0,59.16,38.61,37.27\C,0,59.97,37.87,36.32\C,0,59.49,36.5,35.
 86\O,0,60.29,35.7,35.4\H,0,58.6,39.41,37.01\H,0,60.95,37.67,36.76\H,0,
 60.08,38.51,35.44\N,0,58.18,36.25,35.89\C,0,57.56,35.02,35.43\C,0,57.1
 9,34.95,33.96\O,0,56.59,33.97,33.51\C,0,56.41,34.76,36.4\C,0,55.06,35.
 28,35.94\N,0,54.02,34.47,36.14\O,0,54.98,36.29,35.25\H,0,57.5,36.89,36
 .27\H,0,58.37,34.31,35.6\H,0,56.64,35.11,37.41\H,0,56.31,33.67,36.48\H
 ,0,54.11,33.57,36.59\H,0,53.14,34.65,35.67\N,0,57.52,36.04,33.26\C,0,5
 7.26,36.27,31.86\C,0,55.82,36.56,31.45\O,0,55.62,36.73,30.25\H,0,57.94
 ,36.78,33.8\H,0,57.52,35.43,31.22\H,0,57.83,37.16,31.6\N,0,54.85,36.71
 ,32.36\C,0,53.43,36.92,32.17\C,0,53.,38.23,32.83\O,0,53.72,38.63,33.74
 \C,0,52.67,35.7,32.7\C,0,52.96,34.36,32.07\C,0,52.78,33.2,32.83\C,0,53
 .26,34.19,30.71\C,0,53.01,31.93,32.3\C,0,53.43,32.92,30.15\C,0,53.4,31
 .76,30.95\O,0,53.32,30.49,30.45\H,0,55.11,36.64,33.33\H,0,53.2,36.98,3
 1.11\H,0,51.6,35.89,32.66\H,0,52.91,35.58,33.76\H,0,52.61,33.32,33.89\
 H,0,53.4,35.07,30.1\H,0,53.08,31.1,32.99\H,0,53.54,32.79,29.08\H,0,52.
 84,30.51,29.62\N,0,51.9,38.81,32.35\C,0,51.23,39.84,33.13\C,0,50.02,39
 .29,33.85\O,0,49.3,38.52,33.23\C,0,50.93,40.93,32.11\C,0,52.19,41.61,3
 1.59\C,0,49.88,41.93,32.61\C,0,52.84,42.62,32.53\H,0,51.37,38.27,31.68
 \H,0,51.92,40.23,33.88\H,0,50.47,40.45,31.24\H,0,51.92,42.2,30.71\H,0,
 52.96,40.89,31.3\H,0,49.79,42.83,32.01\H,0,48.91,41.45,32.63\H,0,50.21
 ,42.1,33.64\H,0,53.79,43.,32.17\H,0,52.23,43.51,32.68\H,0,52.95,42.19,
 33.52\N,0,49.92,39.63,35.14\C,0,48.82,39.51,36.09\C,0,47.99,40.75,36.3
 2\O,0,48.43,41.85,35.99\C,0,49.22,38.94,37.45\O,0,49.52,37.59,37.17\H,
 0,50.67,40.26,35.4\H,0,48.06,38.85,35.65\H,0,48.37,38.98,38.13\H,0,50.
 11,39.43,37.83\H,0,49.35,37.14,38.\N,0,46.82,40.72,36.98\C,0,45.92,41.
 85,37.08\C,0,46.47,43.13,37.68\O,0,46.41,44.17,37.02\C,0,44.87,41.31,3
 8.05\H,0,46.49,39.84,37.34\H,0,45.5,42.05,36.1\H,0,44.08,42.04,38.17\H
 ,0,44.41,40.46,37.54\H,0,45.27,40.97,39.01\N,0,47.19,43.02,38.8\C,0,47
 .9,44.15,39.35\C,0,48.96,44.78,38.46\O,0,48.98,46.,38.36\C,0,48.51,43.
 58,40.63\H,0,47.2,42.21,39.41\H,0,47.22,44.9,39.76\H,0,49.1,42.7,40.36
 \H,0,49.22,44.31,41.01\H,0,47.77,43.34,41.39\N,0,49.69,43.98,37.67\C,0
 ,50.6,44.49,36.66\C,0,49.91,45.2,35.5\O,0,50.49,46.17,35.03\C,0,51.44,
 43.35,36.1\C,0,52.26,42.75,37.25\C,0,52.94,41.45,36.86\O,0,54.06,41.11
 ,37.31\O,0,52.36,40.62,36.13\H,0,49.43,43.01,37.59\H,0,51.31,45.14,37.
 18\H,0,52.13,43.87,35.44\H,0,50.81,42.63,35.59\H,0,51.65,42.45,38.09\H
 ,0,53.03,43.48,37.51\N,0,48.73,44.75,35.08\C,0,47.89,45.56,34.23\H,0,4
 6.99,45.845,34.775\H,0,48.432,46.457,33.93\H,0,47.612,44.99,33.344\H,0
 ,48.42,43.83,35.37\Ca,0,54.06,38.74,36.45\O,0,51.9,37.37,35.65\H,0,51.
 65,36.46,35.53\H,0,51.13,37.78,36.05\\Version=ES64L-G16RevA.03\State=1
 -A\HF=-5333.5762675\RMSD=4.572e-09\Dipole=-7.8534144,6.7311014,8.06844
 04\Quadrupole=-69.780263,44.7206714,25.0595916,120.4208602,-17.3467534
 ,90.0292143\PG=C01 [X(C54H83Ca1N15O23)]\\@


 GOOD SENSE ABOUT TRIVIALITIES IS BETTER THAN NONSENSE
 ABOUT THINGS THAT MATTER

                                       -- MAX BEERBOHM
 Job cpu time:       0 days  9 hours 58 minutes 10.2 seconds.
 Elapsed time:       0 days  0 hours 12 minutes 35.9 seconds.
 File lengths (MBytes):  RWF=   1517 Int=      0 D2E=      0 Chk=    171 Scr=      1
 Normal termination of Gaussian 16 at Sat Sep 14 23:27:38 2019.
