 Entering Gaussian System, Link 0=g16
 Initial command:
 /home1/apps/gaussian/16rA.03/g16/l1.exe "/scratch/01990/pengzhi/4328659/Gau-13141.inp" -scrdir="/scratch/01990/pengzhi/4328659/"
 Entering Link 1 = /home1/apps/gaussian/16rA.03/g16/l1.exe PID=     13142.
  
 Copyright (c) 1988,1990,1992,1993,1995,1998,2003,2009,2016,
            Gaussian, Inc.  All Rights Reserved.
  
 This is part of the Gaussian(R) 16 program.  It is based on
 the Gaussian(R) 09 system (copyright 2009, Gaussian, Inc.),
 the Gaussian(R) 03 system (copyright 2003, Gaussian, Inc.),
 the Gaussian(R) 98 system (copyright 1998, Gaussian, Inc.),
 the Gaussian(R) 94 system (copyright 1995, Gaussian, Inc.),
 the Gaussian 92(TM) system (copyright 1992, Gaussian, Inc.),
 the Gaussian 90(TM) system (copyright 1990, Gaussian, Inc.),
 the Gaussian 88(TM) system (copyright 1988, Gaussian, Inc.),
 the Gaussian 86(TM) system (copyright 1986, Carnegie Mellon
 University), and the Gaussian 82(TM) system (copyright 1983,
 Carnegie Mellon University). Gaussian is a federally registered
 trademark of Gaussian, Inc.
  
 This software contains proprietary and confidential information,
 including trade secrets, belonging to Gaussian, Inc.
  
 This software is provided under written license and may be
 used, copied, transmitted, or stored only in accord with that
 written license.
  
 The following legend is applicable only to US Government
 contracts under FAR:
  
                    RESTRICTED RIGHTS LEGEND
  
 Use, reproduction and disclosure by the US Government is
 subject to restrictions as set forth in subparagraphs (a)
 and (c) of the Commercial Computer Software - Restricted
 Rights clause in FAR 52.227-19.
  
 Gaussian, Inc.
 340 Quinnipiac St., Bldg. 40, Wallingford CT 06492
  
  
 ---------------------------------------------------------------
 Warning -- This program may not be used in any manner that
 competes with the business of Gaussian, Inc. or will provide
 assistance to any competitor of Gaussian, Inc.  The licensee
 of this program is prohibited from giving any competitor of
 Gaussian, Inc. access to this program.  By using this program,
 the user acknowledges that Gaussian, Inc. is engaged in the
 business of creating and licensing software in the field of
 computational chemistry and represents and warrants to the
 licensee that it is not a competitor of Gaussian, Inc. and that
 it will not use this program in any manner prohibited above.
 ---------------------------------------------------------------
  

 Cite this work as:
 Gaussian 16, Revision A.03,
 M. J. Frisch, G. W. Trucks, H. B. Schlegel, G. E. Scuseria, 
 M. A. Robb, J. R. Cheeseman, G. Scalmani, V. Barone, 
 G. A. Petersson, H. Nakatsuji, X. Li, M. Caricato, A. V. Marenich, 
 J. Bloino, B. G. Janesko, R. Gomperts, B. Mennucci, H. P. Hratchian, 
 J. V. Ortiz, A. F. Izmaylov, J. L. Sonnenberg, D. Williams-Young, 
 F. Ding, F. Lipparini, F. Egidi, J. Goings, B. Peng, A. Petrone, 
 T. Henderson, D. Ranasinghe, V. G. Zakrzewski, J. Gao, N. Rega, 
 G. Zheng, W. Liang, M. Hada, M. Ehara, K. Toyota, R. Fukuda, 
 J. Hasegawa, M. Ishida, T. Nakajima, Y. Honda, O. Kitao, H. Nakai, 
 T. Vreven, K. Throssell, J. A. Montgomery, Jr., J. E. Peralta, 
 F. Ogliaro, M. J. Bearpark, J. J. Heyd, E. N. Brothers, K. N. Kudin, 
 V. N. Staroverov, T. A. Keith, R. Kobayashi, J. Normand, 
 K. Raghavachari, A. P. Rendell, J. C. Burant, S. S. Iyengar, 
 J. Tomasi, M. Cossi, J. M. Millam, M. Klene, C. Adamo, R. Cammi, 
 J. W. Ochterski, R. L. Martin, K. Morokuma, O. Farkas, 
 J. B. Foresman, and D. J. Fox, Gaussian, Inc., Wallingford CT, 2016.
 
 ******************************************
 Gaussian 16:  ES64L-G16RevA.03 25-Dec-2016
                14-Sep-2019 
 ******************************************
 %chk=holoCaM_loop3_63.0.chk
 %nprocshared=48
 Will use up to   48 processors via shared memory.
 %mem=10GB
 %nosave
 ----------------------------------------------------------------------
 #b3lyp/svp scf=(tight,noincore) Test #IOP(5/87=12) Density=Current Pop
 =(MK,readradii) iop(6/33=2) iop(6/42=6)
 ----------------------------------------------------------------------
 1/30=1,38=1,172=1/1;
 2/12=2,17=6,18=5,40=1/2;
 3/5=18,7=101,11=2,25=1,30=1,74=-5/1,2,3;
 4//1;
 5/5=4,32=2,38=5,87=12/2;
 6/7=2,8=2,9=2,10=2,15=8,20=101,22=-1,28=1,33=2,42=6/1,2;
 99/5=1,9=1/99;
 ------------------
 holoCaM_loop3_63.0
 ------------------
 Symbolic Z-matrix:
 Charge =  0 Multiplicity = 1
 C                     67.31     50.12     0.29 
 C                     67.9      50.29     1.69 
 O                     68.42     49.32     2.24 
 H                     66.421    50.743    0.193 
 H                     68.047    50.421   -0.455 
 H                     67.04     49.076    0.133 
 N                     67.7      51.48     2.25 
 C                     67.89     51.91     3.62 
 C                     66.86     51.29     4.56 
 O                     65.65     51.44     4.42 
 C                     67.92     53.43     3.69 
 C                     67.93     54.07     5.07 
 O                     67.68     55.29     5.14 
 O                     68.23     53.37     6.06 
 H                     67.38     52.17     1.58 
 H                     68.87     51.59     3.99 
 H                     67.03     53.75     3.15 
 H                     68.77     53.76     3.09 
 N                     67.27     50.37     5.43 
 C                     66.33     49.43     6.01 
 C                     65.5      50.       7.15 
 O                     64.42     49.48     7.42 
 C                     67.07     48.15     6.39 
 C                     67.76     47.39     5.26 
 C                     66.89     47.09     4.04 
 C                     67.7      46.4      2.95 
 N                     67.03     45.64     1.89 
 H                     68.27     50.25     5.57 
 H                     65.62     49.11     5.26 
 H                     66.44     47.44     6.92 
 H                     67.91     48.32     7.07 
 H                     68.17     46.46     5.67 
 H                     68.64     47.95     4.95 
 H                     66.5      48.01     3.62 
 H                     65.97     46.56     4.33 
 H                     68.32     45.67     3.47 
 H                     68.43     47.13     2.61 
 H                     66.41     46.22     1.35 
 H                     67.68     45.26     1.22 
 H                     66.51     44.87     2.3 
 N                     65.86     51.13     7.75 
 C                     65.12     51.8      8.8 
 C                     64.79     53.26     8.54 
 O                     63.95     53.82     9.23 
 C                     65.92     51.7      10.1 
 C                     67.37     52.15     10.09 
 O                     67.93     52.7      11.07 
 O                     68.09     51.91     9.09 
 H                     66.81     51.45     7.63 
 H                     64.18     51.29     9.03 
 H                     65.96     50.66     10.44 
 H                     65.46     52.19     10.96 
 N                     65.3      53.83     7.44 
 C                     64.92     55.17     7.02 
 C                     65.71     56.28     7.7 
 O                     65.15     57.28     8.14 
 H                     65.92     53.32     6.83 
 H                     63.83     55.21     7.07 
 H                     65.02     55.23     5.94 
 N                     67.04     56.2      7.79 
 C                     67.94     57.12     8.45 
 C                     68.86     57.94     7.56 
 O                     69.59     58.8      8.04 
 C                     68.61     56.38     9.6 
 C                     69.91     55.68     9.23 
 N                     71.04     56.05     9.83 
 O                     69.99     54.82     8.34 
 H                     67.47     55.35     7.47 
 H                     67.27     57.86     8.88 
 H                     67.94     55.65     10.04 
 H                     68.88     56.96     10.48 
 H                     70.85     56.59     10.66 
 H                     71.9      55.55     9.64 
 N                     68.73     57.79     6.24 
 C                     69.53     58.42     5.2 
 C                     70.74     57.59     4.79 
 O                     71.44     57.93     3.84 
 H                     68.16     57.03     5.9 
 H                     69.97     59.32     5.63 
 H                     68.98     58.69     4.3 
 N                     71.13     56.53     5.5 
 C                     72.36     55.78     5.33 
 C                     72.18     54.32     4.96 
 O                     71.37     53.68     5.64 
 C                     73.18     55.91     6.62 
 C                     73.65     57.34     6.76 
 C                     72.93     58.26     7.54 
 C                     74.78     57.81     6.08 
 C                     73.31     59.61     7.6 
 C                     75.15     59.16     6.1 
 C                     74.44     60.08     6.9 
 O                     74.67     61.42     6.9 
 H                     70.59     56.33     6.33 
 H                     73.01     56.22     4.57 
 H                     74.05     55.29     6.44 
 H                     72.67     55.46     7.47 
 H                     71.97     58.05     7.99 
 H                     75.27     57.1      5.43 
 H                     72.65     60.35     8.02 
 H                     76.04     59.44     5.55 
 H                     75.43     61.55     6.32 
 N                     73.02     53.82     4.04 
 C                     73.12     52.39     3.81 
 C                     74.46     51.95     4.37 
 O                     75.47     52.52     3.98 
 C                     72.9      52.13     2.32 
 C                     71.42     52.3      1.96 
 C                     73.41     50.73     1.97 
 C                     71.19     52.46     0.46 
 H                     73.76     54.44     3.75 
 H                     72.37     51.86     4.39 
 H                     73.52     52.81     1.74 
 H                     70.95     53.14     2.46 
 H                     70.82     51.45     2.3 
 H                     74.49     50.68     2.11 
 H                     72.91     49.9      2.47 
 H                     73.26     50.49     0.92 
 H                     71.25     51.48    -0.02 
 H                     70.23     52.91     0.22 
 H                     72.05     52.97     0.01 
 N                     74.51     51.07     5.38 
 C                     75.7      50.39     5.85 
 C                     76.15     49.23     4.97 
 O                     75.41     48.72     4.13 
 C                     75.51     49.92     7.29 
 O                     74.49     48.95     7.43 
 H                     73.64     50.75     5.78 
 H                     76.54     51.09     5.89 
 H                     75.21     50.81     7.84 
 H                     76.42     49.45     7.66 
 H                     74.67     48.71     8.34 
 N                     77.28     48.6      5.29 
 C                     77.7      47.28     4.85 
 C                     76.62     46.22     4.98 
 O                     76.38     45.56     3.97 
 C                     78.87     46.97     5.78 
 H                     77.89     49.05     5.96 
 H                     78.02     47.26     3.81 
 H                     79.2      45.96     5.51 
 H                     79.6      47.75     5.58 
 H                     78.62     46.93     6.84 
 N                     75.86     46.09     6.07 
 C                     74.81     45.11     6.25 
 C                     73.69     45.34     5.25 
 O                     73.07     44.34     4.87 
 C                     74.28     45.21     7.67 
 H                     76.17     46.65     6.85 
 H                     75.27     44.15     5.99 
 H                     73.58     46.04     7.68 
 H                     73.7      44.33     7.94 
 H                     75.12     45.35     8.34 
 N                     73.33     46.59     4.93 
 C                     72.28     47.07     4.06 
 C                     72.79     47.11     2.62 
 O                     71.94     46.93     1.75 
 C                     71.88     48.4      4.67 
 C                     71.26     48.33     6.07 
 C                     70.84     49.71     6.57 
 O                     71.25     50.12     7.68 
 O                     70.14     50.48     5.88 
 H                     73.9      47.31     5.35 
 H                     71.45     46.36     4.17 
 H                     71.06     48.79     4.06 
 H                     72.69     49.13     4.72 
 H                     72.01     47.96     6.76 
 H                     70.43     47.63     6.04 
 N                     74.08     47.19     2.29 
 C                     74.62     47.11     0.95 
 H                     75.641    46.73     0.992 
 H                     74.007    46.437    0.35 
 H                     74.62     48.102    0.498 
 H                     74.78     47.49     2.95 
 Ca                    70.22     52.44     7.66 
 O                     72.86     52.6      8.47 
 H                     72.89     52.21     9.35 
 H                     73.72     53.02     8.37 
 
 Stoichiometry    C54H83CaN15O23
 Framework group  C1[X(C54H83CaN15O23)]
 Deg. of freedom   522
 Full point group                 C1      NOp   1
 Largest Abelian subgroup         C1      NOp   1
 Largest concise Abelian subgroup C1      NOp   1
                         Standard orientation:                         
 ---------------------------------------------------------------------
 Center     Atomic      Atomic             Coordinates (Angstroms)
 Number     Number       Type             X           Y           Z
 ---------------------------------------------------------------------
      1          6           0       -1.439934   -3.924723    5.195106
      2          6           0       -1.172684   -3.309984    3.821180
      3          8           0       -2.072682   -3.310315    2.982250
      4          1           0       -0.533700   -4.409351    5.558059
      5          1           0       -1.737013   -3.141585    5.893128
      6          1           0       -2.238233   -4.662140    5.114982
      7          7           0        0.078978   -2.911404    3.611000
      8          6           0        0.740752   -2.524272    2.382145
      9          6           0        0.959622   -3.715032    1.453119
     10          8           0        1.603662   -4.708000    1.777812
     11          6           0        2.025449   -1.771373    2.696625
     12          6           0        2.949644   -1.442004    1.534093
     13          8           0        4.110960   -1.078351    1.807771
     14          8           0        2.502615   -1.501919    0.369329
     15          1           0        0.617335   -2.870358    4.468839
     16          1           0        0.124726   -1.812049    1.822725
     17          1           0        2.551919   -2.406372    3.407755
     18          1           0        1.741726   -0.873535    3.248700
     19          7           0        0.242891   -3.784655    0.333812
     20          6           0        0.049251   -5.053050   -0.342412
     21          6           0        1.233658   -5.497711   -1.186721
     22          8           0        1.370149   -6.691929   -1.441505
     23          6           0       -1.260985   -5.009963   -1.124604
     24          6           0       -2.537903   -4.778916   -0.320428
     25          6           0       -2.734597   -5.699773    0.883164
     26          6           0       -3.996596   -5.329438    1.651611
     27          7           0       -4.627148   -6.292487    2.559929
     28          1           0       -0.279163   -2.961861    0.043173
     29          1           0       -0.105021   -5.837779    0.385187
     30          1           0       -1.418099   -5.896722   -1.733598
     31          1           0       -1.312597   -4.183403   -1.839471
     32          1           0       -3.393178   -4.858311   -1.001090
     33          1           0       -2.559918   -3.741748    0.008049
     34          1           0       -1.899778   -5.607689    1.568363
     35          1           0       -2.674574   -6.757976    0.586512
     36          1           0       -4.749249   -5.127641    0.889712
     37          1           0       -3.814977   -4.343208    2.070856
     38          1           0       -4.006342   -6.566124    3.302978
     39          1           0       -5.435827   -5.910140    3.024309
     40          1           0       -4.919363   -7.112555    2.036959
     41          7           0        2.188164   -4.635346   -1.521003
     42          6           0        3.389772   -4.954165   -2.264974
     43          6           0        4.696493   -4.549786   -1.603870
     44          8           0        5.749791   -5.012896   -2.017864
     45          6           0        3.304843   -4.284934   -3.637897
     46          6           0        3.012555   -2.796245   -3.696822
     47          8           0        3.494489   -2.030981   -4.567804
     48          8           0        2.196048   -2.289135   -2.889261
     49          1           0        1.985747   -3.649211   -1.444420
     50          1           0        3.458861   -6.021042   -2.496491
     51          1           0        2.507689   -4.742685   -4.232715
     52          1           0        4.172276   -4.445765   -4.280542
     53          7           0        4.629865   -3.841496   -0.468578
     54          6           0        5.813406   -3.540082    0.321852
     55          6           0        6.575614   -2.308612   -0.148383
     56          8           0        7.799345   -2.318344   -0.246307
     57          1           0        3.742617   -3.546928   -0.090926
     58          1           0        6.363373   -4.478082    0.421314
     59          1           0        5.512284   -3.435308    1.360287
     60          7           0        5.921033   -1.177334   -0.422485
     61          6           0        6.467066    0.059839   -0.935565
     62          6           0        6.481271    1.249996    0.010069
     63          8           0        7.004227    2.307207   -0.324178
     64          6           0        5.861188    0.307634   -2.310524
     65          6           0        4.568715    1.111515   -2.296867
     66          7           0        4.529118    2.287489   -2.920819
     67          8           0        3.556598    0.761493   -1.671404
     68          1           0        4.917331   -1.208889   -0.385247
     69          1           0        7.519917   -0.170791   -1.075968
     70          1           0        5.680217   -0.624795   -2.833234
     71          1           0        6.473676    0.831351   -3.041468
     72          1           0        5.305736    2.387421   -3.556019
     73          1           0        3.658529    2.802252   -2.973675
     74          7           0        6.041552    1.049819    1.254407
     75          6           0        5.908768    2.042195    2.310843
     76          6           0        4.537079    2.704497    2.341237
     77          8           0        4.231861    3.471522    3.250421
     78          1           0        5.568613    0.182449    1.459586
     79          1           0        6.584836    2.863177    2.071215
     80          1           0        6.134692    1.678125    3.311749
     81          7           0        3.666523    2.548716    1.342406
     82          6           0        2.420815    3.269396    1.160384
     83          6           0        1.170831    2.410101    1.167735
     84          8           0        1.197967    1.400253    0.455295
     85          6           0        2.517333    4.065911   -0.147151
     86          6           0        3.543407    5.163168    0.021959
     87          6           0        4.869734    4.978360   -0.402189
     88          6           0        3.225831    6.372986    0.650995
     89          6           0        5.847340    5.957477   -0.165301
     90          6           0        4.196728    7.342883    0.927506
     91          6           0        5.524106    7.167077    0.482917
     92          8           0        6.545431    8.008983    0.793706
     93          1           0        3.981856    1.987806    0.563660
     94          1           0        2.276508    4.042305    1.918992
     95          1           0        1.544014    4.532270   -0.241283
     96          1           0        2.614188    3.412204   -1.012244
     97          1           0        5.262652    4.039547   -0.766122
     98          1           0        2.218907    6.457408    1.032673
     99          1           0        6.892756    5.735524   -0.297373
    100          1           0        3.866658    8.252533    1.413912
    101          1           0        6.140578    8.732469    1.287224
    102          7           0        0.102943    2.899362    1.817533
    103          6           0       -1.211196    2.301913    1.662955
    104          6           0       -2.040277    3.275187    0.845544
    105          8           0       -2.136403    4.430475    1.236913
    106          6           0       -1.750081    1.968294    3.053783
    107          6           0       -1.027062    0.745271    3.628549
    108          6           0       -3.261820    1.744080    2.970267
    109          6           0       -1.210840    0.603302    5.136717
    110          1           0        0.201561    3.842397    2.159674
    111          1           0       -1.147453    1.396217    1.066758
    112          1           0       -1.627743    2.831399    3.704385
    113          1           0        0.037577    0.738864    3.421177
    114          1           0       -1.369524   -0.184043    3.162507
    115          1           0       -3.761842    2.670583    2.687301
    116          1           0       -3.588264    0.913911    2.343247
    117          1           0       -3.691656    1.486290    3.935350
    118          1           0       -2.198707    0.182864    5.341046
    119          1           0       -0.457888   -0.027864    5.601898
    120          1           0       -1.305309    1.597503    5.589309
    121          7           0       -2.517898    2.909899   -0.352555
    122          6           0       -3.505236    3.635812   -1.125609
    123          6           0       -4.937364    3.467723   -0.632400
    124          8           0       -5.263115    2.564937    0.137121
    125          6           0       -3.405725    3.260108   -2.601937
    126          8           0       -3.712219    1.902323   -2.853693
    127          1           0       -2.273127    1.997091   -0.707759
    128          1           0       -3.292033    4.708488   -1.092278
    129          1           0       -2.363198    3.427476   -2.865996
    130          1           0       -4.115690    3.839208   -3.190573
    131          1           0       -3.739615    1.955755   -3.809985
    132          7           0       -5.897431    4.163168   -1.241356
    133          6           0       -7.325866    3.897104   -1.206936
    134          6           0       -7.683261    2.443522   -1.464363
    135          8           0       -8.413646    1.906551   -0.632800
    136          6           0       -7.862592    4.787114   -2.324838
    137          1           0       -5.610357    4.921244   -1.846672
    138          1           0       -7.784329    4.157399   -0.254854
    139          1           0       -8.940680    4.591846   -2.363529
    140          1           0       -7.599305    5.798739   -2.027189
    141          1           0       -7.481197    4.559887   -3.320130
    142          7           0       -7.134131    1.725576   -2.447018
    143          6           0       -7.423901    0.337093   -2.735894
    144          6           0       -6.997313   -0.547948   -1.577436
    145          8           0       -7.660435   -1.574278   -1.388448
    146          6           0       -6.693888   -0.065374   -4.005698
    147          1           0       -6.585186    2.273799   -3.092162
    148          1           0       -8.516989    0.280023   -2.787870
    149          1           0       -5.670318   -0.283951   -3.716686
    150          1           0       -7.090605   -0.992202   -4.414730
    151          1           0       -6.773567    0.746752   -4.718581
    152          7           0       -5.870410   -0.270850   -0.908253
    153          6           0       -5.228981   -0.973607    0.180095
    154          6           0       -5.837660   -0.522079    1.507096
    155          8           0       -5.843604   -1.364264    2.402914
    156          6           0       -3.753255   -0.683349   -0.017354
    157          6           0       -3.130451   -1.246279   -1.299745
    158          6           0       -1.634568   -0.950914   -1.376498
    159          8           0       -1.164527   -0.382871   -2.388768
    160          8           0       -0.859499   -1.205743   -0.431336
    161          1           0       -5.408490    0.578290   -1.200302
    162          1           0       -5.412769   -2.040642   -0.000895
    163          1           0       -3.219950   -1.224184    0.769845
    164          1           0       -3.498164    0.377403    0.017770
    165          1           0       -3.592051   -0.756525   -2.149785
    166          1           0       -3.345433   -2.310060   -1.343926
    167          7           0       -6.458028    0.645891    1.681416
    168          6           0       -7.153191    1.067564    2.878305
    169          1           0       -7.931371    1.783596    2.613090
    170          1           0       -7.606682    0.201132    3.360321
    171          1           0       -6.446530    1.536321    3.563333
    172          1           0       -6.341435    1.411308    1.036324
    173         20           0        1.256067   -0.180244   -1.651635
    174          8           0        0.403545    2.224381   -2.720411
    175          1           0        0.310580    2.074078   -3.667072
    176          1           0        0.332376    3.179411   -2.626320
 ---------------------------------------------------------------------
 Rotational constants (GHZ):           0.0234595           0.0155649           0.0119895
 Standard basis: SVP (5D, 7F)
 There are  1809 symmetry adapted cartesian basis functions of A   symmetry.
 There are  1717 symmetry adapted basis functions of A   symmetry.
  1717 basis functions,  2922 primitive gaussians,  1809 cartesian basis functions
   358 alpha electrons      358 beta electrons
       nuclear repulsion energy     21821.9012934505 Hartrees.
 NAtoms=  176 NActive=  176 NUniq=  176 SFac= 1.00D+00 NAtFMM=   60 NAOKFM=T Big=T
 Integral buffers will be    131072 words long.
 Raffenetti 2 integral format.
 Two-electron integral symmetry is turned on.
 One-electron integrals computed using PRISM.
 NBasis=  1717 RedAO= T EigKep=  2.77D-04  NBF=  1717
 NBsUse=  1717 1.00D-06 EigRej= -1.00D+00 NBFU=  1717
 ExpMin= 1.98D-02 ExpMax= 3.51D+04 ExpMxC= 5.28D+03 IAcc=3 IRadAn=         5 AccDes= 0.00D+00
 Harris functional with IExCor=  402 and IRadAn=       5 diagonalized for initial guess.
 HarFok:  IExCor=  402 AccDes= 0.00D+00 IRadAn=         5 IDoV= 1 UseB2=F ITyADJ=14
 ICtDFT=  3500011 ScaDFX=  1.000000  1.000000  1.000000  1.000000
 FoFCou: FMM=F IPFlag=           0 FMFlag=      100000 FMFlg1=        2001
         NFxFlg=           0 DoJE=T BraDBF=F KetDBF=T FulRan=T
         wScrn=  0.000000 ICntrl=       500 IOpCl=  0 I1Cent=   200000004 NGrid=           0
         NMat0=    1 NMatS0=      1 NMatT0=    0 NMatD0=    1 NMtDS0=    0 NMtDT0=    0
 Petite list used in FoFCou.
 Requested convergence on RMS density matrix=1.00D-08 within 128 cycles.
 Requested convergence on MAX density matrix=1.00D-06.
 Requested convergence on             energy=1.00D-06.
 No special actions if energy rises.
 EnCoef did     4 forward-backward iterations
 SCF Done:  E(RB3LYP) =  -5333.59479413     A.U. after   18 cycles
            NFock= 18  Conv=0.24D-08     -V/T= 2.0082
 SCF density gives NOpUse=  1 NOpAll=  1.
 Hyperfine terms turned off by default for NAtoms > 100.

 **********************************************************************

            Population analysis using the SCF density.

 **********************************************************************

 Orbital symmetries:
 BldTbl:  Degeneracy threshold= 1.00D-02
       Occupied  (A) (A) (A) (A) (A) (A) (A) (A) (A) (A) (A) (A)
                 (A) (A) (A) (A) (A) (A) (A) (A) (A) (A) (A) (A)
                 (A) (A) (A) (A) (A) (A) (A) (A) (A) (A) (A) (A)
                 (A) (A) (A) (A) (A) (A) (A) (A) (A) (A) (A) (A)
                 (A) (A) (A) (A) (A) (A) (A) (A) (A) (A) (A) (A)
                 (A) (A) (A) (A) (A) (A) (A) (A) (A) (A) (A) (A)
                 (A) (A) (A) (A) (A) (A) (A) (A) (A) (A) (A) (A)
                 (A) (A) (A) (A) (A) (A) (A) (A) (A) (A) (A) (A)
                 (A) (A) (A) (A) (A) (A) (A) (A) (A) (A) (A) (A)
                 (A) (A) (A) (A) (A) (A) (A) (A) (A) (A) (A) (A)
                 (A) (A) (A) (A) (A) (A) (A) (A) (A) (A) (A) (A)
                 (A) (A) (A) (A) (A) (A) (A) (A) (A) (A) (A) (A)
                 (A) (A) (A) (A) (A) (A) (A) (A) (A) (A) (A) (A)
                 (A) (A) (A) (A) (A) (A) (A) (A) (A) (A) (A) (A)
                 (A) (A) (A) (A) (A) (A) (A) (A) (A) (A) (A) (A)
                 (A) (A) (A) (A) (A) (A) (A) (A) (A) (A) (A) (A)
                 (A) (A) (A) (A) (A) (A) (A) (A) (A) (A) (A) (A)
                 (A) (A) (A) (A) (A) (A) (A) (A) (A) (A) (A) (A)
                 (A) (A) (A) (A) (A) (A) (A) (A) (A) (A) (A) (A)
                 (A) (A) (A) (A) (A) (A) (A) (A) (A) (A) (A) (A)
                 (A) (A) (A) (A) (A) (A) (A) (A) (A) (A) (A) (A)
                 (A) (A) (A) (A) (A) (A) (A) (A) (A) (A) (A) (A)
                 (A) (A) (A) (A) (A) (A) (A) (A) (A) (A) (A) (A)
                 (A) (A) (A) (A) (A) (A) (A) (A) (A) (A) (A) (A)
                 (A) (A) (A) (A) (A) (A) (A) (A) (A) (A) (A) (A)
                 (A) (A) (A) (A) (A) (A) (A) (A) (A) (A) (A) (A)
                 (A) (A) (A) (A) (A) (A) (A) (A) (A) (A) (A) (A)
                 (A) (A) (A) (A) (A) (A) (A) (A) (A) (A) (A) (A)
                 (A) (A) (A) (A) (A) (A) (A) (A) (A) (A) (A) (A)
                 (A) (A) (A) (A) (A) (A) (A) (A) (A) (A)
       Virtual   (A) (A) (A) (A) (A) (A) (A) (A) (A) (A) (A) (A)
                 (A) (A) (A) (A) (A) (A) (A) (A) (A) (A) (A) (A)
                 (A) (A) (A) (A) (A) (A) (A) (A) (A) (A) (A) (A)
                 (A) (A) (A) (A) (A) (A) (A) (A) (A) (A) (A) (A)
                 (A) (A) (A) (A) (A) (A) (A) (A) (A) (A) (A) (A)
                 (A) (A) (A) (A) (A) (A) (A) (A) (A) (A) (A) (A)
                 (A) (A) (A) (A) (A) (A) (A) (A) (A) (A) (A) (A)
                 (A) (A) (A) (A) (A) (A) (A) (A) (A) (A) (A) (A)
                 (A) (A) (A) (A) (A) (A) (A) (A) (A) (A) (A) (A)
                 (A) (A) (A) (A) (A) (A) (A) (A) (A) (A) (A) (A)
                 (A) (A) (A) (A) (A) (A) (A) (A) (A) (A) (A) (A)
                 (A) (A) (A) (A) (A) (A) (A) (A) (A) (A) (A) (A)
                 (A) (A) (A) (A) (A) (A) (A) (A) (A) (A) (A) (A)
                 (A) (A) (A) (A) (A) (A) (A) (A) (A) (A) (A) (A)
                 (A) (A) (A) (A) (A) (A) (A) (A) (A) (A) (A) (A)
                 (A) (A) (A) (A) (A) (A) (A) (A) (A) (A) (A) (A)
                 (A) (A) (A) (A) (A) (A) (A) (A) (A) (A) (A) (A)
                 (A) (A) (A) (A) (A) (A) (A) (A) (A) (A) (A) (A)
                 (A) (A) (A) (A) (A) (A) (A) (A) (A) (A) (A) (A)
                 (A) (A) (A) (A) (A) (A) (A) (A) (A) (A) (A) (A)
                 (A) (A) (A) (A) (A) (A) (A) (A) (A) (A) (A) (A)
                 (A) (A) (A) (A) (A) (A) (A) (A) (A) (A) (A) (A)
                 (A) (A) (A) (A) (A) (A) (A) (A) (A) (A) (A) (A)
                 (A) (A) (A) (A) (A) (A) (A) (A) (A) (A) (A) (A)
                 (A) (A) (A) (A) (A) (A) (A) (A) (A) (A) (A) (A)
                 (A) (A) (A) (A) (A) (A) (A) (A) (A) (A) (A) (A)
                 (A) (A) (A) (A) (A) (A) (A) (A) (A) (A) (A) (A)
                 (A) (A) (A) (A) (A) (A) (A) (A) (A) (A) (A) (A)
                 (A) (A) (A) (A) (A) (A) (A) (A) (A) (A) (A) (A)
                 (A) (A) (A) (A) (A) (A) (A) (A) (A) (A) (A) (A)
                 (A) (A) (A) (A) (A) (A) (A) (A) (A) (A) (A) (A)
                 (A) (A) (A) (A) (A) (A) (A) (A) (A) (A) (A) (A)
                 (A) (A) (A) (A) (A) (A) (A) (A) (A) (A) (A) (A)
                 (A) (A) (A) (A) (A) (A) (A) (A) (A) (A) (A) (A)
                 (A) (A) (A) (A) (A) (A) (A) (A) (A) (A) (A) (A)
                 (A) (A) (A) (A) (A) (A) (A) (A) (A) (A) (A) (A)
                 (A) (A) (A) (A) (A) (A) (A) (A) (A) (A) (A) (A)
                 (A) (A) (A) (A) (A) (A) (A) (A) (A) (A) (A) (A)
                 (A) (A) (A) (A) (A) (A) (A) (A) (A) (A) (A) (A)
                 (A) (A) (A) (A) (A) (A) (A) (A) (A) (A) (A) (A)
                 (A) (A) (A) (A) (A) (A) (A) (A) (A) (A) (A) (A)
                 (A) (A) (A) (A) (A) (A) (A) (A) (A) (A) (A) (A)
                 (A) (A) (A) (A) (A) (A) (A) (A) (A) (A) (A) (A)
                 (A) (A) (A) (A) (A) (A) (A) (A) (A) (A) (A) (A)
                 (A) (A) (A) (A) (A) (A) (A) (A) (A) (A) (A) (A)
                 (A) (A) (A) (A) (A) (A) (A) (A) (A) (A) (A) (A)
                 (A) (A) (A) (A) (A) (A) (A) (A) (A) (A) (A) (A)
                 (A) (A) (A) (A) (A) (A) (A) (A) (A) (A) (A) (A)
                 (A) (A) (A) (A) (A) (A) (A) (A) (A) (A) (A) (A)
                 (A) (A) (A) (A) (A) (A) (A) (A) (A) (A) (A) (A)
                 (A) (A) (A) (A) (A) (A) (A) (A) (A) (A) (A) (A)
                 (A) (A) (A) (A) (A) (A) (A) (A) (A) (A) (A) (A)
                 (A) (A) (A) (A) (A) (A) (A) (A) (A) (A) (A) (A)
                 (A) (A) (A) (A) (A) (A) (A) (A) (A) (A) (A) (A)
                 (A) (A) (A) (A) (A) (A) (A) (A) (A) (A) (A) (A)
                 (A) (A) (A) (A) (A) (A) (A) (A) (A) (A) (A) (A)
                 (A) (A) (A) (A) (A) (A) (A) (A) (A) (A) (A) (A)
                 (A) (A) (A) (A) (A) (A) (A) (A) (A) (A) (A) (A)
                 (A) (A) (A) (A) (A) (A) (A) (A) (A) (A) (A) (A)
                 (A) (A) (A) (A) (A) (A) (A) (A) (A) (A) (A) (A)
                 (A) (A) (A) (A) (A) (A) (A) (A) (A) (A) (A) (A)
                 (A) (A) (A) (A) (A) (A) (A) (A) (A) (A) (A) (A)
                 (A) (A) (A) (A) (A) (A) (A) (A) (A) (A) (A) (A)
                 (A) (A) (A) (A) (A) (A) (A) (A) (A) (A) (A) (A)
                 (A) (A) (A) (A) (A) (A) (A) (A) (A) (A) (A) (A)
                 (A) (A) (A) (A) (A) (A) (A) (A) (A) (A) (A) (A)
                 (A) (A) (A) (A) (A) (A) (A) (A) (A) (A) (A) (A)
                 (A) (A) (A) (A) (A) (A) (A) (A) (A) (A) (A) (A)
                 (A) (A) (A) (A) (A) (A) (A) (A) (A) (A) (A) (A)
                 (A) (A) (A) (A) (A) (A) (A) (A) (A) (A) (A) (A)
                 (A) (A) (A) (A) (A) (A) (A) (A) (A) (A) (A) (A)
                 (A) (A) (A) (A) (A) (A) (A) (A) (A) (A) (A) (A)
                 (A) (A) (A) (A) (A) (A) (A) (A) (A) (A) (A) (A)
                 (A) (A) (A) (A) (A) (A) (A) (A) (A) (A) (A) (A)
                 (A) (A) (A) (A) (A) (A) (A) (A) (A) (A) (A) (A)
                 (A) (A) (A) (A) (A) (A) (A) (A) (A) (A) (A) (A)
                 (A) (A) (A) (A) (A) (A) (A) (A) (A) (A) (A) (A)
                 (A) (A) (A) (A) (A) (A) (A) (A) (A) (A) (A) (A)
                 (A) (A) (A) (A) (A) (A) (A) (A) (A) (A) (A) (A)
                 (A) (A) (A) (A) (A) (A) (A) (A) (A) (A) (A) (A)
                 (A) (A) (A) (A) (A) (A) (A) (A) (A) (A) (A) (A)
                 (A) (A) (A) (A) (A) (A) (A) (A) (A) (A) (A) (A)
                 (A) (A) (A) (A) (A) (A) (A) (A) (A) (A) (A) (A)
                 (A) (A) (A) (A) (A) (A) (A) (A) (A) (A) (A) (A)
                 (A) (A) (A) (A) (A) (A) (A) (A) (A) (A) (A) (A)
                 (A) (A) (A) (A) (A) (A) (A) (A) (A) (A) (A) (A)
                 (A) (A) (A) (A) (A) (A) (A) (A) (A) (A) (A) (A)
                 (A) (A) (A) (A) (A) (A) (A) (A) (A) (A) (A) (A)
                 (A) (A) (A) (A) (A) (A) (A) (A) (A) (A) (A) (A)
                 (A) (A) (A) (A) (A) (A) (A) (A) (A) (A) (A) (A)
                 (A) (A) (A) (A) (A) (A) (A) (A) (A) (A) (A) (A)
                 (A) (A) (A) (A) (A) (A) (A) (A) (A) (A) (A) (A)
                 (A) (A) (A) (A) (A) (A) (A) (A) (A) (A) (A) (A)
                 (A) (A) (A) (A) (A) (A) (A) (A) (A) (A) (A) (A)
                 (A) (A) (A) (A) (A) (A) (A) (A) (A) (A) (A) (A)
                 (A) (A) (A) (A) (A) (A) (A) (A) (A) (A) (A) (A)
                 (A) (A) (A) (A) (A) (A) (A) (A) (A) (A) (A) (A)
                 (A) (A) (A) (A) (A) (A) (A) (A) (A) (A) (A) (A)
                 (A) (A) (A) (A) (A) (A) (A) (A) (A) (A) (A) (A)
                 (A) (A) (A) (A) (A) (A) (A) (A) (A) (A) (A) (A)
                 (A) (A) (A) (A) (A) (A) (A) (A) (A) (A) (A) (A)
                 (A) (A) (A) (A) (A) (A) (A) (A) (A) (A) (A) (A)
                 (A) (A) (A) (A) (A) (A) (A) (A) (A) (A) (A) (A)
                 (A) (A) (A) (A) (A) (A) (A) (A) (A) (A) (A) (A)
                 (A) (A) (A) (A) (A) (A) (A) (A) (A) (A) (A) (A)
                 (A) (A) (A) (A) (A) (A) (A) (A) (A) (A) (A) (A)
                 (A) (A) (A) (A) (A) (A) (A) (A) (A) (A) (A) (A)
                 (A) (A) (A) (A) (A) (A) (A) (A) (A) (A) (A) (A)
                 (A) (A) (A) (A) (A) (A) (A) (A) (A) (A) (A) (A)
                 (A) (A) (A) (A) (A) (A) (A) (A) (A) (A) (A) (A)
                 (A) (A) (A) (A) (A) (A) (A) (A) (A) (A) (A) (A)
                 (A) (A) (A) (A) (A) (A) (A) (A) (A) (A) (A) (A)
                 (A) (A) (A) (A) (A) (A) (A) (A) (A) (A) (A) (A)
                 (A) (A) (A)
 The electronic state is 1-A.
 Alpha  occ. eigenvalues -- -145.36912 -19.20866 -19.19769 -19.16286 -19.15302
 Alpha  occ. eigenvalues --  -19.12947 -19.12687 -19.12227 -19.11954 -19.11278
 Alpha  occ. eigenvalues --  -19.08975 -19.08754 -19.08393 -19.07791 -19.07482
 Alpha  occ. eigenvalues --  -19.06721 -19.06661 -19.04839 -19.04260 -19.04047
 Alpha  occ. eigenvalues --  -19.03585 -19.03527 -19.02020 -18.99359 -15.42707
 Alpha  occ. eigenvalues --  -14.56138 -14.41160 -14.39547 -14.38668 -14.38476
 Alpha  occ. eigenvalues --  -14.37509 -14.36584 -14.35026 -14.33805 -14.33173
 Alpha  occ. eigenvalues --  -14.32402 -14.31843 -14.30181 -14.29797 -14.29499
 Alpha  occ. eigenvalues --  -12.56322 -12.56290 -12.56247 -10.33837 -10.31323
 Alpha  occ. eigenvalues --  -10.30931 -10.30906 -10.30808 -10.30292 -10.30026
 Alpha  occ. eigenvalues --  -10.29981 -10.29205 -10.28167 -10.27932 -10.27743
 Alpha  occ. eigenvalues --  -10.26887 -10.26232 -10.26141 -10.25328 -10.25281
 Alpha  occ. eigenvalues --  -10.24921 -10.24595 -10.24063 -10.24039 -10.23898
 Alpha  occ. eigenvalues --  -10.23634 -10.23596 -10.23461 -10.23445 -10.22375
 Alpha  occ. eigenvalues --  -10.21714 -10.21569 -10.21391 -10.21383 -10.21045
 Alpha  occ. eigenvalues --  -10.21012 -10.21007 -10.21000 -10.20750 -10.20525
 Alpha  occ. eigenvalues --  -10.20370 -10.19449 -10.19231 -10.19182 -10.19036
 Alpha  occ. eigenvalues --  -10.19012 -10.18977 -10.18685 -10.18406 -10.18185
 Alpha  occ. eigenvalues --  -10.18083 -10.17846 -10.17794 -10.17644 -10.17552
 Alpha  occ. eigenvalues --  -10.16599 -10.12922  -1.79567  -1.10999  -1.09149
 Alpha  occ. eigenvalues --   -1.08182  -1.07500  -1.07258  -1.07043  -1.06293
 Alpha  occ. eigenvalues --   -1.06227  -1.05408  -1.05053  -1.04919  -1.04679
 Alpha  occ. eigenvalues --   -1.03700  -1.03500  -1.01921  -1.00919  -1.00850
 Alpha  occ. eigenvalues --   -1.00409  -1.00204  -0.98783  -0.97901  -0.97863
 Alpha  occ. eigenvalues --   -0.97589  -0.96683  -0.96058  -0.95544  -0.95226
 Alpha  occ. eigenvalues --   -0.95215  -0.93271  -0.92855  -0.92450  -0.92234
 Alpha  occ. eigenvalues --   -0.90727  -0.89537  -0.89509  -0.89184  -0.88911
 Alpha  occ. eigenvalues --   -0.87564  -0.87053  -0.85570  -0.85027  -0.84439
 Alpha  occ. eigenvalues --   -0.84359  -0.84168  -0.82717  -0.81095  -0.80095
 Alpha  occ. eigenvalues --   -0.79139  -0.79092  -0.78792  -0.77882  -0.76715
 Alpha  occ. eigenvalues --   -0.75666  -0.73810  -0.73583  -0.73225  -0.73096
 Alpha  occ. eigenvalues --   -0.73038  -0.71877  -0.71728  -0.71074  -0.70747
 Alpha  occ. eigenvalues --   -0.70432  -0.69798  -0.69566  -0.68968  -0.68520
 Alpha  occ. eigenvalues --   -0.67432  -0.67081  -0.66136  -0.65835  -0.65098
 Alpha  occ. eigenvalues --   -0.64505  -0.63971  -0.63201  -0.62524  -0.61893
 Alpha  occ. eigenvalues --   -0.61697  -0.61402  -0.61223  -0.60579  -0.59904
 Alpha  occ. eigenvalues --   -0.59709  -0.59447  -0.59229  -0.59032  -0.58616
 Alpha  occ. eigenvalues --   -0.58292  -0.58049  -0.57800  -0.57405  -0.57333
 Alpha  occ. eigenvalues --   -0.56961  -0.56392  -0.56181  -0.56021  -0.55694
 Alpha  occ. eigenvalues --   -0.55191  -0.54701  -0.54374  -0.54194  -0.53934
 Alpha  occ. eigenvalues --   -0.53346  -0.53029  -0.52848  -0.52669  -0.52469
 Alpha  occ. eigenvalues --   -0.52130  -0.51865  -0.51348  -0.51065  -0.50675
 Alpha  occ. eigenvalues --   -0.50152  -0.49922  -0.49872  -0.49769  -0.49334
 Alpha  occ. eigenvalues --   -0.49064  -0.48947  -0.48767  -0.48453  -0.48188
 Alpha  occ. eigenvalues --   -0.47838  -0.47553  -0.47313  -0.47220  -0.47038
 Alpha  occ. eigenvalues --   -0.46814  -0.46694  -0.46570  -0.46283  -0.45948
 Alpha  occ. eigenvalues --   -0.45863  -0.45717  -0.45597  -0.45409  -0.45189
 Alpha  occ. eigenvalues --   -0.45134  -0.45002  -0.44989  -0.44727  -0.44355
 Alpha  occ. eigenvalues --   -0.43883  -0.43700  -0.43666  -0.43623  -0.43537
 Alpha  occ. eigenvalues --   -0.43456  -0.43339  -0.43182  -0.43016  -0.43014
 Alpha  occ. eigenvalues --   -0.42928  -0.42676  -0.42570  -0.42524  -0.42481
 Alpha  occ. eigenvalues --   -0.42364  -0.42153  -0.41755  -0.41357  -0.41238
 Alpha  occ. eigenvalues --   -0.41139  -0.40949  -0.40883  -0.40727  -0.40681
 Alpha  occ. eigenvalues --   -0.40636  -0.40516  -0.40410  -0.40306  -0.40032
 Alpha  occ. eigenvalues --   -0.39923  -0.39780  -0.39638  -0.39354  -0.39269
 Alpha  occ. eigenvalues --   -0.39120  -0.39002  -0.38830  -0.38414  -0.38351
 Alpha  occ. eigenvalues --   -0.38321  -0.38180  -0.38157  -0.38053  -0.37873
 Alpha  occ. eigenvalues --   -0.37522  -0.37361  -0.37310  -0.37052  -0.36831
 Alpha  occ. eigenvalues --   -0.36716  -0.36578  -0.36435  -0.36003  -0.35933
 Alpha  occ. eigenvalues --   -0.35631  -0.35519  -0.35430  -0.35270  -0.35166
 Alpha  occ. eigenvalues --   -0.34929  -0.34706  -0.34503  -0.34385  -0.34201
 Alpha  occ. eigenvalues --   -0.34152  -0.34116  -0.33808  -0.33509  -0.33497
 Alpha  occ. eigenvalues --   -0.33220  -0.32938  -0.32875  -0.32581  -0.32379
 Alpha  occ. eigenvalues --   -0.32247  -0.31706  -0.31421  -0.31261  -0.30469
 Alpha  occ. eigenvalues --   -0.30126  -0.29965  -0.29792  -0.29474  -0.28943
 Alpha  occ. eigenvalues --   -0.28720  -0.27959  -0.27796  -0.27681  -0.27544
 Alpha  occ. eigenvalues --   -0.27415  -0.26989  -0.26859  -0.26276  -0.25614
 Alpha  occ. eigenvalues --   -0.25268  -0.24647  -0.24546  -0.24426  -0.24245
 Alpha  occ. eigenvalues --   -0.24069  -0.24024  -0.22825  -0.22692  -0.22410
 Alpha  occ. eigenvalues --   -0.22204  -0.22194  -0.21943  -0.21880  -0.21545
 Alpha  occ. eigenvalues --   -0.20792  -0.20212  -0.19439  -0.19404  -0.19010
 Alpha  occ. eigenvalues --   -0.18522  -0.18188  -0.15079
 Alpha virt. eigenvalues --   -0.08347  -0.04758  -0.04109  -0.02759  -0.02396
 Alpha virt. eigenvalues --   -0.02364  -0.01577  -0.01499  -0.01153  -0.00647
 Alpha virt. eigenvalues --   -0.00178   0.00335   0.00455   0.00989   0.01463
 Alpha virt. eigenvalues --    0.01948   0.02530   0.02740   0.03222   0.03310
 Alpha virt. eigenvalues --    0.03469   0.03807   0.03989   0.04221   0.04349
 Alpha virt. eigenvalues --    0.04549   0.04813   0.04913   0.05199   0.05228
 Alpha virt. eigenvalues --    0.05779   0.05987   0.06266   0.06413   0.06607
 Alpha virt. eigenvalues --    0.06783   0.06991   0.07210   0.07381   0.07487
 Alpha virt. eigenvalues --    0.07629   0.07958   0.08156   0.08384   0.08433
 Alpha virt. eigenvalues --    0.08598   0.08740   0.09140   0.09282   0.09453
 Alpha virt. eigenvalues --    0.09583   0.09866   0.10132   0.10283   0.10411
 Alpha virt. eigenvalues --    0.10664   0.11172   0.11225   0.11392   0.11565
 Alpha virt. eigenvalues --    0.11785   0.11860   0.11949   0.12167   0.12304
 Alpha virt. eigenvalues --    0.12581   0.12732   0.12985   0.13215   0.13396
 Alpha virt. eigenvalues --    0.13506   0.13583   0.13650   0.13804   0.13926
 Alpha virt. eigenvalues --    0.14081   0.14227   0.14523   0.14530   0.14723
 Alpha virt. eigenvalues --    0.14940   0.15126   0.15287   0.15395   0.15588
 Alpha virt. eigenvalues --    0.15882   0.16055   0.16296   0.16351   0.16511
 Alpha virt. eigenvalues --    0.16660   0.16728   0.16871   0.17096   0.17263
 Alpha virt. eigenvalues --    0.17560   0.17608   0.17722   0.17995   0.18197
 Alpha virt. eigenvalues --    0.18480   0.18714   0.19013   0.19100   0.19287
 Alpha virt. eigenvalues --    0.19465   0.19507   0.19665   0.19965   0.20196
 Alpha virt. eigenvalues --    0.20243   0.20534   0.20684   0.20817   0.21207
 Alpha virt. eigenvalues --    0.21467   0.21727   0.21848   0.22056   0.22135
 Alpha virt. eigenvalues --    0.22349   0.22423   0.22753   0.22973   0.23104
 Alpha virt. eigenvalues --    0.23243   0.23416   0.23694   0.23779   0.24109
 Alpha virt. eigenvalues --    0.24275   0.24375   0.24646   0.24833   0.25143
 Alpha virt. eigenvalues --    0.25361   0.25629   0.25919   0.25991   0.26216
 Alpha virt. eigenvalues --    0.26475   0.26577   0.26780   0.27024   0.27153
 Alpha virt. eigenvalues --    0.27185   0.27873   0.27941   0.28268   0.28485
 Alpha virt. eigenvalues --    0.28898   0.29481   0.29542   0.29608   0.29984
 Alpha virt. eigenvalues --    0.30208   0.30568   0.30767   0.30974   0.31151
 Alpha virt. eigenvalues --    0.31423   0.31565   0.31757   0.31984   0.32233
 Alpha virt. eigenvalues --    0.32396   0.32675   0.32993   0.33373   0.33667
 Alpha virt. eigenvalues --    0.33953   0.34090   0.34497   0.34607   0.34893
 Alpha virt. eigenvalues --    0.35330   0.35481   0.36022   0.36394   0.36744
 Alpha virt. eigenvalues --    0.36991   0.37210   0.37491   0.37758   0.38151
 Alpha virt. eigenvalues --    0.38205   0.38572   0.38739   0.38767   0.39243
 Alpha virt. eigenvalues --    0.39418   0.39767   0.39882   0.40348   0.40706
 Alpha virt. eigenvalues --    0.40806   0.40952   0.41160   0.41486   0.41573
 Alpha virt. eigenvalues --    0.41806   0.42066   0.42387   0.42552   0.42616
 Alpha virt. eigenvalues --    0.42715   0.43020   0.43124   0.43242   0.43566
 Alpha virt. eigenvalues --    0.43643   0.43778   0.44099   0.44405   0.44575
 Alpha virt. eigenvalues --    0.44667   0.44921   0.45058   0.45441   0.45651
 Alpha virt. eigenvalues --    0.45863   0.45950   0.46293   0.46386   0.46662
 Alpha virt. eigenvalues --    0.46721   0.46866   0.47089   0.47264   0.47419
 Alpha virt. eigenvalues --    0.47559   0.47757   0.47989   0.48291   0.48776
 Alpha virt. eigenvalues --    0.48893   0.49000   0.49204   0.49361   0.49877
 Alpha virt. eigenvalues --    0.50084   0.50193   0.50244   0.50472   0.50585
 Alpha virt. eigenvalues --    0.50763   0.50782   0.51264   0.51421   0.51903
 Alpha virt. eigenvalues --    0.52027   0.52101   0.52272   0.52521   0.52742
 Alpha virt. eigenvalues --    0.52966   0.53164   0.53317   0.53732   0.53752
 Alpha virt. eigenvalues --    0.54101   0.54174   0.54196   0.54350   0.54760
 Alpha virt. eigenvalues --    0.54921   0.55187   0.55559   0.55661   0.55847
 Alpha virt. eigenvalues --    0.56286   0.56331   0.56458   0.56785   0.57034
 Alpha virt. eigenvalues --    0.57099   0.57235   0.57328   0.57501   0.57625
 Alpha virt. eigenvalues --    0.57717   0.57874   0.57953   0.58243   0.58430
 Alpha virt. eigenvalues --    0.58508   0.58668   0.58726   0.58922   0.59158
 Alpha virt. eigenvalues --    0.59304   0.59514   0.59683   0.60018   0.60111
 Alpha virt. eigenvalues --    0.60189   0.60375   0.60466   0.60615   0.60695
 Alpha virt. eigenvalues --    0.60879   0.61055   0.61194   0.61405   0.61528
 Alpha virt. eigenvalues --    0.61586   0.61645   0.61827   0.61978   0.62265
 Alpha virt. eigenvalues --    0.62331   0.62595   0.62620   0.62673   0.62930
 Alpha virt. eigenvalues --    0.62986   0.63090   0.63121   0.63321   0.63458
 Alpha virt. eigenvalues --    0.63551   0.63717   0.63817   0.63974   0.64194
 Alpha virt. eigenvalues --    0.64275   0.64389   0.64590   0.64667   0.64737
 Alpha virt. eigenvalues --    0.64914   0.65077   0.65129   0.65229   0.65414
 Alpha virt. eigenvalues --    0.65534   0.65624   0.65686   0.65842   0.65910
 Alpha virt. eigenvalues --    0.65930   0.66022   0.66263   0.66316   0.66430
 Alpha virt. eigenvalues --    0.66543   0.66733   0.66924   0.66936   0.67077
 Alpha virt. eigenvalues --    0.67235   0.67357   0.67425   0.67586   0.67802
 Alpha virt. eigenvalues --    0.67859   0.67930   0.68035   0.68233   0.68307
 Alpha virt. eigenvalues --    0.68553   0.68654   0.68756   0.68824   0.68929
 Alpha virt. eigenvalues --    0.69193   0.69268   0.69277   0.69564   0.69662
 Alpha virt. eigenvalues --    0.69766   0.69834   0.70016   0.70235   0.70355
 Alpha virt. eigenvalues --    0.70488   0.70590   0.70841   0.70882   0.71001
 Alpha virt. eigenvalues --    0.71240   0.71474   0.71614   0.71751   0.71827
 Alpha virt. eigenvalues --    0.71965   0.72125   0.72196   0.72326   0.72541
 Alpha virt. eigenvalues --    0.72611   0.72812   0.73057   0.73091   0.73316
 Alpha virt. eigenvalues --    0.73403   0.73453   0.73687   0.74022   0.74111
 Alpha virt. eigenvalues --    0.74341   0.74432   0.74480   0.74628   0.74939
 Alpha virt. eigenvalues --    0.75285   0.75395   0.75501   0.75779   0.76046
 Alpha virt. eigenvalues --    0.76257   0.76479   0.76639   0.76848   0.76895
 Alpha virt. eigenvalues --    0.77201   0.77691   0.77766   0.77926   0.78149
 Alpha virt. eigenvalues --    0.78559   0.78656   0.78769   0.79109   0.79242
 Alpha virt. eigenvalues --    0.79472   0.79698   0.80172   0.80328   0.80549
 Alpha virt. eigenvalues --    0.80798   0.81080   0.81246   0.81352   0.81813
 Alpha virt. eigenvalues --    0.81942   0.82080   0.82452   0.82910   0.82969
 Alpha virt. eigenvalues --    0.83262   0.83463   0.83649   0.84117   0.84218
 Alpha virt. eigenvalues --    0.84388   0.84919   0.85122   0.85568   0.85857
 Alpha virt. eigenvalues --    0.86265   0.86405   0.86588   0.86959   0.87106
 Alpha virt. eigenvalues --    0.87357   0.88057   0.88139   0.88510   0.88648
 Alpha virt. eigenvalues --    0.88991   0.89202   0.89379   0.89789   0.90139
 Alpha virt. eigenvalues --    0.90157   0.90925   0.91349   0.91431   0.91751
 Alpha virt. eigenvalues --    0.91896   0.92240   0.92439   0.92647   0.92889
 Alpha virt. eigenvalues --    0.93176   0.93374   0.93550   0.93711   0.94176
 Alpha virt. eigenvalues --    0.94339   0.94509   0.94912   0.95170   0.95395
 Alpha virt. eigenvalues --    0.95847   0.96167   0.96295   0.96505   0.96864
 Alpha virt. eigenvalues --    0.97137   0.97444   0.97899   0.98386   0.98712
 Alpha virt. eigenvalues --    0.98833   0.98854   0.99084   0.99436   0.99814
 Alpha virt. eigenvalues --    0.99999   1.00489   1.00610   1.00917   1.01029
 Alpha virt. eigenvalues --    1.01310   1.01595   1.01775   1.02169   1.02573
 Alpha virt. eigenvalues --    1.02875   1.03076   1.03528   1.03748   1.03849
 Alpha virt. eigenvalues --    1.03921   1.04520   1.04738   1.04796   1.05402
 Alpha virt. eigenvalues --    1.05493   1.05764   1.06006   1.06464   1.06638
 Alpha virt. eigenvalues --    1.06841   1.07109   1.07491   1.07775   1.07988
 Alpha virt. eigenvalues --    1.08218   1.08391   1.08696   1.09173   1.09425
 Alpha virt. eigenvalues --    1.09500   1.10237   1.10459   1.11131   1.11356
 Alpha virt. eigenvalues --    1.11503   1.11608   1.11896   1.12311   1.12679
 Alpha virt. eigenvalues --    1.12904   1.12997   1.13257   1.13485   1.13796
 Alpha virt. eigenvalues --    1.14110   1.14442   1.14720   1.15090   1.15159
 Alpha virt. eigenvalues --    1.15738   1.15765   1.15934   1.16148   1.16352
 Alpha virt. eigenvalues --    1.16603   1.16874   1.17098   1.17280   1.17525
 Alpha virt. eigenvalues --    1.17647   1.18009   1.18398   1.18622   1.18799
 Alpha virt. eigenvalues --    1.19059   1.19262   1.19591   1.19709   1.20047
 Alpha virt. eigenvalues --    1.20132   1.20560   1.20791   1.21082   1.21354
 Alpha virt. eigenvalues --    1.21680   1.21842   1.22094   1.22594   1.22736
 Alpha virt. eigenvalues --    1.23224   1.23364   1.23446   1.23808   1.23878
 Alpha virt. eigenvalues --    1.24129   1.24505   1.24670   1.24866   1.25100
 Alpha virt. eigenvalues --    1.25513   1.25829   1.26125   1.26519   1.26581
 Alpha virt. eigenvalues --    1.26780   1.26938   1.27265   1.27564   1.27909
 Alpha virt. eigenvalues --    1.28105   1.28650   1.28876   1.29208   1.29251
 Alpha virt. eigenvalues --    1.29479   1.29920   1.30094   1.30172   1.30762
 Alpha virt. eigenvalues --    1.31151   1.31303   1.31486   1.31827   1.32054
 Alpha virt. eigenvalues --    1.32157   1.32453   1.32914   1.33124   1.33432
 Alpha virt. eigenvalues --    1.33985   1.34310   1.34377   1.34728   1.34914
 Alpha virt. eigenvalues --    1.35093   1.35446   1.35933   1.36230   1.36398
 Alpha virt. eigenvalues --    1.36549   1.36840   1.37068   1.37286   1.37679
 Alpha virt. eigenvalues --    1.38069   1.38233   1.38604   1.38883   1.39251
 Alpha virt. eigenvalues --    1.39725   1.39877   1.40054   1.40243   1.40532
 Alpha virt. eigenvalues --    1.40621   1.40815   1.41158   1.41382   1.41523
 Alpha virt. eigenvalues --    1.41715   1.42047   1.42284   1.42713   1.43107
 Alpha virt. eigenvalues --    1.43443   1.43561   1.43815   1.43921   1.44085
 Alpha virt. eigenvalues --    1.44448   1.44897   1.45301   1.45516   1.45594
 Alpha virt. eigenvalues --    1.46192   1.46409   1.46769   1.47018   1.47159
 Alpha virt. eigenvalues --    1.47825   1.48036   1.48139   1.48580   1.48867
 Alpha virt. eigenvalues --    1.49012   1.49372   1.49645   1.49866   1.49871
 Alpha virt. eigenvalues --    1.50277   1.50493   1.50826   1.51140   1.51214
 Alpha virt. eigenvalues --    1.51800   1.51960   1.52242   1.52615   1.53104
 Alpha virt. eigenvalues --    1.53209   1.53380   1.53659   1.53786   1.54074
 Alpha virt. eigenvalues --    1.54429   1.54683   1.55348   1.55511   1.56042
 Alpha virt. eigenvalues --    1.56286   1.56470   1.57512   1.57656   1.58042
 Alpha virt. eigenvalues --    1.58322   1.58760   1.59179   1.59576   1.59740
 Alpha virt. eigenvalues --    1.60367   1.60669   1.61073   1.61189   1.61464
 Alpha virt. eigenvalues --    1.61632   1.62013   1.62237   1.62556   1.63425
 Alpha virt. eigenvalues --    1.63649   1.64037   1.64214   1.64723   1.65027
 Alpha virt. eigenvalues --    1.65256   1.66146   1.66309   1.66715   1.67075
 Alpha virt. eigenvalues --    1.67223   1.67405   1.67680   1.67795   1.68112
 Alpha virt. eigenvalues --    1.68698   1.68894   1.69239   1.69332   1.69434
 Alpha virt. eigenvalues --    1.69801   1.70188   1.70264   1.70596   1.70750
 Alpha virt. eigenvalues --    1.70930   1.71105   1.71480   1.71673   1.72033
 Alpha virt. eigenvalues --    1.72112   1.72235   1.72295   1.72584   1.72825
 Alpha virt. eigenvalues --    1.72894   1.73125   1.73297   1.73554   1.73690
 Alpha virt. eigenvalues --    1.73776   1.73876   1.74328   1.74452   1.74681
 Alpha virt. eigenvalues --    1.74902   1.75176   1.75218   1.75442   1.75703
 Alpha virt. eigenvalues --    1.75804   1.76177   1.76508   1.76609   1.76729
 Alpha virt. eigenvalues --    1.76836   1.77062   1.77208   1.77233   1.77333
 Alpha virt. eigenvalues --    1.77463   1.77795   1.77992   1.78094   1.78437
 Alpha virt. eigenvalues --    1.78589   1.78763   1.79224   1.79305   1.79432
 Alpha virt. eigenvalues --    1.79641   1.79761   1.80010   1.80141   1.80214
 Alpha virt. eigenvalues --    1.80415   1.80645   1.80868   1.81077   1.81120
 Alpha virt. eigenvalues --    1.81211   1.81400   1.81740   1.81773   1.81937
 Alpha virt. eigenvalues --    1.82232   1.82259   1.82578   1.82702   1.82757
 Alpha virt. eigenvalues --    1.82880   1.83161   1.83447   1.83711   1.83879
 Alpha virt. eigenvalues --    1.84155   1.84253   1.84484   1.84612   1.85005
 Alpha virt. eigenvalues --    1.85271   1.85308   1.85584   1.85872   1.85915
 Alpha virt. eigenvalues --    1.86042   1.86475   1.86530   1.86615   1.86872
 Alpha virt. eigenvalues --    1.86939   1.87255   1.87275   1.87531   1.87742
 Alpha virt. eigenvalues --    1.87872   1.88164   1.88222   1.88407   1.88517
 Alpha virt. eigenvalues --    1.88712   1.89015   1.89093   1.89391   1.89724
 Alpha virt. eigenvalues --    1.89842   1.89980   1.90205   1.90274   1.90552
 Alpha virt. eigenvalues --    1.90673   1.90824   1.91134   1.91284   1.91450
 Alpha virt. eigenvalues --    1.91583   1.91709   1.92036   1.92153   1.92256
 Alpha virt. eigenvalues --    1.92640   1.93008   1.93219   1.93758   1.93854
 Alpha virt. eigenvalues --    1.93962   1.94032   1.94135   1.94666   1.94974
 Alpha virt. eigenvalues --    1.95000   1.95302   1.95430   1.95691   1.95880
 Alpha virt. eigenvalues --    1.96072   1.96274   1.96649   1.96995   1.97081
 Alpha virt. eigenvalues --    1.97412   1.97599   1.97692   1.98020   1.98236
 Alpha virt. eigenvalues --    1.98385   1.98525   1.98840   1.98882   1.99033
 Alpha virt. eigenvalues --    1.99459   1.99671   1.99747   1.99919   2.00295
 Alpha virt. eigenvalues --    2.00570   2.00634   2.00715   2.00788   2.01392
 Alpha virt. eigenvalues --    2.01551   2.01886   2.02318   2.02488   2.02775
 Alpha virt. eigenvalues --    2.02890   2.03184   2.03518   2.03612   2.03759
 Alpha virt. eigenvalues --    2.03945   2.04213   2.04437   2.04583   2.05289
 Alpha virt. eigenvalues --    2.05529   2.05754   2.05859   2.06274   2.06489
 Alpha virt. eigenvalues --    2.06815   2.07049   2.07329   2.07470   2.07620
 Alpha virt. eigenvalues --    2.08156   2.08290   2.08510   2.08799   2.09000
 Alpha virt. eigenvalues --    2.09552   2.09738   2.09860   2.10118   2.10510
 Alpha virt. eigenvalues --    2.10638   2.11174   2.11451   2.11638   2.12041
 Alpha virt. eigenvalues --    2.12313   2.12457   2.12806   2.13142   2.13249
 Alpha virt. eigenvalues --    2.13447   2.13712   2.14247   2.14351   2.14569
 Alpha virt. eigenvalues --    2.14987   2.15289   2.15593   2.15802   2.16134
 Alpha virt. eigenvalues --    2.16300   2.16478   2.16994   2.17432   2.17500
 Alpha virt. eigenvalues --    2.17925   2.18141   2.18584   2.18940   2.19010
 Alpha virt. eigenvalues --    2.19164   2.19461   2.19617   2.19944   2.20087
 Alpha virt. eigenvalues --    2.20217   2.20817   2.20999   2.21418   2.21644
 Alpha virt. eigenvalues --    2.21995   2.22039   2.22294   2.22965   2.23016
 Alpha virt. eigenvalues --    2.23309   2.23606   2.23804   2.24326   2.25241
 Alpha virt. eigenvalues --    2.25435   2.25570   2.25795   2.26277   2.26710
 Alpha virt. eigenvalues --    2.27083   2.27210   2.27425   2.27971   2.28139
 Alpha virt. eigenvalues --    2.28748   2.28885   2.29000   2.29450   2.29882
 Alpha virt. eigenvalues --    2.29992   2.31190   2.31231   2.31838   2.32161
 Alpha virt. eigenvalues --    2.32440   2.32996   2.33441   2.33545   2.33853
 Alpha virt. eigenvalues --    2.34228   2.34530   2.34623   2.35129   2.35571
 Alpha virt. eigenvalues --    2.35741   2.36143   2.36499   2.36629   2.36845
 Alpha virt. eigenvalues --    2.36982   2.37551   2.38099   2.38291   2.38614
 Alpha virt. eigenvalues --    2.38709   2.39051   2.39432   2.39514   2.39891
 Alpha virt. eigenvalues --    2.40189   2.40349   2.40417   2.40954   2.41140
 Alpha virt. eigenvalues --    2.41318   2.41761   2.42184   2.42513   2.42863
 Alpha virt. eigenvalues --    2.43062   2.43596   2.43834   2.43979   2.44489
 Alpha virt. eigenvalues --    2.44777   2.45474   2.45590   2.45780   2.46339
 Alpha virt. eigenvalues --    2.46572   2.46939   2.47048   2.47492   2.47614
 Alpha virt. eigenvalues --    2.47839   2.48604   2.48812   2.49194   2.49403
 Alpha virt. eigenvalues --    2.50134   2.50231   2.51351   2.51486   2.51628
 Alpha virt. eigenvalues --    2.52087   2.52315   2.52830   2.53355   2.53651
 Alpha virt. eigenvalues --    2.54071   2.54201   2.54476   2.54632   2.54920
 Alpha virt. eigenvalues --    2.55279   2.55794   2.56172   2.56783   2.56951
 Alpha virt. eigenvalues --    2.57372   2.57446   2.57961   2.58349   2.58354
 Alpha virt. eigenvalues --    2.58897   2.59033   2.59417   2.59816   2.60071
 Alpha virt. eigenvalues --    2.60418   2.60613   2.60735   2.60990   2.61061
 Alpha virt. eigenvalues --    2.61425   2.61881   2.62140   2.62261   2.62584
 Alpha virt. eigenvalues --    2.63467   2.63680   2.64232   2.64302   2.64558
 Alpha virt. eigenvalues --    2.64829   2.65068   2.65233   2.65354   2.65770
 Alpha virt. eigenvalues --    2.66158   2.66816   2.66872   2.67313   2.67479
 Alpha virt. eigenvalues --    2.67591   2.67922   2.68466   2.68776   2.69074
 Alpha virt. eigenvalues --    2.69416   2.69692   2.69819   2.69985   2.70128
 Alpha virt. eigenvalues --    2.70324   2.70488   2.70823   2.71351   2.71584
 Alpha virt. eigenvalues --    2.71853   2.71882   2.72307   2.72828   2.73420
 Alpha virt. eigenvalues --    2.73634   2.73796   2.74009   2.74278   2.74474
 Alpha virt. eigenvalues --    2.74579   2.75023   2.75235   2.75264   2.75659
 Alpha virt. eigenvalues --    2.76041   2.76314   2.76516   2.76593   2.76729
 Alpha virt. eigenvalues --    2.76879   2.77562   2.77651   2.77830   2.77958
 Alpha virt. eigenvalues --    2.78311   2.78464   2.78947   2.79094   2.79186
 Alpha virt. eigenvalues --    2.79847   2.79967   2.80213   2.80654   2.81202
 Alpha virt. eigenvalues --    2.81612   2.82053   2.82269   2.82734   2.82824
 Alpha virt. eigenvalues --    2.83115   2.83439   2.83718   2.83900   2.84074
 Alpha virt. eigenvalues --    2.84383   2.85008   2.85673   2.85935   2.86440
 Alpha virt. eigenvalues --    2.86778   2.86952   2.87090   2.87406   2.87663
 Alpha virt. eigenvalues --    2.87731   2.87941   2.88178   2.88416   2.88780
 Alpha virt. eigenvalues --    2.89025   2.89210   2.89324   2.89762   2.90044
 Alpha virt. eigenvalues --    2.90321   2.90514   2.90598   2.91375   2.91750
 Alpha virt. eigenvalues --    2.91984   2.92196   2.92478   2.92844   2.93050
 Alpha virt. eigenvalues --    2.93387   2.93510   2.93720   2.93795   2.94417
 Alpha virt. eigenvalues --    2.94684   2.94934   2.95426   2.95749   2.96230
 Alpha virt. eigenvalues --    2.96583   2.96718   2.97157   2.97472   2.97544
 Alpha virt. eigenvalues --    2.97825   2.98151   2.98203   2.98299   2.98501
 Alpha virt. eigenvalues --    2.99053   2.99591   2.99663   3.00724   3.00982
 Alpha virt. eigenvalues --    3.01851   3.02141   3.02506   3.02773   3.03248
 Alpha virt. eigenvalues --    3.03472   3.03568   3.03997   3.04334   3.04716
 Alpha virt. eigenvalues --    3.05177   3.05436   3.06074   3.06685   3.07568
 Alpha virt. eigenvalues --    3.07815   3.08068   3.09072   3.10096   3.10262
 Alpha virt. eigenvalues --    3.10707   3.11001   3.11184   3.11628   3.11684
 Alpha virt. eigenvalues --    3.11869   3.12260   3.12911   3.13404   3.13872
 Alpha virt. eigenvalues --    3.14457   3.14567   3.14723   3.15757   3.15760
 Alpha virt. eigenvalues --    3.15902   3.16049   3.16204   3.16326   3.16694
 Alpha virt. eigenvalues --    3.17011   3.17150   3.17276   3.18239   3.18614
 Alpha virt. eigenvalues --    3.19333   3.19464   3.20114   3.20409   3.20857
 Alpha virt. eigenvalues --    3.20931   3.21308   3.21486   3.21654   3.22055
 Alpha virt. eigenvalues --    3.22652   3.22875   3.23078   3.23122   3.23580
 Alpha virt. eigenvalues --    3.24179   3.25304   3.25572   3.25802   3.25968
 Alpha virt. eigenvalues --    3.26376   3.27053   3.28008   3.28072   3.28356
 Alpha virt. eigenvalues --    3.29573   3.29911   3.31399   3.31797   3.32298
 Alpha virt. eigenvalues --    3.32535   3.33680   3.36708   3.36887   3.38063
 Alpha virt. eigenvalues --    3.42723   3.42944   3.44371   3.47878   3.50830
 Alpha virt. eigenvalues --    3.51019   3.52322   3.53332   3.53843   3.55033
 Alpha virt. eigenvalues --    3.55199   3.56005   3.56703   3.57933   3.59900
 Alpha virt. eigenvalues --    3.60079   3.61688   3.62188   3.63622   3.63975
 Alpha virt. eigenvalues --    3.64740   3.65260   3.65454   3.65848   3.67437
 Alpha virt. eigenvalues --    3.67924   3.68275   3.69014   3.69542   3.70113
 Alpha virt. eigenvalues --    3.70610   3.70889   3.71755   3.71785   3.72427
 Alpha virt. eigenvalues --    3.72487   3.72763   3.73276   3.74658   3.74858
 Alpha virt. eigenvalues --    3.75158   3.77503   3.79259   3.82036
          Condensed to atoms (all electrons):
 Mulliken charges:
               1
     1  C    0.038834
     2  C    0.047231
     3  O   -0.307763
     4  H    0.031610
     5  H    0.049630
     6  H   -0.017627
     7  N   -0.104362
     8  C    0.126410
     9  C    0.054149
    10  O   -0.291504
    11  C    0.035238
    12  C    0.168656
    13  O   -0.384154
    14  O   -0.446590
    15  H    0.121720
    16  H    0.017951
    17  H   -0.000864
    18  H    0.010128
    19  N   -0.146902
    20  C    0.152264
    21  C    0.062378
    22  O   -0.305077
    23  C    0.045679
    24  C   -0.047243
    25  C    0.002817
    26  C   -0.012584
    27  N    0.092522
    28  H    0.146117
    29  H   -0.011216
    30  H    0.007093
    31  H    0.008605
    32  H    0.007009
    33  H    0.037655
    34  H    0.043931
    35  H    0.001036
    36  H    0.039597
    37  H    0.108460
    38  H    0.184835
    39  H    0.194273
    40  H    0.190771
    41  N   -0.119576
    42  C    0.140052
    43  C    0.074617
    44  O   -0.269471
    45  C    0.055167
    46  C    0.086013
    47  O   -0.374005
    48  O   -0.483146
    49  H    0.132097
    50  H    0.019566
    51  H    0.000830
    52  H    0.005828
    53  N   -0.181028
    54  C    0.233118
    55  C    0.057366
    56  O   -0.285078
    57  H    0.140405
    58  H    0.006814
    59  H    0.018725
    60  N   -0.161745
    61  C    0.154395
    62  C    0.031942
    63  O   -0.287393
    64  C    0.135289
    65  C    0.035135
    66  N   -0.008361
    67  O   -0.392859
    68  H    0.130766
    69  H    0.037705
    70  H    0.071962
    71  H   -0.019221
    72  H    0.138329
    73  H    0.123053
    74  N   -0.156655
    75  C    0.252403
    76  C    0.004117
    77  O   -0.299156
    78  H    0.143079
    79  H    0.041275
    80  H    0.038770
    81  N   -0.122971
    82  C    0.110782
    83  C    0.160006
    84  O   -0.355046
    85  C    0.132395
    86  C   -0.002066
    87  C   -0.029178
    88  C    0.003225
    89  C   -0.029675
    90  C   -0.042502
    91  C    0.161205
    92  O   -0.180848
    93  H    0.137710
    94  H   -0.009706
    95  H   -0.040890
    96  H   -0.034432
    97  H   -0.019475
    98  H   -0.044577
    99  H   -0.006407
   100  H   -0.042674
   101  H    0.171650
   102  N   -0.120154
   103  C    0.155247
   104  C    0.051612
   105  O   -0.282683
   106  C   -0.060890
   107  C   -0.009406
   108  C    0.038162
   109  C    0.033496
   110  H    0.138818
   111  H    0.006944
   112  H   -0.012264
   113  H    0.013107
   114  H    0.032105
   115  H    0.019318
   116  H    0.025645
   117  H   -0.001685
   118  H    0.003553
   119  H    0.005433
   120  H    0.001303
   121  N   -0.126460
   122  C    0.094132
   123  C    0.120423
   124  O   -0.278214
   125  C    0.200216
   126  O   -0.273766
   127  H    0.155631
   128  H    0.027599
   129  H   -0.007424
   130  H   -0.015445
   131  H    0.171422
   132  N   -0.123247
   133  C    0.114149
   134  C    0.028059
   135  O   -0.255303
   136  C    0.002655
   137  H    0.115087
   138  H    0.028871
   139  H    0.047552
   140  H    0.034589
   141  H    0.013025
   142  N   -0.128727
   143  C    0.088831
   144  C    0.055884
   145  O   -0.287496
   146  C    0.070420
   147  H    0.087876
   148  H    0.022950
   149  H    0.019757
   150  H    0.041279
   151  H    0.004466
   152  N   -0.164303
   153  C    0.157003
   154  C    0.106007
   155  O   -0.320868
   156  C   -0.072519
   157  C    0.131999
   158  C    0.111025
   159  O   -0.433196
   160  O   -0.415127
   161  H    0.127423
   162  H   -0.012950
   163  H    0.049363
   164  H   -0.018787
   165  H   -0.011300
   166  H   -0.015436
   167  N   -0.147566
   168  C    0.130960
   169  H    0.020156
   170  H    0.024475
   171  H    0.010266
   172  H    0.132688
   173  Ca   1.292420
   174  O   -0.277491
   175  H    0.188593
   176  H    0.182353
 Sum of Mulliken charges =  -0.00000
 Mulliken charges with hydrogens summed into heavy atoms:
               1
     1  C    0.102447
     2  C    0.047231
     3  O   -0.307763
     7  N    0.017358
     8  C    0.144361
     9  C    0.054149
    10  O   -0.291504
    11  C    0.044502
    12  C    0.168656
    13  O   -0.384154
    14  O   -0.446590
    19  N   -0.000785
    20  C    0.141048
    21  C    0.062378
    22  O   -0.305077
    23  C    0.061376
    24  C   -0.002578
    25  C    0.047785
    26  C    0.135474
    27  N    0.662401
    41  N    0.012521
    42  C    0.159617
    43  C    0.074617
    44  O   -0.269471
    45  C    0.061826
    46  C    0.086013
    47  O   -0.374005
    48  O   -0.483146
    53  N   -0.040623
    54  C    0.258657
    55  C    0.057366
    56  O   -0.285078
    60  N   -0.030980
    61  C    0.192100
    62  C    0.031942
    63  O   -0.287393
    64  C    0.188030
    65  C    0.035135
    66  N    0.253021
    67  O   -0.392859
    74  N   -0.013575
    75  C    0.332448
    76  C    0.004117
    77  O   -0.299156
    81  N    0.014740
    82  C    0.101076
    83  C    0.160006
    84  O   -0.355046
    85  C    0.057074
    86  C   -0.002066
    87  C   -0.048653
    88  C   -0.041351
    89  C   -0.036082
    90  C   -0.085177
    91  C    0.161205
    92  O   -0.009198
   102  N    0.018664
   103  C    0.162191
   104  C    0.051612
   105  O   -0.282683
   106  C   -0.073153
   107  C    0.035806
   108  C    0.081440
   109  C    0.043784
   121  N    0.029171
   122  C    0.121731
   123  C    0.120423
   124  O   -0.278214
   125  C    0.177347
   126  O   -0.102344
   132  N   -0.008160
   133  C    0.143019
   134  C    0.028059
   135  O   -0.255303
   136  C    0.097821
   142  N   -0.040851
   143  C    0.111781
   144  C    0.055884
   145  O   -0.287496
   146  C    0.135922
   152  N   -0.036880
   153  C    0.144053
   154  C    0.106007
   155  O   -0.320868
   156  C   -0.041944
   157  C    0.105262
   158  C    0.111025
   159  O   -0.433196
   160  O   -0.415127
   167  N   -0.014879
   168  C    0.185856
   173  Ca   1.292420
   174  O    0.093454
 DipInt: DoE/N= T F RetVal/Mat= T F Init=T NMatP=  1 IDeriv=0 Min/MaxMlt=  0  4
 Entering OneElI...
 OneElI was handed  1333951383 working-precision words.
 Multipole integrals L=0 to 4 MinM= 0 MaxM= 0.
 Requested accuracy = 0.1000D-12
 ShPair: Thresh= 1.00D-13 NBox=     0 BxSize= 0.00D+00 RnKept= 2.55D+01
         NSMCal=               327645 NSMKep=              164205
 PrmmSu-InSpLW:  IPartL=    0 NPrtUS=    1 NPrtUL=    1 DoSpLW=F IThBeg=    0 IThEnd=    0 NThAct=    1.
 PrsmSu:  NPrtUS=   1 ThrOK=F IAlg=1 NPAlg=1 LenDen=           0 ISkipM=0 DoSpLW=F IThBeg=    0 IThEnd=    0.
 Prism:   IPart=     0 DynPar=F LinDyn=F Incr=         512.
 PRISM was handed  1323727727 working-precision words and164205 shell-pairs
 IPart=  0 NShTot=      164205 NBatch=         377 AvBLen=       435.6
 PrsmSu-ThDecC:  IPartSL=    0    0 NPrtUSL=    1    1 IThBeg=    0 IThEnd=    0 CPU=   -1 GPU=   -1 NThAct=    1.
 PrSmSu:  NxtVal=            513.
 Electronic moments (au):
       -716.00000000        -12.87683008          3.42621493          1.28131963
     -50892.13568730     -30265.86361330     -12117.00398882         75.26019352
         14.71113864        -98.96335636      80381.97738488     -12429.32538046
     -11307.09566418     -57853.36789837     -79113.71924013      41315.88660821
      13370.55239013      14620.65599150      -7002.24208880     -42831.33612226
   -7035650.73704857   -3066072.85168920    -546001.38628365     307478.58087417
    -386422.65378825    -710391.49599549     -72460.83263875      72702.48151955
      43027.03612960   -1998887.33310837    -684293.78605978    -378806.82278202
      45655.76035603      20059.80487091      48769.50013533
 Electronic spatial extent (au):  <R**2>=          93275.0033
 DipInt: DoE/N= F T RetVal/Mat= T F Init=T NMatP=  1 IDeriv=0 Min/MaxMlt=  0  4
 Nuclear    moments (au):
        716.00000000          0.00000000         -0.00000000          0.00000000
      50404.51726336      29924.89165427      11733.81502286          0.00000000
          0.00000000         -0.00000000     -81619.69881480      12280.39502397
      11438.42709399      56205.35882214      79369.14493560     -41316.79398738
     -13860.23931935     -14614.65566979       7572.82990944      43166.20476864
    6833082.35149249    2975867.62869318     505337.17304088    -304503.34378984
     388813.09873154     726598.06429553      64160.48347042     -71673.99704359
     -48018.27355284    1958915.69293978     651037.68146725     357699.77894509
     -53108.59278640     -21514.58695412     -46804.59247872
 Total      moments (au):
         -0.00000000        -12.87683008          3.42621493          1.28131963
       -487.61842394       -340.97195903       -383.18896596         75.26019352
         14.71113864        -98.96335636      -1237.72142992       -148.93035648
        131.33142981      -1648.00907623        255.42569547         -0.90737917
       -489.68692922          6.00032171        570.58782064        334.86864638
    -202568.38555608     -90205.22299602     -40664.21324277       2975.23708433
       2390.44494328      16206.56830004      -8300.34916833       1028.48447595
      -4991.23742324     -39971.64016860     -33256.10459252     -21107.04383693
      -7452.83243036      -1454.78208321       1964.90765661
 Traceless Quadrup. (au):
        -83.69197430         62.95449061         20.73748368         75.26019352
         14.71113864        -98.96335636
 Charge=             -0.0000 electrons
 Dipole moment (field-independent basis, Debye):
    X=            -32.7296    Y=              8.7086    Z=              3.2568  Tot=             34.0246
 Quadrupole moment (field-independent basis, Debye-Ang):
   XX=           -655.8635   YY=           -458.6190   ZZ=           -515.4023
   XY=            101.2275   XZ=             19.7870   YZ=           -133.1091
 Traceless Quadrupole moment (field-independent basis, Debye-Ang):
   XX=           -112.5686   YY=             84.6759   ZZ=             27.8926
   XY=            101.2275   XZ=             19.7870   YZ=           -133.1091
 Octapole moment (field-independent basis, Debye-Ang**2):
  XXX=           -880.9624  YYY=           -106.0029  ZZZ=             93.4767  XYY=          -1172.9894
  XXY=            181.8022  XXZ=             -0.6458  XZZ=           -348.5403  YZZ=              4.2708
  YYZ=            406.1224  XYZ=            238.3466
 Hexadecapole moment (field-independent basis, Debye-Ang**3):
 XXXX=         -76296.9675 YYYY=         -33975.6125 ZZZZ=         -15316.0926 XXXY=           1120.6170
 XXXZ=            900.3562 YYYX=           6104.1708 YYYZ=          -3126.3095 ZZZX=            387.3766
 ZZZY=          -1879.9394 XXYY=         -15055.2364 XXZZ=         -12525.8437 YYZZ=          -7949.9248
 XXYZ=          -2807.0941 YYXZ=           -547.9407 ZZXY=            740.0784
 N-N= 2.182190129345D+04 E-N=-5.612228989943D+04  KE= 5.290323708516D+03
 Leave Link  601 at Sat Sep 14 22:38:40 2019, MaxMem=  1342177280 cpu:              47.5 elap:               1.2
 FitSet:  NAtFit=   176 NAtPot=   176 NAtFrz=     0 MDM=   180 TotChg=   0.00000
 Merz-Kollman atomic radii used.
 Read replacement radii for each type of atom:
 Rad(20) =   1.700000000000D+00
 Atom Element Radius
    1     6    1.50
    2     6    1.50
    3     8    1.40
    4     1    1.20
    5     1    1.20
    6     1    1.20
    7     7    1.50
    8     6    1.50
    9     6    1.50
   10     8    1.40
   11     6    1.50
   12     6    1.50
   13     8    1.40
   14     8    1.40
   15     1    1.20
   16     1    1.20
   17     1    1.20
   18     1    1.20
   19     7    1.50
   20     6    1.50
   21     6    1.50
   22     8    1.40
   23     6    1.50
   24     6    1.50
   25     6    1.50
   26     6    1.50
   27     7    1.50
   28     1    1.20
   29     1    1.20
   30     1    1.20
   31     1    1.20
   32     1    1.20
   33     1    1.20
   34     1    1.20
   35     1    1.20
   36     1    1.20
   37     1    1.20
   38     1    1.20
   39     1    1.20
   40     1    1.20
   41     7    1.50
   42     6    1.50
   43     6    1.50
   44     8    1.40
   45     6    1.50
   46     6    1.50
   47     8    1.40
   48     8    1.40
   49     1    1.20
   50     1    1.20
   51     1    1.20
   52     1    1.20
   53     7    1.50
   54     6    1.50
   55     6    1.50
   56     8    1.40
   57     1    1.20
   58     1    1.20
   59     1    1.20
   60     7    1.50
   61     6    1.50
   62     6    1.50
   63     8    1.40
   64     6    1.50
   65     6    1.50
   66     7    1.50
   67     8    1.40
   68     1    1.20
   69     1    1.20
   70     1    1.20
   71     1    1.20
   72     1    1.20
   73     1    1.20
   74     7    1.50
   75     6    1.50
   76     6    1.50
   77     8    1.40
   78     1    1.20
   79     1    1.20
   80     1    1.20
   81     7    1.50
   82     6    1.50
   83     6    1.50
   84     8    1.40
   85     6    1.50
   86     6    1.50
   87     6    1.50
   88     6    1.50
   89     6    1.50
   90     6    1.50
   91     6    1.50
   92     8    1.40
   93     1    1.20
   94     1    1.20
   95     1    1.20
   96     1    1.20
   97     1    1.20
   98     1    1.20
   99     1    1.20
  100     1    1.20
  101     1    1.20
  102     7    1.50
  103     6    1.50
  104     6    1.50
  105     8    1.40
  106     6    1.50
  107     6    1.50
  108     6    1.50
  109     6    1.50
  110     1    1.20
  111     1    1.20
  112     1    1.20
  113     1    1.20
  114     1    1.20
  115     1    1.20
  116     1    1.20
  117     1    1.20
  118     1    1.20
  119     1    1.20
  120     1    1.20
  121     7    1.50
  122     6    1.50
  123     6    1.50
  124     8    1.40
  125     6    1.50
  126     8    1.40
  127     1    1.20
  128     1    1.20
  129     1    1.20
  130     1    1.20
  131     1    1.20
  132     7    1.50
  133     6    1.50
  134     6    1.50
  135     8    1.40
  136     6    1.50
  137     1    1.20
  138     1    1.20
  139     1    1.20
  140     1    1.20
  141     1    1.20
  142     7    1.50
  143     6    1.50
  144     6    1.50
  145     8    1.40
  146     6    1.50
  147     1    1.20
  148     1    1.20
  149     1    1.20
  150     1    1.20
  151     1    1.20
  152     7    1.50
  153     6    1.50
  154     6    1.50
  155     8    1.40
  156     6    1.50
  157     6    1.50
  158     6    1.50
  159     8    1.40
  160     8    1.40
  161     1    1.20
  162     1    1.20
  163     1    1.20
  164     1    1.20
  165     1    1.20
  166     1    1.20
  167     7    1.50
  168     6    1.50
  169     1    1.20
  170     1    1.20
  171     1    1.20
  172     1    1.20
  173    20    1.70
  174     8    1.40
  175     1    1.20
  176     1    1.20
 Generate VDW surfaces: Layer= 4 Dens= 6 Start= 1.400 Inc= 0.200

[...]
 **** Fit      -0.016033
 **** Fit      -0.008591
 **** Fit       0.000421
 **** Fit       0.010709
 **** Fit      -0.016084
 **** Fit      -0.006389
 **** Fit       0.007951
 **** Fit       0.009581
 **** Fit       0.010518
 **** Fit       0.009850
 **** Fit       0.009788
 **** Fit       0.008128
 **** Fit       0.006522
 **** Fit       0.004424
 **** Fit       0.001511
 **** Fit      -0.002421
 **** Fit       0.006897
 **** Fit       0.004113
 **** Fit       0.000797
 **** Fit      -0.003560
 **** Fit      -0.009379
 **** Fit       0.004377
 **** Fit       0.000371
 **** Fit      -0.004530
 **** Fit      -0.010892
 **** Fit      -0.002962
 **** Fit      -0.009781
 **** Fit      -0.020031
 **** Fit      -0.025800
 **** Fit      -0.033035
 **** Fit      -0.014807
 **** Fit      -0.018463
 **** Fit      -0.022885
 **** Fit      -0.028260
 **** Fit      -0.034622
 **** Fit      -0.008344
 **** Fit      -0.012232
 **** Fit      -0.015899
 **** Fit      -0.019724
 **** Fit      -0.023993
 **** Fit      -0.028820
 **** Fit      -0.034066
 **** Fit      -0.039194
 **** Fit       0.001185
 **** Fit      -0.004674
 **** Fit      -0.009664
 **** Fit      -0.014059
 **** Fit      -0.018191
 **** Fit      -0.022354
 **** Fit      -0.026653
 **** Fit      -0.030839
 **** Fit      -0.034113
 **** Fit      -0.034902
 **** Fit      -0.008590
 **** Fit       0.004950
 **** Fit       0.019687
 **** Fit       0.015712
 **** Fit       0.010972
 **** Fit       0.004822
 **** Fit      -0.001807
 **** Fit      -0.007883
 **** Fit      -0.013187
 **** Fit      -0.017912
 **** Fit      -0.022232
 **** Fit      -0.025918
 **** Fit      -0.027991
 **** Fit      -0.026634
 **** Fit      -0.020075
 **** Fit      -0.009039
 **** Fit       0.001983
 **** Fit       0.009287
 **** Fit       0.010324
 **** Fit       0.007316
 **** Fit       0.002090
 **** Fit      -0.004419
 **** Fit      -0.010788
 **** Fit      -0.016215
 **** Fit      -0.020241
 **** Fit      -0.021598
 **** Fit      -0.018090
 **** Fit      -0.008773
 **** Fit      -0.000725
 **** Fit      -0.000535
 **** Fit      -0.006476
 **** Fit      -0.012961
 **** Fit      -0.014922
 **** Fit      -0.007922
 **** Fit      -0.002937
 **** Fit       0.011439
 **** Fit       0.004941
 **** Fit       0.018768
 **** Fit       0.015837
 **** Fit       0.008292
 **** Fit       0.016761
 **** Fit       0.011164
 **** Fit       0.008117
 **** Fit       0.005960
 **** Fit       0.000593
 **** Fit       0.004893
 **** Fit      -0.001424
 **** Fit       0.003170
 **** Fit       0.012230
 **** Fit       0.004414
 **** Fit       0.010021
 **** Fit       0.007615
 **** Fit       0.010623
 **** Fit       0.014064
 **** Fit       0.009618
 **** Fit       0.011280
 **** Fit       0.013250
 **** Fit       0.010196
 **** Fit       0.010794
 **** Fit       0.011426
 **** Fit       0.011390
 **** Fit       0.010306
 **** Fit       0.009194
 **** Fit       0.008788
 **** Fit       0.007601
 **** Fit       0.005312
 **** Fit      -0.023989
 **** Fit      -0.025070
 **** Fit      -0.030049
 **** Fit      -0.030428
 **** Fit       0.004813
 **** Fit       0.005670
 **** Fit       0.005146
 **** Fit       0.004204
 **** Fit       0.003648
 **** Fit       0.006320
 **** Fit       0.005972
 **** Fit       0.005456
 **** Fit       0.004744
 **** Fit       0.003716
 **** Fit       0.002541
 **** Fit       0.002017
 **** Fit       0.006837
 **** Fit       0.006532
 **** Fit       0.006132
 **** Fit       0.005678
 **** Fit       0.005168
 **** Fit      -0.000330
 **** Fit       0.000390
 **** Fit       0.007430
 **** Fit       0.007187
 **** Fit       0.006848
 **** Fit       0.006419
 **** Fit       0.005965
 **** Fit       0.005549
 **** Fit      -0.003762
 **** Fit      -0.003204
 **** Fit       0.007834
 **** Fit       0.007607
 **** Fit       0.007269
 **** Fit       0.006822
 **** Fit       0.006317
 **** Fit       0.005836
 **** Fit       0.005451
 **** Fit      -0.008947
 **** Fit      -0.008282
 **** Fit      -0.005839
 **** Fit       0.008429
 **** Fit       0.008326
 **** Fit       0.008139
 **** Fit       0.007812
 **** Fit       0.007331
 **** Fit       0.006732
 **** Fit       0.006095
 **** Fit       0.005519
 **** Fit       0.005089
 **** Fit      -0.009114
 **** Fit       0.008895
 **** Fit       0.008873
 **** Fit       0.008740
 **** Fit       0.008439
 **** Fit       0.007943
 **** Fit       0.007269
 **** Fit       0.006481
 **** Fit       0.005680
 **** Fit       0.004974
 **** Fit       0.004454
 **** Fit       0.009339
 **** Fit       0.009481
 **** Fit       0.009516
 **** Fit       0.005576
 **** Fit       0.004609
 **** Fit       0.003823
 **** Fit       0.010021
 **** Fit       0.010257
 **** Fit       0.003107
 **** Fit       0.002270
 **** Fit       0.009956
 **** Fit       0.010598
 **** Fit       0.011051
 **** Fit       0.000627
 **** Fit      -0.000102
 **** Fit       0.009424
 **** Fit       0.010600
 **** Fit       0.011549
 **** Fit      -0.001533
 **** Fit      -0.002446
 **** Fit       0.009597
 **** Fit       0.011364
 **** Fit       0.012698
 **** Fit      -0.005420
 **** Fit      -0.006211
 **** Fit       0.012109
 **** Fit       0.013983
 **** Fit      -0.009227
 **** Fit      -0.010083
 **** Fit      -0.010883
 **** Fit      -0.014219
 **** Fit      -0.015021
 **** Fit      -0.015885
 **** Fit      -0.016982
 **** Fit      -0.018485
 **** Fit      -0.020485
 **** Fit      -0.020937
 **** Fit      -0.021582
 **** Fit      -0.022596
 **** Fit       0.008486
 **** Fit       0.007844
 **** Fit       0.007068
 **** Fit       0.009545
 **** Fit       0.009087
 **** Fit       0.008385
 **** Fit       0.007509
 **** Fit       0.006544
 **** Fit       0.005572
 **** Fit       0.010493
 **** Fit       0.010294
 **** Fit       0.009774
 **** Fit       0.008986
 **** Fit       0.008003
 **** Fit       0.006905
 **** Fit       0.005763
 **** Fit       0.004643
 **** Fit       0.003607
 **** Fit       0.011439
 **** Fit       0.011349
 **** Fit       0.010836
 **** Fit       0.009962
 **** Fit       0.008823
 **** Fit       0.007517
 **** Fit       0.006135
 **** Fit       0.004747
 **** Fit       0.003409
 **** Fit       0.002170
 **** Fit       0.012539
 **** Fit       0.012614
 **** Fit       0.012128
 **** Fit       0.011153
 **** Fit       0.009816
 **** Fit       0.008251
 **** Fit       0.006578
 **** Fit       0.004888
 **** Fit       0.003247
 **** Fit       0.001695
 **** Fit       0.000264
 **** Fit      -0.001022
 **** Fit       0.013941
 **** Fit       0.014109
 **** Fit       0.013490
 **** Fit       0.012197
 **** Fit       0.010424
 **** Fit       0.008379
 **** Fit       0.006234
 **** Fit       0.004110
 **** Fit       0.002085
 **** Fit       0.000199
 **** Fit      -0.001530
 **** Fit      -0.003098
 **** Fit      -0.004505
 **** Fit       0.014877
 **** Fit       0.015934
 **** Fit       0.015718
 **** Fit       0.014304
 **** Fit       0.011995
 **** Fit       0.009185
 **** Fit       0.006215
 **** Fit       0.003313
 **** Fit       0.000609
 **** Fit      -0.001840
 **** Fit      -0.004025
 **** Fit      -0.005967
 **** Fit      -0.007698
 **** Fit      -0.009256
 **** Fit       0.009065
 **** Fit       0.004684
 **** Fit       0.000574
 **** Fit      -0.003074
 **** Fit      -0.006210
 **** Fit      -0.008867
 **** Fit      -0.011124
 **** Fit      -0.013076
 **** Fit      -0.014823
 **** Fit       0.003518
 **** Fit       0.004354
 **** Fit       0.003434
 **** Fit       0.002175
 **** Fit       0.005149
 **** Fit       0.004864
 **** Fit       0.004343
 **** Fit       0.003355
 **** Fit       0.001799
 **** Fit       0.000220
 **** Fit      -0.000270
 **** Fit       0.005343
 **** Fit       0.005057
 **** Fit       0.004726
 **** Fit       0.004180
 **** Fit       0.003187
 **** Fit       0.001564
 **** Fit      -0.000603
 **** Fit      -0.002709
 **** Fit      -0.003772
 **** Fit       0.005072
 **** Fit       0.004812
 **** Fit       0.004537
 **** Fit       0.004086
 **** Fit       0.003242
 **** Fit       0.001759
 **** Fit      -0.000546
 **** Fit      -0.003579
 **** Fit      -0.006717
 **** Fit      -0.008838
 **** Fit       0.004638
 **** Fit       0.004375
 **** Fit       0.004159
 **** Fit       0.003853
 **** Fit       0.003272
 **** Fit       0.002170
 **** Fit       0.000242
 **** Fit      -0.002798
 **** Fit      -0.006998
 **** Fit       0.003872
 **** Fit       0.003583
 **** Fit       0.003383
 **** Fit       0.003154
 **** Fit       0.002748
 **** Fit       0.001960
 **** Fit       0.000504
 **** Fit      -0.002003
 **** Fit      -0.005983
 **** Fit       0.002751
 **** Fit       0.002398
 **** Fit       0.002169
 **** Fit       0.001940
 **** Fit       0.001562
 **** Fit       0.000832
 **** Fit      -0.000552
 **** Fit      -0.003044
 **** Fit      -0.007276
 **** Fit       0.001203
 **** Fit       0.000774
 **** Fit       0.000494
 **** Fit       0.000230
 **** Fit      -0.000162
 **** Fit      -0.000875
 **** Fit      -0.002199
 **** Fit      -0.004602
 **** Fit      -0.001143
 **** Fit      -0.001557
 **** Fit      -0.001882
 **** Fit      -0.002266
 **** Fit      -0.002875
 **** Fit      -0.003950
 **** Fit      -0.005878
 **** Fit      -0.009313
 **** Fit      -0.004151
 **** Fit      -0.004587
 **** Fit      -0.005042
 **** Fit      -0.005697
 **** Fit      -0.006790
 **** Fit      -0.008702
 **** Fit      -0.012114
 **** Fit      -0.008212
 **** Fit      -0.008824
 **** Fit      -0.009757
 **** Fit      -0.011306
 **** Fit      -0.013985
 **** Fit      -0.013445
 **** Fit      -0.014676
 **** Fit      -0.016686
 **** Fit       0.005844
 **** Fit       0.005990
 **** Fit       0.006629
 **** Fit       0.006504
 **** Fit       0.005801
 **** Fit       0.004903
 **** Fit       0.004917
 **** Fit       0.006283
 **** Fit       0.007012
 **** Fit       0.007252
 **** Fit       0.007234
 **** Fit       0.007005
 **** Fit       0.006553
 **** Fit       0.003133
 **** Fit       0.003552
 **** Fit       0.004919
 **** Fit       0.007504
 **** Fit       0.007664
 **** Fit       0.007705
 **** Fit       0.007698
 **** Fit       0.007613
 **** Fit       0.007419
 **** Fit       0.007102
 **** Fit       0.001482
 **** Fit       0.003279
 **** Fit       0.007992
 **** Fit       0.007975
 **** Fit       0.008001
 **** Fit       0.007993
 **** Fit       0.007909
 **** Fit       0.007733
 **** Fit      -0.002025
 **** Fit       0.000337
 **** Fit       0.008021
 **** Fit       0.008097
 **** Fit       0.008214
 **** Fit       0.008292
 **** Fit       0.008290
 **** Fit       0.008199
 **** Fit      -0.004979
 **** Fit       0.007923
 **** Fit       0.008155
 **** Fit       0.008393
 **** Fit       0.008580
 **** Fit       0.008676
 **** Fit       0.008676
 **** Fit       0.007980
 **** Fit       0.008375
 **** Fit       0.008744
 **** Fit       0.009020
 **** Fit       0.009175
 **** Fit       0.008224
 **** Fit       0.008773
 **** Fit       0.009269
 **** Fit       0.008802
 **** Fit       0.009537
 **** Fit       0.009103
 **** Fit       0.011250
 **** Fit      -0.000486
 **** Fit      -0.026184
 **** Fit       0.007848
 **** Fit      -0.001929
 **** Fit      -0.017024
 **** Fit      -0.032117
 **** Fit      -0.003424
 **** Fit       0.004909
 **** Fit      -0.006261
 **** Fit      -0.023973
 **** Fit      -0.014278
 **** Fit       0.056146
 **** Fit       0.057207
 **** Fit       0.051207
 **** Fit       0.053479
 **** Fit       0.055727
 **** Fit       0.058160
 **** Fit       0.060566
 **** Fit       0.062636
 **** Fit       0.064194
 **** Fit       0.065257
 **** Fit       0.065938
 **** Fit       0.027435
 **** Fit       0.014391
 **** Fit       0.021134
 **** Fit       0.034422
 **** Fit       0.040527
 **** Fit       0.045233
 **** Fit       0.048711
 **** Fit       0.051541
 **** Fit       0.054132
 **** Fit       0.056529
 **** Fit       0.058579
 **** Fit       0.060143
 **** Fit       0.061171
 **** Fit       0.061627
 **** Fit       0.061317
 **** Fit       0.059680
 **** Fit       0.055738
 **** Fit       0.048764
 **** Fit       0.039413
 **** Fit       0.029622
 **** Fit       0.021324
 **** Fit       0.015593
 **** Fit       0.012405
 **** Fit       0.010867
 **** Fit       0.010032
 **** Fit       0.009802
 **** Fit       0.011053
 **** Fit       0.014663
 **** Fit       0.020466
 **** Fit       0.027429
 **** Fit       0.033794
 **** Fit       0.039342
 **** Fit       0.043853
 **** Fit       0.047431
 **** Fit       0.050392
 **** Fit       0.052909
 **** Fit       0.054945
 **** Fit       0.056386
 **** Fit       0.057105
 **** Fit       0.056896
 **** Fit       0.055336
 **** Fit       0.051790
 **** Fit       0.045916
 **** Fit       0.038379
 **** Fit       0.030714
 **** Fit       0.024345
 **** Fit       0.019873
 **** Fit       0.017089
 **** Fit       0.015612
 **** Fit       0.015587
 **** Fit       0.017614
 **** Fit       0.021878
 **** Fit       0.027654
 **** Fit       0.034231
 **** Fit       0.039393
 **** Fit       0.043732
 **** Fit       0.047205
 **** Fit       0.049910
 **** Fit       0.051810
 **** Fit       0.052730
 **** Fit       0.052376
 **** Fit       0.050302
 **** Fit       0.046124
 **** Fit       0.040139
 **** Fit       0.033608
 **** Fit       0.027986
 **** Fit       0.024049
 **** Fit       0.021977
 **** Fit       0.021990
 **** Fit       0.024392
 **** Fit       0.028845
 **** Fit       0.035405
 **** Fit       0.040431
 **** Fit       0.044551
 **** Fit       0.047321
 **** Fit       0.048392
 **** Fit       0.047246
 **** Fit       0.043502
 **** Fit       0.037837
 **** Fit       0.032262
 **** Fit       0.028676
 **** Fit       0.028073
 **** Fit       0.030672
 **** Fit       0.037051
 **** Fit       0.041851
 **** Fit       0.043844
 **** Fit       0.041147
 **** Fit       0.035851
 **** Fit       0.033754
 **** Fit       0.038994
 **** Fit       0.048458
 **** Fit       0.051102
 **** Fit       0.053746
 **** Fit       0.049671
 **** Fit       0.052444
 **** Fit       0.055472
 **** Fit       0.045960
 **** Fit       0.048413
 **** Fit       0.051093
 **** Fit       0.053940
 **** Fit       0.057073
 **** Fit       0.046918
 **** Fit       0.047336
 **** Fit       0.048937
 **** Fit       0.051179
 **** Fit       0.053796
 **** Fit       0.056727
 **** Fit       0.060055
 **** Fit       0.051110
 **** Fit       0.049938
 **** Fit       0.050489
 **** Fit       0.052085
 **** Fit       0.054318
 **** Fit       0.056994
 **** Fit       0.060071
 **** Fit       0.055419
 **** Fit       0.053042
 **** Fit       0.052522
 **** Fit       0.053308
 **** Fit       0.054965
 **** Fit       0.057212
 **** Fit       0.059907
 **** Fit       0.063001
 **** Fit       0.055608
 **** Fit       0.054754
 **** Fit       0.055195
 **** Fit       0.056618
 **** Fit       0.058740
 **** Fit       0.061374
 **** Fit       0.064397
 **** Fit       0.056971
 **** Fit       0.057151
 **** Fit       0.058335
 **** Fit       0.060302
 **** Fit       0.062831
 **** Fit       0.065718
 **** Fit       0.059573
 **** Fit       0.060701
 **** Fit       0.062753
 **** Fit       0.065433
 -----------------------------------------------------------------
 Leave Link  602 at Sat Sep 14 22:38:42 2019, MaxMem=  1342177280 cpu:             101.8 elap:               2.2

 Test job not archived.
 1\1\GINC-C476-001\SP\RB3LYP\SVP\C54H83Ca1N15O23\PENGZHI\14-Sep-2019\0\
 \#b3lyp/svp scf=(tight,noincore) Test #IOP(5/87=12) Density=Current Po
 p=(MK,readradii) iop(6/33=2) iop(6/42=6)\\holoCaM_loop3_63.0\\0,1\C,0,
 67.31,50.12,0.29\C,0,67.9,50.29,1.69\O,0,68.42,49.32,2.24\H,0,66.421,5
 0.743,0.193\H,0,68.047,50.421,-0.455\H,0,67.04,49.076,0.133\N,0,67.7,5
 1.48,2.25\C,0,67.89,51.91,3.62\C,0,66.86,51.29,4.56\O,0,65.65,51.44,4.
 42\C,0,67.92,53.43,3.69\C,0,67.93,54.07,5.07\O,0,67.68,55.29,5.14\O,0,
 68.23,53.37,6.06\H,0,67.38,52.17,1.58\H,0,68.87,51.59,3.99\H,0,67.03,5
 3.75,3.15\H,0,68.77,53.76,3.09\N,0,67.27,50.37,5.43\C,0,66.33,49.43,6.
 01\C,0,65.5,50.,7.15\O,0,64.42,49.48,7.42\C,0,67.07,48.15,6.39\C,0,67.
 76,47.39,5.26\C,0,66.89,47.09,4.04\C,0,67.7,46.4,2.95\N,0,67.03,45.64,
 1.89\H,0,68.27,50.25,5.57\H,0,65.62,49.11,5.26\H,0,66.44,47.44,6.92\H,
 0,67.91,48.32,7.07\H,0,68.17,46.46,5.67\H,0,68.64,47.95,4.95\H,0,66.5,
 48.01,3.62\H,0,65.97,46.56,4.33\H,0,68.32,45.67,3.47\H,0,68.43,47.13,2
 .61\H,0,66.41,46.22,1.35\H,0,67.68,45.26,1.22\H,0,66.51,44.87,2.3\N,0,
 65.86,51.13,7.75\C,0,65.12,51.8,8.8\C,0,64.79,53.26,8.54\O,0,63.95,53.
 82,9.23\C,0,65.92,51.7,10.1\C,0,67.37,52.15,10.09\O,0,67.93,52.7,11.07
 \O,0,68.09,51.91,9.09\H,0,66.81,51.45,7.63\H,0,64.18,51.29,9.03\H,0,65
 .96,50.66,10.44\H,0,65.46,52.19,10.96\N,0,65.3,53.83,7.44\C,0,64.92,55
 .17,7.02\C,0,65.71,56.28,7.7\O,0,65.15,57.28,8.14\H,0,65.92,53.32,6.83
 \H,0,63.83,55.21,7.07\H,0,65.02,55.23,5.94\N,0,67.04,56.2,7.79\C,0,67.
 94,57.12,8.45\C,0,68.86,57.94,7.56\O,0,69.59,58.8,8.04\C,0,68.61,56.38
 ,9.6\C,0,69.91,55.68,9.23\N,0,71.04,56.05,9.83\O,0,69.99,54.82,8.34\H,
 0,67.47,55.35,7.47\H,0,67.27,57.86,8.88\H,0,67.94,55.65,10.04\H,0,68.8
 8,56.96,10.48\H,0,70.85,56.59,10.66\H,0,71.9,55.55,9.64\N,0,68.73,57.7
 9,6.24\C,0,69.53,58.42,5.2\C,0,70.74,57.59,4.79\O,0,71.44,57.93,3.84\H
 ,0,68.16,57.03,5.9\H,0,69.97,59.32,5.63\H,0,68.98,58.69,4.3\N,0,71.13,
 56.53,5.5\C,0,72.36,55.78,5.33\C,0,72.18,54.32,4.96\O,0,71.37,53.68,5.
 64\C,0,73.18,55.91,6.62\C,0,73.65,57.34,6.76\C,0,72.93,58.26,7.54\C,0,
 74.78,57.81,6.08\C,0,73.31,59.61,7.6\C,0,75.15,59.16,6.1\C,0,74.44,60.
 08,6.9\O,0,74.67,61.42,6.9\H,0,70.59,56.33,6.33\H,0,73.01,56.22,4.57\H
 ,0,74.05,55.29,6.44\H,0,72.67,55.46,7.47\H,0,71.97,58.05,7.99\H,0,75.2
 7,57.1,5.43\H,0,72.65,60.35,8.02\H,0,76.04,59.44,5.55\H,0,75.43,61.55,
 6.32\N,0,73.02,53.82,4.04\C,0,73.12,52.39,3.81\C,0,74.46,51.95,4.37\O,
 0,75.47,52.52,3.98\C,0,72.9,52.13,2.32\C,0,71.42,52.3,1.96\C,0,73.41,5
 0.73,1.97\C,0,71.19,52.46,0.46\H,0,73.76,54.44,3.75\H,0,72.37,51.86,4.
 39\H,0,73.52,52.81,1.74\H,0,70.95,53.14,2.46\H,0,70.82,51.45,2.3\H,0,7
 4.49,50.68,2.11\H,0,72.91,49.9,2.47\H,0,73.26,50.49,0.92\H,0,71.25,51.
 48,-0.02\H,0,70.23,52.91,0.22\H,0,72.05,52.97,0.01\N,0,74.51,51.07,5.3
 8\C,0,75.7,50.39,5.85\C,0,76.15,49.23,4.97\O,0,75.41,48.72,4.13\C,0,75
 .51,49.92,7.29\O,0,74.49,48.95,7.43\H,0,73.64,50.75,5.78\H,0,76.54,51.
 09,5.89\H,0,75.21,50.81,7.84\H,0,76.42,49.45,7.66\H,0,74.67,48.71,8.34
 \N,0,77.28,48.6,5.29\C,0,77.7,47.28,4.85\C,0,76.62,46.22,4.98\O,0,76.3
 8,45.56,3.97\C,0,78.87,46.97,5.78\H,0,77.89,49.05,5.96\H,0,78.02,47.26
 ,3.81\H,0,79.2,45.96,5.51\H,0,79.6,47.75,5.58\H,0,78.62,46.93,6.84\N,0
 ,75.86,46.09,6.07\C,0,74.81,45.11,6.25\C,0,73.69,45.34,5.25\O,0,73.07,
 44.34,4.87\C,0,74.28,45.21,7.67\H,0,76.17,46.65,6.85\H,0,75.27,44.15,5
 .99\H,0,73.58,46.04,7.68\H,0,73.7,44.33,7.94\H,0,75.12,45.35,8.34\N,0,
 73.33,46.59,4.93\C,0,72.28,47.07,4.06\C,0,72.79,47.11,2.62\O,0,71.94,4
 6.93,1.75\C,0,71.88,48.4,4.67\C,0,71.26,48.33,6.07\C,0,70.84,49.71,6.5
 7\O,0,71.25,50.12,7.68\O,0,70.14,50.48,5.88\H,0,73.9,47.31,5.35\H,0,71
 .45,46.36,4.17\H,0,71.06,48.79,4.06\H,0,72.69,49.13,4.72\H,0,72.01,47.
 96,6.76\H,0,70.43,47.63,6.04\N,0,74.08,47.19,2.29\C,0,74.62,47.11,0.95
 \H,0,75.641,46.73,0.992\H,0,74.007,46.437,0.35\H,0,74.62,48.102,0.498\
 H,0,74.78,47.49,2.95\Ca,0,70.22,52.44,7.66\O,0,72.86,52.6,8.47\H,0,72.
 89,52.21,9.35\H,0,73.72,53.02,8.37\\Version=ES64L-G16RevA.03\State=1-A
 \HF=-5333.5947941\RMSD=2.420e-09\Dipole=8.7812627,-8.8719095,-4.834473
 \Quadrupole=-6.1592659,-0.7676413,6.9269072,77.8829699,121.8430635,20.
 4535085\PG=C01 [X(C54H83Ca1N15O23)]\\@


 WE ARE REACHING THE STAGE WHERE THE PROBLEMS WE MUST SOLVE ARE 
 GOING TO BECOME INSOLUBLE WITHOUT COMPUTERS.
 I DO NOT FEAR COMPUTERS.  I FEAR THE LACK OF THEM.

                                   -- ISSAC ASIMOV
 Job cpu time:       0 days  9 hours 11 minutes 48.4 seconds.
 Elapsed time:       0 days  0 hours 11 minutes 37.4 seconds.
 File lengths (MBytes):  RWF=   1517 Int=      0 D2E=      0 Chk=    171 Scr=      1
 Normal termination of Gaussian 16 at Sat Sep 14 22:38:44 2019.
