 Entering Gaussian System, Link 0=g16
 Initial command:
 /home1/apps/gaussian/16rA.03/g16/l1.exe "/scratch/04905/jaebeomh/4358725/Gau-193180.inp" -scrdir="/scratch/04905/jaebeomh/4358725/"
 Entering Link 1 = /home1/apps/gaussian/16rA.03/g16/l1.exe PID=    193181.
  
 Copyright (c) 1988,1990,1992,1993,1995,1998,2003,2009,2016,
            Gaussian, Inc.  All Rights Reserved.
  
 This is part of the Gaussian(R) 16 program.  It is based on
 the Gaussian(R) 09 system (copyright 2009, Gaussian, Inc.),
 the Gaussian(R) 03 system (copyright 2003, Gaussian, Inc.),
 the Gaussian(R) 98 system (copyright 1998, Gaussian, Inc.),
 the Gaussian(R) 94 system (copyright 1995, Gaussian, Inc.),
 the Gaussian 92(TM) system (copyright 1992, Gaussian, Inc.),
 the Gaussian 90(TM) system (copyright 1990, Gaussian, Inc.),
 the Gaussian 88(TM) system (copyright 1988, Gaussian, Inc.),
 the Gaussian 86(TM) system (copyright 1986, Carnegie Mellon
 University), and the Gaussian 82(TM) system (copyright 1983,
 Carnegie Mellon University). Gaussian is a federally registered
 trademark of Gaussian, Inc.
  
 This software contains proprietary and confidential information,
 including trade secrets, belonging to Gaussian, Inc.
  
 This software is provided under written license and may be
 used, copied, transmitted, or stored only in accord with that
 written license.
  
 The following legend is applicable only to US Government
 contracts under FAR:
  
                    RESTRICTED RIGHTS LEGEND
  
 Use, reproduction and disclosure by the US Government is
 subject to restrictions as set forth in subparagraphs (a)
 and (c) of the Commercial Computer Software - Restricted
 Rights clause in FAR 52.227-19.
  
 Gaussian, Inc.
 340 Quinnipiac St., Bldg. 40, Wallingford CT 06492
  
  
 ---------------------------------------------------------------
 Warning -- This program may not be used in any manner that
 competes with the business of Gaussian, Inc. or will provide
 assistance to any competitor of Gaussian, Inc.  The licensee
 of this program is prohibited from giving any competitor of
 Gaussian, Inc. access to this program.  By using this program,
 the user acknowledges that Gaussian, Inc. is engaged in the
 business of creating and licensing software in the field of
 computational chemistry and represents and warrants to the
 licensee that it is not a competitor of Gaussian, Inc. and that
 it will not use this program in any manner prohibited above.
 ---------------------------------------------------------------
  

 Cite this work as:
 Gaussian 16, Revision A.03,
 M. J. Frisch, G. W. Trucks, H. B. Schlegel, G. E. Scuseria, 
 M. A. Robb, J. R. Cheeseman, G. Scalmani, V. Barone, 
 G. A. Petersson, H. Nakatsuji, X. Li, M. Caricato, A. V. Marenich, 
 J. Bloino, B. G. Janesko, R. Gomperts, B. Mennucci, H. P. Hratchian, 
 J. V. Ortiz, A. F. Izmaylov, J. L. Sonnenberg, D. Williams-Young, 
 F. Ding, F. Lipparini, F. Egidi, J. Goings, B. Peng, A. Petrone, 
 T. Henderson, D. Ranasinghe, V. G. Zakrzewski, J. Gao, N. Rega, 
 G. Zheng, W. Liang, M. Hada, M. Ehara, K. Toyota, R. Fukuda, 
 J. Hasegawa, M. Ishida, T. Nakajima, Y. Honda, O. Kitao, H. Nakai, 
 T. Vreven, K. Throssell, J. A. Montgomery, Jr., J. E. Peralta, 
 F. Ogliaro, M. J. Bearpark, J. J. Heyd, E. N. Brothers, K. N. Kudin, 
 V. N. Staroverov, T. A. Keith, R. Kobayashi, J. Normand, 
 K. Raghavachari, A. P. Rendell, J. C. Burant, S. S. Iyengar, 
 J. Tomasi, M. Cossi, J. M. Millam, M. Klene, C. Adamo, R. Cammi, 
 J. W. Ochterski, R. L. Martin, K. Morokuma, O. Farkas, 
 J. B. Foresman, and D. J. Fox, Gaussian, Inc., Wallingford CT, 2016.
 
 ******************************************
 Gaussian 16:  ES64L-G16RevA.03 25-Dec-2016
                18-Sep-2019 
 ******************************************
 %chk=holoCaM_loop3_57.0.chk
 %nprocshared=48
 Will use up to   48 processors via shared memory.
 %mem=10GB
 %nosave
 ----------------------------------------------------------------------
 #b3lyp/svp scf=(tight,noincore) Test #IOP(5/87=12) Density=Current Pop
 =(MK,readradii) iop(6/33=2) iop(6/42=6)
 ----------------------------------------------------------------------
 1/30=1,38=1,172=1/1;
 2/12=2,17=6,18=5,40=1/2;
 3/5=18,7=101,11=2,25=1,30=1,74=-5/1,2,3;
 4//1;
 5/5=4,32=2,38=5,87=12/2;
 6/7=2,8=2,9=2,10=2,15=8,20=101,22=-1,28=1,33=2,42=6/1,2;
 99/5=1,9=1/99;
 ------------------
 holoCaM_loop3_57.0
 ------------------
 Symbolic Z-matrix:
 Charge =  0 Multiplicity = 1
 C                     70.22     52.42     92.27 
 C                     70.23     53.03     93.66 
 O                     70.52     52.3      94.61 
 H                     70.596    53.148    91.552 
 H                     70.856    51.535    92.256 
 H                     69.201    52.14     92.003 
 N                     69.77     54.27     93.74 
 C                     69.53     54.95     95.01 
 C                     68.21     54.61     95.68 
 O                     67.13     54.89     95.17 
 C                     69.54     56.44     94.7 
 C                     69.51     57.3      95.95 
 O                     69.11     58.48     95.79 
 O                     69.68     56.77     97.07 
 H                     69.65     54.82     92.9 
 H                     70.29     54.73     95.76 
 H                     68.73     56.63     93.99 
 H                     70.47     56.63     94.17 
 N                     68.37     53.93     96.82 
 C                     67.29     53.14     97.4 
 C                     66.65     53.93     98.53 
 O                     65.65     53.46     99.06 
 C                     67.81     51.85     98.01 
 C                     68.55     50.84     97.14 
 C                     67.67     50.3      96.01 
 C                     68.4      49.24     95.2 
 N                     67.66     48.49     94.18 
 H                     69.29     53.68     97.14 
 H                     66.49     52.95     96.68 
 H                     66.95     51.26     98.33 
 H                     68.34     52.07     98.94 
 H                     68.83     50.03     97.81 
 H                     69.47     51.25     96.71 
 H                     67.4      51.05     95.27 
 H                     66.76     49.86     96.42 
 H                     68.67     48.53     95.98 
 H                     69.29     49.67     94.74 
 H                     67.33     49.13     93.47 
 H                     68.31     47.8      93.83 
 H                     66.88     47.98     94.57 
 N                     67.18     55.13     98.8 
 C                     66.61     55.94     99.86 
 C                     66.18     57.34     99.45 
 O                     65.61     58.06     100.27 
 C                     67.49     55.97     101.1 
 C                     68.88     56.51     100.77 
 O                     69.9      55.9      101.14 
 O                     69.04     57.46     99.97 
 H                     68.       55.35     98.25 
 H                     65.66     55.51     100.18 
 H                     67.62     54.92     101.38 
 H                     66.99     56.52     101.89 
 N                     66.43     57.71     98.2 
 C                     66.03     58.99     97.65 
 C                     66.97     60.14     98. 
 O                     66.59     61.28     97.75 
 H                     67.1      57.14     97.71 
 H                     65.       59.24     97.89 
 H                     66.13     58.83     96.58 
 N                     68.1      59.89     98.66 
 C                     68.95     60.94     99.18 
 C                     69.7      61.62     98.04 
 O                     70.31     62.61     98.45 
 C                     69.65     60.51     100.47 
 C                     70.99     59.81     100.44 
 N                     71.72     59.89     101.56 
 O                     71.41     59.13     99.51 
 H                     68.35     58.93     98.86 
 H                     68.22     61.7      99.45 
 H                     68.98     59.88     101.06 
 H                     69.79     61.41     101.07 
 H                     71.37     60.3      102.41 
 H                     72.56     59.34     101.69 
 N                     69.76     61.07     96.83 
 C                     70.41     61.63     95.66 
 C                     71.64     60.84     95.21 
 O                     72.35     61.41     94.39 
 H                     69.31     60.17     96.71 
 H                     70.78     62.63     95.9 
 H                     69.7      61.65     94.84 
 N                     72.01     59.77     95.92 
 C                     73.34     59.19     95.93 
 C                     73.31     57.67     95.98 
 O                     72.59     57.1      96.8 
 C                     74.15     59.72     97.11 
 C                     74.26     61.21     97.33 
 C                     73.58     61.86     98.37 
 C                     74.9      61.97     96.34 
 C                     73.53     63.25     98.52 
 C                     74.91     63.36     96.5 
 C                     74.21     63.99     97.54 
 O                     74.24     65.34     97.72 
 H                     71.32     59.41     96.56 
 H                     73.91     59.5      95.06 
 H                     75.13     59.24     97.06 
 H                     73.64     59.33     97.98 
 H                     73.12     61.14     99.04 
 H                     75.29     61.47     95.46 
 H                     73.1      63.78     99.36 
 H                     75.3      63.99     95.72 
 H                     74.86     65.69     97.07 
 N                     74.1      56.93     95.2 
 C                     74.37     55.51     95.34 
 C                     75.57     55.28     96.25 
 O                     76.63     55.78     95.87 
 C                     74.7      54.86     94. 
 C                     73.8      55.39     92.89 
 C                     74.57     53.33     94.02 
 C                     74.14     54.84     91.51 
 H                     74.64     57.42     94.51 
 H                     73.47     55.01     95.7 
 H                     75.72     55.03     93.67 
 H                     74.       56.46     92.79 
 H                     72.76     55.1      93.04 
 H                     75.2      52.9      93.24 
 H                     74.97     52.91     94.94 
 H                     73.55     52.96     93.93 
 H                     74.07     53.76     91.4 
 H                     73.38     55.16     90.8 
 H                     75.14     55.19     91.23 
 N                     75.45     54.57     97.37 
 C                     76.55     54.29     98.28 
 C                     77.11     52.97     97.76 
 O                     76.52     52.31     96.91 
 C                     76.1      54.24     99.73 
 O                     75.33     53.1      100.04 
 H                     74.53     54.35     97.72 
 H                     77.37     54.99     98.1 
 H                     75.42     55.01     100.1 
 H                     77.03     54.28     100.3 
 H                     74.88     53.35     100.86 
 N                     78.28     52.66     98.31 
 C                     78.78     51.32     98.08 
 C                     77.9      50.17     98.55 
 O                     77.79     49.22     97.78 
 C                     80.16     51.27     98.74 
 H                     78.8      53.17     99.02 
 H                     79.       51.14     97.03 
 H                     80.69     52.22     98.68 
 H                     79.92     51.       99.77 
 H                     80.91     50.59     98.34 
 N                     77.07     50.41     99.56 
 C                     76.13     49.48     100.18 
 C                     74.89     49.34     99.31 
 O                     74.17     48.35     99.38 
 C                     75.81     49.97     101.59 
 H                     77.3      51.25     100.07 
 H                     76.66     48.54     100.3 
 H                     75.39     50.98     101.6 
 H                     75.22     49.24     102.14 
 H                     76.77     50.1      102.09 
 N                     74.67     50.33     98.44 
 C                     73.58     50.27     97.49 
 C                     74.1      49.64     96.2 
 O                     73.44     48.73     95.71 
 C                     72.97     51.66     97.27 
 C                     72.18     52.07     98.51 
 C                     71.82     53.55     98.36 
 O                     72.69     54.42     98.14 
 O                     70.64     53.94     98.42 
 H                     75.22     51.18     98.46 
 H                     72.76     49.66     97.86 
 H                     72.35     51.75     96.38 
 H                     73.8      52.36     97.17 
 H                     72.81     51.86     99.37 
 H                     71.25     51.51     98.54 
 N                     75.25     50.1      95.71 
 C                     75.77     49.61     94.45 
 H                     76.789    49.249    94.594 
 H                     75.143    48.794    94.09 
 H                     75.771    50.418    93.718 
 H                     75.78     50.82     96.18 
 Ca                    71.27     56.46     98.96 
 O                     73.1      56.22     100.872 
 H                     72.86     55.53     101.492 
 H                     74.01     56.43     101.092 
 
 Stoichiometry    C54H83CaN15O23
 Framework group  C1[X(C54H83CaN15O23)]
 Deg. of freedom   522
 Full point group                 C1      NOp   1
 Largest Abelian subgroup         C1      NOp   1
 Largest concise Abelian subgroup C1      NOp   1
                         Standard orientation:                         
 ---------------------------------------------------------------------
 Center     Atomic      Atomic             Coordinates (Angstroms)
 Number     Number       Type             X           Y           Z
 ---------------------------------------------------------------------
      1          6           0        2.297051    3.036652    4.900073
      2          6           0        1.672480    2.709360    3.555792
      3          8           0        2.395720    2.743770    2.558175
      4          1           0        1.859242    2.399678    5.667844
      5          1           0        3.372043    2.862837    4.854271
      6          1           0        2.107577    4.081870    5.144345
      7          7           0        0.355358    2.565260    3.560851
      8          6           0       -0.436150    2.434378    2.340488
      9          6           0       -0.763745    3.744333    1.645076
     10          8           0       -1.465434    4.602526    2.170468
     11          6           0       -1.742468    1.771413    2.753178
     12          6           0       -2.599495    1.373101    1.565807
     13          8           0       -3.821625    1.210089    1.806277
     14          8           0       -2.118745    1.420001    0.412169
     15          1           0       -0.137942    2.455380    4.436683
     16          1           0        0.054296    1.827658    1.579007
     17          1           0       -2.230934    2.434899    3.472544
     18          1           0       -1.463917    0.872515    3.297504
     19          7           0       -0.154825    3.866392    0.461050
     20          6           0        0.031950    5.165321   -0.175188
     21          6           0       -1.028040    5.347851   -1.249295
     22          8           0       -1.088017    6.434208   -1.813236
     23          6           0        1.378483    5.255034   -0.871895
     24          6           0        2.663673    5.072479   -0.072169
     25          6           0        2.820946    6.138078    1.015335
     26          6           0        4.142629    5.984760    1.751709
     27          7           0        4.543201    7.015098    2.715268
     28          1           0        0.460127    3.144275    0.126864
     29          1           0       -0.112325    5.989630    0.527805
     30          1           0        1.500983    6.276675   -1.234307
     31          1           0        1.362471    4.651852   -1.783001
     32          1           0        3.470892    5.160842   -0.796041
     33          1           0        2.735333    4.081097    0.387641
     34          1           0        2.076007    6.069857    1.804899
     35          1           0        2.781748    7.134559    0.573420
     36          1           0        4.849436    6.033811    0.925017
     37          1           0        4.184855    5.012295    2.242757
     38          1           0        3.867771    7.048592    3.467114
     39          1           0        5.470904    6.753021    3.018224
     40          1           0        4.625814    7.927177    2.288785
     41          7           0       -1.878395    4.329721   -1.433979
     42          6           0       -2.920671    4.443054   -2.436684
     43          6           0       -4.337311    4.217122   -1.931626
     44          8           0       -5.284650    4.378589   -2.701158
     45          6           0       -2.629522    3.601185   -3.669319
     46          6           0       -2.469821    2.128101   -3.299022
     47          8           0       -1.491939    1.475385   -3.707813
     48          8           0       -3.197324    1.588083   -2.434604
     49          1           0       -1.674581    3.516505   -0.867905
     50          1           0       -2.981195    5.473857   -2.788226
     51          1           0       -1.651436    3.943737   -4.021179
     52          1           0       -3.392026    3.776839   -4.420539
     53          7           0       -4.479569    3.870220   -0.658315
     54          6           0       -5.767180    3.675628   -0.021846
     55          6           0       -6.394471    2.310391   -0.288741
     56          8           0       -7.566479    2.150327    0.038788
     57          1           0       -3.641482    3.541418   -0.207316
     58          1           0       -6.465430    4.477460   -0.246594
     59          1           0       -5.514499    3.693209    1.034726
     60          7           0       -5.706337    1.389094   -0.961559
     61          6           0       -6.294985    0.143277   -1.405218
     62          6           0       -6.497029   -0.792752   -0.218825
     63          8           0       -7.132740   -1.793474   -0.557538
     64          6           0       -5.676860   -0.334150   -2.720126
     65          6           0       -4.451217   -1.219627   -2.735297
     66          7           0       -4.264444   -1.945617   -3.845141
     67          8           0       -3.599940   -1.261090   -1.853645
     68          1           0       -4.750039    1.586849   -1.227054
     69          1           0       -7.316052    0.448369   -1.623717
     70          1           0       -5.450160    0.526371   -3.354169
     71          1           0       -6.453974   -0.880679   -3.255849
     72          1           0       -4.838601   -1.843712   -4.665543
     73          1           0       -3.405967   -2.456076   -4.010815
     74          7           0       -5.905669   -0.560830    0.950237
     75          6           0       -6.043509   -1.352906    2.157968
     76          6           0       -4.761146   -2.085853    2.555251
     77          8           0       -4.902406   -2.947730    3.414678
     78          1           0       -5.296402    0.246976    1.006312
     79          1           0       -6.785096   -2.137743    1.988915
     80          1           0       -6.328855   -0.699399    2.975530
     81          7           0       -3.684100   -1.963398    1.773665
     82          6           0       -2.572453   -2.894770    1.726894
     83          6           0       -1.232467   -2.191868    1.571442
     84          8           0       -1.095678   -1.321047    0.711989
     85          6           0       -2.755146   -3.894964    0.588635
     86          6           0       -4.049040   -4.665053    0.472864
     87          6           0       -4.996496   -4.381320   -0.521280
     88          6           0       -4.380797   -5.543363    1.514886
     89          6           0       -6.268424   -4.961370   -0.574576
     90          6           0       -5.626507   -6.177415    1.451770
     91          6           0       -6.565057   -5.866875    0.456186
     92          8           0       -7.767348   -6.501649    0.370395
     93          1           0       -3.710336   -1.207042    1.108431
     94          1           0       -2.541239   -3.513824    2.617791
     95          1           0       -1.885575   -4.555857    0.607748
     96          1           0       -2.688141   -3.293908   -0.307659
     97          1           0       -4.600459   -3.671177   -1.240830
     98          1           0       -3.706612   -5.639917    2.359073
     99          1           0       -6.984829   -4.841079   -1.376881
    100          1           0       -5.966825   -6.781147    2.274626
    101          1           0       -7.762877   -7.190600    1.044729
    102          7           0       -0.171351   -2.542535    2.300254
    103          6           0        1.208047   -2.155565    2.062740
    104          6           0        1.894401   -3.156730    1.142095
    105          8           0        1.945295   -4.315135    1.558637
    106          6           0        2.017289   -2.116227    3.355249
    107          6           0        1.209534   -1.510496    4.497013
    108          6           0        3.323315   -1.318418    3.228771
    109          6           0        1.936444   -1.523356    5.836392
    110          1           0       -0.325148   -3.221017    3.024000
    111          1           0        1.229910   -1.139608    1.666566
    112          1           0        2.341744   -3.093381    3.698904
    113          1           0        0.350183   -2.163145    4.671554
    114          1           0        0.994190   -0.455943    4.324543
    115          1           0        4.036248   -1.664192    3.978682
    116          1           0        3.820922   -1.519623    2.282883
    117          1           0        3.202926   -0.238080    3.290221
    118          1           0        2.875637   -0.975525    5.870988
    119          1           0        1.354321   -0.962558    6.564910
    120          1           0        2.088279   -2.564547    6.142608
    121          7           0        2.406119   -2.770175   -0.024789
    122          6           0        3.092381   -3.659599   -0.949164
    123          6           0        4.552412   -3.554600   -0.520577
    124          8           0        4.929378   -2.704232    0.280029
    125          6           0        2.847464   -3.283154   -2.400303
    126          8           0        3.501633   -2.096449   -2.790679
    127          1           0        2.169777   -1.860841   -0.391606
    128          1           0        2.845304   -4.699177   -0.718883
    129          1           0        1.833737   -3.030581   -2.717737
    130          1           0        3.192862   -4.151860   -2.963732
    131          1           0        3.027376   -1.832756   -3.592518
    132          7           0        5.318675   -4.481254   -1.087721
    133          6           0        6.752060   -4.323342   -0.949978
    134          6           0        7.356223   -3.039122   -1.500947
    135          8           0        8.201727   -2.491464   -0.799027
    136          6           0        7.373493   -5.557432   -1.608266
    137          1           0        5.052799   -5.197458   -1.759258
    138          1           0        7.075024   -4.404847    0.085565
    139          1           0        6.766341   -6.453085   -1.481098
    140          1           0        7.444384   -5.256725   -2.655142
    141          1           0        8.340030   -5.911747   -1.254476
    142          7           0        6.709410   -2.437407   -2.494010
    143          6           0        7.081281   -1.202616   -3.179504
    144          6           0        6.704793   -0.002031   -2.324546
    145          8           0        7.262079    1.081074   -2.464960
    146          6           0        6.415030   -1.181893   -4.552923
    147          1           0        6.031563   -3.034684   -2.943881
    148          1           0        8.149797   -1.261562   -3.363076
    149          1           0        5.325309   -1.256885   -4.493893
    150          1           0        6.769176   -0.347007   -5.153795
    151          1           0        6.697790   -2.115226   -5.040196
    152          7           0        5.775953   -0.217649   -1.388509
    153          6           0        5.400015    0.815763   -0.447802
    154          6           0        6.273314    0.674566    0.796710
    155          8           0        6.820151    1.687010    1.220652
    156          6           0        3.900242    0.748957   -0.133448
    157          6           0        3.105595    1.231422   -1.344052
    158          6           0        1.633021    0.898535   -1.092632
    159          8           0        1.259028   -0.260232   -0.810519
    160          8           0        0.753733    1.778118   -1.128489
    161          1           0        5.262110   -1.089273   -1.348036
    162          1           0        5.555202    1.808875   -0.861378
    163          1           0        3.596933    1.293085    0.759037
    164          1           0        3.652762   -0.302234    0.017052
    165          1           0        3.522290    0.732856   -2.214912
    166          1           0        3.187692    2.311972   -1.415265
    167          7           0        6.406846   -0.542838    1.320444
    168          6           0        7.153382   -0.747458    2.544746
    169          1           0        7.922377   -1.502766    2.378689
    170          1           0        7.623169    0.189220    2.845612
    171          1           0        6.477365   -1.084208    3.331060
    172          1           0        5.972658   -1.353616    0.902929
    173         20           0       -1.246326    0.072976   -1.490647
    174          8           0       -0.330407   -1.520667   -3.409928
    175          1           0        0.140269   -1.019017   -4.076944
    176          1           0       -0.124337   -2.435609   -3.612455
 ---------------------------------------------------------------------
 Rotational constants (GHZ):           0.0244971           0.0154467           0.0124895
 Standard basis: SVP (5D, 7F)
 There are  1809 symmetry adapted cartesian basis functions of A   symmetry.
 There are  1717 symmetry adapted basis functions of A   symmetry.
  1717 basis functions,  2922 primitive gaussians,  1809 cartesian basis functions
   358 alpha electrons      358 beta electrons
       nuclear repulsion energy     22028.3291442348 Hartrees.
 NAtoms=  176 NActive=  176 NUniq=  176 SFac= 1.00D+00 NAtFMM=   60 NAOKFM=T Big=T
 Integral buffers will be    131072 words long.
 Raffenetti 2 integral format.
 Two-electron integral symmetry is turned on.
 One-electron integrals computed using PRISM.
 NBasis=  1717 RedAO= T EigKep=  2.85D-04  NBF=  1717
 NBsUse=  1717 1.00D-06 EigRej= -1.00D+00 NBFU=  1717
 ExpMin= 1.98D-02 ExpMax= 3.51D+04 ExpMxC= 5.28D+03 IAcc=3 IRadAn=         5 AccDes= 0.00D+00
 Harris functional with IExCor=  402 and IRadAn=       5 diagonalized for initial guess.
 HarFok:  IExCor=  402 AccDes= 0.00D+00 IRadAn=         5 IDoV= 1 UseB2=F ITyADJ=14
 ICtDFT=  3500011 ScaDFX=  1.000000  1.000000  1.000000  1.000000
 FoFCou: FMM=F IPFlag=           0 FMFlag=      100000 FMFlg1=        2001
         NFxFlg=           0 DoJE=T BraDBF=F KetDBF=T FulRan=T
         wScrn=  0.000000 ICntrl=       500 IOpCl=  0 I1Cent=   200000004 NGrid=           0
         NMat0=    1 NMatS0=      1 NMatT0=    0 NMatD0=    1 NMtDS0=    0 NMtDT0=    0
 Petite list used in FoFCou.
 Requested convergence on RMS density matrix=1.00D-08 within 128 cycles.
 Requested convergence on MAX density matrix=1.00D-06.
 Requested convergence on             energy=1.00D-06.
 No special actions if energy rises.
 EnCoef did     4 forward-backward iterations
 SCF Done:  E(RB3LYP) =  -5333.62349529     A.U. after   18 cycles
            NFock= 18  Conv=0.51D-08     -V/T= 2.0081
 SCF density gives NOpUse=  1 NOpAll=  1.
 Hyperfine terms turned off by default for NAtoms > 100.

 **********************************************************************

            Population analysis using the SCF density.

 **********************************************************************

 Orbital symmetries:
 BldTbl:  Degeneracy threshold= 1.00D-02
       Occupied  (A) (A) (A) (A) (A) (A) (A) (A) (A) (A) (A) (A)
                 (A) (A) (A) (A) (A) (A) (A) (A) (A) (A) (A) (A)
                 (A) (A) (A) (A) (A) (A) (A) (A) (A) (A) (A) (A)
                 (A) (A) (A) (A) (A) (A) (A) (A) (A) (A) (A) (A)
                 (A) (A) (A) (A) (A) (A) (A) (A) (A) (A) (A) (A)
                 (A) (A) (A) (A) (A) (A) (A) (A) (A) (A) (A) (A)
                 (A) (A) (A) (A) (A) (A) (A) (A) (A) (A) (A) (A)
                 (A) (A) (A) (A) (A) (A) (A) (A) (A) (A) (A) (A)
                 (A) (A) (A) (A) (A) (A) (A) (A) (A) (A) (A) (A)
                 (A) (A) (A) (A) (A) (A) (A) (A) (A) (A) (A) (A)
                 (A) (A) (A) (A) (A) (A) (A) (A) (A) (A) (A) (A)
                 (A) (A) (A) (A) (A) (A) (A) (A) (A) (A) (A) (A)
                 (A) (A) (A) (A) (A) (A) (A) (A) (A) (A) (A) (A)
                 (A) (A) (A) (A) (A) (A) (A) (A) (A) (A) (A) (A)
                 (A) (A) (A) (A) (A) (A) (A) (A) (A) (A) (A) (A)
                 (A) (A) (A) (A) (A) (A) (A) (A) (A) (A) (A) (A)
                 (A) (A) (A) (A) (A) (A) (A) (A) (A) (A) (A) (A)
                 (A) (A) (A) (A) (A) (A) (A) (A) (A) (A) (A) (A)
                 (A) (A) (A) (A) (A) (A) (A) (A) (A) (A) (A) (A)
                 (A) (A) (A) (A) (A) (A) (A) (A) (A) (A) (A) (A)
                 (A) (A) (A) (A) (A) (A) (A) (A) (A) (A) (A) (A)
                 (A) (A) (A) (A) (A) (A) (A) (A) (A) (A) (A) (A)
                 (A) (A) (A) (A) (A) (A) (A) (A) (A) (A) (A) (A)
                 (A) (A) (A) (A) (A) (A) (A) (A) (A) (A) (A) (A)
                 (A) (A) (A) (A) (A) (A) (A) (A) (A) (A) (A) (A)
                 (A) (A) (A) (A) (A) (A) (A) (A) (A) (A) (A) (A)
                 (A) (A) (A) (A) (A) (A) (A) (A) (A) (A) (A) (A)
                 (A) (A) (A) (A) (A) (A) (A) (A) (A) (A) (A) (A)
                 (A) (A) (A) (A) (A) (A) (A) (A) (A) (A) (A) (A)
                 (A) (A) (A) (A) (A) (A) (A) (A) (A) (A)
       Virtual   (A) (A) (A) (A) (A) (A) (A) (A) (A) (A) (A) (A)
                 (A) (A) (A) (A) (A) (A) (A) (A) (A) (A) (A) (A)
                 (A) (A) (A) (A) (A) (A) (A) (A) (A) (A) (A) (A)
                 (A) (A) (A) (A) (A) (A) (A) (A) (A) (A) (A) (A)
                 (A) (A) (A) (A) (A) (A) (A) (A) (A) (A) (A) (A)
                 (A) (A) (A) (A) (A) (A) (A) (A) (A) (A) (A) (A)
                 (A) (A) (A) (A) (A) (A) (A) (A) (A) (A) (A) (A)
                 (A) (A) (A) (A) (A) (A) (A) (A) (A) (A) (A) (A)
                 (A) (A) (A) (A) (A) (A) (A) (A) (A) (A) (A) (A)
                 (A) (A) (A) (A) (A) (A) (A) (A) (A) (A) (A) (A)
                 (A) (A) (A) (A) (A) (A) (A) (A) (A) (A) (A) (A)
                 (A) (A) (A) (A) (A) (A) (A) (A) (A) (A) (A) (A)
                 (A) (A) (A) (A) (A) (A) (A) (A) (A) (A) (A) (A)
                 (A) (A) (A) (A) (A) (A) (A) (A) (A) (A) (A) (A)
                 (A) (A) (A) (A) (A) (A) (A) (A) (A) (A) (A) (A)
                 (A) (A) (A) (A) (A) (A) (A) (A) (A) (A) (A) (A)
                 (A) (A) (A) (A) (A) (A) (A) (A) (A) (A) (A) (A)
                 (A) (A) (A) (A) (A) (A) (A) (A) (A) (A) (A) (A)
                 (A) (A) (A) (A) (A) (A) (A) (A) (A) (A) (A) (A)
                 (A) (A) (A) (A) (A) (A) (A) (A) (A) (A) (A) (A)
                 (A) (A) (A) (A) (A) (A) (A) (A) (A) (A) (A) (A)
                 (A) (A) (A) (A) (A) (A) (A) (A) (A) (A) (A) (A)
                 (A) (A) (A) (A) (A) (A) (A) (A) (A) (A) (A) (A)
                 (A) (A) (A) (A) (A) (A) (A) (A) (A) (A) (A) (A)
                 (A) (A) (A) (A) (A) (A) (A) (A) (A) (A) (A) (A)
                 (A) (A) (A) (A) (A) (A) (A) (A) (A) (A) (A) (A)
                 (A) (A) (A) (A) (A) (A) (A) (A) (A) (A) (A) (A)
                 (A) (A) (A) (A) (A) (A) (A) (A) (A) (A) (A) (A)
                 (A) (A) (A) (A) (A) (A) (A) (A) (A) (A) (A) (A)
                 (A) (A) (A) (A) (A) (A) (A) (A) (A) (A) (A) (A)
                 (A) (A) (A) (A) (A) (A) (A) (A) (A) (A) (A) (A)
                 (A) (A) (A) (A) (A) (A) (A) (A) (A) (A) (A) (A)
                 (A) (A) (A) (A) (A) (A) (A) (A) (A) (A) (A) (A)
                 (A) (A) (A) (A) (A) (A) (A) (A) (A) (A) (A) (A)
                 (A) (A) (A) (A) (A) (A) (A) (A) (A) (A) (A) (A)
                 (A) (A) (A) (A) (A) (A) (A) (A) (A) (A) (A) (A)
                 (A) (A) (A) (A) (A) (A) (A) (A) (A) (A) (A) (A)
                 (A) (A) (A) (A) (A) (A) (A) (A) (A) (A) (A) (A)
                 (A) (A) (A) (A) (A) (A) (A) (A) (A) (A) (A) (A)
                 (A) (A) (A) (A) (A) (A) (A) (A) (A) (A) (A) (A)
                 (A) (A) (A) (A) (A) (A) (A) (A) (A) (A) (A) (A)
                 (A) (A) (A) (A) (A) (A) (A) (A) (A) (A) (A) (A)
                 (A) (A) (A) (A) (A) (A) (A) (A) (A) (A) (A) (A)
                 (A) (A) (A) (A) (A) (A) (A) (A) (A) (A) (A) (A)
                 (A) (A) (A) (A) (A) (A) (A) (A) (A) (A) (A) (A)
                 (A) (A) (A) (A) (A) (A) (A) (A) (A) (A) (A) (A)
                 (A) (A) (A) (A) (A) (A) (A) (A) (A) (A) (A) (A)
                 (A) (A) (A) (A) (A) (A) (A) (A) (A) (A) (A) (A)
                 (A) (A) (A) (A) (A) (A) (A) (A) (A) (A) (A) (A)
                 (A) (A) (A) (A) (A) (A) (A) (A) (A) (A) (A) (A)
                 (A) (A) (A) (A) (A) (A) (A) (A) (A) (A) (A) (A)
                 (A) (A) (A) (A) (A) (A) (A) (A) (A) (A) (A) (A)
                 (A) (A) (A) (A) (A) (A) (A) (A) (A) (A) (A) (A)
                 (A) (A) (A) (A) (A) (A) (A) (A) (A) (A) (A) (A)
                 (A) (A) (A) (A) (A) (A) (A) (A) (A) (A) (A) (A)
                 (A) (A) (A) (A) (A) (A) (A) (A) (A) (A) (A) (A)
                 (A) (A) (A) (A) (A) (A) (A) (A) (A) (A) (A) (A)
                 (A) (A) (A) (A) (A) (A) (A) (A) (A) (A) (A) (A)
                 (A) (A) (A) (A) (A) (A) (A) (A) (A) (A) (A) (A)
                 (A) (A) (A) (A) (A) (A) (A) (A) (A) (A) (A) (A)
                 (A) (A) (A) (A) (A) (A) (A) (A) (A) (A) (A) (A)
                 (A) (A) (A) (A) (A) (A) (A) (A) (A) (A) (A) (A)
                 (A) (A) (A) (A) (A) (A) (A) (A) (A) (A) (A) (A)
                 (A) (A) (A) (A) (A) (A) (A) (A) (A) (A) (A) (A)
                 (A) (A) (A) (A) (A) (A) (A) (A) (A) (A) (A) (A)
                 (A) (A) (A) (A) (A) (A) (A) (A) (A) (A) (A) (A)
                 (A) (A) (A) (A) (A) (A) (A) (A) (A) (A) (A) (A)
                 (A) (A) (A) (A) (A) (A) (A) (A) (A) (A) (A) (A)
                 (A) (A) (A) (A) (A) (A) (A) (A) (A) (A) (A) (A)
                 (A) (A) (A) (A) (A) (A) (A) (A) (A) (A) (A) (A)
                 (A) (A) (A) (A) (A) (A) (A) (A) (A) (A) (A) (A)
                 (A) (A) (A) (A) (A) (A) (A) (A) (A) (A) (A) (A)
                 (A) (A) (A) (A) (A) (A) (A) (A) (A) (A) (A) (A)
                 (A) (A) (A) (A) (A) (A) (A) (A) (A) (A) (A) (A)
                 (A) (A) (A) (A) (A) (A) (A) (A) (A) (A) (A) (A)
                 (A) (A) (A) (A) (A) (A) (A) (A) (A) (A) (A) (A)
                 (A) (A) (A) (A) (A) (A) (A) (A) (A) (A) (A) (A)
                 (A) (A) (A) (A) (A) (A) (A) (A) (A) (A) (A) (A)
                 (A) (A) (A) (A) (A) (A) (A) (A) (A) (A) (A) (A)
                 (A) (A) (A) (A) (A) (A) (A) (A) (A) (A) (A) (A)
                 (A) (A) (A) (A) (A) (A) (A) (A) (A) (A) (A) (A)
                 (A) (A) (A) (A) (A) (A) (A) (A) (A) (A) (A) (A)
                 (A) (A) (A) (A) (A) (A) (A) (A) (A) (A) (A) (A)
                 (A) (A) (A) (A) (A) (A) (A) (A) (A) (A) (A) (A)
                 (A) (A) (A) (A) (A) (A) (A) (A) (A) (A) (A) (A)
                 (A) (A) (A) (A) (A) (A) (A) (A) (A) (A) (A) (A)
                 (A) (A) (A) (A) (A) (A) (A) (A) (A) (A) (A) (A)
                 (A) (A) (A) (A) (A) (A) (A) (A) (A) (A) (A) (A)
                 (A) (A) (A) (A) (A) (A) (A) (A) (A) (A) (A) (A)
                 (A) (A) (A) (A) (A) (A) (A) (A) (A) (A) (A) (A)
                 (A) (A) (A) (A) (A) (A) (A) (A) (A) (A) (A) (A)
                 (A) (A) (A) (A) (A) (A) (A) (A) (A) (A) (A) (A)
                 (A) (A) (A) (A) (A) (A) (A) (A) (A) (A) (A) (A)
                 (A) (A) (A) (A) (A) (A) (A) (A) (A) (A) (A) (A)
                 (A) (A) (A) (A) (A) (A) (A) (A) (A) (A) (A) (A)
                 (A) (A) (A) (A) (A) (A) (A) (A) (A) (A) (A) (A)
                 (A) (A) (A) (A) (A) (A) (A) (A) (A) (A) (A) (A)
                 (A) (A) (A) (A) (A) (A) (A) (A) (A) (A) (A) (A)
                 (A) (A) (A) (A) (A) (A) (A) (A) (A) (A) (A) (A)
                 (A) (A) (A) (A) (A) (A) (A) (A) (A) (A) (A) (A)
                 (A) (A) (A) (A) (A) (A) (A) (A) (A) (A) (A) (A)
                 (A) (A) (A) (A) (A) (A) (A) (A) (A) (A) (A) (A)
                 (A) (A) (A) (A) (A) (A) (A) (A) (A) (A) (A) (A)
                 (A) (A) (A) (A) (A) (A) (A) (A) (A) (A) (A) (A)
                 (A) (A) (A) (A) (A) (A) (A) (A) (A) (A) (A) (A)
                 (A) (A) (A) (A) (A) (A) (A) (A) (A) (A) (A) (A)
                 (A) (A) (A) (A) (A) (A) (A) (A) (A) (A) (A) (A)
                 (A) (A) (A) (A) (A) (A) (A) (A) (A) (A) (A) (A)
                 (A) (A) (A) (A) (A) (A) (A) (A) (A) (A) (A) (A)
                 (A) (A) (A) (A) (A) (A) (A) (A) (A) (A) (A) (A)
                 (A) (A) (A) (A) (A) (A) (A) (A) (A) (A) (A) (A)
                 (A) (A) (A) (A) (A) (A) (A) (A) (A) (A) (A) (A)
                 (A) (A) (A) (A) (A) (A) (A) (A) (A) (A) (A) (A)
                 (A) (A) (A)
 The electronic state is 1-A.
 Alpha  occ. eigenvalues -- -145.35239 -19.20581 -19.19327 -19.15090 -19.13767
 Alpha  occ. eigenvalues --  -19.11688 -19.11160 -19.11012 -19.10487 -19.09605
 Alpha  occ. eigenvalues --  -19.08575 -19.08551 -19.08497 -19.07908 -19.06780
 Alpha  occ. eigenvalues --  -19.06766 -19.05480 -19.05461 -19.04698 -19.04651
 Alpha  occ. eigenvalues --  -19.04274 -19.03910 -19.03685 -19.03225 -15.40988
 Alpha  occ. eigenvalues --  -14.57955 -14.40495 -14.37722 -14.37221 -14.36642
 Alpha  occ. eigenvalues --  -14.35601 -14.35166 -14.34351 -14.32994 -14.32409
 Alpha  occ. eigenvalues --  -14.32359 -14.32202 -14.30318 -14.29842 -14.28584
 Alpha  occ. eigenvalues --  -12.54602 -12.54570 -12.54543 -10.32963 -10.32657
 Alpha  occ. eigenvalues --  -10.30214 -10.29842 -10.29610 -10.29341 -10.29264
 Alpha  occ. eigenvalues --  -10.28200 -10.27541 -10.27285 -10.26633 -10.26524
 Alpha  occ. eigenvalues --  -10.25720 -10.25707 -10.25331 -10.25227 -10.24792
 Alpha  occ. eigenvalues --  -10.24415 -10.24348 -10.23968 -10.23055 -10.23044
 Alpha  occ. eigenvalues --  -10.23012 -10.22621 -10.22211 -10.22064 -10.22045
 Alpha  occ. eigenvalues --  -10.21966 -10.21880 -10.21547 -10.21426 -10.21225
 Alpha  occ. eigenvalues --  -10.20947 -10.19885 -10.19546 -10.19075 -10.18992
 Alpha  occ. eigenvalues --  -10.18866 -10.18467 -10.18332 -10.18131 -10.17962
 Alpha  occ. eigenvalues --  -10.17954 -10.17820 -10.17680 -10.17508 -10.17136
 Alpha  occ. eigenvalues --  -10.16641 -10.16452 -10.16200 -10.16172 -10.16159
 Alpha  occ. eigenvalues --  -10.15776 -10.15047  -1.77951  -1.13093  -1.08348
 Alpha  occ. eigenvalues --   -1.07410  -1.06760  -1.05940  -1.05648  -1.05165
 Alpha  occ. eigenvalues --   -1.04261  -1.04192  -1.04112  -1.03498  -1.02995
 Alpha  occ. eigenvalues --   -1.02615  -1.02532  -1.01775  -1.01354  -1.00252
 Alpha  occ. eigenvalues --   -0.99805  -0.99713  -0.98938  -0.98761  -0.97643
 Alpha  occ. eigenvalues --   -0.97574  -0.97026  -0.96022  -0.94648  -0.93686
 Alpha  occ. eigenvalues --   -0.93210  -0.92882  -0.92467  -0.91389  -0.91329
 Alpha  occ. eigenvalues --   -0.90256  -0.89610  -0.89290  -0.89172  -0.88876
 Alpha  occ. eigenvalues --   -0.88864  -0.87368  -0.87163  -0.86833  -0.85627
 Alpha  occ. eigenvalues --   -0.82537  -0.82142  -0.81722  -0.80238  -0.79812
 Alpha  occ. eigenvalues --   -0.78517  -0.78390  -0.77903  -0.77147  -0.75489
 Alpha  occ. eigenvalues --   -0.74852  -0.74577  -0.74026  -0.73681  -0.72865
 Alpha  occ. eigenvalues --   -0.71958  -0.71675  -0.71554  -0.71376  -0.70282
 Alpha  occ. eigenvalues --   -0.69721  -0.69154  -0.68743  -0.68082  -0.67799
 Alpha  occ. eigenvalues --   -0.67498  -0.65796  -0.65363  -0.64722  -0.64466
 Alpha  occ. eigenvalues --   -0.63677  -0.62931  -0.62469  -0.61684  -0.61346
 Alpha  occ. eigenvalues --   -0.60926  -0.60553  -0.60390  -0.59885  -0.59614
 Alpha  occ. eigenvalues --   -0.59467  -0.59034  -0.58911  -0.58881  -0.58509
 Alpha  occ. eigenvalues --   -0.58105  -0.57161  -0.56996  -0.56317  -0.56136
 Alpha  occ. eigenvalues --   -0.55817  -0.55395  -0.55327  -0.54648  -0.54535
 Alpha  occ. eigenvalues --   -0.54232  -0.54127  -0.53584  -0.53309  -0.53083
 Alpha  occ. eigenvalues --   -0.52841  -0.52742  -0.52147  -0.52085  -0.51662
 Alpha  occ. eigenvalues --   -0.51549  -0.51300  -0.50411  -0.50084  -0.49977
 Alpha  occ. eigenvalues --   -0.49667  -0.49508  -0.48893  -0.48843  -0.48379
 Alpha  occ. eigenvalues --   -0.48110  -0.47914  -0.47759  -0.47730  -0.47429
 Alpha  occ. eigenvalues --   -0.47335  -0.47321  -0.47095  -0.46922  -0.46812
 Alpha  occ. eigenvalues --   -0.46701  -0.46538  -0.46367  -0.46282  -0.46096
 Alpha  occ. eigenvalues --   -0.45360  -0.45222  -0.44837  -0.44670  -0.44434
 Alpha  occ. eigenvalues --   -0.44125  -0.43962  -0.43660  -0.43574  -0.43468
 Alpha  occ. eigenvalues --   -0.43277  -0.43179  -0.43137  -0.42865  -0.42789
 Alpha  occ. eigenvalues --   -0.42761  -0.42558  -0.42410  -0.42268  -0.42152
 Alpha  occ. eigenvalues --   -0.42093  -0.41961  -0.41849  -0.41726  -0.41587
 Alpha  occ. eigenvalues --   -0.41404  -0.41188  -0.41090  -0.40976  -0.40828
 Alpha  occ. eigenvalues --   -0.40670  -0.40606  -0.40354  -0.40064  -0.39952
 Alpha  occ. eigenvalues --   -0.39893  -0.39836  -0.39714  -0.39534  -0.39345
 Alpha  occ. eigenvalues --   -0.39301  -0.39127  -0.38989  -0.38776  -0.38696
 Alpha  occ. eigenvalues --   -0.38637  -0.38591  -0.38503  -0.38287  -0.37893
 Alpha  occ. eigenvalues --   -0.37855  -0.37747  -0.37608  -0.37353  -0.37204
 Alpha  occ. eigenvalues --   -0.37171  -0.37121  -0.36866  -0.36642  -0.36507
 Alpha  occ. eigenvalues --   -0.36271  -0.36164  -0.36134  -0.36088  -0.35866
 Alpha  occ. eigenvalues --   -0.35646  -0.35534  -0.35163  -0.34849  -0.34835
 Alpha  occ. eigenvalues --   -0.34510  -0.34260  -0.34045  -0.33828  -0.33659
 Alpha  occ. eigenvalues --   -0.33454  -0.33358  -0.33229  -0.33164  -0.33074
 Alpha  occ. eigenvalues --   -0.32820  -0.32510  -0.32265  -0.32135  -0.32009
 Alpha  occ. eigenvalues --   -0.31833  -0.31263  -0.31000  -0.30471  -0.30420
 Alpha  occ. eigenvalues --   -0.29806  -0.29012  -0.28928  -0.28264  -0.28153
 Alpha  occ. eigenvalues --   -0.27679  -0.27309  -0.26749  -0.26601  -0.26434
 Alpha  occ. eigenvalues --   -0.26316  -0.26279  -0.26144  -0.26110  -0.25068
 Alpha  occ. eigenvalues --   -0.24466  -0.24229  -0.24048  -0.23641  -0.23605
 Alpha  occ. eigenvalues --   -0.23511  -0.23338  -0.23208  -0.23153  -0.22766
 Alpha  occ. eigenvalues --   -0.22599  -0.22302  -0.21788  -0.21692  -0.21651
 Alpha  occ. eigenvalues --   -0.21517  -0.20067  -0.19801  -0.19765  -0.19613
 Alpha  occ. eigenvalues --   -0.19492  -0.18496  -0.18134
 Alpha virt. eigenvalues --   -0.10050  -0.04951  -0.03972  -0.03424  -0.02853
 Alpha virt. eigenvalues --   -0.00916  -0.00620  -0.00289  -0.00071   0.00650
 Alpha virt. eigenvalues --    0.01216   0.01303   0.01785   0.01918   0.02070
 Alpha virt. eigenvalues --    0.02108   0.03148   0.03212   0.03806   0.03871
 Alpha virt. eigenvalues --    0.04153   0.04487   0.04716   0.04857   0.05197
 Alpha virt. eigenvalues --    0.05439   0.05598   0.05640   0.06039   0.06203
 Alpha virt. eigenvalues --    0.06509   0.06610   0.06738   0.06963   0.07172
 Alpha virt. eigenvalues --    0.07243   0.07279   0.07542   0.07915   0.08124
 Alpha virt. eigenvalues --    0.08296   0.08315   0.08460   0.08542   0.08836
 Alpha virt. eigenvalues --    0.09092   0.09535   0.09742   0.09866   0.10118
 Alpha virt. eigenvalues --    0.10188   0.10813   0.10954   0.11072   0.11182
 Alpha virt. eigenvalues --    0.11328   0.11460   0.11641   0.11835   0.11989
 Alpha virt. eigenvalues --    0.12116   0.12432   0.12497   0.12773   0.12937
 Alpha virt. eigenvalues --    0.13116   0.13326   0.13471   0.13580   0.13753
 Alpha virt. eigenvalues --    0.13767   0.13809   0.14062   0.14313   0.14586
 Alpha virt. eigenvalues --    0.14784   0.14885   0.15012   0.15305   0.15347
 Alpha virt. eigenvalues --    0.15621   0.15819   0.15899   0.16008   0.16212
 Alpha virt. eigenvalues --    0.16234   0.16498   0.16639   0.16879   0.17014
 Alpha virt. eigenvalues --    0.17272   0.17429   0.17628   0.17853   0.18054
 Alpha virt. eigenvalues --    0.18170   0.18216   0.18244   0.18584   0.18715
 Alpha virt. eigenvalues --    0.18877   0.19292   0.19462   0.19618   0.19812
 Alpha virt. eigenvalues --    0.19941   0.20048   0.20267   0.20396   0.20618
 Alpha virt. eigenvalues --    0.20748   0.20948   0.21344   0.21400   0.21764
 Alpha virt. eigenvalues --    0.21877   0.22014   0.22222   0.22610   0.22784
 Alpha virt. eigenvalues --    0.22947   0.23290   0.23458   0.23686   0.23784
 Alpha virt. eigenvalues --    0.24114   0.24323   0.24406   0.24712   0.25078
 Alpha virt. eigenvalues --    0.25167   0.25335   0.25555   0.25837   0.25922
 Alpha virt. eigenvalues --    0.26059   0.26352   0.26554   0.26803   0.27085
 Alpha virt. eigenvalues --    0.27309   0.27355   0.27667   0.27673   0.27920
 Alpha virt. eigenvalues --    0.28491   0.28591   0.28781   0.29195   0.29219
 Alpha virt. eigenvalues --    0.29593   0.29817   0.29956   0.30455   0.30603
 Alpha virt. eigenvalues --    0.30663   0.30859   0.31220   0.31470   0.31538
 Alpha virt. eigenvalues --    0.31844   0.32118   0.32470   0.32642   0.32807
 Alpha virt. eigenvalues --    0.33142   0.33315   0.33598   0.33964   0.34079
 Alpha virt. eigenvalues --    0.34477   0.34738   0.35001   0.35165   0.35305
 Alpha virt. eigenvalues --    0.35931   0.36140   0.36550   0.36800   0.37163
 Alpha virt. eigenvalues --    0.37464   0.37941   0.38011   0.38518   0.38772
 Alpha virt. eigenvalues --    0.39065   0.39214   0.39395   0.39584   0.39994
 Alpha virt. eigenvalues --    0.40201   0.40334   0.40690   0.40888   0.41213
 Alpha virt. eigenvalues --    0.41485   0.41639   0.41830   0.42056   0.42193
 Alpha virt. eigenvalues --    0.42389   0.42696   0.42735   0.43003   0.43181
 Alpha virt. eigenvalues --    0.43609   0.43682   0.44139   0.44290   0.44438
 Alpha virt. eigenvalues --    0.44635   0.45078   0.45273   0.45384   0.45722
 Alpha virt. eigenvalues --    0.45750   0.45968   0.46103   0.46416   0.46576
 Alpha virt. eigenvalues --    0.46659   0.46687   0.46989   0.47163   0.47350
 Alpha virt. eigenvalues --    0.47661   0.47696   0.47932   0.48054   0.48238
 Alpha virt. eigenvalues --    0.48427   0.48567   0.48665   0.49104   0.49311
 Alpha virt. eigenvalues --    0.49407   0.49474   0.49648   0.50087   0.50249
 Alpha virt. eigenvalues --    0.50425   0.50854   0.51030   0.51079   0.51347
 Alpha virt. eigenvalues --    0.51564   0.51590   0.51866   0.51889   0.52159
 Alpha virt. eigenvalues --    0.52269   0.52685   0.52796   0.53246   0.53362
 Alpha virt. eigenvalues --    0.53554   0.54150   0.54180   0.54274   0.54560
 Alpha virt. eigenvalues --    0.54790   0.54979   0.55058   0.55364   0.55375
 Alpha virt. eigenvalues --    0.55606   0.55651   0.55806   0.56014   0.56251
 Alpha virt. eigenvalues --    0.56516   0.56679   0.56778   0.57104   0.57328
 Alpha virt. eigenvalues --    0.57412   0.57598   0.57651   0.57832   0.57953
 Alpha virt. eigenvalues --    0.58338   0.58374   0.58463   0.58652   0.58828
 Alpha virt. eigenvalues --    0.59134   0.59172   0.59310   0.59408   0.59560
 Alpha virt. eigenvalues --    0.59804   0.59967   0.60017   0.60186   0.60345
 Alpha virt. eigenvalues --    0.60534   0.60777   0.60895   0.61148   0.61290
 Alpha virt. eigenvalues --    0.61456   0.61513   0.61622   0.61842   0.62139
 Alpha virt. eigenvalues --    0.62357   0.62373   0.62485   0.62526   0.62703
 Alpha virt. eigenvalues --    0.62824   0.63033   0.63135   0.63334   0.63479
 Alpha virt. eigenvalues --    0.63509   0.63628   0.63692   0.63755   0.63862
 Alpha virt. eigenvalues --    0.64064   0.64148   0.64235   0.64434   0.64516
 Alpha virt. eigenvalues --    0.64635   0.64873   0.64928   0.64954   0.65120
 Alpha virt. eigenvalues --    0.65182   0.65487   0.65562   0.65648   0.65704
 Alpha virt. eigenvalues --    0.65884   0.65948   0.66230   0.66293   0.66476
 Alpha virt. eigenvalues --    0.66674   0.66798   0.66896   0.66987   0.67091
 Alpha virt. eigenvalues --    0.67170   0.67281   0.67386   0.67476   0.67512
 Alpha virt. eigenvalues --    0.67580   0.67643   0.67874   0.67937   0.68037
 Alpha virt. eigenvalues --    0.68262   0.68361   0.68465   0.68735   0.68835
 Alpha virt. eigenvalues --    0.68841   0.69008   0.69078   0.69198   0.69323
 Alpha virt. eigenvalues --    0.69482   0.69651   0.69689   0.69814   0.70104
 Alpha virt. eigenvalues --    0.70139   0.70250   0.70416   0.70532   0.70610
 Alpha virt. eigenvalues --    0.70701   0.70857   0.71025   0.71217   0.71267
 Alpha virt. eigenvalues --    0.71357   0.71407   0.71584   0.71743   0.71986
 Alpha virt. eigenvalues --    0.72242   0.72248   0.72382   0.72530   0.72539
 Alpha virt. eigenvalues --    0.72757   0.72967   0.73199   0.73224   0.73360
 Alpha virt. eigenvalues --    0.73483   0.73764   0.73882   0.74112   0.74305
 Alpha virt. eigenvalues --    0.74609   0.74723   0.74907   0.75203   0.75353
 Alpha virt. eigenvalues --    0.75485   0.75648   0.75895   0.76031   0.76149
 Alpha virt. eigenvalues --    0.76448   0.76567   0.76670   0.77037   0.77157
 Alpha virt. eigenvalues --    0.77621   0.77846   0.77911   0.78214   0.78811
 Alpha virt. eigenvalues --    0.78856   0.79174   0.79251   0.79370   0.79653
 Alpha virt. eigenvalues --    0.79726   0.79969   0.80612   0.80762   0.80971
 Alpha virt. eigenvalues --    0.81231   0.81416   0.81653   0.81838   0.82047
 Alpha virt. eigenvalues --    0.82357   0.82497   0.82768   0.82896   0.83223
 Alpha virt. eigenvalues --    0.83289   0.83609   0.84019   0.84294   0.84640
 Alpha virt. eigenvalues --    0.84715   0.84769   0.84902   0.84988   0.85363
 Alpha virt. eigenvalues --    0.85658   0.85918   0.86740   0.86852   0.87059
 Alpha virt. eigenvalues --    0.87147   0.87594   0.87736   0.88217   0.88588
 Alpha virt. eigenvalues --    0.88992   0.89301   0.89636   0.89808   0.90328
 Alpha virt. eigenvalues --    0.90475   0.90896   0.91047   0.91370   0.91410
 Alpha virt. eigenvalues --    0.91814   0.91934   0.92443   0.92745   0.93251
 Alpha virt. eigenvalues --    0.93470   0.93835   0.94080   0.94325   0.94505
 Alpha virt. eigenvalues --    0.95004   0.95150   0.95238   0.95431   0.96017
 Alpha virt. eigenvalues --    0.96119   0.96669   0.96704   0.97291   0.97809
 Alpha virt. eigenvalues --    0.97841   0.98416   0.98490   0.98646   0.98776
 Alpha virt. eigenvalues --    0.99047   0.99531   0.99663   0.99762   1.00024
 Alpha virt. eigenvalues --    1.00530   1.00785   1.01089   1.01327   1.01585
 Alpha virt. eigenvalues --    1.02153   1.02318   1.02644   1.02826   1.03293
 Alpha virt. eigenvalues --    1.03578   1.03988   1.04262   1.04289   1.04362
 Alpha virt. eigenvalues --    1.04475   1.05205   1.05285   1.05648   1.06067
 Alpha virt. eigenvalues --    1.06426   1.06802   1.06945   1.07235   1.07678
 Alpha virt. eigenvalues --    1.07920   1.08347   1.08552   1.08775   1.08902
 Alpha virt. eigenvalues --    1.09294   1.09541   1.10177   1.10603   1.10834
 Alpha virt. eigenvalues --    1.11025   1.11352   1.11447   1.11786   1.12104
 Alpha virt. eigenvalues --    1.12494   1.12819   1.13241   1.13446   1.13560
 Alpha virt. eigenvalues --    1.13651   1.14045   1.14482   1.14786   1.15253
 Alpha virt. eigenvalues --    1.15331   1.15616   1.15751   1.15910   1.16366
 Alpha virt. eigenvalues --    1.16585   1.16902   1.16914   1.17370   1.17714
 Alpha virt. eigenvalues --    1.17818   1.18201   1.18634   1.18812   1.19164
 Alpha virt. eigenvalues --    1.19239   1.19679   1.19948   1.20089   1.20222
 Alpha virt. eigenvalues --    1.20588   1.20671   1.21034   1.21168   1.21567
 Alpha virt. eigenvalues --    1.21799   1.22061   1.22256   1.22613   1.23068
 Alpha virt. eigenvalues --    1.23306   1.23385   1.23795   1.23964   1.24133
 Alpha virt. eigenvalues --    1.24382   1.24734   1.24841   1.25050   1.25462
 Alpha virt. eigenvalues --    1.25645   1.25945   1.26013   1.26161   1.26299
 Alpha virt. eigenvalues --    1.26733   1.26968   1.27459   1.27781   1.27798
 Alpha virt. eigenvalues --    1.27954   1.28498   1.28817   1.29013   1.29201
 Alpha virt. eigenvalues --    1.29262   1.29668   1.30105   1.30326   1.30673
 Alpha virt. eigenvalues --    1.30852   1.31111   1.31228   1.31284   1.31571
 Alpha virt. eigenvalues --    1.31751   1.31979   1.32312   1.33013   1.33063
 Alpha virt. eigenvalues --    1.33593   1.33699   1.34200   1.34523   1.34742
 Alpha virt. eigenvalues --    1.34938   1.35252   1.35415   1.35546   1.36005
 Alpha virt. eigenvalues --    1.36185   1.36527   1.36581   1.37548   1.37626
 Alpha virt. eigenvalues --    1.37801   1.38108   1.38263   1.38323   1.38424
 Alpha virt. eigenvalues --    1.38858   1.39347   1.39543   1.39657   1.39796
 Alpha virt. eigenvalues --    1.40007   1.40477   1.41115   1.41163   1.41677
 Alpha virt. eigenvalues --    1.41793   1.42245   1.42419   1.42902   1.43018
 Alpha virt. eigenvalues --    1.43493   1.43669   1.43896   1.44123   1.44332
 Alpha virt. eigenvalues --    1.44770   1.45169   1.45541   1.45689   1.46195
 Alpha virt. eigenvalues --    1.46265   1.46504   1.46783   1.47154   1.47600
 Alpha virt. eigenvalues --    1.47779   1.48166   1.48454   1.48624   1.48848
 Alpha virt. eigenvalues --    1.49059   1.49093   1.49653   1.50050   1.50267
 Alpha virt. eigenvalues --    1.50351   1.50762   1.50820   1.51173   1.51543
 Alpha virt. eigenvalues --    1.51622   1.52213   1.52231   1.52674   1.52806
 Alpha virt. eigenvalues --    1.53078   1.53242   1.53458   1.53654   1.54055
 Alpha virt. eigenvalues --    1.54391   1.54587   1.54719   1.54850   1.55562
 Alpha virt. eigenvalues --    1.55972   1.56151   1.56780   1.57001   1.57147
 Alpha virt. eigenvalues --    1.57335   1.57640   1.57856   1.57994   1.58112
 Alpha virt. eigenvalues --    1.58582   1.58832   1.59203   1.59606   1.59700
 Alpha virt. eigenvalues --    1.60659   1.60799   1.61616   1.62136   1.62325
 Alpha virt. eigenvalues --    1.62560   1.63063   1.63131   1.63301   1.63679
 Alpha virt. eigenvalues --    1.64141   1.64686   1.64873   1.65558   1.65959
 Alpha virt. eigenvalues --    1.66318   1.66374   1.66478   1.66939   1.67015
 Alpha virt. eigenvalues --    1.67321   1.67583   1.68012   1.68296   1.68519
 Alpha virt. eigenvalues --    1.68902   1.68943   1.69195   1.69587   1.70010
 Alpha virt. eigenvalues --    1.70099   1.70350   1.70930   1.71312   1.71458
 Alpha virt. eigenvalues --    1.71554   1.71824   1.72034   1.72331   1.72348
 Alpha virt. eigenvalues --    1.72726   1.72890   1.73044   1.73199   1.73341
 Alpha virt. eigenvalues --    1.73623   1.73663   1.73748   1.74226   1.74529
 Alpha virt. eigenvalues --    1.74610   1.74865   1.75008   1.75265   1.75484
 Alpha virt. eigenvalues --    1.75635   1.75846   1.76061   1.76331   1.76487
 Alpha virt. eigenvalues --    1.76517   1.77063   1.77117   1.77217   1.77411
 Alpha virt. eigenvalues --    1.77481   1.77708   1.77777   1.77887   1.78001
 Alpha virt. eigenvalues --    1.78245   1.78395   1.78575   1.78653   1.78942
 Alpha virt. eigenvalues --    1.79191   1.79540   1.79641   1.79736   1.79999
 Alpha virt. eigenvalues --    1.80147   1.80413   1.80498   1.80693   1.80782
 Alpha virt. eigenvalues --    1.80941   1.81243   1.81403   1.81668   1.81827
 Alpha virt. eigenvalues --    1.81935   1.81991   1.82140   1.82240   1.82534
 Alpha virt. eigenvalues --    1.82677   1.82773   1.82873   1.83304   1.83361
 Alpha virt. eigenvalues --    1.83472   1.83590   1.83645   1.84122   1.84290
 Alpha virt. eigenvalues --    1.84583   1.84758   1.84983   1.85215   1.85304
 Alpha virt. eigenvalues --    1.85556   1.85775   1.86030   1.86173   1.86419
 Alpha virt. eigenvalues --    1.86784   1.86804   1.87038   1.87159   1.87214
 Alpha virt. eigenvalues --    1.87531   1.87655   1.87765   1.87818   1.88267
 Alpha virt. eigenvalues --    1.88610   1.88867   1.88908   1.89146   1.89199
 Alpha virt. eigenvalues --    1.89318   1.89418   1.89634   1.90083   1.90238
 Alpha virt. eigenvalues --    1.90373   1.90463   1.90759   1.91166   1.91551
 Alpha virt. eigenvalues --    1.91680   1.91829   1.92194   1.92342   1.92483
 Alpha virt. eigenvalues --    1.92750   1.93074   1.93178   1.93392   1.93430
 Alpha virt. eigenvalues --    1.93747   1.93848   1.94047   1.94259   1.94323
 Alpha virt. eigenvalues --    1.94898   1.95020   1.95151   1.95496   1.95570
 Alpha virt. eigenvalues --    1.95751   1.96115   1.96176   1.96418   1.96548
 Alpha virt. eigenvalues --    1.96763   1.97048   1.97169   1.97426   1.97502
 Alpha virt. eigenvalues --    1.97760   1.97990   1.98145   1.98391   1.98491
 Alpha virt. eigenvalues --    1.98707   1.99023   1.99196   1.99664   2.00060
 Alpha virt. eigenvalues --    2.00185   2.00451   2.00560   2.00690   2.00882
 Alpha virt. eigenvalues --    2.01051   2.01188   2.01368   2.01535   2.01854
 Alpha virt. eigenvalues --    2.02086   2.02334   2.02539   2.02750   2.03183
 Alpha virt. eigenvalues --    2.03453   2.03825   2.04255   2.04751   2.05053
 Alpha virt. eigenvalues --    2.05215   2.05472   2.05640   2.06032   2.06188
 Alpha virt. eigenvalues --    2.06451   2.06546   2.06626   2.07170   2.07264
 Alpha virt. eigenvalues --    2.07389   2.07713   2.08090   2.08409   2.08643
 Alpha virt. eigenvalues --    2.08930   2.09206   2.09509   2.09643   2.10052
 Alpha virt. eigenvalues --    2.10302   2.10571   2.10703   2.11035   2.11850
 Alpha virt. eigenvalues --    2.12008   2.12209   2.12709   2.12813   2.13011
 Alpha virt. eigenvalues --    2.13276   2.13591   2.14018   2.14081   2.14307
 Alpha virt. eigenvalues --    2.14811   2.14978   2.15312   2.15617   2.16002
 Alpha virt. eigenvalues --    2.16118   2.16449   2.16832   2.17066   2.17279
 Alpha virt. eigenvalues --    2.17543   2.17836   2.18141   2.18301   2.18523
 Alpha virt. eigenvalues --    2.18809   2.19138   2.19502   2.19668   2.19985
 Alpha virt. eigenvalues --    2.20449   2.20619   2.20933   2.21131   2.21246
 Alpha virt. eigenvalues --    2.21768   2.22032   2.22228   2.22348   2.22656
 Alpha virt. eigenvalues --    2.22776   2.22905   2.23014   2.23743   2.24131
 Alpha virt. eigenvalues --    2.24342   2.24374   2.24839   2.25599   2.26006
 Alpha virt. eigenvalues --    2.26125   2.26710   2.26826   2.27462   2.27630
 Alpha virt. eigenvalues --    2.27753   2.28130   2.28550   2.29062   2.29586
 Alpha virt. eigenvalues --    2.29945   2.30349   2.30585   2.31177   2.31220
 Alpha virt. eigenvalues --    2.31347   2.31729   2.32079   2.32306   2.32734
 Alpha virt. eigenvalues --    2.32991   2.33245   2.33488   2.33715   2.34233
 Alpha virt. eigenvalues --    2.34491   2.34855   2.35430   2.35706   2.35971
 Alpha virt. eigenvalues --    2.36067   2.36426   2.36833   2.37171   2.37506
 Alpha virt. eigenvalues --    2.37707   2.38083   2.38445   2.38891   2.39331
 Alpha virt. eigenvalues --    2.39407   2.39550   2.39813   2.40589   2.40777
 Alpha virt. eigenvalues --    2.41282   2.41447   2.41599   2.41860   2.41963
 Alpha virt. eigenvalues --    2.42331   2.43001   2.43107   2.43413   2.43589
 Alpha virt. eigenvalues --    2.43924   2.44134   2.44200   2.44917   2.45191
 Alpha virt. eigenvalues --    2.45363   2.45482   2.46098   2.46517   2.46965
 Alpha virt. eigenvalues --    2.47247   2.47654   2.48264   2.48576   2.48979
 Alpha virt. eigenvalues --    2.49222   2.49380   2.50184   2.50582   2.50994
 Alpha virt. eigenvalues --    2.51396   2.51437   2.52327   2.52359   2.52632
 Alpha virt. eigenvalues --    2.52732   2.53487   2.53567   2.54130   2.54289
 Alpha virt. eigenvalues --    2.54426   2.54940   2.55144   2.55706   2.55950
 Alpha virt. eigenvalues --    2.56442   2.57003   2.57033   2.57446   2.57820
 Alpha virt. eigenvalues --    2.58068   2.58526   2.58870   2.59181   2.59749
 Alpha virt. eigenvalues --    2.59946   2.60230   2.60522   2.60923   2.61308
 Alpha virt. eigenvalues --    2.61415   2.61981   2.62414   2.62569   2.62759
 Alpha virt. eigenvalues --    2.63193   2.63231   2.63837   2.63986   2.64284
 Alpha virt. eigenvalues --    2.64563   2.64731   2.64826   2.65224   2.65692
 Alpha virt. eigenvalues --    2.66002   2.66278   2.66364   2.66654   2.67071
 Alpha virt. eigenvalues --    2.67593   2.67767   2.67965   2.68055   2.68238
 Alpha virt. eigenvalues --    2.68486   2.68765   2.68883   2.69184   2.69868
 Alpha virt. eigenvalues --    2.70343   2.70631   2.70753   2.70945   2.71015
 Alpha virt. eigenvalues --    2.71393   2.71464   2.71712   2.72056   2.72306
 Alpha virt. eigenvalues --    2.72544   2.72864   2.73222   2.73299   2.73549
 Alpha virt. eigenvalues --    2.73900   2.73956   2.74161   2.74303   2.74533
 Alpha virt. eigenvalues --    2.74775   2.75003   2.75176   2.75269   2.75426
 Alpha virt. eigenvalues --    2.75853   2.75855   2.76238   2.76486   2.76957
 Alpha virt. eigenvalues --    2.77132   2.77467   2.77649   2.78512   2.78738
 Alpha virt. eigenvalues --    2.79056   2.79445   2.79643   2.79805   2.80252
 Alpha virt. eigenvalues --    2.80407   2.80838   2.81103   2.81222   2.81291
 Alpha virt. eigenvalues --    2.81726   2.81815   2.82499   2.82626   2.82845
 Alpha virt. eigenvalues --    2.83258   2.83370   2.84062   2.84337   2.84814
 Alpha virt. eigenvalues --    2.84980   2.85064   2.85564   2.85968   2.86147
 Alpha virt. eigenvalues --    2.86439   2.86928   2.86998   2.87332   2.87621
 Alpha virt. eigenvalues --    2.87859   2.88090   2.88181   2.88586   2.88717
 Alpha virt. eigenvalues --    2.88872   2.89292   2.89561   2.89791   2.90396
 Alpha virt. eigenvalues --    2.90800   2.90911   2.91484   2.91637   2.92779
 Alpha virt. eigenvalues --    2.93064   2.93424   2.93594   2.93975   2.94229
 Alpha virt. eigenvalues --    2.94411   2.94676   2.95074   2.95184   2.95351
 Alpha virt. eigenvalues --    2.95912   2.96230   2.96612   2.96635   2.96864
 Alpha virt. eigenvalues --    2.97429   2.97508   2.97831   2.98098   2.98195
 Alpha virt. eigenvalues --    2.98494   2.99070   2.99160   2.99878   3.00339
 Alpha virt. eigenvalues --    3.00513   3.00766   3.01301   3.01663   3.01788
 Alpha virt. eigenvalues --    3.02163   3.02441   3.02637   3.02845   3.03194
 Alpha virt. eigenvalues --    3.03309   3.03580   3.03590   3.04262   3.04942
 Alpha virt. eigenvalues --    3.05455   3.05551   3.05946   3.06327   3.07070
 Alpha virt. eigenvalues --    3.07661   3.07723   3.08045   3.08236   3.08556
 Alpha virt. eigenvalues --    3.08697   3.08983   3.09490   3.09677   3.10044
 Alpha virt. eigenvalues --    3.11634   3.11886   3.11927   3.12190   3.12473
 Alpha virt. eigenvalues --    3.12765   3.14262   3.14490   3.15193   3.15256
 Alpha virt. eigenvalues --    3.15938   3.16214   3.16872   3.17127   3.17203
 Alpha virt. eigenvalues --    3.17416   3.17617   3.17709   3.18362   3.19081
 Alpha virt. eigenvalues --    3.19465   3.19794   3.20795   3.20944   3.21677
 Alpha virt. eigenvalues --    3.22031   3.22329   3.22718   3.23221   3.23447
 Alpha virt. eigenvalues --    3.23459   3.24119   3.24245   3.24631   3.25185
 Alpha virt. eigenvalues --    3.25306   3.25476   3.25630   3.27144   3.27658
 Alpha virt. eigenvalues --    3.27793   3.28853   3.29200   3.29851   3.30619
 Alpha virt. eigenvalues --    3.32350   3.34628   3.35191   3.36349   3.37136
 Alpha virt. eigenvalues --    3.37966   3.38416   3.39214   3.39379   3.39904
 Alpha virt. eigenvalues --    3.43143   3.45234   3.45626   3.49523   3.49846
 Alpha virt. eigenvalues --    3.50214   3.51908   3.52620   3.55084   3.56248
 Alpha virt. eigenvalues --    3.56361   3.56927   3.57515   3.58206   3.58921
 Alpha virt. eigenvalues --    3.60350   3.60404   3.60568   3.61919   3.63224
 Alpha virt. eigenvalues --    3.64560   3.66270   3.68375   3.68883   3.69144
 Alpha virt. eigenvalues --    3.69317   3.69829   3.69907   3.70525   3.70956
 Alpha virt. eigenvalues --    3.71624   3.71842   3.72064   3.72568   3.72708
 Alpha virt. eigenvalues --    3.72998   3.73682   3.74344   3.74663   3.75726
 Alpha virt. eigenvalues --    3.76236   3.77773   3.78636   3.84907
          Condensed to atoms (all electrons):
 Mulliken charges:
               1
     1  C    0.032668
     2  C    0.045657
     3  O   -0.299425
     4  H    0.022721
     5  H    0.027071
     6  H    0.018488
     7  N   -0.100706
     8  C    0.097592
     9  C    0.059096
    10  O   -0.269427
    11  C    0.029978
    12  C    0.185926
    13  O   -0.382984
    14  O   -0.473476
    15  H    0.127349
    16  H    0.014760
    17  H    0.019561
    18  H    0.000679
    19  N   -0.168075
    20  C    0.134082
    21  C    0.039427
    22  O   -0.291066
    23  C    0.038892
    24  C    0.022322
    25  C   -0.012340
    26  C   -0.035245
    27  N    0.093936
    28  H    0.155295
    29  H    0.004161
    30  H   -0.002333
    31  H    0.020310
    32  H    0.010808
    33  H    0.056007
    34  H    0.030485
    35  H    0.003532
    36  H    0.060061
    37  H    0.094361
    38  H    0.197015
    39  H    0.203631
    40  H    0.187021
    41  N   -0.161642
    42  C    0.094320
    43  C    0.049910
    44  O   -0.292182
    45  C    0.141157
    46  C    0.085862
    47  O   -0.427694
    48  O   -0.423537
    49  H    0.172575
    50  H    0.026960
    51  H   -0.004936
    52  H    0.021867
    53  N   -0.161933
    54  C    0.257831
    55  C    0.020106
    56  O   -0.306382
    57  H    0.129761
    58  H    0.029899
    59  H    0.013772
    60  N   -0.182713
    61  C    0.165271
    62  C    0.060686
    63  O   -0.314563
    64  C    0.074414
    65  C    0.125030
    66  N   -0.054973
    67  O   -0.341159
    68  H    0.146809
    69  H    0.015183
    70  H    0.054898
    71  H    0.009557
    72  H    0.116941
    73  H    0.110407
    74  N   -0.177518
    75  C    0.237520
    76  C    0.035373
    77  O   -0.303996
    78  H    0.155590
    79  H    0.048332
    80  H    0.026705
    81  N   -0.129282
    82  C    0.138049
    83  C    0.122672
    84  O   -0.359816
    85  C    0.135621
    86  C   -0.044324
    87  C    0.032097
    88  C    0.003426
    89  C    0.045872
    90  C   -0.030430
    91  C    0.128410
    92  O   -0.193612
    93  H    0.142297
    94  H   -0.017366
    95  H   -0.012843
    96  H   -0.031956
    97  H   -0.049682
    98  H   -0.034254
    99  H   -0.026072
   100  H   -0.048583
   101  H    0.165099
   102  N   -0.107630
   103  C    0.201903
   104  C    0.062709
   105  O   -0.303166
   106  C   -0.128700
   107  C    0.039983
   108  C    0.028204
   109  C    0.013269
   110  H    0.127477
   111  H    0.016057
   112  H   -0.006039
   113  H   -0.014850
   114  H   -0.009322
   115  H    0.011783
   116  H    0.014295
   117  H    0.009843
   118  H   -0.000278
   119  H   -0.003544
   120  H    0.011164
   121  N   -0.120480
   122  C    0.078679
   123  C    0.103466
   124  O   -0.263519
   125  C    0.251104
   126  O   -0.294975
   127  H    0.152864
   128  H    0.031067
   129  H   -0.039286
   130  H   -0.016647
   131  H    0.182290
   132  N   -0.112961
   133  C    0.058540
   134  C    0.059630
   135  O   -0.246759
   136  C    0.015082
   137  H    0.128269
   138  H    0.031425
   139  H    0.018939
   140  H    0.004270
   141  H    0.045868
   142  N   -0.149963
   143  C    0.096455
   144  C    0.099376
   145  O   -0.269937
   146  C    0.045533
   147  H    0.100355
   148  H    0.024558
   149  H   -0.016498
   150  H    0.048923
   151  H    0.001896
   152  N   -0.171977
   153  C    0.137807
   154  C    0.076291
   155  O   -0.293614
   156  C   -0.049557
   157  C    0.131467
   158  C    0.133375
   159  O   -0.427392
   160  O   -0.406962
   161  H    0.150077
   162  H   -0.015531
   163  H    0.031992
   164  H   -0.009874
   165  H   -0.018805
   166  H   -0.012700
   167  N   -0.166692
   168  C    0.128712
   169  H    0.021942
   170  H    0.025846
   171  H    0.002115
   172  H    0.137874
   173  Ca   1.267132
   174  O   -0.264890
   175  H    0.192133
   176  H    0.183866
 Sum of Mulliken charges =  -0.00000
 Mulliken charges with hydrogens summed into heavy atoms:
               1
     1  C    0.100948
     2  C    0.045657
     3  O   -0.299425
     7  N    0.026643
     8  C    0.112353
     9  C    0.059096
    10  O   -0.269427
    11  C    0.050217
    12  C    0.185926
    13  O   -0.382984
    14  O   -0.473476
    19  N   -0.012780
    20  C    0.138244
    21  C    0.039427
    22  O   -0.291066
    23  C    0.056868
    24  C    0.089137
    25  C    0.021677
    26  C    0.119177
    27  N    0.681603
    41  N    0.010934
    42  C    0.121281
    43  C    0.049910
    44  O   -0.292182
    45  C    0.158088
    46  C    0.085862
    47  O   -0.427694
    48  O   -0.423537
    53  N   -0.032172
    54  C    0.301501
    55  C    0.020106
    56  O   -0.306382
    60  N   -0.035905
    61  C    0.180454
    62  C    0.060686
    63  O   -0.314563
    64  C    0.138869
    65  C    0.125030
    66  N    0.172375
    67  O   -0.341159
    74  N   -0.021928
    75  C    0.312557
    76  C    0.035373
    77  O   -0.303996
    81  N    0.013014
    82  C    0.120682
    83  C    0.122672
    84  O   -0.359816
    85  C    0.090822
    86  C   -0.044324
    87  C   -0.017584
    88  C   -0.030828
    89  C    0.019800
    90  C   -0.079013
    91  C    0.128410
    92  O   -0.028513
   102  N    0.019847
   103  C    0.217960
   104  C    0.062709
   105  O   -0.303166
   106  C   -0.134739
   107  C    0.015810
   108  C    0.064124
   109  C    0.020611
   121  N    0.032384
   122  C    0.109747
   123  C    0.103466
   124  O   -0.263519
   125  C    0.195171
   126  O   -0.112685
   132  N    0.015307
   133  C    0.089965
   134  C    0.059630
   135  O   -0.246759
   136  C    0.084159
   142  N   -0.049608
   143  C    0.121013
   144  C    0.099376
   145  O   -0.269937
   146  C    0.079854
   152  N   -0.021900
   153  C    0.122276
   154  C    0.076291
   155  O   -0.293614
   156  C   -0.027439
   157  C    0.099962
   158  C    0.133375
   159  O   -0.427392
   160  O   -0.406962
   167  N   -0.028818
   168  C    0.178615
   173  Ca   1.267132
   174  O    0.111108
 DipInt: DoE/N= T F RetVal/Mat= T F Init=T NMatP=  1 IDeriv=0 Min/MaxMlt=  0  4
 Entering OneElI...
 OneElI was handed  1333951383 working-precision words.
 Multipole integrals L=0 to 4 MinM= 0 MaxM= 0.
 Requested accuracy = 0.1000D-12
 ShPair: Thresh= 1.00D-13 NBox=     0 BxSize= 0.00D+00 RnKept= 2.55D+01
         NSMCal=               327645 NSMKep=              165596
 PrmmSu-InSpLW:  IPartL=    0 NPrtUS=    1 NPrtUL=    1 DoSpLW=F IThBeg=    0 IThEnd=    0 NThAct=    1.
 PrsmSu:  NPrtUS=   1 ThrOK=F IAlg=1 NPAlg=1 LenDen=           0 ISkipM=0 DoSpLW=F IThBeg=    0 IThEnd=    0.
 Prism:   IPart=     0 DynPar=F LinDyn=F Incr=         512.
 PRISM was handed  1323680053 working-precision words and165596 shell-pairs
 IPart=  0 NShTot=      165596 NBatch=         377 AvBLen=       439.2
 PrsmSu-ThDecC:  IPartSL=    0    0 NPrtUSL=    1    1 IThBeg=    0 IThEnd=    0 CPU=   -1 GPU=   -1 NThAct=    1.
 PrSmSu:  NxtVal=            513.
 Electronic moments (au):
       -716.00000000         11.74267269          1.24426896          1.01314798
     -50388.76824011     -27654.45007283     -13157.83255399         74.25834899
         23.27573042        102.45700624     -40730.57970409     -25628.03606481
     -13439.38138747      19259.12634191      96088.73609999      39474.85548261
     -15948.84517540      -3367.51941537      -8846.90902856     -42786.19532372
   -6838844.98630336   -2481946.44823568    -644441.74728515      74355.54317970
     383910.28533175    -511402.02194742     -26107.37583996     -65996.98571906
      -8978.32579387   -1973476.26996604    -725757.38140834    -367213.20705614
     -98164.00666396     -29198.12092739      30935.38988208
 Electronic spatial extent (au):  <R**2>=          91201.0509
 DipInt: DoE/N= F T RetVal/Mat= T F Init=T NMatP=  1 IDeriv=0 Min/MaxMlt=  0  4
 Nuclear    moments (au):
        716.00000000         -0.00000000          0.00000000          0.00000000
      49870.85511256      27351.50748476      12800.36115405         -0.00000000
          0.00000000          0.00000000      41600.41295142      26781.62338802
      13331.36216649     -17504.83249607     -96001.37053274     -39381.00800174
      16293.12366020       3401.36613560       9589.23833194      43336.05455887
    6631708.56940641    2409750.47815796     602577.75562040     -70764.26946166
    -382207.68335408     530252.54823356      38546.97984073      68048.70216793
      13948.17730024    1940257.01374283     692315.33580514     347605.03224789
     104739.13756467      32524.57704043     -28251.35507627
 Total      moments (au):
         -0.00000000         11.74267269          1.24426896          1.01314798
       -517.91312755       -302.94258807       -357.47139993         74.25834899
         23.27573042        102.45700624        869.83324734       1153.58732320
       -108.01922099       1754.29384584         87.36556725         93.84748088
        344.27848480         33.84672023        742.32930337        549.85923515
    -207136.41689695     -72195.97007772     -41863.99166475       3591.27371804
       1702.60197767      18850.52628614      12439.60400077       2051.71644887
       4969.85150637     -33219.25622321     -33442.04560320     -19608.17480826
       6575.13090071       3326.45611304       2684.03480581
 Traceless Quadrup. (au):
       -125.13742237         89.83311711         35.30430525         74.25834899
         23.27573042        102.45700624
 Charge=             -0.0000 electrons
 Dipole moment (field-independent basis, Debye):
    X=             29.8469    Y=              3.1626    Z=              2.5752  Tot=             30.1243
 Quadrupole moment (field-independent basis, Debye-Ang):
   XX=           -696.6109   YY=           -407.4682   ZZ=           -480.8113
   XY=             99.8800   XZ=             31.3067   YZ=            137.8082
 Traceless Quadrupole moment (field-independent basis, Debye-Ang):
   XX=           -168.3141   YY=            120.8286   ZZ=             47.4855
   XY=             99.8800   XZ=             31.3067   YZ=            137.8082
 Octapole moment (field-independent basis, Debye-Ang**2):
  XXX=            619.1138  YYY=            821.0790  ZZZ=            -76.8839  XYY=           1248.6388
  XXY=             62.1834  XXZ=             66.7970  XZZ=            245.0442  YZZ=             24.0908
  YYZ=            528.3614  XYZ=            391.3686
 Hexadecapole moment (field-independent basis, Debye-Ang**3):
 XXXX=         -78017.5071 YYYY=         -27192.4642 ZZZZ=         -15767.9867 XXXY=           1352.6459
 XXXZ=            641.2815 YYYX=           7100.0121 YYYZ=           4685.3514 ZZZX=            772.7748
 ZZZY=           1871.8844 XXYY=         -12511.9648 XXZZ=         -12595.8780 YYZZ=          -7385.3789
 XXYZ=           2476.5096 YYXZ=           1252.9029 ZZXY=           1010.9362
 N-N= 2.202832914423D+04 E-N=-5.653951900284D+04  KE= 5.290688101340D+03
 Leave Link  601 at Wed Sep 18 20:23:28 2019, MaxMem=  1342177280 cpu:              50.7 elap:               1.3
 FitSet:  NAtFit=   176 NAtPot=   176 NAtFrz=     0 MDM=   180 TotChg=   0.00000
 Merz-Kollman atomic radii used.
 Read replacement radii for each type of atom:
 Rad(20) =   1.700000000000D+00
 Atom Element Radius
    1     6    1.50
    2     6    1.50
    3     8    1.40
    4     1    1.20
    5     1    1.20
    6     1    1.20
    7     7    1.50
    8     6    1.50
    9     6    1.50
   10     8    1.40
   11     6    1.50
   12     6    1.50
   13     8    1.40
   14     8    1.40
   15     1    1.20
   16     1    1.20
   17     1    1.20
   18     1    1.20
   19     7    1.50
   20     6    1.50
   21     6    1.50
   22     8    1.40
   23     6    1.50
   24     6    1.50
   25     6    1.50
   26     6    1.50
   27     7    1.50
   28     1    1.20
   29     1    1.20
   30     1    1.20
   31     1    1.20
   32     1    1.20
   33     1    1.20
   34     1    1.20
   35     1    1.20
   36     1    1.20
   37     1    1.20
   38     1    1.20
   39     1    1.20
   40     1    1.20
   41     7    1.50
   42     6    1.50
   43     6    1.50
   44     8    1.40
   45     6    1.50
   46     6    1.50
   47     8    1.40
   48     8    1.40
   49     1    1.20
   50     1    1.20
   51     1    1.20
   52     1    1.20
   53     7    1.50
   54     6    1.50
   55     6    1.50
   56     8    1.40
   57     1    1.20
   58     1    1.20
   59     1    1.20
   60     7    1.50
   61     6    1.50
   62     6    1.50
   63     8    1.40
   64     6    1.50
   65     6    1.50
   66     7    1.50
   67     8    1.40
   68     1    1.20
   69     1    1.20
   70     1    1.20
   71     1    1.20
   72     1    1.20
   73     1    1.20
   74     7    1.50
   75     6    1.50
   76     6    1.50
   77     8    1.40
   78     1    1.20
   79     1    1.20
   80     1    1.20
   81     7    1.50
   82     6    1.50
   83     6    1.50
   84     8    1.40
   85     6    1.50
   86     6    1.50
   87     6    1.50
   88     6    1.50
   89     6    1.50
   90     6    1.50
   91     6    1.50
   92     8    1.40
   93     1    1.20
   94     1    1.20
   95     1    1.20
   96     1    1.20
   97     1    1.20
   98     1    1.20
   99     1    1.20
  100     1    1.20
  101     1    1.20
  102     7    1.50
  103     6    1.50
  104     6    1.50
  105     8    1.40
  106     6    1.50
  107     6    1.50
  108     6    1.50
  109     6    1.50
  110     1    1.20
  111     1    1.20
  112     1    1.20
  113     1    1.20
  114     1    1.20
  115     1    1.20
  116     1    1.20
  117     1    1.20
  118     1    1.20
  119     1    1.20
  120     1    1.20
  121     7    1.50
  122     6    1.50
  123     6    1.50
  124     8    1.40
  125     6    1.50
  126     8    1.40
  127     1    1.20
  128     1    1.20
  129     1    1.20
  130     1    1.20
  131     1    1.20
  132     7    1.50
  133     6    1.50
  134     6    1.50
  135     8    1.40
  136     6    1.50
  137     1    1.20
  138     1    1.20
  139     1    1.20
  140     1    1.20
  141     1    1.20
  142     7    1.50
  143     6    1.50
  144     6    1.50
  145     8    1.40
  146     6    1.50
  147     1    1.20
  148     1    1.20
  149     1    1.20
  150     1    1.20
  151     1    1.20
  152     7    1.50
  153     6    1.50
  154     6    1.50
  155     8    1.40
  156     6    1.50
  157     6    1.50
  158     6    1.50
  159     8    1.40
  160     8    1.40
  161     1    1.20
  162     1    1.20
  163     1    1.20
  164     1    1.20
  165     1    1.20
  166     1    1.20
  167     7    1.50
  168     6    1.50
  169     1    1.20
  170     1    1.20
  171     1    1.20
  172     1    1.20
[...]
 **** Fit      -0.036579
 **** Fit      -0.038944
 **** Fit      -0.037482
 **** Fit      -0.035508
 **** Fit      -0.032944
 **** Fit      -0.029740
 **** Fit      -0.025862
 **** Fit      -0.021301
 **** Fit      -0.016093
 **** Fit      -0.010356
 **** Fit      -0.004336
 **** Fit       0.001557
 **** Fit       0.006738
 **** Fit      -0.040899
 **** Fit      -0.040017
 **** Fit      -0.043109
 **** Fit      -0.041556
 **** Fit      -0.039396
 **** Fit      -0.036588
 **** Fit      -0.033115
 **** Fit      -0.028979
 **** Fit      -0.024217
 **** Fit      -0.018924
 **** Fit      -0.013289
 **** Fit      -0.007628
 **** Fit      -0.002392
 **** Fit      -0.044847
 **** Fit      -0.044146
 **** Fit      -0.044356
 **** Fit      -0.040998
 **** Fit      -0.036928
 **** Fit      -0.032212
 **** Fit      -0.026951
 **** Fit      -0.021314
 **** Fit      -0.015557
 **** Fit      -0.036200
 **** Fit      -0.030186
 **** Fit      -0.008865
 **** Fit      -0.008607
 **** Fit      -0.005012
 **** Fit      -0.002014
 **** Fit      -0.003800
 **** Fit      -0.002192
 **** Fit      -0.001025
 **** Fit      -0.000836
 **** Fit      -0.004382
 **** Fit      -0.008204
 **** Fit      -0.013094
 **** Fit      -0.018160
 **** Fit      -0.000407
 **** Fit      -0.000380
 **** Fit      -0.001046
 **** Fit      -0.002813
 **** Fit      -0.005664
 **** Fit      -0.009048
 **** Fit      -0.011584
 **** Fit       0.001461
 **** Fit       0.000201
 **** Fit      -0.001571
 **** Fit      -0.003489
 **** Fit      -0.004164
 **** Fit      -0.001347
 **** Fit       0.006634
 **** Fit       0.018480
 **** Fit       0.002512
 **** Fit       0.001658
 **** Fit       0.003549
 **** Fit       0.010308
 **** Fit      -0.019828
 **** Fit      -0.008608
 **** Fit       0.005180
 **** Fit      -0.000520
 **** Fit       0.013820
 **** Fit      -0.019279
 **** Fit      -0.025289
 **** Fit      -0.032441
 **** Fit      -0.020426
 **** Fit      -0.029176
 **** Fit       0.000122
 **** Fit       0.010287
 **** Fit      -0.024147
 **** Fit      -0.012666
 **** Fit      -0.002087
 **** Fit       0.007125
 **** Fit      -0.023480
 **** Fit      -0.012398
 **** Fit      -0.002614
 **** Fit       0.005625
 **** Fit      -0.012233
 **** Fit      -0.003119
 **** Fit       0.004125
 **** Fit      -0.013180
 **** Fit      -0.004792
 **** Fit       0.001461
 **** Fit       0.005692
 **** Fit      -0.011017
 **** Fit      -0.004106
 **** Fit       0.000354
 **** Fit      -0.009465
 **** Fit      -0.004517
 **** Fit      -0.003087
 **** Fit       0.000525
 **** Fit       0.001063
 **** Fit       0.027928
 **** Fit       0.005679
 **** Fit       0.004808
 **** Fit       0.004539
 **** Fit       0.004409
 **** Fit       0.004855
 **** Fit       0.007167
 **** Fit       0.012979
 **** Fit       0.022920
 **** Fit       0.011654
 **** Fit       0.009390
 **** Fit       0.008941
 **** Fit       0.010276
 **** Fit       0.014810
 **** Fit       0.023608
 **** Fit       0.019482
 **** Fit       0.014903
 **** Fit       0.015952
 **** Fit       0.023182
 **** Fit       0.030586
 **** Fit       0.021758
 **** Fit      -0.000269
 **** Fit       0.004955
 **** Fit      -0.004114
 **** Fit       0.000394
 **** Fit       0.004096
 **** Fit       0.006414
 **** Fit      -0.002208
 **** Fit       0.000662
 **** Fit       0.002587
 **** Fit       0.002994
 **** Fit       0.001707
 **** Fit      -0.000894
 **** Fit       0.000272
 **** Fit       0.000135
 **** Fit      -0.001715
 **** Fit      -0.005237
 **** Fit      -0.001989
 **** Fit       0.004976
 **** Fit       0.005418
 **** Fit       0.004353
 **** Fit       0.004711
 **** Fit       0.005234
 **** Fit       0.005766
 **** Fit       0.004284
 **** Fit       0.003672
 **** Fit       0.003981
 **** Fit       0.004452
 **** Fit       0.004978
 **** Fit       0.005469
 **** Fit       0.005904
 **** Fit       0.003936
 **** Fit       0.003663
 **** Fit       0.003571
 **** Fit       0.002879
 **** Fit       0.003147
 **** Fit       0.003592
 **** Fit       0.005444
 **** Fit       0.005827
 **** Fit       0.006175
 **** Fit       0.003385
 **** Fit       0.003090
 **** Fit       0.002892
 **** Fit       0.002806
 **** Fit       0.001926
 **** Fit       0.002113
 **** Fit       0.005110
 **** Fit       0.005484
 **** Fit       0.003126
 **** Fit       0.002800
 **** Fit       0.002522
 **** Fit       0.002268
 **** Fit       0.002051
 **** Fit       0.001919
 **** Fit       0.000779
 **** Fit       0.000874
 **** Fit       0.003885
 **** Fit       0.004311
 **** Fit       0.002656
 **** Fit       0.002379
 **** Fit       0.002096
 **** Fit       0.001780
 **** Fit       0.001438
 **** Fit       0.001114
 **** Fit       0.000873
 **** Fit      -0.000591
 **** Fit      -0.000625
 **** Fit       0.000825
 **** Fit       0.001653
 **** Fit       0.002159
 **** Fit       0.002444
 **** Fit       0.002248
 **** Fit       0.002033
 **** Fit       0.000016
 **** Fit      -0.000365
 **** Fit      -0.002209
 **** Fit      -0.002407
 **** Fit      -0.004046
 **** Fit      -0.002580
 **** Fit      -0.001551
 **** Fit       0.002002
 **** Fit       0.001951
 **** Fit      -0.001821
 **** Fit      -0.004112
 **** Fit      -0.004494
 **** Fit      -0.006996
 **** Fit       0.001270
 **** Fit       0.001594
 **** Fit       0.001715
 **** Fit      -0.006354
 **** Fit      -0.006925
 **** Fit      -0.000860
 **** Fit       0.000243
 **** Fit       0.001082
 **** Fit       0.001511
 **** Fit      -0.009768
 **** Fit      -0.010540
 **** Fit      -0.002601
 **** Fit      -0.000571
 **** Fit       0.000852
 **** Fit      -0.013067
 **** Fit      -0.014087
 **** Fit      -0.016899
 **** Fit      -0.018070
 **** Fit      -0.019880
 **** Fit      -0.021394
 **** Fit      -0.022653
 **** Fit      -0.024916
 **** Fit      -0.026596
 **** Fit      -0.027795
 **** Fit      -0.030511
 **** Fit      -0.032474
 **** Fit      -0.033302
 **** Fit       0.001880
 **** Fit       0.001565
 **** Fit       0.001144
 **** Fit       0.000669
 **** Fit       0.000203
 **** Fit      -0.001442
 **** Fit       0.001879
 **** Fit       0.001715
 **** Fit       0.001361
 **** Fit       0.000859
 **** Fit       0.000275
 **** Fit      -0.000331
 **** Fit      -0.000917
 **** Fit      -0.002959
 **** Fit      -0.003531
 **** Fit       0.001769
 **** Fit       0.001577
 **** Fit       0.001127
 **** Fit       0.000504
 **** Fit      -0.000204
 **** Fit      -0.000934
 **** Fit      -0.001646
 **** Fit      -0.002325
 **** Fit      -0.004819
 **** Fit      -0.005544
 **** Fit       0.001748
 **** Fit       0.001630
 **** Fit       0.001096
 **** Fit       0.000292
 **** Fit      -0.000632
 **** Fit      -0.001567
 **** Fit      -0.002459
 **** Fit      -0.003291
 **** Fit      -0.004073
 **** Fit      -0.007138
 **** Fit      -0.007962
 **** Fit       0.001770
 **** Fit       0.001787
 **** Fit       0.001128
 **** Fit       0.000041
 **** Fit      -0.001217
 **** Fit      -0.002462
 **** Fit      -0.003600
 **** Fit      -0.004609
 **** Fit      -0.005506
 **** Fit      -0.006334
 **** Fit      -0.010074
 **** Fit      -0.010939
 **** Fit      -0.011940
 **** Fit       0.001555
 **** Fit       0.000097
 **** Fit      -0.001727
 **** Fit      -0.003540
 **** Fit      -0.005140
 **** Fit      -0.006469
 **** Fit      -0.007552
 **** Fit      -0.008459
 **** Fit      -0.009273
 **** Fit      -0.013851
 **** Fit      -0.014686
 **** Fit      -0.015768
 **** Fit      -0.004006
 **** Fit      -0.006723
 **** Fit      -0.008882
 **** Fit      -0.010469
 **** Fit      -0.011602
 **** Fit      -0.012440
 **** Fit      -0.013143
 **** Fit      -0.018795
 **** Fit      -0.019422
 **** Fit      -0.020455
 **** Fit      -0.017549
 **** Fit      -0.018068
 **** Fit      -0.018405
 **** Fit      -0.025387
 **** Fit      -0.025451
 **** Fit      -0.026136
 **** Fit       0.004934
 **** Fit       0.003718
 **** Fit       0.004217
 **** Fit       0.004836
 **** Fit       0.005314
 **** Fit       0.005426
 **** Fit       0.002790
 **** Fit       0.003188
 **** Fit       0.003732
 **** Fit       0.004325
 **** Fit       0.004848
 **** Fit       0.005166
 **** Fit       0.005189
 **** Fit       0.001578
 **** Fit       0.001877
 **** Fit       0.002297
 **** Fit       0.002784
 **** Fit       0.003289
 **** Fit       0.003747
 **** Fit       0.004076
 **** Fit       0.004200
 **** Fit       0.004101
 **** Fit       0.000057
 **** Fit       0.000241
 **** Fit       0.000504
 **** Fit       0.000800
 **** Fit       0.001102
 **** Fit       0.001389
 **** Fit       0.001634
 **** Fit       0.001793
 **** Fit       0.001832
 **** Fit       0.001758
 **** Fit       0.001626
 **** Fit      -0.001804
 **** Fit      -0.001765
 **** Fit      -0.001704
 **** Fit      -0.001671
 **** Fit      -0.001697
 **** Fit      -0.001793
 **** Fit      -0.001957
 **** Fit      -0.002179
 **** Fit      -0.002437
 **** Fit      -0.002687
 **** Fit      -0.002852
 **** Fit      -0.002847
 **** Fit      -0.004047
 **** Fit      -0.004181
 **** Fit      -0.004367
 **** Fit      -0.004678
 **** Fit      -0.005166
 **** Fit      -0.005862
 **** Fit      -0.006772
 **** Fit      -0.007863
 **** Fit      -0.006726
 **** Fit      -0.007068
 **** Fit      -0.007558
 **** Fit      -0.008299
 **** Fit      -0.009379
 **** Fit      -0.010880
 **** Fit      -0.012861
 **** Fit      -0.009905
 **** Fit      -0.010497
 **** Fit      -0.011369
 **** Fit      -0.012670
 **** Fit      -0.014549
 **** Fit      -0.017174
 **** Fit      -0.014581
 **** Fit      -0.016013
 **** Fit      -0.018187
 **** Fit      -0.021379
 **** Fit      -0.019401
 **** Fit      -0.021639
 **** Fit      -0.025143
 **** Fit      -0.028217
 **** Fit       0.006748
 **** Fit       0.006051
 **** Fit       0.006585
 **** Fit       0.007259
 **** Fit       0.007379
 **** Fit       0.006797
 **** Fit       0.006141
 **** Fit       0.005294
 **** Fit       0.005648
 **** Fit       0.006251
 **** Fit       0.006981
 **** Fit       0.007603
 **** Fit       0.007931
 **** Fit       0.006786
 **** Fit       0.006007
 **** Fit       0.005477
 **** Fit       0.005235
 **** Fit       0.006359
 **** Fit       0.007079
 **** Fit       0.007663
 **** Fit       0.008012
 **** Fit       0.005850
 **** Fit       0.005212
 **** Fit       0.004780
 **** Fit       0.004517
 **** Fit       0.006910
 **** Fit       0.007403
 **** Fit       0.005876
 **** Fit       0.005047
 **** Fit       0.004509
 **** Fit       0.004123
 **** Fit       0.003842
 **** Fit       0.006200
 **** Fit       0.005034
 **** Fit       0.004303
 **** Fit       0.003855
 **** Fit       0.003513
 **** Fit       0.003919
 **** Fit       0.003437
 **** Fit       0.003152
 **** Fit       0.002901
 **** Fit       0.002529
 **** Fit       0.002453
 **** Fit       0.001173
 **** Fit       0.001477
 **** Fit      -0.001068
 **** Fit      -0.000185
 **** Fit       0.023533
 **** Fit       0.005603
 **** Fit       0.013511
 **** Fit       0.022109
 **** Fit       0.036291
 **** Fit       0.041071
 **** Fit       0.017638
 **** Fit       0.024502
 **** Fit       0.031531
 **** Fit       0.037742
 **** Fit       0.043343
 **** Fit       0.028504
 **** Fit       0.035095
 **** Fit       0.041640
 **** Fit       0.047549
 **** Fit       0.028030
 **** Fit       0.004521
 **** Fit       0.028909
 **** Fit       0.017555
 **** Fit       0.005023
 **** Fit       0.039128
 **** Fit       0.027998
 **** Fit       0.016749
 **** Fit       0.004118
 **** Fit       0.047548
 **** Fit       0.037131
 **** Fit       0.026953
 **** Fit       0.016315
 **** Fit       0.004433
 **** Fit       0.060331
 **** Fit       0.051924
 **** Fit       0.042680
 **** Fit       0.033197
 **** Fit       0.023393
 **** Fit       0.012916
 **** Fit       0.001584
 **** Fit       0.069739
 **** Fit       0.070459
 **** Fit       0.053607
 **** Fit       0.046538
 **** Fit       0.038363
 **** Fit       0.029595
 **** Fit       0.020402
 **** Fit       0.011010
 **** Fit       0.002253
 **** Fit       0.003899
 **** Fit       0.012384
 **** Fit       0.061380
 **** Fit       0.062168
 **** Fit       0.061502
 **** Fit       0.058754
 **** Fit       0.048122
 **** Fit       0.041585
 **** Fit       0.033780
 **** Fit       0.025434
 **** Fit       0.017339
 **** Fit       0.010829
 **** Fit       0.007708
 **** Fit       0.009039
 **** Fit       0.014135
 **** Fit       0.021305
 **** Fit       0.029069
 **** Fit       0.043223
 **** Fit       0.048703
 **** Fit       0.052546
 **** Fit       0.054577
 **** Fit       0.054701
 **** Fit       0.052619
 **** Fit       0.043301
 **** Fit       0.036567
 **** Fit       0.028651
 **** Fit       0.021690
 **** Fit       0.018278
 **** Fit       0.019983
 **** Fit       0.025734
 **** Fit       0.033096
 **** Fit       0.040077
 **** Fit       0.045322
 **** Fit       0.047906
 **** Fit       0.047296
 **** Fit       0.038811
 **** Fit       0.031633
 **** Fit       0.026947
 **** Fit       0.030111
 **** Fit       0.037217
 **** Fit       0.041307
 **** Fit       0.034452
 **** Fit       0.026710
 **** Fit       0.027905
 **** Fit       0.031607
 **** Fit       0.027741
 **** Fit       0.031635
 **** Fit       0.035662
 **** Fit       0.028317
 **** Fit       0.031774
 **** Fit       0.035474
 **** Fit       0.039458
 **** Fit       0.031153
 **** Fit       0.033861
 **** Fit       0.037099
 **** Fit       0.040782
 **** Fit       0.044912
 **** Fit       0.035203
 **** Fit       0.036590
 **** Fit       0.038977
 **** Fit       0.042047
 **** Fit       0.045647
 **** Fit       0.049750
 **** Fit       0.039716
 **** Fit       0.040601
 **** Fit       0.042664
 **** Fit       0.045491
 **** Fit       0.048889
 **** Fit       0.052783
 **** Fit       0.043218
 **** Fit       0.044491
 **** Fit       0.046798
 **** Fit       0.049808
 **** Fit       0.053363
 **** Fit       0.057394
 **** Fit       0.045796
 **** Fit       0.045769
 **** Fit       0.047242
 **** Fit       0.049670
 **** Fit       0.052767
 **** Fit       0.056390
 **** Fit       0.060479
 **** Fit       0.047057
 **** Fit       0.047707
 **** Fit       0.049489
 **** Fit       0.052055
 **** Fit       0.055203
 **** Fit       0.058826
 **** Fit       0.062903
 **** Fit       0.047591
 **** Fit       0.048282
 **** Fit       0.050002
 **** Fit       0.052519
 **** Fit       0.055640
 **** Fit       0.059246
 **** Fit       0.063305
 **** Fit       0.067879
 **** Fit       0.073073
 **** Fit       0.045715
 **** Fit       0.046971
 **** Fit       0.048223
 **** Fit       0.050087
 **** Fit       0.052622
 **** Fit       0.055717
 **** Fit       0.059251
 **** Fit       0.063138
 **** Fit       0.067289
 **** Fit       0.071433
 **** Fit       0.046830
 **** Fit       0.049048
 **** Fit       0.051656
 **** Fit       0.054760
 **** Fit       0.058242
 **** Fit       0.061888
 **** Fit       0.065351
 **** Fit       0.046426
 **** Fit       0.049420
 **** Fit       0.052735
 **** Fit       0.056364
 **** Fit       0.059810
 **** Fit       0.050216
 **** Fit       0.054248
 -----------------------------------------------------------------
 Leave Link  602 at Wed Sep 18 20:23:31 2019, MaxMem=  1342177280 cpu:             114.8 elap:               2.4

 Test job not archived.
 1\1\GINC-C506-103\SP\RB3LYP\SVP\C54H83Ca1N15O23\JAEBEOMH\18-Sep-2019\0
 \\#b3lyp/svp scf=(tight,noincore) Test #IOP(5/87=12) Density=Current P
 op=(MK,readradii) iop(6/33=2) iop(6/42=6)\\holoCaM_loop3_57.0\\0,1\C,0
 ,70.22,52.42,92.27\C,0,70.23,53.03,93.66\O,0,70.52,52.3,94.61\H,0,70.5
 96,53.148,91.552\H,0,70.856,51.535,92.256\H,0,69.201,52.14,92.003\N,0,
 69.77,54.27,93.74\C,0,69.53,54.95,95.01\C,0,68.21,54.61,95.68\O,0,67.1
 3,54.89,95.17\C,0,69.54,56.44,94.7\C,0,69.51,57.3,95.95\O,0,69.11,58.4
 8,95.79\O,0,69.68,56.77,97.07\H,0,69.65,54.82,92.9\H,0,70.29,54.73,95.
 76\H,0,68.73,56.63,93.99\H,0,70.47,56.63,94.17\N,0,68.37,53.93,96.82\C
 ,0,67.29,53.14,97.4\C,0,66.65,53.93,98.53\O,0,65.65,53.46,99.06\C,0,67
 .81,51.85,98.01\C,0,68.55,50.84,97.14\C,0,67.67,50.3,96.01\C,0,68.4,49
 .24,95.2\N,0,67.66,48.49,94.18\H,0,69.29,53.68,97.14\H,0,66.49,52.95,9
 6.68\H,0,66.95,51.26,98.33\H,0,68.34,52.07,98.94\H,0,68.83,50.03,97.81
 \H,0,69.47,51.25,96.71\H,0,67.4,51.05,95.27\H,0,66.76,49.86,96.42\H,0,
 68.67,48.53,95.98\H,0,69.29,49.67,94.74\H,0,67.33,49.13,93.47\H,0,68.3
 1,47.8,93.83\H,0,66.88,47.98,94.57\N,0,67.18,55.13,98.8\C,0,66.61,55.9
 4,99.86\C,0,66.18,57.34,99.45\O,0,65.61,58.06,100.27\C,0,67.49,55.97,1
 01.1\C,0,68.88,56.51,100.77\O,0,69.9,55.9,101.14\O,0,69.04,57.46,99.97
 \H,0,68.,55.35,98.25\H,0,65.66,55.51,100.18\H,0,67.62,54.92,101.38\H,0
 ,66.99,56.52,101.89\N,0,66.43,57.71,98.2\C,0,66.03,58.99,97.65\C,0,66.
 97,60.14,98.\O,0,66.59,61.28,97.75\H,0,67.1,57.14,97.71\H,0,65.,59.24,
 97.89\H,0,66.13,58.83,96.58\N,0,68.1,59.89,98.66\C,0,68.95,60.94,99.18
 \C,0,69.7,61.62,98.04\O,0,70.31,62.61,98.45\C,0,69.65,60.51,100.47\C,0
 ,70.99,59.81,100.44\N,0,71.72,59.89,101.56\O,0,71.41,59.13,99.51\H,0,6
 8.35,58.93,98.86\H,0,68.22,61.7,99.45\H,0,68.98,59.88,101.06\H,0,69.79
 ,61.41,101.07\H,0,71.37,60.3,102.41\H,0,72.56,59.34,101.69\N,0,69.76,6
 1.07,96.83\C,0,70.41,61.63,95.66\C,0,71.64,60.84,95.21\O,0,72.35,61.41
 ,94.39\H,0,69.31,60.17,96.71\H,0,70.78,62.63,95.9\H,0,69.7,61.65,94.84
 \N,0,72.01,59.77,95.92\C,0,73.34,59.19,95.93\C,0,73.31,57.67,95.98\O,0
 ,72.59,57.1,96.8\C,0,74.15,59.72,97.11\C,0,74.26,61.21,97.33\C,0,73.58
 ,61.86,98.37\C,0,74.9,61.97,96.34\C,0,73.53,63.25,98.52\C,0,74.91,63.3
 6,96.5\C,0,74.21,63.99,97.54\O,0,74.24,65.34,97.72\H,0,71.32,59.41,96.
 56\H,0,73.91,59.5,95.06\H,0,75.13,59.24,97.06\H,0,73.64,59.33,97.98\H,
 0,73.12,61.14,99.04\H,0,75.29,61.47,95.46\H,0,73.1,63.78,99.36\H,0,75.
 3,63.99,95.72\H,0,74.86,65.69,97.07\N,0,74.1,56.93,95.2\C,0,74.37,55.5
 1,95.34\C,0,75.57,55.28,96.25\O,0,76.63,55.78,95.87\C,0,74.7,54.86,94.
 \C,0,73.8,55.39,92.89\C,0,74.57,53.33,94.02\C,0,74.14,54.84,91.51\H,0,
 74.64,57.42,94.51\H,0,73.47,55.01,95.7\H,0,75.72,55.03,93.67\H,0,74.,5
 6.46,92.79\H,0,72.76,55.1,93.04\H,0,75.2,52.9,93.24\H,0,74.97,52.91,94
 .94\H,0,73.55,52.96,93.93\H,0,74.07,53.76,91.4\H,0,73.38,55.16,90.8\H,
 0,75.14,55.19,91.23\N,0,75.45,54.57,97.37\C,0,76.55,54.29,98.28\C,0,77
 .11,52.97,97.76\O,0,76.52,52.31,96.91\C,0,76.1,54.24,99.73\O,0,75.33,5
 3.1,100.04\H,0,74.53,54.35,97.72\H,0,77.37,54.99,98.1\H,0,75.42,55.01,
 100.1\H,0,77.03,54.28,100.3\H,0,74.88,53.35,100.86\N,0,78.28,52.66,98.
 31\C,0,78.78,51.32,98.08\C,0,77.9,50.17,98.55\O,0,77.79,49.22,97.78\C,
 0,80.16,51.27,98.74\H,0,78.8,53.17,99.02\H,0,79.,51.14,97.03\H,0,80.69
 ,52.22,98.68\H,0,79.92,51.,99.77\H,0,80.91,50.59,98.34\N,0,77.07,50.41
 ,99.56\C,0,76.13,49.48,100.18\C,0,74.89,49.34,99.31\O,0,74.17,48.35,99
 .38\C,0,75.81,49.97,101.59\H,0,77.3,51.25,100.07\H,0,76.66,48.54,100.3
 \H,0,75.39,50.98,101.6\H,0,75.22,49.24,102.14\H,0,76.77,50.1,102.09\N,
 0,74.67,50.33,98.44\C,0,73.58,50.27,97.49\C,0,74.1,49.64,96.2\O,0,73.4
 4,48.73,95.71\C,0,72.97,51.66,97.27\C,0,72.18,52.07,98.51\C,0,71.82,53
 .55,98.36\O,0,72.69,54.42,98.14\O,0,70.64,53.94,98.42\H,0,75.22,51.18,
 98.46\H,0,72.76,49.66,97.86\H,0,72.35,51.75,96.38\H,0,73.8,52.36,97.17
 \H,0,72.81,51.86,99.37\H,0,71.25,51.51,98.54\N,0,75.25,50.1,95.71\C,0,
 75.77,49.61,94.45\H,0,76.789,49.249,94.594\H,0,75.143,48.794,94.09\H,0
 ,75.771,50.418,93.718\H,0,75.78,50.82,96.18\Ca,0,71.27,56.46,98.96\O,0
 ,73.1,56.22,100.872\H,0,72.86,55.53,101.492\H,0,74.01,56.43,101.092\\V
 ersion=ES64L-G16RevA.03\State=1-A\HF=-5333.6234953\RMSD=5.105e-09\Dipo
 le=4.140016,-10.9636212,-1.7675726\Quadrupole=-12.9620689,-31.7562786,
 44.7183475,124.4244294,89.9652633,62.274297\PG=C01 [X(C54H83Ca1N15O23)
 ]\\@


 NATURE REVEALS EVERY SECRET ONCE.
                    - RALPH WALDO EMERSON
 Job cpu time:       0 days  9 hours 25 minutes 20.1 seconds.
 Elapsed time:       0 days  0 hours 11 minutes 54.5 seconds.
 File lengths (MBytes):  RWF=   1517 Int=      0 D2E=      0 Chk=    171 Scr=      1
 Normal termination of Gaussian 16 at Wed Sep 18 20:23:33 2019.
