 Entering Gaussian System, Link 0=g16
 Initial command:
 /home1/apps/gaussian/16rA.03/g16/l1.exe "/scratch/01990/pengzhi/4328648/Gau-348500.inp" -scrdir="/scratch/01990/pengzhi/4328648/"
 Entering Link 1 = /home1/apps/gaussian/16rA.03/g16/l1.exe PID=    348501.
  
 Copyright (c) 1988,1990,1992,1993,1995,1998,2003,2009,2016,
            Gaussian, Inc.  All Rights Reserved.
  
 This is part of the Gaussian(R) 16 program.  It is based on
 the Gaussian(R) 09 system (copyright 2009, Gaussian, Inc.),
 the Gaussian(R) 03 system (copyright 2003, Gaussian, Inc.),
 the Gaussian(R) 98 system (copyright 1998, Gaussian, Inc.),
 the Gaussian(R) 94 system (copyright 1995, Gaussian, Inc.),
 the Gaussian 92(TM) system (copyright 1992, Gaussian, Inc.),
 the Gaussian 90(TM) system (copyright 1990, Gaussian, Inc.),
 the Gaussian 88(TM) system (copyright 1988, Gaussian, Inc.),
 the Gaussian 86(TM) system (copyright 1986, Carnegie Mellon
 University), and the Gaussian 82(TM) system (copyright 1983,
 Carnegie Mellon University). Gaussian is a federally registered
 trademark of Gaussian, Inc.
  
 This software contains proprietary and confidential information,
 including trade secrets, belonging to Gaussian, Inc.
  
 This software is provided under written license and may be
 used, copied, transmitted, or stored only in accord with that
 written license.
  
 The following legend is applicable only to US Government
 contracts under FAR:
  
                    RESTRICTED RIGHTS LEGEND
  
 Use, reproduction and disclosure by the US Government is
 subject to restrictions as set forth in subparagraphs (a)
 and (c) of the Commercial Computer Software - Restricted
 Rights clause in FAR 52.227-19.
  
 Gaussian, Inc.
 340 Quinnipiac St., Bldg. 40, Wallingford CT 06492
  
  
 ---------------------------------------------------------------
 Warning -- This program may not be used in any manner that
 competes with the business of Gaussian, Inc. or will provide
 assistance to any competitor of Gaussian, Inc.  The licensee
 of this program is prohibited from giving any competitor of
 Gaussian, Inc. access to this program.  By using this program,
 the user acknowledges that Gaussian, Inc. is engaged in the
 business of creating and licensing software in the field of
 computational chemistry and represents and warrants to the
 licensee that it is not a competitor of Gaussian, Inc. and that
 it will not use this program in any manner prohibited above.
 ---------------------------------------------------------------
  

 Cite this work as:
 Gaussian 16, Revision A.03,
 M. J. Frisch, G. W. Trucks, H. B. Schlegel, G. E. Scuseria, 
 M. A. Robb, J. R. Cheeseman, G. Scalmani, V. Barone, 
 G. A. Petersson, H. Nakatsuji, X. Li, M. Caricato, A. V. Marenich, 
 J. Bloino, B. G. Janesko, R. Gomperts, B. Mennucci, H. P. Hratchian, 
 J. V. Ortiz, A. F. Izmaylov, J. L. Sonnenberg, D. Williams-Young, 
 F. Ding, F. Lipparini, F. Egidi, J. Goings, B. Peng, A. Petrone, 
 T. Henderson, D. Ranasinghe, V. G. Zakrzewski, J. Gao, N. Rega, 
 G. Zheng, W. Liang, M. Hada, M. Ehara, K. Toyota, R. Fukuda, 
 J. Hasegawa, M. Ishida, T. Nakajima, Y. Honda, O. Kitao, H. Nakai, 
 T. Vreven, K. Throssell, J. A. Montgomery, Jr., J. E. Peralta, 
 F. Ogliaro, M. J. Bearpark, J. J. Heyd, E. N. Brothers, K. N. Kudin, 
 V. N. Staroverov, T. A. Keith, R. Kobayashi, J. Normand, 
 K. Raghavachari, A. P. Rendell, J. C. Burant, S. S. Iyengar, 
 J. Tomasi, M. Cossi, J. M. Millam, M. Klene, C. Adamo, R. Cammi, 
 J. W. Ochterski, R. L. Martin, K. Morokuma, O. Farkas, 
 J. B. Foresman, and D. J. Fox, Gaussian, Inc., Wallingford CT, 2016.
 
 ******************************************
 Gaussian 16:  ES64L-G16RevA.03 25-Dec-2016
                14-Sep-2019 
 ******************************************
 %chk=holoCaM_loop3_101.0.chk
 %nprocshared=48
 Will use up to   48 processors via shared memory.
 %mem=10GB
 %nosave
 ----------------------------------------------------------------------
 #b3lyp/svp scf=(tight,noincore) Test #IOP(5/87=12) Density=Current Pop
 =(MK,readradii) iop(6/33=2) iop(6/42=6)
 ----------------------------------------------------------------------
 1/30=1,38=1,172=1/1;
 2/12=2,17=6,18=5,40=1/2;
 3/5=18,7=101,11=2,25=1,30=1,74=-5/1,2,3;
 4//1;
 5/5=4,32=2,38=5,87=12/2;
 6/7=2,8=2,9=2,10=2,15=8,20=101,22=-1,28=1,33=2,42=6/1,2;
 99/5=1,9=1/99;
 -------------------
 holoCaM_loop3_101.0
 -------------------
 Symbolic Z-matrix:
 Charge =  0 Multiplicity = 1
 C                     91.85     60.14     104.302 
 C                     93.12     60.57     103.592 
 O                     93.92     59.68     103.282 
 H                     91.036    60.072    103.58 
 H                     92.005    59.166    104.767 
 H                     91.595    60.873    105.068 
 N                     93.38     61.86     103.342 
 C                     94.64     62.23     102.742 
 C                     95.83     61.96     103.642 
 O                     95.83     62.18     104.852 
 C                     94.5      63.67     102.272 
 C                     95.65     64.04     101.332 
 O                     95.78     65.19     100.882 
 O                     96.47     63.14     101.062 
 H                     92.74     62.58     103.642 
 H                     94.83     61.67     101.822 
 H                     94.62     64.35     103.112 
 H                     93.6      63.83     101.672 
 N                     96.94     61.51     103.052 
 C                     98.07     60.98     103.782 
 C                     99.03     62.14     104.012 
 O                     99.5      62.15     105.142 
 C                     98.6      59.73     103.082 
 C                     97.85     58.45     103.422 
 C                     98.5      57.21     102.822 
 C                     99.85     56.91     103.472 
 N                     100.36    55.61     103.002 
 H                     96.83     61.34     102.062 
 H                     97.66     60.7      104.762 
 H                     99.65     59.46     103.132 
 H                     98.55     59.85     101.992 
 H                     96.82     58.5      103.062 
 H                     97.81     58.36     104.502 
 H                     98.53     57.28     101.732 
 H                     97.77     56.42     102.972 
 H                     99.64     56.87     104.542 
 H                     100.62    57.66     103.302 
 H                     101.31    55.56     103.342 
 H                     99.8      54.86     103.402 
 H                     100.42    55.46     102.012 
 N                     99.35     63.06     103.092 
 C                     100.01    64.3      103.442 
 C                     99.13     65.48     103.822 
 O                     99.71     66.56     103.892 
 C                     100.88    64.79     102.292 
 C                     100.02    65.       101.052 
 O                     100.62    65.33     100.012 
 O                     98.78     64.92     100.972 
 H                     98.79     63.17     102.262 
 H                     100.64    64.12     104.322 
 H                     101.66    64.04     102.172 
 H                     101.42    65.69     102.612 
 N                     97.82     65.38     104.072 
 C                     96.98     66.52     104.392 
 C                     96.71     67.53     103.282 
 O                     96.21     68.61     103.602 
 H                     97.35     64.49     104.082 
 H                     97.55     67.01     105.172 
 H                     95.99     66.17     104.682 
 N                     97.14     67.36     102.032 
 C                     97.06     68.42     101.052 
 C                     95.77     68.52     100.262 
 O                     95.54     69.47     99.522 
 C                     98.29     68.25     100.162 
 C                     97.92     67.52     98.872 
 N                     98.39     68.11     97.772 
 O                     97.18     66.55     98.812 
 H                     97.61     66.51     101.762 
 H                     97.23     69.37     101.562 
 H                     99.07     67.65     100.632 
 H                     98.67     69.22     99.852 
 H                     98.89     68.99     97.792 
 H                     98.08     67.77     96.872 
 N                     94.8      67.67     100.632 
 C                     93.38     67.76     100.362 
 C                     93.08     67.39     98.922 
 O                     92.24     68.03     98.292 
 H                     95.05     66.75     100.972 
 H                     93.       68.78     100.342 
 H                     92.81     67.1      101.022 
 N                     93.86     66.45     98.372 
 C                     93.82     65.77     97.092 
 C                     94.25     64.32     97.232 
 O                     95.06     64.08     98.132 
 C                     94.66     66.46     96.022 
 C                     94.37     67.9      95.672 
 C                     94.74     69.02     96.432 
 C                     93.84     68.08     94.392 
 C                     94.64     70.28     95.832 
 C                     93.52     69.35     93.872 
 C                     93.99     70.46     94.602 
 O                     93.6      71.71     94.212 
 H                     94.61     66.13     98.962 
 H                     92.83     65.76     96.632 
 H                     94.63     65.85     95.122 
 H                     95.71     66.44     96.312 
 H                     95.19     68.85     97.402 
 H                     93.69     67.2      93.782 
 H                     94.95     71.16     96.382 
 H                     93.07     69.37     92.892 
 H                     92.98     71.75     93.482 
 N                     93.63     63.36     96.542 
 C                     93.99     61.96     96.512 
 C                     94.46     61.53     95.132 
 O                     93.81     61.81     94.132 
 C                     92.77     61.14     96.952 
 C                     91.96     61.7      98.112 
 C                     93.17     59.69     97.232 
 C                     92.53     61.91     99.512 
 H                     92.83     63.66     95.992 
 H                     94.8      61.77     97.212 
 H                     92.04     61.14     96.142 
 H                     91.06     61.08     98.122 
 H                     91.62     62.66     97.712 
 H                     92.26     59.27     97.652 
 H                     93.51     59.34     96.252 
 H                     94.02     59.64     97.902 
 H                     93.29     62.69     99.592 
 H                     91.73     62.24     100.182 
 H                     93.       60.99     99.832 
 N                     95.64     60.89     95.132 
 C                     96.19     60.26     93.952 
 C                     95.81     58.78     93.892 
 O                     95.24     58.27     94.852 
 C                     97.7      60.49     93.942 
 O                     98.34     59.69     94.912 
 H                     96.05     60.78     96.042 
 H                     95.85     60.69     93.012 
 H                     97.93     61.53     94.172 
 H                     98.05     60.17     92.962 
 H                     98.95     60.28     95.372 
 N                     96.08     58.13     92.762 
 C                     95.81     56.71     92.682 
 C                     96.58     55.95     93.752 
 O                     96.05     55.       94.322 
 C                     96.05     56.28     91.242 
 H                     96.45     58.64     91.972 
 H                     94.76     56.53     92.932 
 H                     95.86     55.21     91.202 
 H                     95.23     56.7      90.652 
 H                     96.99     56.66     90.832 
 N                     97.83     56.39     93.952 
 C                     98.68     55.87     95.002 
 C                     98.14     55.96     96.422 
 O                     98.28     54.98     97.162 
 C                     100.07    56.47     94.792 
 H                     98.26     57.06     93.332 
 H                     98.86     54.82     94.762 
 H                     100.41    56.18     93.792 
 H                     100.09    57.54     94.982 
 H                     100.7     56.       95.542 
 N                     97.48     57.06     96.782 
 C                     96.85     57.21     98.072 
 C                     95.58     56.38     98.252 
 O                     95.27     55.82     99.302 
 C                     96.59     58.71     98.202 
 C                     97.89     59.35     98.682 
 C                     97.74     60.85     98.872 
 O                     98.55     61.48     99.592 
 O                     97.02     61.45     98.042 
 H                     97.42     57.81     96.102 
 H                     97.59     56.85     98.792 
 H                     95.89     58.8      99.032 
 H                     96.21     59.09     97.252 
 H                     98.71     59.18     97.982 
 H                     98.13     58.98     99.682 
 N                     94.91     56.16     97.122 
 C                     93.55     55.66     97.132 
 H                     92.902    56.362    96.607 
 H                     93.515    54.691    96.634 
 H                     93.209    55.552    98.162 
 H                     95.27     56.65     96.312 
 Ca                    97.54     63.86     98.9 
 O                     100.082   63.93     97.88 
 H                     100.362   64.53     98.58 
 H                     100.882   63.67     97.44 
 
 Stoichiometry    C54H83CaN15O23
 Framework group  C1[X(C54H83CaN15O23)]
 Deg. of freedom   522
 Full point group                 C1      NOp   1
 Largest Abelian subgroup         C1      NOp   1
 Largest concise Abelian subgroup C1      NOp   1
                         Standard orientation:                         
 ---------------------------------------------------------------------
 Center     Atomic      Atomic             Coordinates (Angstroms)
 Number     Number       Type             X           Y           Z
 ---------------------------------------------------------------------
      1          6           0        0.190322    3.942184    6.192903
      2          6           0        0.096296    3.606388    4.716319
      3          8           0        1.087702    3.851084    4.019585
      4          1           0        0.437531    3.041259    6.754797
      5          1           0        0.967911    4.690865    6.347044
      6          1           0       -0.766601    4.334190    6.538879
      7          7           0       -1.022970    3.098891    4.183506
      8          6           0       -1.096798    2.875703    2.758993
      9          6           0       -1.059085    4.159168    1.952585
     10          8           0       -1.660181    5.182210    2.275956
     11          6           0       -2.311476    1.993869    2.511956
     12          6           0       -2.281721    1.428679    1.089748
     13          8           0       -3.212119    0.738322    0.642907
     14          8           0       -1.292618    1.718840    0.387765
     15          1           0       -1.840555    2.947517    4.755032
     16          1           0       -0.257148    2.274083    2.399632
     17          1           0       -3.218613    2.592965    2.536147
     18          1           0       -2.324531    1.108276    3.153170
     19          7           0       -0.372039    4.130011    0.808112
     20          6           0       -0.037544    5.315390    0.050690
     21          6           0       -1.145751    5.510250   -0.975959
     22          8           0       -1.492806    6.678967   -1.083449
     23          6           0        1.403189    5.222948   -0.448452
     24          6           0        2.452589    5.644430    0.570181
     25          6           0        3.858995    5.679030   -0.013707
     26          6           0        4.016496    6.800219   -1.039927
     27          7           0        5.428329    6.921889   -1.443565
     28          1           0        0.103337    3.253306    0.645302
     29          1           0       -0.118163    6.138241    0.774096
     30          1           0        1.708444    5.696574   -1.376028
     31          1           0        1.641290    4.193358   -0.745526
     32          1           0        2.456996    4.962337    1.423251
     33          1           0        2.183712    6.626326    0.943924
     34          1           0        4.149358    4.690549   -0.377704
     35          1           0        4.509149    5.796081    0.848326
     36          1           0        3.692885    7.701921   -0.517614
     37          1           0        3.413130    6.690073   -1.938881
     38          1           0        5.425339    7.559264   -2.227366
     39          1           0        5.970246    7.308752   -0.673654
     40          1           0        5.895645    6.096322   -1.769532
     41          7           0       -1.694205    4.527547   -1.703071
     42          6           0       -2.935997    4.706807   -2.425234
     43          6           0       -4.228869    4.414988   -1.680571
     44          8           0       -5.233725    4.362042   -2.384248
     45          6           0       -2.968969    3.825009   -3.666541
     46          6           0       -2.818509    2.363960   -3.261574
     47          8           0       -2.753468    1.536473   -4.189763
     48          8           0       -2.795867    1.900245   -2.106215
     49          1           0       -1.563661    3.563589   -1.441644
     50          1           0       -3.012306    5.759147   -2.725994
     51          1           0       -2.172718    4.193404   -4.311188
     52          1           0       -3.887847    4.034730   -4.228396
     53          7           0       -4.299134    4.229815   -0.357932
     54          6           0       -5.532210    3.908994    0.337912
     55          6           0       -6.141305    2.532529    0.094095
     56          8           0       -7.296149    2.342671    0.480215
     57          1           0       -3.492566    4.336868    0.234593
     58          1           0       -6.211953    4.659289   -0.047324
     59          1           0       -5.359261    3.938505    1.413048
     60          7           0       -5.547029    1.603098   -0.653765
     61          6           0       -6.233496    0.392549   -1.045857
     62          6           0       -6.152950   -0.776862   -0.084509
     63          8           0       -6.823226   -1.790602   -0.245939
     64          6           0       -5.705428    0.053919   -2.438830
     65          6           0       -4.620661   -1.018414   -2.353505
     66          7           0       -4.789682   -2.017841   -3.220441
     67          8           0       -3.733017   -1.041578   -1.514666
     68          1           0       -4.627358    1.761820   -1.034964
     69          1           0       -7.284872    0.634693   -1.211614
     70          1           0       -5.242587    0.908896   -2.932888
     71          1           0       -6.495632   -0.375489   -3.049230
     72          1           0       -5.594665   -2.085060   -3.830592
     73          1           0       -4.195901   -2.831900   -3.140238
     74          7           0       -5.533000   -0.525410    1.078562
     75          6           0       -5.620405   -1.268668    2.318452
     76          6           0       -4.822060   -2.555505    2.233628
     77          8           0       -5.274420   -3.585654    2.729878
     78          1           0       -4.759664    0.127356    1.097247
     79          1           0       -6.600430   -1.706367    2.500579
     80          1           0       -5.248598   -0.677581    3.160162
     81          7           0       -3.706696   -2.518592    1.492614
     82          6           0       -2.651370   -3.485889    1.262344
     83          6           0       -1.301490   -2.800387    1.140229
     84          8           0       -1.316247   -1.652661    0.686130
     85          6           0       -2.900968   -4.363287    0.039857
     86          6           0       -4.164211   -5.187587   -0.030457
     87          6           0       -5.444570   -4.702888   -0.338108
     88          6           0       -3.951451   -6.565531    0.057316
     89          6           0       -6.444595   -5.636397   -0.631557
     90          6           0       -5.000920   -7.503699   -0.007149
     91          6           0       -6.255727   -7.009605   -0.416086
     92          8           0       -7.333058   -7.848761   -0.372755
     93          1           0       -3.548968   -1.646260    1.016003
     94          1           0       -2.555287   -4.227152    2.058018
     95          1           0       -2.034637   -5.006213   -0.098412
     96          1           0       -2.909641   -3.745944   -0.857814
     97          1           0       -5.571031   -3.632849   -0.444519
     98          1           0       -2.932325   -6.910829    0.162915
     99          1           0       -7.434032   -5.291428   -0.905437
    100          1           0       -4.729682   -8.539684    0.121172
    101          1           0       -7.172808   -8.722946   -0.013560
    102          7           0       -0.210755   -3.351791    1.677212
    103          6           0        1.142788   -2.856653    1.562058
    104          6           0        2.027196   -3.814808    0.781058
    105          8           0        2.046911   -5.010245    1.048344
    106          6           0        1.695769   -2.634611    2.976028
    107          6           0        0.738635   -2.024983    3.989709
    108          6           0        2.998209   -1.833476    2.923757
    109          6           0        0.121429   -0.637821    3.835318
    110          1           0       -0.365802   -4.199207    2.216049
    111          1           0        1.145902   -1.902799    1.040182
    112          1           0        1.912781   -3.605935    3.421490
    113          1           0        1.263116   -2.139247    4.941740
    114          1           0       -0.058649   -2.773193    4.031164
    115          1           0        3.200010   -1.640425    3.973951
    116          1           0        3.668778   -2.499015    2.370679
    117          1           0        2.881534   -0.933333    2.332125
    118          1           0       -0.592185   -0.535507    3.015142
    119          1           0       -0.458703   -0.398713    4.732020
    120          1           0        0.915259    0.070596    3.641205
    121          7           0        2.706072   -3.236427   -0.222238
    122          6           0        3.719220   -3.930913   -0.985796
    123          6           0        5.110941   -3.687328   -0.400833
    124          8           0        5.243654   -2.869978    0.505216
    125          6           0        3.601495   -3.500686   -2.446667
    126          8           0        4.081518   -2.186349   -2.627209
    127          1           0        2.539971   -2.250842   -0.318838
    128          1           0        3.597612   -5.011809   -1.017019
    129          1           0        2.560084   -3.515629   -2.767043
    130          1           0        4.244395   -4.171485   -3.014124
    131          1           0        3.414042   -1.738606   -3.161815
    132          7           0        6.108891   -4.424870   -0.882939
    133          6           0        7.457501   -4.179649   -0.417303
    134          6           0        7.875529   -2.743529   -0.696968
    135          8           0        8.552763   -2.136654    0.128474
    136          6           0        8.346797   -5.268612   -0.999896
    137          1           0        5.908170   -5.156532   -1.550383
    138          1           0        7.479250   -4.254887    0.674149
    139          1           0        9.357262   -5.061127   -0.655644
    140          1           0        8.090268   -6.193051   -0.474058
    141          1           0        8.181390   -5.431175   -2.068687
    142          7           0        7.474837   -2.272026   -1.885762
    143          6           0        7.678018   -0.895945   -2.286408
    144          6           0        7.096937    0.172235   -1.371292
    145          8           0        7.789795    1.164471   -1.120265
    146          6           0        7.268614   -0.791539   -3.755316
    147          1           0        7.071683   -2.876914   -2.585603
    148          1           0        8.758189   -0.749940   -2.352841
    149          1           0        7.889078   -1.492243   -4.324295
    150          1           0        6.198553   -0.921252   -3.895117
    151          1           0        7.508198    0.227301   -4.046630
    152          7           0        5.900039   -0.040984   -0.826157
    153          6           0        5.298906    0.863178    0.124963
    154          6           0        5.942701    0.837972    1.510276
    155          8           0        6.109854    1.837440    2.206928
    156          6           0        3.824850    0.462574    0.159246
    157          6           0        3.147574    1.144771   -1.026462
    158          6           0        1.661000    0.834827   -1.077759
    159          8           0        0.883944    1.571395   -1.729719
    160          8           0        1.319057   -0.323230   -0.747183
    161          1           0        5.409759   -0.886615   -1.096402
    162          1           0        5.451457    1.860334   -0.296947
    163          1           0        3.425480    0.947611    1.049326
    164          1           0        3.751124   -0.626338    0.170952
    165          1           0        3.587775    0.839525   -1.977434
    166          1           0        3.186701    2.228858   -0.893325
    167          7           0        6.475172   -0.337413    1.840649
    168          6           0        6.857180   -0.639999    3.205278
    169          1           0        6.324384   -1.529446    3.541947
    170          1           0        7.931164   -0.820755    3.250825
    171          1           0        6.602406    0.201477    3.850145
    172          1           0        6.299189   -1.084636    1.179977
    173         20           0       -1.200743   -0.070447   -1.380724
    174          8           0       -0.773400   -0.155680   -4.085752
    175          1           0       -1.549351    0.394225   -4.240363
    176          1           0       -0.334116   -0.208410   -4.925662
 ---------------------------------------------------------------------
 Rotational constants (GHZ):           0.0223794           0.0153036           0.0114717
 Standard basis: SVP (5D, 7F)
 There are  1809 symmetry adapted cartesian basis functions of A   symmetry.
 There are  1717 symmetry adapted basis functions of A   symmetry.
  1717 basis functions,  2922 primitive gaussians,  1809 cartesian basis functions
   358 alpha electrons      358 beta electrons
       nuclear repulsion energy     21637.0456406389 Hartrees.
 NAtoms=  176 NActive=  176 NUniq=  176 SFac= 1.00D+00 NAtFMM=   60 NAOKFM=T Big=T
 Integral buffers will be    131072 words long.
 Raffenetti 2 integral format.
 Two-electron integral symmetry is turned on.
 One-electron integrals computed using PRISM.
 NBasis=  1717 RedAO= T EigKep=  2.99D-04  NBF=  1717
 NBsUse=  1717 1.00D-06 EigRej= -1.00D+00 NBFU=  1717
 ExpMin= 1.98D-02 ExpMax= 3.51D+04 ExpMxC= 5.28D+03 IAcc=3 IRadAn=         5 AccDes= 0.00D+00
 Harris functional with IExCor=  402 and IRadAn=       5 diagonalized for initial guess.
 HarFok:  IExCor=  402 AccDes= 0.00D+00 IRadAn=         5 IDoV= 1 UseB2=F ITyADJ=14
 ICtDFT=  3500011 ScaDFX=  1.000000  1.000000  1.000000  1.000000
 FoFCou: FMM=F IPFlag=           0 FMFlag=      100000 FMFlg1=        2001
         NFxFlg=           0 DoJE=T BraDBF=F KetDBF=T FulRan=T
         wScrn=  0.000000 ICntrl=       500 IOpCl=  0 I1Cent=   200000004 NGrid=           0
         NMat0=    1 NMatS0=      1 NMatT0=    0 NMatD0=    1 NMtDS0=    0 NMtDT0=    0
 Petite list used in FoFCou.
 Requested convergence on RMS density matrix=1.00D-08 within 128 cycles.
 Requested convergence on MAX density matrix=1.00D-06.
 Requested convergence on             energy=1.00D-06.
 No special actions if energy rises.
 EnCoef did     4 forward-backward iterations
 SCF Done:  E(RB3LYP) =  -5333.58269162     A.U. after   19 cycles
            NFock= 19  Conv=0.20D-08     -V/T= 2.0081
 SCF density gives NOpUse=  1 NOpAll=  1.
 Hyperfine terms turned off by default for NAtoms > 100.

 **********************************************************************

            Population analysis using the SCF density.

 **********************************************************************

 Orbital symmetries:
 BldTbl:  Degeneracy threshold= 1.00D-02
       Occupied  (A) (A) (A) (A) (A) (A) (A) (A) (A) (A) (A) (A)
                 (A) (A) (A) (A) (A) (A) (A) (A) (A) (A) (A) (A)
                 (A) (A) (A) (A) (A) (A) (A) (A) (A) (A) (A) (A)
                 (A) (A) (A) (A) (A) (A) (A) (A) (A) (A) (A) (A)
                 (A) (A) (A) (A) (A) (A) (A) (A) (A) (A) (A) (A)
                 (A) (A) (A) (A) (A) (A) (A) (A) (A) (A) (A) (A)
                 (A) (A) (A) (A) (A) (A) (A) (A) (A) (A) (A) (A)
                 (A) (A) (A) (A) (A) (A) (A) (A) (A) (A) (A) (A)
                 (A) (A) (A) (A) (A) (A) (A) (A) (A) (A) (A) (A)
                 (A) (A) (A) (A) (A) (A) (A) (A) (A) (A) (A) (A)
                 (A) (A) (A) (A) (A) (A) (A) (A) (A) (A) (A) (A)
                 (A) (A) (A) (A) (A) (A) (A) (A) (A) (A) (A) (A)
                 (A) (A) (A) (A) (A) (A) (A) (A) (A) (A) (A) (A)
                 (A) (A) (A) (A) (A) (A) (A) (A) (A) (A) (A) (A)
                 (A) (A) (A) (A) (A) (A) (A) (A) (A) (A) (A) (A)
                 (A) (A) (A) (A) (A) (A) (A) (A) (A) (A) (A) (A)
                 (A) (A) (A) (A) (A) (A) (A) (A) (A) (A) (A) (A)
                 (A) (A) (A) (A) (A) (A) (A) (A) (A) (A) (A) (A)
                 (A) (A) (A) (A) (A) (A) (A) (A) (A) (A) (A) (A)
                 (A) (A) (A) (A) (A) (A) (A) (A) (A) (A) (A) (A)
                 (A) (A) (A) (A) (A) (A) (A) (A) (A) (A) (A) (A)
                 (A) (A) (A) (A) (A) (A) (A) (A) (A) (A) (A) (A)
                 (A) (A) (A) (A) (A) (A) (A) (A) (A) (A) (A) (A)
                 (A) (A) (A) (A) (A) (A) (A) (A) (A) (A) (A) (A)
                 (A) (A) (A) (A) (A) (A) (A) (A) (A) (A) (A) (A)
                 (A) (A) (A) (A) (A) (A) (A) (A) (A) (A) (A) (A)
                 (A) (A) (A) (A) (A) (A) (A) (A) (A) (A) (A) (A)
                 (A) (A) (A) (A) (A) (A) (A) (A) (A) (A) (A) (A)
                 (A) (A) (A) (A) (A) (A) (A) (A) (A) (A) (A) (A)
                 (A) (A) (A) (A) (A) (A) (A) (A) (A) (A)
       Virtual   (A) (A) (A) (A) (A) (A) (A) (A) (A) (A) (A) (A)
                 (A) (A) (A) (A) (A) (A) (A) (A) (A) (A) (A) (A)
                 (A) (A) (A) (A) (A) (A) (A) (A) (A) (A) (A) (A)
                 (A) (A) (A) (A) (A) (A) (A) (A) (A) (A) (A) (A)
                 (A) (A) (A) (A) (A) (A) (A) (A) (A) (A) (A) (A)
                 (A) (A) (A) (A) (A) (A) (A) (A) (A) (A) (A) (A)
                 (A) (A) (A) (A) (A) (A) (A) (A) (A) (A) (A) (A)
                 (A) (A) (A) (A) (A) (A) (A) (A) (A) (A) (A) (A)
                 (A) (A) (A) (A) (A) (A) (A) (A) (A) (A) (A) (A)
                 (A) (A) (A) (A) (A) (A) (A) (A) (A) (A) (A) (A)
                 (A) (A) (A) (A) (A) (A) (A) (A) (A) (A) (A) (A)
                 (A) (A) (A) (A) (A) (A) (A) (A) (A) (A) (A) (A)
                 (A) (A) (A) (A) (A) (A) (A) (A) (A) (A) (A) (A)
                 (A) (A) (A) (A) (A) (A) (A) (A) (A) (A) (A) (A)
                 (A) (A) (A) (A) (A) (A) (A) (A) (A) (A) (A) (A)
                 (A) (A) (A) (A) (A) (A) (A) (A) (A) (A) (A) (A)
                 (A) (A) (A) (A) (A) (A) (A) (A) (A) (A) (A) (A)
                 (A) (A) (A) (A) (A) (A) (A) (A) (A) (A) (A) (A)
                 (A) (A) (A) (A) (A) (A) (A) (A) (A) (A) (A) (A)
                 (A) (A) (A) (A) (A) (A) (A) (A) (A) (A) (A) (A)
                 (A) (A) (A) (A) (A) (A) (A) (A) (A) (A) (A) (A)
                 (A) (A) (A) (A) (A) (A) (A) (A) (A) (A) (A) (A)
                 (A) (A) (A) (A) (A) (A) (A) (A) (A) (A) (A) (A)
                 (A) (A) (A) (A) (A) (A) (A) (A) (A) (A) (A) (A)
                 (A) (A) (A) (A) (A) (A) (A) (A) (A) (A) (A) (A)
                 (A) (A) (A) (A) (A) (A) (A) (A) (A) (A) (A) (A)
                 (A) (A) (A) (A) (A) (A) (A) (A) (A) (A) (A) (A)
                 (A) (A) (A) (A) (A) (A) (A) (A) (A) (A) (A) (A)
                 (A) (A) (A) (A) (A) (A) (A) (A) (A) (A) (A) (A)
                 (A) (A) (A) (A) (A) (A) (A) (A) (A) (A) (A) (A)
                 (A) (A) (A) (A) (A) (A) (A) (A) (A) (A) (A) (A)
                 (A) (A) (A) (A) (A) (A) (A) (A) (A) (A) (A) (A)
                 (A) (A) (A) (A) (A) (A) (A) (A) (A) (A) (A) (A)
                 (A) (A) (A) (A) (A) (A) (A) (A) (A) (A) (A) (A)
                 (A) (A) (A) (A) (A) (A) (A) (A) (A) (A) (A) (A)
                 (A) (A) (A) (A) (A) (A) (A) (A) (A) (A) (A) (A)
                 (A) (A) (A) (A) (A) (A) (A) (A) (A) (A) (A) (A)
                 (A) (A) (A) (A) (A) (A) (A) (A) (A) (A) (A) (A)
                 (A) (A) (A) (A) (A) (A) (A) (A) (A) (A) (A) (A)
                 (A) (A) (A) (A) (A) (A) (A) (A) (A) (A) (A) (A)
                 (A) (A) (A) (A) (A) (A) (A) (A) (A) (A) (A) (A)
                 (A) (A) (A) (A) (A) (A) (A) (A) (A) (A) (A) (A)
                 (A) (A) (A) (A) (A) (A) (A) (A) (A) (A) (A) (A)
                 (A) (A) (A) (A) (A) (A) (A) (A) (A) (A) (A) (A)
                 (A) (A) (A) (A) (A) (A) (A) (A) (A) (A) (A) (A)
                 (A) (A) (A) (A) (A) (A) (A) (A) (A) (A) (A) (A)
                 (A) (A) (A) (A) (A) (A) (A) (A) (A) (A) (A) (A)
                 (A) (A) (A) (A) (A) (A) (A) (A) (A) (A) (A) (A)
                 (A) (A) (A) (A) (A) (A) (A) (A) (A) (A) (A) (A)
                 (A) (A) (A) (A) (A) (A) (A) (A) (A) (A) (A) (A)
                 (A) (A) (A) (A) (A) (A) (A) (A) (A) (A) (A) (A)
                 (A) (A) (A) (A) (A) (A) (A) (A) (A) (A) (A) (A)
                 (A) (A) (A) (A) (A) (A) (A) (A) (A) (A) (A) (A)
                 (A) (A) (A) (A) (A) (A) (A) (A) (A) (A) (A) (A)
                 (A) (A) (A) (A) (A) (A) (A) (A) (A) (A) (A) (A)
                 (A) (A) (A) (A) (A) (A) (A) (A) (A) (A) (A) (A)
                 (A) (A) (A) (A) (A) (A) (A) (A) (A) (A) (A) (A)
                 (A) (A) (A) (A) (A) (A) (A) (A) (A) (A) (A) (A)
                 (A) (A) (A) (A) (A) (A) (A) (A) (A) (A) (A) (A)
                 (A) (A) (A) (A) (A) (A) (A) (A) (A) (A) (A) (A)
                 (A) (A) (A) (A) (A) (A) (A) (A) (A) (A) (A) (A)
                 (A) (A) (A) (A) (A) (A) (A) (A) (A) (A) (A) (A)
                 (A) (A) (A) (A) (A) (A) (A) (A) (A) (A) (A) (A)
                 (A) (A) (A) (A) (A) (A) (A) (A) (A) (A) (A) (A)
                 (A) (A) (A) (A) (A) (A) (A) (A) (A) (A) (A) (A)
                 (A) (A) (A) (A) (A) (A) (A) (A) (A) (A) (A) (A)
                 (A) (A) (A) (A) (A) (A) (A) (A) (A) (A) (A) (A)
                 (A) (A) (A) (A) (A) (A) (A) (A) (A) (A) (A) (A)
                 (A) (A) (A) (A) (A) (A) (A) (A) (A) (A) (A) (A)
                 (A) (A) (A) (A) (A) (A) (A) (A) (A) (A) (A) (A)
                 (A) (A) (A) (A) (A) (A) (A) (A) (A) (A) (A) (A)
                 (A) (A) (A) (A) (A) (A) (A) (A) (A) (A) (A) (A)
                 (A) (A) (A) (A) (A) (A) (A) (A) (A) (A) (A) (A)
                 (A) (A) (A) (A) (A) (A) (A) (A) (A) (A) (A) (A)
                 (A) (A) (A) (A) (A) (A) (A) (A) (A) (A) (A) (A)
                 (A) (A) (A) (A) (A) (A) (A) (A) (A) (A) (A) (A)
                 (A) (A) (A) (A) (A) (A) (A) (A) (A) (A) (A) (A)
                 (A) (A) (A) (A) (A) (A) (A) (A) (A) (A) (A) (A)
                 (A) (A) (A) (A) (A) (A) (A) (A) (A) (A) (A) (A)
                 (A) (A) (A) (A) (A) (A) (A) (A) (A) (A) (A) (A)
                 (A) (A) (A) (A) (A) (A) (A) (A) (A) (A) (A) (A)
                 (A) (A) (A) (A) (A) (A) (A) (A) (A) (A) (A) (A)
                 (A) (A) (A) (A) (A) (A) (A) (A) (A) (A) (A) (A)
                 (A) (A) (A) (A) (A) (A) (A) (A) (A) (A) (A) (A)
                 (A) (A) (A) (A) (A) (A) (A) (A) (A) (A) (A) (A)
                 (A) (A) (A) (A) (A) (A) (A) (A) (A) (A) (A) (A)
                 (A) (A) (A) (A) (A) (A) (A) (A) (A) (A) (A) (A)
                 (A) (A) (A) (A) (A) (A) (A) (A) (A) (A) (A) (A)
                 (A) (A) (A) (A) (A) (A) (A) (A) (A) (A) (A) (A)
                 (A) (A) (A) (A) (A) (A) (A) (A) (A) (A) (A) (A)
                 (A) (A) (A) (A) (A) (A) (A) (A) (A) (A) (A) (A)
                 (A) (A) (A) (A) (A) (A) (A) (A) (A) (A) (A) (A)
                 (A) (A) (A) (A) (A) (A) (A) (A) (A) (A) (A) (A)
                 (A) (A) (A) (A) (A) (A) (A) (A) (A) (A) (A) (A)
                 (A) (A) (A) (A) (A) (A) (A) (A) (A) (A) (A) (A)
                 (A) (A) (A) (A) (A) (A) (A) (A) (A) (A) (A) (A)
                 (A) (A) (A) (A) (A) (A) (A) (A) (A) (A) (A) (A)
                 (A) (A) (A) (A) (A) (A) (A) (A) (A) (A) (A) (A)
                 (A) (A) (A) (A) (A) (A) (A) (A) (A) (A) (A) (A)
                 (A) (A) (A) (A) (A) (A) (A) (A) (A) (A) (A) (A)
                 (A) (A) (A) (A) (A) (A) (A) (A) (A) (A) (A) (A)
                 (A) (A) (A) (A) (A) (A) (A) (A) (A) (A) (A) (A)
                 (A) (A) (A) (A) (A) (A) (A) (A) (A) (A) (A) (A)
                 (A) (A) (A) (A) (A) (A) (A) (A) (A) (A) (A) (A)
                 (A) (A) (A) (A) (A) (A) (A) (A) (A) (A) (A) (A)
                 (A) (A) (A) (A) (A) (A) (A) (A) (A) (A) (A) (A)
                 (A) (A) (A) (A) (A) (A) (A) (A) (A) (A) (A) (A)
                 (A) (A) (A) (A) (A) (A) (A) (A) (A) (A) (A) (A)
                 (A) (A) (A) (A) (A) (A) (A) (A) (A) (A) (A) (A)
                 (A) (A) (A) (A) (A) (A) (A) (A) (A) (A) (A) (A)
                 (A) (A) (A) (A) (A) (A) (A) (A) (A) (A) (A) (A)
                 (A) (A) (A) (A) (A) (A) (A) (A) (A) (A) (A) (A)
                 (A) (A) (A) (A) (A) (A) (A) (A) (A) (A) (A) (A)
                 (A) (A) (A)
 The electronic state is 1-A.
 Alpha  occ. eigenvalues -- -145.35992 -19.18768 -19.14278 -19.13417 -19.11818
 Alpha  occ. eigenvalues --  -19.11727 -19.11199 -19.10975 -19.10081 -19.09762
 Alpha  occ. eigenvalues --  -19.08091 -19.07510 -19.07268 -19.06973 -19.06832
 Alpha  occ. eigenvalues --  -19.06167 -19.05822 -19.05375 -19.05372 -19.05343
 Alpha  occ. eigenvalues --  -19.05154 -19.05141 -19.03742 -19.03309 -15.41715
 Alpha  occ. eigenvalues --  -14.58348 -14.40022 -14.37783 -14.37395 -14.36906
 Alpha  occ. eigenvalues --  -14.35754 -14.34914 -14.34133 -14.32504 -14.31911
 Alpha  occ. eigenvalues --  -14.31853 -14.31777 -14.31742 -14.29584 -14.29331
 Alpha  occ. eigenvalues --  -12.55319 -12.55305 -12.55276 -10.34593 -10.32282
 Alpha  occ. eigenvalues --  -10.30195 -10.30142 -10.29179 -10.28564 -10.28441
 Alpha  occ. eigenvalues --  -10.28311 -10.26706 -10.26657 -10.26280 -10.26105
 Alpha  occ. eigenvalues --  -10.25954 -10.25745 -10.25364 -10.25155 -10.24661
 Alpha  occ. eigenvalues --  -10.24495 -10.24244 -10.24215 -10.24136 -10.23820
 Alpha  occ. eigenvalues --  -10.22991 -10.22989 -10.22886 -10.22753 -10.22592
 Alpha  occ. eigenvalues --  -10.22443 -10.21809 -10.21794 -10.21377 -10.20943
 Alpha  occ. eigenvalues --  -10.20450 -10.19710 -10.19540 -10.19302 -10.19197
 Alpha  occ. eigenvalues --  -10.19039 -10.18892 -10.18655 -10.18646 -10.18027
 Alpha  occ. eigenvalues --  -10.17947 -10.17540 -10.17299 -10.17258 -10.16722
 Alpha  occ. eigenvalues --  -10.16647 -10.16467 -10.16435 -10.16302 -10.15927
 Alpha  occ. eigenvalues --  -10.15847 -10.15214  -1.78575  -1.13582  -1.07750
 Alpha  occ. eigenvalues --   -1.06650  -1.06235  -1.06166  -1.06006  -1.04640
 Alpha  occ. eigenvalues --   -1.04355  -1.03602  -1.02945  -1.02468  -1.02027
 Alpha  occ. eigenvalues --   -1.01985  -1.01184  -1.00611  -1.00451  -1.00031
 Alpha  occ. eigenvalues --   -1.00025  -0.99342  -0.98953  -0.98782  -0.97993
 Alpha  occ. eigenvalues --   -0.97707  -0.97179  -0.97060  -0.94636  -0.94062
 Alpha  occ. eigenvalues --   -0.93903  -0.92858  -0.91756  -0.90994  -0.90390
 Alpha  occ. eigenvalues --   -0.89890  -0.89779  -0.89262  -0.89200  -0.88849
 Alpha  occ. eigenvalues --   -0.88433  -0.88009  -0.87890  -0.87415  -0.86024
 Alpha  occ. eigenvalues --   -0.82806  -0.82290  -0.81465  -0.80554  -0.80207
 Alpha  occ. eigenvalues --   -0.79112  -0.78160  -0.77340  -0.77052  -0.75340
 Alpha  occ. eigenvalues --   -0.75229  -0.74228  -0.74020  -0.72883  -0.72541
 Alpha  occ. eigenvalues --   -0.71871  -0.71641  -0.71402  -0.71321  -0.70385
 Alpha  occ. eigenvalues --   -0.69972  -0.69508  -0.68868  -0.68276  -0.67780
 Alpha  occ. eigenvalues --   -0.67718  -0.65952  -0.64867  -0.64542  -0.63924
 Alpha  occ. eigenvalues --   -0.63742  -0.63181  -0.62464  -0.62443  -0.62065
 Alpha  occ. eigenvalues --   -0.61846  -0.61323  -0.60866  -0.59862  -0.59620
 Alpha  occ. eigenvalues --   -0.59205  -0.58765  -0.58568  -0.58401  -0.57083
 Alpha  occ. eigenvalues --   -0.56573  -0.56452  -0.56298  -0.56127  -0.55899
 Alpha  occ. eigenvalues --   -0.55527  -0.55220  -0.55078  -0.54886  -0.54783
 Alpha  occ. eigenvalues --   -0.54300  -0.54113  -0.53390  -0.52992  -0.52824
 Alpha  occ. eigenvalues --   -0.52398  -0.52372  -0.52320  -0.51861  -0.51758
 Alpha  occ. eigenvalues --   -0.51544  -0.51172  -0.50630  -0.50318  -0.49933
 Alpha  occ. eigenvalues --   -0.49767  -0.49353  -0.49094  -0.48751  -0.48331
 Alpha  occ. eigenvalues --   -0.48166  -0.47902  -0.47813  -0.47654  -0.47409
 Alpha  occ. eigenvalues --   -0.47191  -0.47049  -0.46786  -0.46609  -0.46336
 Alpha  occ. eigenvalues --   -0.46299  -0.45956  -0.45749  -0.45734  -0.45264
 Alpha  occ. eigenvalues --   -0.44966  -0.44641  -0.44582  -0.44449  -0.44222
 Alpha  occ. eigenvalues --   -0.44097  -0.44004  -0.43935  -0.43793  -0.43592
 Alpha  occ. eigenvalues --   -0.43338  -0.43103  -0.42781  -0.42604  -0.42422
 Alpha  occ. eigenvalues --   -0.42377  -0.42261  -0.42187  -0.42029  -0.41950
 Alpha  occ. eigenvalues --   -0.41849  -0.41779  -0.41492  -0.41421  -0.41352
 Alpha  occ. eigenvalues --   -0.41200  -0.41072  -0.40848  -0.40722  -0.40522
 Alpha  occ. eigenvalues --   -0.40336  -0.40269  -0.40201  -0.40126  -0.39967
 Alpha  occ. eigenvalues --   -0.39824  -0.39727  -0.39661  -0.39388  -0.39069
 Alpha  occ. eigenvalues --   -0.39051  -0.38802  -0.38705  -0.38668  -0.38610
 Alpha  occ. eigenvalues --   -0.38523  -0.38310  -0.38230  -0.38089  -0.37958
 Alpha  occ. eigenvalues --   -0.37911  -0.37609  -0.37384  -0.37280  -0.37176
 Alpha  occ. eigenvalues --   -0.36933  -0.36781  -0.36719  -0.36645  -0.36587
 Alpha  occ. eigenvalues --   -0.36476  -0.36336  -0.36164  -0.36101  -0.35878
 Alpha  occ. eigenvalues --   -0.35554  -0.35128  -0.35089  -0.34977  -0.34749
 Alpha  occ. eigenvalues --   -0.34624  -0.34438  -0.34063  -0.33887  -0.33579
 Alpha  occ. eigenvalues --   -0.33313  -0.33133  -0.32750  -0.32731  -0.32399
 Alpha  occ. eigenvalues --   -0.32302  -0.32173  -0.32022  -0.31632  -0.31606
 Alpha  occ. eigenvalues --   -0.31213  -0.30849  -0.30812  -0.30357  -0.29779
 Alpha  occ. eigenvalues --   -0.29562  -0.28798  -0.28712  -0.27847  -0.27796
 Alpha  occ. eigenvalues --   -0.27633  -0.27444  -0.26853  -0.26050  -0.25892
 Alpha  occ. eigenvalues --   -0.25818  -0.25541  -0.25281  -0.25213  -0.24937
 Alpha  occ. eigenvalues --   -0.24770  -0.23913  -0.23774  -0.23660  -0.23522
 Alpha  occ. eigenvalues --   -0.23371  -0.23204  -0.23150  -0.23041  -0.22826
 Alpha  occ. eigenvalues --   -0.22708  -0.22576  -0.22514  -0.22363  -0.22250
 Alpha  occ. eigenvalues --   -0.21198  -0.20856  -0.20454  -0.19773  -0.19545
 Alpha  occ. eigenvalues --   -0.19442  -0.19233  -0.18983
 Alpha virt. eigenvalues --   -0.10291  -0.04611  -0.03921  -0.03007  -0.01777
 Alpha virt. eigenvalues --   -0.00865  -0.00589  -0.00457  -0.00099   0.00844
 Alpha virt. eigenvalues --    0.00869   0.01031   0.01889   0.02069   0.02505
 Alpha virt. eigenvalues --    0.02912   0.03138   0.03237   0.03861   0.04133
 Alpha virt. eigenvalues --    0.04194   0.04299   0.04428   0.04746   0.04914
 Alpha virt. eigenvalues --    0.05210   0.05426   0.05490   0.05778   0.05860
 Alpha virt. eigenvalues --    0.06280   0.06411   0.06722   0.06881   0.06953
 Alpha virt. eigenvalues --    0.07230   0.07308   0.07567   0.07668   0.07772
 Alpha virt. eigenvalues --    0.07999   0.08050   0.08168   0.08742   0.08903
 Alpha virt. eigenvalues --    0.09009   0.09401   0.09563   0.09907   0.10041
 Alpha virt. eigenvalues --    0.10117   0.10319   0.10534   0.10783   0.10951
 Alpha virt. eigenvalues --    0.11201   0.11461   0.11666   0.11785   0.12004
 Alpha virt. eigenvalues --    0.12358   0.12463   0.12848   0.12934   0.13103
 Alpha virt. eigenvalues --    0.13367   0.13551   0.13590   0.13775   0.13938
 Alpha virt. eigenvalues --    0.14013   0.14189   0.14318   0.14482   0.14744
 Alpha virt. eigenvalues --    0.14890   0.14973   0.15191   0.15265   0.15580
 Alpha virt. eigenvalues --    0.15687   0.15746   0.15962   0.16175   0.16417
 Alpha virt. eigenvalues --    0.16491   0.16659   0.16812   0.17001   0.17091
 Alpha virt. eigenvalues --    0.17258   0.17322   0.17383   0.17621   0.17912
 Alpha virt. eigenvalues --    0.18031   0.18255   0.18460   0.18847   0.18851
 Alpha virt. eigenvalues --    0.19089   0.19213   0.19382   0.19473   0.19759
 Alpha virt. eigenvalues --    0.20198   0.20297   0.20459   0.20624   0.20775
 Alpha virt. eigenvalues --    0.20978   0.21177   0.21388   0.21782   0.21973
 Alpha virt. eigenvalues --    0.22294   0.22446   0.22495   0.22842   0.22975
 Alpha virt. eigenvalues --    0.23128   0.23155   0.23377   0.23650   0.23813
 Alpha virt. eigenvalues --    0.24169   0.24377   0.24475   0.24783   0.24828
 Alpha virt. eigenvalues --    0.25221   0.25335   0.25668   0.25832   0.26064
 Alpha virt. eigenvalues --    0.26311   0.26390   0.26553   0.26634   0.26917
 Alpha virt. eigenvalues --    0.27080   0.27156   0.27373   0.27438   0.27722
 Alpha virt. eigenvalues --    0.28018   0.28701   0.28807   0.29270   0.29505
 Alpha virt. eigenvalues --    0.29814   0.29901   0.30137   0.30278   0.30601
 Alpha virt. eigenvalues --    0.30838   0.31167   0.31430   0.31567   0.31790
 Alpha virt. eigenvalues --    0.31950   0.32422   0.32671   0.32837   0.33142
 Alpha virt. eigenvalues --    0.33253   0.33564   0.33680   0.33860   0.33991
 Alpha virt. eigenvalues --    0.34226   0.34501   0.34896   0.35109   0.35631
 Alpha virt. eigenvalues --    0.35995   0.36244   0.36825   0.36929   0.37276
 Alpha virt. eigenvalues --    0.37492   0.37827   0.38017   0.38192   0.38226
 Alpha virt. eigenvalues --    0.38562   0.38889   0.39008   0.39337   0.39736
 Alpha virt. eigenvalues --    0.39867   0.40168   0.40342   0.40712   0.41340
 Alpha virt. eigenvalues --    0.41456   0.41757   0.41979   0.42244   0.42418
 Alpha virt. eigenvalues --    0.42705   0.42995   0.43197   0.43534   0.43804
 Alpha virt. eigenvalues --    0.43941   0.44105   0.44296   0.44448   0.44471
 Alpha virt. eigenvalues --    0.44727   0.44748   0.45138   0.45319   0.45370
 Alpha virt. eigenvalues --    0.45657   0.45723   0.46136   0.46243   0.46343
 Alpha virt. eigenvalues --    0.46436   0.46704   0.46856   0.47041   0.47415
 Alpha virt. eigenvalues --    0.47482   0.47675   0.47956   0.48207   0.48358
 Alpha virt. eigenvalues --    0.48464   0.48668   0.48847   0.49104   0.49217
 Alpha virt. eigenvalues --    0.49363   0.49569   0.49814   0.50197   0.50500
 Alpha virt. eigenvalues --    0.50732   0.51028   0.51181   0.51452   0.51603
 Alpha virt. eigenvalues --    0.51815   0.51885   0.52220   0.52432   0.52487
 Alpha virt. eigenvalues --    0.52544   0.52792   0.52947   0.53029   0.53270
 Alpha virt. eigenvalues --    0.53347   0.53521   0.53850   0.53942   0.54269
 Alpha virt. eigenvalues --    0.54509   0.54760   0.55001   0.55202   0.55322
 Alpha virt. eigenvalues --    0.55397   0.55570   0.55737   0.55965   0.56156
 Alpha virt. eigenvalues --    0.56339   0.56475   0.56700   0.56887   0.57014
 Alpha virt. eigenvalues --    0.57246   0.57429   0.57479   0.57673   0.57884
 Alpha virt. eigenvalues --    0.58140   0.58278   0.58534   0.58619   0.58824
 Alpha virt. eigenvalues --    0.58922   0.59021   0.59257   0.59465   0.59522
 Alpha virt. eigenvalues --    0.59715   0.59752   0.59858   0.60363   0.60385
 Alpha virt. eigenvalues --    0.60436   0.60599   0.60886   0.61016   0.61325
 Alpha virt. eigenvalues --    0.61411   0.61483   0.61583   0.61801   0.61969
 Alpha virt. eigenvalues --    0.62062   0.62233   0.62343   0.62429   0.62520
 Alpha virt. eigenvalues --    0.62735   0.62936   0.63044   0.63278   0.63365
 Alpha virt. eigenvalues --    0.63499   0.63544   0.63632   0.63897   0.64001
 Alpha virt. eigenvalues --    0.64071   0.64166   0.64266   0.64345   0.64541
 Alpha virt. eigenvalues --    0.64746   0.64897   0.65040   0.65064   0.65138
 Alpha virt. eigenvalues --    0.65237   0.65280   0.65383   0.65539   0.65656
 Alpha virt. eigenvalues --    0.65689   0.65781   0.65917   0.66209   0.66411
 Alpha virt. eigenvalues --    0.66477   0.66622   0.66687   0.66825   0.66860
 Alpha virt. eigenvalues --    0.66915   0.67092   0.67190   0.67275   0.67403
 Alpha virt. eigenvalues --    0.67482   0.67603   0.67697   0.67938   0.68004
 Alpha virt. eigenvalues --    0.68067   0.68170   0.68294   0.68472   0.68558
 Alpha virt. eigenvalues --    0.68651   0.68752   0.68795   0.68869   0.69070
 Alpha virt. eigenvalues --    0.69106   0.69303   0.69436   0.69577   0.69680
 Alpha virt. eigenvalues --    0.69812   0.69963   0.70040   0.70109   0.70319
 Alpha virt. eigenvalues --    0.70426   0.70557   0.70640   0.70734   0.70828
 Alpha virt. eigenvalues --    0.71071   0.71262   0.71543   0.71731   0.71868
 Alpha virt. eigenvalues --    0.71940   0.72159   0.72251   0.72422   0.72492
 Alpha virt. eigenvalues --    0.72620   0.72749   0.72892   0.72948   0.73176
 Alpha virt. eigenvalues --    0.73513   0.73766   0.73951   0.74327   0.74442
 Alpha virt. eigenvalues --    0.74567   0.74668   0.74730   0.74829   0.75127
 Alpha virt. eigenvalues --    0.75319   0.75436   0.75626   0.75719   0.75829
 Alpha virt. eigenvalues --    0.76305   0.76423   0.76994   0.77056   0.77171
 Alpha virt. eigenvalues --    0.77204   0.77538   0.77634   0.77917   0.78040
 Alpha virt. eigenvalues --    0.78217   0.78818   0.79008   0.79211   0.79634
 Alpha virt. eigenvalues --    0.79972   0.80051   0.80510   0.80688   0.81022
 Alpha virt. eigenvalues --    0.81095   0.81213   0.81580   0.81666   0.81979
 Alpha virt. eigenvalues --    0.82195   0.82336   0.82696   0.82761   0.83000
 Alpha virt. eigenvalues --    0.83388   0.83590   0.83773   0.84240   0.84589
 Alpha virt. eigenvalues --    0.84885   0.84906   0.85417   0.85714   0.85786
 Alpha virt. eigenvalues --    0.86051   0.86304   0.86781   0.87159   0.87261
 Alpha virt. eigenvalues --    0.87354   0.87707   0.87967   0.88485   0.88515
 Alpha virt. eigenvalues --    0.88933   0.89410   0.89489   0.89734   0.90102
 Alpha virt. eigenvalues --    0.90403   0.90760   0.90984   0.91143   0.91385
 Alpha virt. eigenvalues --    0.91652   0.91989   0.92460   0.92993   0.93095
 Alpha virt. eigenvalues --    0.93343   0.93623   0.93994   0.94352   0.94485
 Alpha virt. eigenvalues --    0.94643   0.94808   0.95120   0.95345   0.95519
 Alpha virt. eigenvalues --    0.95878   0.96420   0.96548   0.96730   0.97275
 Alpha virt. eigenvalues --    0.97424   0.97545   0.97820   0.98071   0.98572
 Alpha virt. eigenvalues --    0.98829   0.99269   0.99556   0.99849   1.00310
 Alpha virt. eigenvalues --    1.00548   1.00843   1.01035   1.01127   1.01654
 Alpha virt. eigenvalues --    1.01950   1.02212   1.02718   1.02972   1.03168
 Alpha virt. eigenvalues --    1.03253   1.03483   1.03641   1.04056   1.04617
 Alpha virt. eigenvalues --    1.04774   1.05110   1.05344   1.05451   1.05904
 Alpha virt. eigenvalues --    1.06122   1.06303   1.06680   1.06964   1.07384
 Alpha virt. eigenvalues --    1.07997   1.08111   1.08433   1.08571   1.09046
 Alpha virt. eigenvalues --    1.09189   1.09362   1.09613   1.09829   1.09998
 Alpha virt. eigenvalues --    1.10516   1.10560   1.10667   1.11220   1.11430
 Alpha virt. eigenvalues --    1.11678   1.12212   1.12354   1.12360   1.12778
 Alpha virt. eigenvalues --    1.13103   1.13504   1.13932   1.14355   1.14749
 Alpha virt. eigenvalues --    1.14951   1.15330   1.15343   1.15649   1.15755
 Alpha virt. eigenvalues --    1.16165   1.16356   1.16904   1.17251   1.17556
 Alpha virt. eigenvalues --    1.17690   1.18057   1.18313   1.18540   1.18872
 Alpha virt. eigenvalues --    1.19367   1.19481   1.19942   1.20011   1.20372
 Alpha virt. eigenvalues --    1.20581   1.20820   1.21002   1.21255   1.21595
 Alpha virt. eigenvalues --    1.21701   1.22322   1.22585   1.22772   1.22862
 Alpha virt. eigenvalues --    1.23194   1.23330   1.23639   1.23789   1.24261
 Alpha virt. eigenvalues --    1.24511   1.24982   1.25025   1.25429   1.25460
 Alpha virt. eigenvalues --    1.25675   1.25990   1.26317   1.26597   1.27098
 Alpha virt. eigenvalues --    1.27244   1.27625   1.27756   1.28033   1.28225
 Alpha virt. eigenvalues --    1.28251   1.28542   1.28706   1.28968   1.29236
 Alpha virt. eigenvalues --    1.29911   1.30237   1.30307   1.30606   1.30962
 Alpha virt. eigenvalues --    1.31454   1.31777   1.31891   1.32100   1.32585
 Alpha virt. eigenvalues --    1.32754   1.33109   1.33148   1.33616   1.33943
 Alpha virt. eigenvalues --    1.34389   1.34544   1.34843   1.35208   1.35449
 Alpha virt. eigenvalues --    1.35846   1.36042   1.36330   1.36526   1.36907
 Alpha virt. eigenvalues --    1.37379   1.37475   1.37530   1.38044   1.38093
 Alpha virt. eigenvalues --    1.38695   1.38861   1.38937   1.39340   1.39661
 Alpha virt. eigenvalues --    1.39730   1.39996   1.40256   1.40538   1.40705
 Alpha virt. eigenvalues --    1.41109   1.41433   1.41452   1.41764   1.41946
 Alpha virt. eigenvalues --    1.42187   1.42526   1.42749   1.43113   1.43342
 Alpha virt. eigenvalues --    1.44041   1.44264   1.44387   1.44857   1.45083
 Alpha virt. eigenvalues --    1.45248   1.45496   1.45758   1.46122   1.46260
 Alpha virt. eigenvalues --    1.46584   1.46816   1.47084   1.47422   1.47580
 Alpha virt. eigenvalues --    1.47825   1.48077   1.48184   1.48568   1.48880
 Alpha virt. eigenvalues --    1.49008   1.49217   1.49599   1.49969   1.50285
 Alpha virt. eigenvalues --    1.50815   1.50930   1.51167   1.51462   1.51867
 Alpha virt. eigenvalues --    1.51910   1.52107   1.52216   1.52638   1.53175
 Alpha virt. eigenvalues --    1.53730   1.53854   1.54078   1.54268   1.54715
 Alpha virt. eigenvalues --    1.54809   1.55282   1.55484   1.55707   1.56165
 Alpha virt. eigenvalues --    1.56186   1.56927   1.57457   1.57900   1.58112
 Alpha virt. eigenvalues --    1.58530   1.58887   1.59091   1.59442   1.59958
 Alpha virt. eigenvalues --    1.60496   1.60947   1.61164   1.61443   1.61616
 Alpha virt. eigenvalues --    1.61760   1.62160   1.62317   1.62603   1.62790
 Alpha virt. eigenvalues --    1.63136   1.63253   1.63507   1.63865   1.63923
 Alpha virt. eigenvalues --    1.64248   1.64387   1.64618   1.64884   1.65256
 Alpha virt. eigenvalues --    1.65902   1.66161   1.66476   1.66541   1.66774
 Alpha virt. eigenvalues --    1.67024   1.68004   1.68323   1.68425   1.68628
 Alpha virt. eigenvalues --    1.69015   1.69095   1.69806   1.70078   1.70356
 Alpha virt. eigenvalues --    1.70815   1.70886   1.71181   1.71342   1.71514
 Alpha virt. eigenvalues --    1.71539   1.71932   1.72058   1.72558   1.72821
 Alpha virt. eigenvalues --    1.72923   1.73011   1.73378   1.73394   1.73593
 Alpha virt. eigenvalues --    1.73901   1.74141   1.74187   1.74384   1.74422
 Alpha virt. eigenvalues --    1.74578   1.74768   1.75003   1.75295   1.75390
 Alpha virt. eigenvalues --    1.75648   1.75826   1.76162   1.76247   1.76283
 Alpha virt. eigenvalues --    1.76530   1.76804   1.76980   1.77015   1.77273
 Alpha virt. eigenvalues --    1.77457   1.77795   1.77869   1.78077   1.78282
 Alpha virt. eigenvalues --    1.78319   1.78477   1.78631   1.78774   1.78827
 Alpha virt. eigenvalues --    1.78950   1.79039   1.79252   1.79381   1.79724
 Alpha virt. eigenvalues --    1.79867   1.80096   1.80299   1.80444   1.80575
 Alpha virt. eigenvalues --    1.80974   1.81022   1.81312   1.81375   1.81561
 Alpha virt. eigenvalues --    1.81630   1.81701   1.81905   1.81979   1.82147
 Alpha virt. eigenvalues --    1.82334   1.82453   1.82634   1.82895   1.83332
 Alpha virt. eigenvalues --    1.83429   1.83671   1.83745   1.84024   1.84112
 Alpha virt. eigenvalues --    1.84153   1.84347   1.84411   1.84562   1.84937
 Alpha virt. eigenvalues --    1.85069   1.85311   1.85422   1.85438   1.85776
 Alpha virt. eigenvalues --    1.85951   1.86198   1.86383   1.86443   1.86695
 Alpha virt. eigenvalues --    1.86832   1.87146   1.87220   1.87538   1.87691
 Alpha virt. eigenvalues --    1.87942   1.88053   1.88232   1.88538   1.88887
 Alpha virt. eigenvalues --    1.88978   1.89311   1.89432   1.89658   1.89910
 Alpha virt. eigenvalues --    1.90105   1.90287   1.90423   1.90598   1.90715
 Alpha virt. eigenvalues --    1.90818   1.90940   1.91416   1.91503   1.91847
 Alpha virt. eigenvalues --    1.91998   1.92159   1.92445   1.92561   1.92661
 Alpha virt. eigenvalues --    1.92946   1.93195   1.93505   1.93734   1.93824
 Alpha virt. eigenvalues --    1.93992   1.94133   1.94508   1.94909   1.95255
 Alpha virt. eigenvalues --    1.95375   1.95702   1.96142   1.96356   1.96501
 Alpha virt. eigenvalues --    1.96621   1.97107   1.97125   1.97274   1.97878
 Alpha virt. eigenvalues --    1.98152   1.98350   1.98474   1.98635   1.99019
 Alpha virt. eigenvalues --    1.99205   1.99538   1.99754   2.00014   2.00110
 Alpha virt. eigenvalues --    2.00371   2.00549   2.00603   2.00867   2.01174
 Alpha virt. eigenvalues --    2.01376   2.01529   2.01755   2.01853   2.02508
 Alpha virt. eigenvalues --    2.02559   2.02722   2.02918   2.03134   2.03185
 Alpha virt. eigenvalues --    2.03373   2.03783   2.04137   2.04316   2.04746
 Alpha virt. eigenvalues --    2.05033   2.05370   2.05502   2.05801   2.06224
 Alpha virt. eigenvalues --    2.06412   2.06811   2.06991   2.07179   2.07408
 Alpha virt. eigenvalues --    2.07938   2.08031   2.08372   2.08548   2.08734
 Alpha virt. eigenvalues --    2.09103   2.09342   2.09672   2.09760   2.10018
 Alpha virt. eigenvalues --    2.10366   2.10619   2.10800   2.11076   2.11366
 Alpha virt. eigenvalues --    2.11787   2.11927   2.12097   2.12426   2.12727
 Alpha virt. eigenvalues --    2.13266   2.13525   2.13928   2.13987   2.14277
 Alpha virt. eigenvalues --    2.14567   2.14920   2.14997   2.15077   2.15427
 Alpha virt. eigenvalues --    2.15726   2.15944   2.16107   2.16338   2.17232
 Alpha virt. eigenvalues --    2.17380   2.17639   2.18065   2.18356   2.18431
 Alpha virt. eigenvalues --    2.19173   2.19194   2.19475   2.19683   2.20023
 Alpha virt. eigenvalues --    2.20116   2.20534   2.20622   2.21038   2.21532
 Alpha virt. eigenvalues --    2.21742   2.21870   2.22058   2.22353   2.22741
 Alpha virt. eigenvalues --    2.23028   2.23145   2.23375   2.23525   2.24055
 Alpha virt. eigenvalues --    2.24503   2.24808   2.25414   2.25736   2.26114
 Alpha virt. eigenvalues --    2.26437   2.26761   2.26819   2.27683   2.27742
 Alpha virt. eigenvalues --    2.27922   2.28287   2.28373   2.28945   2.29475
 Alpha virt. eigenvalues --    2.29785   2.29847   2.29915   2.30454   2.30622
 Alpha virt. eigenvalues --    2.30992   2.31829   2.31877   2.31974   2.33043
 Alpha virt. eigenvalues --    2.33113   2.33750   2.33883   2.34035   2.34211
 Alpha virt. eigenvalues --    2.34391   2.34740   2.35210   2.35721   2.35794
 Alpha virt. eigenvalues --    2.36110   2.36299   2.36470   2.37008   2.37404
 Alpha virt. eigenvalues --    2.37556   2.37861   2.38061   2.38326   2.38715
 Alpha virt. eigenvalues --    2.38880   2.38998   2.39274   2.39653   2.39758
 Alpha virt. eigenvalues --    2.40012   2.40448   2.40838   2.41035   2.41246
 Alpha virt. eigenvalues --    2.41738   2.41870   2.42199   2.42813   2.42879
 Alpha virt. eigenvalues --    2.42954   2.43776   2.44099   2.44573   2.45191
 Alpha virt. eigenvalues --    2.45372   2.45588   2.46058   2.46361   2.46593
 Alpha virt. eigenvalues --    2.46744   2.47042   2.47457   2.47589   2.48052
 Alpha virt. eigenvalues --    2.48205   2.49116   2.49230   2.50077   2.50282
 Alpha virt. eigenvalues --    2.50505   2.50915   2.51392   2.51472   2.52009
 Alpha virt. eigenvalues --    2.52182   2.52518   2.52896   2.53219   2.53427
 Alpha virt. eigenvalues --    2.53898   2.54071   2.54550   2.54883   2.55028
 Alpha virt. eigenvalues --    2.55369   2.55742   2.57101   2.57173   2.57315
 Alpha virt. eigenvalues --    2.57478   2.57708   2.58052   2.58103   2.58616
 Alpha virt. eigenvalues --    2.58953   2.59148   2.59363   2.59933   2.60085
 Alpha virt. eigenvalues --    2.60325   2.60608   2.60826   2.60992   2.61700
 Alpha virt. eigenvalues --    2.62375   2.62562   2.62620   2.63141   2.63958
 Alpha virt. eigenvalues --    2.64150   2.64377   2.64759   2.65143   2.65425
 Alpha virt. eigenvalues --    2.65817   2.66010   2.66176   2.66714   2.66904
 Alpha virt. eigenvalues --    2.67078   2.67660   2.67792   2.68039   2.68380
 Alpha virt. eigenvalues --    2.68476   2.68964   2.69346   2.69520   2.69998
 Alpha virt. eigenvalues --    2.70747   2.70832   2.71000   2.71232   2.71472
 Alpha virt. eigenvalues --    2.72144   2.72292   2.72576   2.72847   2.73104
 Alpha virt. eigenvalues --    2.73165   2.73550   2.73905   2.74203   2.74388
 Alpha virt. eigenvalues --    2.74724   2.74946   2.75012   2.75385   2.75451
 Alpha virt. eigenvalues --    2.75971   2.76325   2.76437   2.76706   2.76940
 Alpha virt. eigenvalues --    2.77039   2.77661   2.77751   2.77909   2.78097
 Alpha virt. eigenvalues --    2.78363   2.78501   2.78881   2.79147   2.79314
 Alpha virt. eigenvalues --    2.79752   2.79941   2.80041   2.80243   2.80396
 Alpha virt. eigenvalues --    2.80529   2.80697   2.81107   2.81273   2.81635
 Alpha virt. eigenvalues --    2.82314   2.82646   2.82789   2.82958   2.83482
 Alpha virt. eigenvalues --    2.83548   2.84036   2.84212   2.84325   2.84579
 Alpha virt. eigenvalues --    2.85279   2.85351   2.85978   2.86432   2.86669
 Alpha virt. eigenvalues --    2.86757   2.87263   2.87792   2.88506   2.88633
 Alpha virt. eigenvalues --    2.88825   2.88873   2.89359   2.89420   2.89893
 Alpha virt. eigenvalues --    2.90009   2.90238   2.90295   2.90473   2.90932
 Alpha virt. eigenvalues --    2.91295   2.91472   2.91844   2.91943   2.92176
 Alpha virt. eigenvalues --    2.92471   2.93243   2.93420   2.93971   2.94403
 Alpha virt. eigenvalues --    2.94779   2.94855   2.94985   2.95914   2.96234
 Alpha virt. eigenvalues --    2.96621   2.96751   2.96927   2.97251   2.97432
 Alpha virt. eigenvalues --    2.97611   2.98081   2.98292   2.98523   2.98727
 Alpha virt. eigenvalues --    2.99232   2.99533   2.99774   2.99923   3.00017
 Alpha virt. eigenvalues --    3.00316   3.00525   3.00897   3.01312   3.01434
 Alpha virt. eigenvalues --    3.01749   3.02020   3.02455   3.02715   3.03128
 Alpha virt. eigenvalues --    3.03423   3.03554   3.04188   3.04754   3.04858
 Alpha virt. eigenvalues --    3.05151   3.05410   3.05716   3.06201   3.07250
 Alpha virt. eigenvalues --    3.07443   3.08362   3.08667   3.09203   3.10390
 Alpha virt. eigenvalues --    3.10508   3.10663   3.10825   3.11143   3.11783
 Alpha virt. eigenvalues --    3.12737   3.13360   3.13475   3.13635   3.13705
 Alpha virt. eigenvalues --    3.14151   3.14535   3.14888   3.15666   3.16242
 Alpha virt. eigenvalues --    3.16652   3.17193   3.17719   3.17904   3.18162
 Alpha virt. eigenvalues --    3.18341   3.18516   3.18769   3.19101   3.19232
 Alpha virt. eigenvalues --    3.19441   3.19497   3.19697   3.20954   3.21458
 Alpha virt. eigenvalues --    3.21876   3.22221   3.22489   3.22921   3.23018
 Alpha virt. eigenvalues --    3.23473   3.23833   3.24074   3.24794   3.25740
 Alpha virt. eigenvalues --    3.26340   3.26669   3.27201   3.27429   3.27686
 Alpha virt. eigenvalues --    3.28063   3.28761   3.28953   3.29661   3.30436
 Alpha virt. eigenvalues --    3.30724   3.31215   3.32446   3.33228   3.33634
 Alpha virt. eigenvalues --    3.34450   3.35149   3.37112   3.38951   3.40468
 Alpha virt. eigenvalues --    3.40934   3.42545   3.46558   3.52204   3.52243
 Alpha virt. eigenvalues --    3.53098   3.53930   3.54074   3.56017   3.56653
 Alpha virt. eigenvalues --    3.57143   3.58585   3.58987   3.59353   3.60580
 Alpha virt. eigenvalues --    3.61829   3.62291   3.62598   3.63674   3.65371
 Alpha virt. eigenvalues --    3.66617   3.66766   3.67309   3.67705   3.68269
 Alpha virt. eigenvalues --    3.68336   3.68837   3.70048   3.70494   3.71180
 Alpha virt. eigenvalues --    3.71322   3.71753   3.71980   3.72413   3.72756
 Alpha virt. eigenvalues --    3.73320   3.74043   3.74538   3.75328   3.75643
 Alpha virt. eigenvalues --    3.76148   3.79657   3.81458   3.88693
          Condensed to atoms (all electrons):
 Mulliken charges:
               1
     1  C    0.069508
     2  C    0.034138
     3  O   -0.314648
     4  H    0.032163
     5  H    0.029863
     6  H    0.011463
     7  N   -0.106670
     8  C    0.132265
     9  C    0.044222
    10  O   -0.300458
    11  C    0.041591
    12  C    0.134282
    13  O   -0.364892
    14  O   -0.457440
    15  H    0.117388
    16  H   -0.004240
    17  H    0.009384
    18  H    0.022131
    19  N   -0.133240
    20  C    0.191161
    21  C    0.051869
    22  O   -0.287089
    23  C    0.028512
    24  C    0.007801
    25  C   -0.029853
    26  C    0.003938
    27  N    0.087051
    28  H    0.144958
    29  H    0.011666
    30  H   -0.042698
    31  H    0.010209
    32  H    0.054454
    33  H    0.003777
    34  H    0.035493
    35  H    0.031148
    36  H    0.077175
    37  H    0.087149
    38  H    0.186755
    39  H    0.199804
    40  H    0.194434
    41  N   -0.139008
    42  C    0.096536
    43  C    0.046699
    44  O   -0.293491
    45  C    0.092789
    46  C    0.143046
    47  O   -0.411405
    48  O   -0.432469
    49  H    0.146213
    50  H    0.016979
    51  H   -0.007728
    52  H    0.040675
    53  N   -0.148273
    54  C    0.223328
    55  C    0.022857
    56  O   -0.315875
    57  H    0.134172
    58  H    0.035150
    59  H    0.026524
    60  N   -0.149524
    61  C    0.136543
    62  C    0.090774
    63  O   -0.290941
    64  C    0.074749
    65  C    0.064199
    66  N   -0.040833
    67  O   -0.334170
    68  H    0.180864
    69  H    0.031497
    70  H    0.070040
    71  H   -0.013008
    72  H    0.130410
    73  H    0.123092
    74  N   -0.171044
    75  C    0.240208
    76  C   -0.009247
    77  O   -0.278624
    78  H    0.145828
    79  H    0.025723
    80  H    0.020457
    81  N   -0.144828
    82  C    0.147074
    83  C    0.114150
    84  O   -0.364313
    85  C    0.135319
    86  C   -0.006131
    87  C    0.038364
    88  C   -0.046372
    89  C   -0.017895
    90  C   -0.042377
    91  C    0.184440
    92  O   -0.215597
    93  H    0.148779
    94  H   -0.017797
    95  H   -0.029333
    96  H   -0.036261
    97  H   -0.016577
    98  H   -0.050492
    99  H   -0.016107
   100  H   -0.048538
   101  H    0.171063
   102  N   -0.105392
   103  C    0.142341
   104  C    0.064300
   105  O   -0.274999
   106  C   -0.135951
   107  C    0.031086
   108  C    0.060890
   109  C    0.001601
   110  H    0.137144
   111  H    0.027126
   112  H   -0.014704
   113  H   -0.006454
   114  H   -0.035784
   115  H    0.008541
   116  H    0.031516
   117  H    0.010035
   118  H    0.039193
   119  H    0.006378
   120  H    0.023249
   121  N   -0.140274
   122  C    0.102398
   123  C    0.090470
   124  O   -0.263687
   125  C    0.221690
   126  O   -0.314245
   127  H    0.138453
   128  H    0.025225
   129  H    0.032414
   130  H   -0.019985
   131  H    0.193349
   132  N   -0.129963
   133  C    0.082103
   134  C    0.059455
   135  O   -0.242906
   136  C    0.054507
   137  H    0.119154
   138  H    0.024787
   139  H    0.041549
   140  H    0.028766
   141  H    0.011267
   142  N   -0.136018
   143  C    0.098095
   144  C    0.067637
   145  O   -0.282614
   146  C    0.019987
   147  H    0.106313
   148  H    0.010510
   149  H    0.023846
   150  H    0.007493
   151  H    0.019194
   152  N   -0.170760
   153  C    0.121231
   154  C    0.069861
   155  O   -0.287181
   156  C   -0.003138
   157  C    0.080918
   158  C    0.146735
   159  O   -0.392589
   160  O   -0.447262
   161  H    0.139174
   162  H   -0.034153
   163  H    0.033883
   164  H    0.008468
   165  H   -0.006362
   166  H   -0.022387
   167  N   -0.158898
   168  C    0.129445
   169  H    0.013709
   170  H    0.022952
   171  H    0.032823
   172  H    0.142247
   173  Ca   1.283386
   174  O   -0.338988
   175  H    0.162010
   176  H    0.160979
 Sum of Mulliken charges =  -0.00000
 Mulliken charges with hydrogens summed into heavy atoms:
               1
     1  C    0.142998
     2  C    0.034138
     3  O   -0.314648
     7  N    0.010719
     8  C    0.128025
     9  C    0.044222
    10  O   -0.300458
    11  C    0.073107
    12  C    0.134282
    13  O   -0.364892
    14  O   -0.457440
    19  N    0.011718
    20  C    0.202827
    21  C    0.051869
    22  O   -0.287089
    23  C   -0.003978
    24  C    0.066032
    25  C    0.036788
    26  C    0.168262
    27  N    0.668044
    41  N    0.007205
    42  C    0.113516
    43  C    0.046699
    44  O   -0.293491
    45  C    0.125736
    46  C    0.143046
    47  O   -0.411405
    48  O   -0.432469
    53  N   -0.014101
    54  C    0.285002
    55  C    0.022857
    56  O   -0.315875
    60  N    0.031339
    61  C    0.168040
    62  C    0.090774
    63  O   -0.290941
    64  C    0.131781
    65  C    0.064199
    66  N    0.212669
    67  O   -0.334170
    74  N   -0.025217
    75  C    0.286388
    76  C   -0.009247
    77  O   -0.278624
    81  N    0.003951
    82  C    0.129278
    83  C    0.114150
    84  O   -0.364313
    85  C    0.069725
    86  C   -0.006131
    87  C    0.021786
    88  C   -0.096864
    89  C   -0.034002
    90  C   -0.090914
    91  C    0.184440
    92  O   -0.044534
   102  N    0.031752
   103  C    0.169467
   104  C    0.064300
   105  O   -0.274999
   106  C   -0.150655
   107  C   -0.011151
   108  C    0.110983
   109  C    0.070421
   121  N   -0.001821
   122  C    0.127622
   123  C    0.090470
   124  O   -0.263687
   125  C    0.234118
   126  O   -0.120896
   132  N   -0.010809
   133  C    0.106890
   134  C    0.059455
   135  O   -0.242906
   136  C    0.136089
   142  N   -0.029704
   143  C    0.108605
   144  C    0.067637
   145  O   -0.282614
   146  C    0.070521
   152  N   -0.031586
   153  C    0.087078
   154  C    0.069861
   155  O   -0.287181
   156  C    0.039213
   157  C    0.052169
   158  C    0.146735
   159  O   -0.392589
   160  O   -0.447262
   167  N   -0.016651
   168  C    0.198928
   173  Ca   1.283386
   174  O   -0.016000
 DipInt: DoE/N= T F RetVal/Mat= T F Init=T NMatP=  1 IDeriv=0 Min/MaxMlt=  0  4
 Entering OneElI...
 OneElI was handed  1333951383 working-precision words.
 Multipole integrals L=0 to 4 MinM= 0 MaxM= 0.
 Requested accuracy = 0.1000D-12
 ShPair: Thresh= 1.00D-13 NBox=     0 BxSize= 0.00D+00 RnKept= 2.55D+01
         NSMCal=               327645 NSMKep=              159463
 PrmmSu-InSpLW:  IPartL=    0 NPrtUS=    1 NPrtUL=    1 DoSpLW=F IThBeg=    0 IThEnd=    0 NThAct=    1.
 PrsmSu:  NPrtUS=   1 ThrOK=F IAlg=1 NPAlg=1 LenDen=           0 ISkipM=0 DoSpLW=F IThBeg=    0 IThEnd=    0.
 Prism:   IPart=     0 DynPar=F LinDyn=F Incr=         512.
 PRISM was handed  1323912269 working-precision words and159463 shell-pairs
 IPart=  0 NShTot=      159463 NBatch=         364 AvBLen=       438.1
 PrsmSu-ThDecC:  IPartSL=    0    0 NPrtUSL=    1    1 IThBeg=    0 IThEnd=    0 CPU=   -1 GPU=   -1 NThAct=    1.
 PrSmSu:  NxtVal=            513.
 Electronic moments (au):
       -716.00000000         12.82959045          1.73485090         -4.77341295
     -52285.69644304     -32594.71194333     -11812.58076282         78.04280123
        -54.00772286          1.19179884    -112585.45680414        771.52930376
     -19093.47213749      41462.34126230     107745.52165721      40396.93690761
      -1809.05999144     -20606.30425906       3033.29078623     -14734.72859423
   -7508548.56888133   -3483282.78550425    -619022.76832414     183091.77384359
     259718.42404505    -911222.92656831      41329.03365572     -49884.24464976
    -126748.75300409   -2388473.03851402    -574656.99295071    -374344.62135186
     -38571.91310332      27758.90624492      68229.13552598
 Electronic spatial extent (au):  <R**2>=          96692.9891
 DipInt: DoE/N= F T RetVal/Mat= T F Init=T NMatP=  1 IDeriv=0 Min/MaxMlt=  0  4
 Nuclear    moments (au):
        716.00000000         -0.00000000         -0.00000000          0.00000000
      51823.76950199      32287.12396862      11425.74351346         -0.00000000
          0.00000000         -0.00000000     113977.88469969        153.17862444
      19047.90825241     -39412.12876262    -107291.50038124     -41167.59032994
       1990.85265383      20595.48461396      -3596.63872716      14340.47478326
    7305745.95857118    3396434.83674874     581275.44838264    -178926.82927261
    -264574.81858578     934849.30396849     -45849.27294261      48651.45124355
     128041.14967316    2355936.36287513     539834.35458217     349612.64453730
      38257.37423562     -33989.51780722     -68114.30042908
 Total      moments (au):
         -0.00000000         12.82959045          1.73485090         -4.77341295
       -461.92694105       -307.58797471       -386.83724936         78.04280123
        -54.00772286          1.19179884       1392.42789555        924.70792820
        -45.56388507       2050.21249968        454.02127598       -770.65342233
        181.79266239        -10.81964510       -563.34794093       -394.25381097
    -202802.61031014     -86847.94875552     -37747.31994150       4164.94457098
      -4856.39454073      23626.37740017      -4520.23928688      -1232.79340621
       1292.39666907     -32536.67563889     -34822.63836854     -24731.97681456
       -314.53886770      -6230.61156229        114.83509690
 Traceless Quadrup. (au):
        -76.47621935         77.86274700         -1.38652765         78.04280123
        -54.00772286          1.19179884
 Charge=             -0.0000 electrons
 Dipole moment (field-independent basis, Debye):
    X=             32.6096    Y=              4.4096    Z=            -12.1328  Tot=             35.0718
 Quadrupole moment (field-independent basis, Debye-Ang):
   XX=           -621.3076   YY=           -413.7164   ZZ=           -520.3094
   XY=            104.9702   XZ=            -72.6422   YZ=              1.6030
 Traceless Quadrupole moment (field-independent basis, Debye-Ang):
   XX=           -102.8631   YY=            104.7281   ZZ=             -1.8649
   XY=            104.9702   XZ=            -72.6422   YZ=              1.6030
 Octapole moment (field-independent basis, Debye-Ang**2):
  XXX=            991.0765  YYY=            658.1715  ZZZ=            -32.4306  XYY=           1459.2623
  XXY=            323.1549  XXZ=           -548.5214  XZZ=            129.3930  YZZ=             -7.7010
  YYZ=           -400.9694  XYZ=           -280.6147
 Hexadecapole moment (field-independent basis, Debye-Ang**3):
 XXXX=         -76385.1878 YYYY=         -32711.1020 ZZZZ=         -14217.4507 XXXY=           1568.7178
 XXXZ=          -1829.1511 YYYX=           8898.8267 YYYZ=          -1702.5389 ZZZX=           -464.3291
 ZZZY=            486.7786 XXYY=         -12254.8722 XXZZ=         -13115.8754 YYZZ=          -9315.2484
 XXYZ=           -118.4704 YYXZ=          -2346.7471 ZZXY=             43.2524
 N-N= 2.163704564064D+04 E-N=-5.575769707668D+04  KE= 5.290777415591D+03
 Leave Link  601 at Sat Sep 14 22:38:03 2019, MaxMem=  1342177280 cpu:              44.3 elap:               1.1
 FitSet:  NAtFit=   176 NAtPot=   176 NAtFrz=     0 MDM=   180 TotChg=   0.00000
 Merz-Kollman atomic radii used.
 Read replacement radii for each type of atom:
 Rad(20) =   1.700000000000D+00
 Atom Element Radius
    1     6    1.50
    2     6    1.50
    3     8    1.40
    4     1    1.20
    5     1    1.20
    6     1    1.20
    7     7    1.50
    8     6    1.50
    9     6    1.50
   10     8    1.40
   11     6    1.50
   12     6    1.50
   13     8    1.40
   14     8    1.40
   15     1    1.20
   16     1    1.20
   17     1    1.20
   18     1    1.20
   19     7    1.50
   20     6    1.50
   21     6    1.50
   22     8    1.40
   23     6    1.50
   24     6    1.50
   25     6    1.50
   26     6    1.50
   27     7    1.50
   28     1    1.20
   29     1    1.20
   30     1    1.20
   31     1    1.20
   32     1    1.20
   33     1    1.20
   34     1    1.20
   35     1    1.20
   36     1    1.20
   37     1    1.20
   38     1    1.20
   39     1    1.20
   40     1    1.20
   41     7    1.50
   42     6    1.50
   43     6    1.50
   44     8    1.40
   45     6    1.50
   46     6    1.50
   47     8    1.40
   48     8    1.40
   49     1    1.20
   50     1    1.20
   51     1    1.20
   52     1    1.20
   53     7    1.50
   54     6    1.50
   55     6    1.50
   56     8    1.40
   57     1    1.20
   58     1    1.20
   59     1    1.20
   60     7    1.50
   61     6    1.50
   62     6    1.50
   63     8    1.40
   64     6    1.50
   65     6    1.50
   66     7    1.50
   67     8    1.40
   68     1    1.20
   69     1    1.20
   70     1    1.20
   71     1    1.20
   72     1    1.20
   73     1    1.20
   74     7    1.50
   75     6    1.50
   76     6    1.50
   77     8    1.40
   78     1    1.20
   79     1    1.20
   80     1    1.20
   81     7    1.50
   82     6    1.50
   83     6    1.50
   84     8    1.40
   85     6    1.50
   86     6    1.50
   87     6    1.50
   88     6    1.50
   89     6    1.50
   90     6    1.50
   91     6    1.50
   92     8    1.40
   93     1    1.20
   94     1    1.20
   95     1    1.20
   96     1    1.20
   97     1    1.20
   98     1    1.20
   99     1    1.20
  100     1    1.20
  101     1    1.20
  102     7    1.50
  103     6    1.50
  104     6    1.50
  105     8    1.40
  106     6    1.50
  107     6    1.50
  108     6    1.50
  109     6    1.50
  110     1    1.20
  111     1    1.20
  112     1    1.20
  113     1    1.20
  114     1    1.20
  115     1    1.20
  116     1    1.20
  117     1    1.20
  118     1    1.20
  119     1    1.20
  120     1    1.20
  121     7    1.50
  122     6    1.50
  123     6    1.50
  124     8    1.40
  125     6    1.50
  126     8    1.40
  127     1    1.20
  128     1    1.20
  129     1    1.20
  130     1    1.20
  131     1    1.20
  132     7    1.50
  133     6    1.50
  134     6    1.50
  135     8    1.40
  136     6    1.50
  137     1    1.20
  138     1    1.20
  139     1    1.20
  140     1    1.20
  141     1    1.20
  142     7    1.50
  143     6    1.50
  144     6    1.50
  145     8    1.40
  146     6    1.50
  147     1    1.20
  148     1    1.20
  149     1    1.20
  150     1    1.20
  151     1    1.20
  152     7    1.50
  153     6    1.50
  154     6    1.50
  155     8    1.40
  156     6    1.50
  157     6    1.50
  158     6    1.50
  159     8    1.40
  160     8    1.40
  161     1    1.20
[...]
 **** Fit       0.030477
 **** Fit       0.029582
 **** Fit       0.026151
 **** Fit       0.029784
 **** Fit       0.029290
 **** Fit       0.028970
 **** Fit       0.027703
 **** Fit       0.024478
 **** Fit       0.018867
 **** Fit       0.011191
 **** Fit       0.029641
 **** Fit       0.028307
 **** Fit       0.026383
 **** Fit       0.022874
 **** Fit       0.017525
 **** Fit       0.011270
 **** Fit       0.006235
 **** Fit       0.005114
 **** Fit       0.009601
 **** Fit       0.019246
 **** Fit       0.030990
 **** Fit       0.028426
 **** Fit       0.025597
 **** Fit       0.021485
 **** Fit       0.016818
 **** Fit       0.014626
 **** Fit       0.018029
 **** Fit       0.026823
 **** Fit       0.029794
 **** Fit       0.025886
 **** Fit       0.022188
 **** Fit       0.023773
 **** Fit       0.030922
 **** Fit       0.032957
 **** Fit       0.027522
 **** Fit       0.049009
 **** Fit       0.043413
 **** Fit       0.039309
 **** Fit       0.030397
 **** Fit      -0.033315
 **** Fit      -0.035447
 **** Fit      -0.037495
 **** Fit      -0.038028
 **** Fit      -0.039499
 **** Fit      -0.043562
 **** Fit      -0.005033
 **** Fit      -0.005000
 **** Fit      -0.005729
 **** Fit      -0.005188
 **** Fit      -0.004415
 **** Fit      -0.004355
 **** Fit      -0.005086
 **** Fit      -0.005909
 **** Fit      -0.005455
 **** Fit      -0.004496
 **** Fit      -0.003816
 **** Fit      -0.003590
 **** Fit      -0.003797
 **** Fit      -0.004331
 **** Fit      -0.005272
 **** Fit      -0.006137
 **** Fit      -0.006980
 **** Fit      -0.005806
 **** Fit      -0.004701
 **** Fit      -0.003792
 **** Fit      -0.003193
 **** Fit      -0.002953
 **** Fit      -0.003036
 **** Fit      -0.003358
 **** Fit      -0.003851
 **** Fit      -0.004493
 **** Fit      -0.005531
 **** Fit      -0.006476
 **** Fit      -0.007474
 **** Fit      -0.005508
 **** Fit      -0.004288
 **** Fit      -0.002575
 **** Fit      -0.002967
 **** Fit      -0.003453
 **** Fit      -0.004024
 **** Fit      -0.004708
 **** Fit      -0.005833
 **** Fit      -0.006811
 **** Fit      -0.007895
 **** Fit      -0.009026
 **** Fit      -0.007418
 **** Fit      -0.005751
 **** Fit      -0.002313
 **** Fit      -0.002772
 **** Fit      -0.003259
 **** Fit      -0.003767
 **** Fit      -0.004331
 **** Fit      -0.005005
 **** Fit      -0.008477
 **** Fit      -0.009824
 **** Fit      -0.011253
 **** Fit      -0.002522
 **** Fit      -0.003057
 **** Fit      -0.003564
 **** Fit      -0.010608
 **** Fit      -0.012285
 **** Fit      -0.002357
 **** Fit      -0.002973
 **** Fit      -0.003532
 **** Fit      -0.013489
 **** Fit      -0.015695
 **** Fit      -0.002876
 **** Fit      -0.003583
 **** Fit      -0.017203
 **** Fit      -0.020191
 **** Fit      -0.002815
 **** Fit      -0.003736
 **** Fit      -0.019121
 **** Fit      -0.022439
 **** Fit      -0.026847
 **** Fit      -0.002556
 **** Fit      -0.003728
 **** Fit      -0.021986
 **** Fit      -0.025848
 **** Fit      -0.002972
 **** Fit      -0.004675
 **** Fit      -0.025310
 **** Fit      -0.029549
 **** Fit      -0.003595
 **** Fit      -0.006234
 **** Fit      -0.029211
 **** Fit      -0.031542
 **** Fit      -0.002806
 **** Fit      -0.003582
 **** Fit      -0.002714
 **** Fit      -0.002225
 **** Fit      -0.002090
 **** Fit      -0.002304
 **** Fit      -0.003517
 **** Fit      -0.002628
 **** Fit      -0.002106
 **** Fit      -0.001777
 **** Fit      -0.001608
 **** Fit      -0.001653
 **** Fit      -0.001939
 **** Fit      -0.001900
 **** Fit      -0.001635
 **** Fit      -0.001384
 **** Fit      -0.001247
 **** Fit      -0.001312
 **** Fit      -0.001614
 **** Fit      -0.002109
 **** Fit      -0.001940
 **** Fit      -0.001613
 **** Fit      -0.001270
 **** Fit      -0.001041
 **** Fit      -0.001031
 **** Fit      -0.001297
 **** Fit      -0.001815
 **** Fit      -0.002409
 **** Fit      -0.001864
 **** Fit      -0.001350
 **** Fit      -0.000975
 **** Fit      -0.000849
 **** Fit      -0.001047
 **** Fit      -0.001567
 **** Fit      -0.002880
 **** Fit      -0.002052
 **** Fit      -0.001338
 **** Fit      -0.000865
 **** Fit      -0.000771
 **** Fit      -0.001132
 **** Fit      -0.001911
 **** Fit      -0.003342
 **** Fit      -0.002250
 **** Fit      -0.001330
 **** Fit      -0.000784
 **** Fit      -0.000791
 **** Fit      -0.001422
 **** Fit      -0.004362
 **** Fit      -0.002890
 **** Fit      -0.001603
 **** Fit      -0.000838
 **** Fit      -0.000871
 **** Fit      -0.001815
 **** Fit      -0.005174
 **** Fit      -0.003047
 **** Fit      -0.001445
 **** Fit      -0.000955
 **** Fit      -0.001943
 **** Fit      -0.005688
 **** Fit      -0.006609
 **** Fit      -0.004353
 **** Fit      -0.004942
 **** Fit      -0.006002
 **** Fit      -0.006903
 **** Fit      -0.008001
 **** Fit      -0.003775
 **** Fit      -0.004199
 **** Fit      -0.004689
 **** Fit      -0.005277
 **** Fit      -0.006518
 **** Fit      -0.007397
 **** Fit      -0.008497
 **** Fit      -0.009855
 **** Fit      -0.003798
 **** Fit      -0.004238
 **** Fit      -0.004708
 **** Fit      -0.005222
 **** Fit      -0.005810
 **** Fit      -0.007349
 **** Fit      -0.008170
 **** Fit      -0.009208
 **** Fit      -0.010527
 **** Fit      -0.012192
 **** Fit      -0.004051
 **** Fit      -0.004566
 **** Fit      -0.005083
 **** Fit      -0.005595
 **** Fit      -0.006117
 **** Fit      -0.006684
 **** Fit      -0.008622
 **** Fit      -0.009405
 **** Fit      -0.010423
 **** Fit      -0.011759
 **** Fit      -0.013515
 **** Fit      -0.015816
 **** Fit      -0.005025
 **** Fit      -0.005716
 **** Fit      -0.006353
 **** Fit      -0.006922
 **** Fit      -0.007452
 **** Fit      -0.007995
 **** Fit      -0.010491
 **** Fit      -0.011187
 **** Fit      -0.012129
 **** Fit      -0.013410
 **** Fit      -0.015148
 **** Fit      -0.017508
 **** Fit      -0.005790
 **** Fit      -0.006786
 **** Fit      -0.007687
 **** Fit      -0.008426
 **** Fit      -0.009008
 **** Fit      -0.009490
 **** Fit      -0.009955
 **** Fit      -0.013155
 **** Fit      -0.013717
 **** Fit      -0.014560
 **** Fit      -0.015785
 **** Fit      -0.017518
 **** Fit      -0.019944
 **** Fit      -0.008205
 **** Fit      -0.009637
 **** Fit      -0.010789
 **** Fit      -0.011600
 **** Fit      -0.012123
 **** Fit      -0.012473
 **** Fit      -0.012776
 **** Fit      -0.016877
 **** Fit      -0.017229
 **** Fit      -0.017964
 **** Fit      -0.019195
 **** Fit      -0.021065
 **** Fit      -0.023791
 **** Fit      -0.011716
 **** Fit      -0.013947
 **** Fit      -0.015535
 **** Fit      -0.016422
 **** Fit      -0.016767
 **** Fit      -0.016812
 **** Fit      -0.016786
 **** Fit      -0.022010
 **** Fit      -0.021967
 **** Fit      -0.022508
 **** Fit      -0.023751
 **** Fit      -0.025839
 **** Fit      -0.029003
 **** Fit      -0.022499
 **** Fit      -0.028234
 **** Fit      -0.028385
 **** Fit      -0.029538
 **** Fit      -0.031775
 **** Fit      -0.035844
 **** Fit      -0.007095
 **** Fit      -0.006913
 **** Fit      -0.008093
 **** Fit      -0.008464
 **** Fit      -0.007492
 **** Fit      -0.006301
 **** Fit      -0.006068
 **** Fit      -0.006953
 **** Fit      -0.008170
 **** Fit      -0.009368
 **** Fit      -0.010219
 **** Fit      -0.010317
 **** Fit      -0.009501
 **** Fit      -0.008095
 **** Fit      -0.006679
 **** Fit      -0.007224
 **** Fit      -0.008428
 **** Fit      -0.009714
 **** Fit      -0.011008
 **** Fit      -0.012136
 **** Fit      -0.012829
 **** Fit      -0.012827
 **** Fit      -0.012034
 **** Fit      -0.010604
 **** Fit      -0.008896
 **** Fit      -0.007290
 **** Fit      -0.009003
 **** Fit      -0.010376
 **** Fit      -0.011853
 **** Fit      -0.013381
 **** Fit      -0.014805
 **** Fit      -0.015880
 **** Fit      -0.016341
 **** Fit      -0.016000
 **** Fit      -0.014839
 **** Fit      -0.013042
 **** Fit      -0.010940
 **** Fit      -0.008890
 **** Fit      -0.007157
 **** Fit      -0.011400
 **** Fit      -0.013076
 **** Fit      -0.014919
 **** Fit      -0.016853
 **** Fit      -0.018687
 **** Fit      -0.020136
 **** Fit      -0.020893
 **** Fit      -0.020734
 **** Fit      -0.019596
 **** Fit      -0.017606
 **** Fit      -0.015070
 **** Fit      -0.012372
 **** Fit      -0.009850
 **** Fit      -0.014575
 **** Fit      -0.016697
 **** Fit      -0.019071
 **** Fit      -0.021585
 **** Fit      -0.023992
 **** Fit      -0.025938
 **** Fit      -0.027049
 **** Fit      -0.027054
 **** Fit      -0.025876
 **** Fit      -0.023639
 **** Fit      -0.020638
 **** Fit      -0.017288
 **** Fit      -0.013993
 **** Fit      -0.016822
 **** Fit      -0.019456
 **** Fit      -0.022531
 **** Fit      -0.025987
 **** Fit      -0.024368
 **** Fit      -0.019908
 **** Fit      -0.015856
 **** Fit      -0.022741
 **** Fit      -0.026655
 **** Fit      -0.022330
 **** Fit       0.026919
 **** Fit       0.027803
 **** Fit       0.027617
 **** Fit       0.029178
 **** Fit       0.030300
 **** Fit       0.024666
 **** Fit       0.026551
 **** Fit       0.028422
 **** Fit       0.030231
 **** Fit       0.022315
 **** Fit       0.023716
 **** Fit       0.025420
 **** Fit       0.027310
 **** Fit       0.029338
 **** Fit       0.018288
 **** Fit       0.019380
 **** Fit       0.015624
 **** Fit       0.016862
 **** Fit       0.018736
 **** Fit       0.021322
 **** Fit       0.024683
 **** Fit       0.010297
 **** Fit       0.011395
 **** Fit       0.013200
 **** Fit       0.015826
 **** Fit       0.019299
 **** Fit       0.023620
 **** Fit       0.028702
 **** Fit       0.015889
 **** Fit       0.005922
 **** Fit       0.006792
 **** Fit       0.008472
 **** Fit       0.010760
 **** Fit       0.013821
 **** Fit       0.017673
 **** Fit       0.022264
 **** Fit       0.027453
 **** Fit       0.032966
 **** Fit       0.038382
 **** Fit      -0.003296
 **** Fit      -0.009548
 **** Fit      -0.014787
 **** Fit      -0.019185
 **** Fit      -0.023231
 **** Fit       0.003802
 **** Fit       0.006093
 **** Fit       0.008740
 **** Fit       0.012004
 **** Fit       0.015941
 **** Fit       0.020485
 **** Fit       0.025464
 **** Fit       0.030587
 **** Fit       0.035413
 **** Fit      -0.007623
 **** Fit      -0.012691
 **** Fit      -0.017931
 **** Fit      -0.001545
 **** Fit       0.001679
 **** Fit       0.004536
 **** Fit       0.007543
 **** Fit       0.010982
 **** Fit       0.014940
 **** Fit       0.019362
 **** Fit      -0.009757
 **** Fit      -0.016471
 **** Fit      -0.017361
 **** Fit      -0.011184
 **** Fit      -0.006096
 **** Fit      -0.001904
 **** Fit       0.001685
 **** Fit       0.005088
 **** Fit       0.008668
 **** Fit       0.012630
 **** Fit      -0.012725
 **** Fit      -0.007243
 **** Fit      -0.002617
 **** Fit       0.001494
 **** Fit       0.005439
 **** Fit       0.009529
 **** Fit      -0.013596
 **** Fit      -0.007734
 **** Fit      -0.002704
 **** Fit       0.001850
 **** Fit      -0.009936
 **** Fit      -0.004334
 **** Fit      -0.018706
 **** Fit      -0.015533
 **** Fit      -0.015488
 **** Fit       0.028570
 **** Fit       0.019314
 **** Fit       0.030223
 **** Fit       0.023298
 **** Fit       0.016155
 **** Fit       0.009129
 **** Fit       0.002414
 **** Fit       0.030164
 **** Fit       0.035022
 **** Fit       0.038889
 **** Fit       0.040881
 **** Fit       0.040044
 **** Fit       0.036194
 **** Fit       0.030290
 **** Fit       0.025045
 **** Fit       0.019411
 **** Fit       0.013694
 **** Fit       0.008050
 **** Fit       0.002553
 **** Fit      -0.002810
 **** Fit       0.019343
 **** Fit       0.024168
 **** Fit       0.028785
 **** Fit       0.032892
 **** Fit       0.036049
 **** Fit       0.037668
 **** Fit       0.037213
 **** Fit       0.034588
 **** Fit       0.029635
 **** Fit       0.025577
 **** Fit       0.020999
 **** Fit       0.016163
 **** Fit       0.011195
 **** Fit       0.006131
 **** Fit       0.000905
 **** Fit      -0.004697
 **** Fit      -0.011131
 **** Fit       0.013680
 **** Fit       0.018096
 **** Fit       0.022459
 **** Fit       0.026592
 **** Fit       0.030232
 **** Fit       0.033025
 **** Fit       0.034562
 **** Fit       0.034500
 **** Fit       0.032765
 **** Fit       0.028585
 **** Fit       0.025408
 **** Fit       0.021637
 **** Fit       0.017473
 **** Fit       0.013020
 **** Fit       0.008297
 **** Fit       0.003233
 **** Fit      -0.002353
 **** Fit      -0.008768
 **** Fit       0.008808
 **** Fit       0.012874
 **** Fit       0.016904
 **** Fit       0.020842
 **** Fit       0.024544
 **** Fit       0.027792
 **** Fit       0.030305
 **** Fit       0.031785
 **** Fit       0.031997
 **** Fit       0.030878
 **** Fit       0.027218
 **** Fit       0.024481
 **** Fit       0.021034
 **** Fit       0.017061
 **** Fit       0.012656
 **** Fit       0.007834
 **** Fit       0.002543
 **** Fit      -0.003295
 **** Fit      -0.009595
 **** Fit       0.001099
 **** Fit       0.005444
 **** Fit       0.009578
 **** Fit       0.013587
 **** Fit       0.017482
 **** Fit       0.021180
 **** Fit       0.024504
 **** Fit       0.027200
 **** Fit       0.028985
 **** Fit       0.029621
 **** Fit       0.029004
 **** Fit       0.025530
 **** Fit       0.023094
 **** Fit       0.019836
 **** Fit       0.015938
 **** Fit       0.011523
 **** Fit       0.006677
 **** Fit       0.001538
 **** Fit      -0.003528
 **** Fit      -0.007696
 **** Fit      -0.009820
 **** Fit      -0.009247
 **** Fit      -0.006441
 **** Fit      -0.002487
 **** Fit       0.001772
 **** Fit       0.005970
 **** Fit       0.010027
 **** Fit       0.013943
 **** Fit       0.017679
 **** Fit       0.021107
 **** Fit       0.024007
 **** Fit       0.026101
 **** Fit       0.027125
 **** Fit       0.026928
 **** Fit       0.023492
 **** Fit       0.021130
 **** Fit       0.017756
 **** Fit       0.013646
 **** Fit       0.009096
 **** Fit       0.004545
 **** Fit       0.000749
 **** Fit      -0.001286
 **** Fit      -0.000950
 **** Fit       0.001412
 **** Fit       0.004906
 **** Fit       0.008812
 **** Fit       0.012762
 **** Fit       0.016548
 **** Fit       0.019945
 **** Fit       0.022641
 **** Fit       0.024280
 **** Fit       0.024589
 **** Fit       0.021070
 **** Fit       0.018442
 **** Fit       0.014487
 **** Fit       0.010080
 **** Fit       0.006496
 **** Fit       0.005165
 **** Fit       0.006573
 **** Fit       0.009848
 **** Fit       0.013824
 **** Fit       0.017632
 **** Fit       0.020527
 **** Fit       0.021806
 **** Fit       0.018221
 **** Fit       0.014888
 **** Fit       0.011128
 **** Fit       0.011038
 **** Fit       0.014537
 **** Fit       0.017983
 **** Fit       0.014896
 -----------------------------------------------------------------
 Leave Link  602 at Sat Sep 14 22:38:05 2019, MaxMem=  1342177280 cpu:             104.8 elap:               2.2

 Test job not archived.
 1\1\GINC-C506-094\SP\RB3LYP\SVP\C54H83Ca1N15O23\PENGZHI\14-Sep-2019\0\
 \#b3lyp/svp scf=(tight,noincore) Test #IOP(5/87=12) Density=Current Po
 p=(MK,readradii) iop(6/33=2) iop(6/42=6)\\holoCaM_loop3_101.0\\0,1\C,0
 ,91.85,60.14,104.302\C,0,93.12,60.57,103.592\O,0,93.92,59.68,103.282\H
 ,0,91.036,60.072,103.58\H,0,92.005,59.166,104.767\H,0,91.595,60.873,10
 5.068\N,0,93.38,61.86,103.342\C,0,94.64,62.23,102.742\C,0,95.83,61.96,
 103.642\O,0,95.83,62.18,104.852\C,0,94.5,63.67,102.272\C,0,95.65,64.04
 ,101.332\O,0,95.78,65.19,100.882\O,0,96.47,63.14,101.062\H,0,92.74,62.
 58,103.642\H,0,94.83,61.67,101.822\H,0,94.62,64.35,103.112\H,0,93.6,63
 .83,101.672\N,0,96.94,61.51,103.052\C,0,98.07,60.98,103.782\C,0,99.03,
 62.14,104.012\O,0,99.5,62.15,105.142\C,0,98.6,59.73,103.082\C,0,97.85,
 58.45,103.422\C,0,98.5,57.21,102.822\C,0,99.85,56.91,103.472\N,0,100.3
 6,55.61,103.002\H,0,96.83,61.34,102.062\H,0,97.66,60.7,104.762\H,0,99.
 65,59.46,103.132\H,0,98.55,59.85,101.992\H,0,96.82,58.5,103.062\H,0,97
 .81,58.36,104.502\H,0,98.53,57.28,101.732\H,0,97.77,56.42,102.972\H,0,
 99.64,56.87,104.542\H,0,100.62,57.66,103.302\H,0,101.31,55.56,103.342\
 H,0,99.8,54.86,103.402\H,0,100.42,55.46,102.012\N,0,99.35,63.06,103.09
 2\C,0,100.01,64.3,103.442\C,0,99.13,65.48,103.822\O,0,99.71,66.56,103.
 892\C,0,100.88,64.79,102.292\C,0,100.02,65.,101.052\O,0,100.62,65.33,1
 00.012\O,0,98.78,64.92,100.972\H,0,98.79,63.17,102.262\H,0,100.64,64.1
 2,104.322\H,0,101.66,64.04,102.172\H,0,101.42,65.69,102.612\N,0,97.82,
 65.38,104.072\C,0,96.98,66.52,104.392\C,0,96.71,67.53,103.282\O,0,96.2
 1,68.61,103.602\H,0,97.35,64.49,104.082\H,0,97.55,67.01,105.172\H,0,95
 .99,66.17,104.682\N,0,97.14,67.36,102.032\C,0,97.06,68.42,101.052\C,0,
 95.77,68.52,100.262\O,0,95.54,69.47,99.522\C,0,98.29,68.25,100.162\C,0
 ,97.92,67.52,98.872\N,0,98.39,68.11,97.772\O,0,97.18,66.55,98.812\H,0,
 97.61,66.51,101.762\H,0,97.23,69.37,101.562\H,0,99.07,67.65,100.632\H,
 0,98.67,69.22,99.852\H,0,98.89,68.99,97.792\H,0,98.08,67.77,96.872\N,0
 ,94.8,67.67,100.632\C,0,93.38,67.76,100.362\C,0,93.08,67.39,98.922\O,0
 ,92.24,68.03,98.292\H,0,95.05,66.75,100.972\H,0,93.,68.78,100.342\H,0,
 92.81,67.1,101.022\N,0,93.86,66.45,98.372\C,0,93.82,65.77,97.092\C,0,9
 4.25,64.32,97.232\O,0,95.06,64.08,98.132\C,0,94.66,66.46,96.022\C,0,94
 .37,67.9,95.672\C,0,94.74,69.02,96.432\C,0,93.84,68.08,94.392\C,0,94.6
 4,70.28,95.832\C,0,93.52,69.35,93.872\C,0,93.99,70.46,94.602\O,0,93.6,
 71.71,94.212\H,0,94.61,66.13,98.962\H,0,92.83,65.76,96.632\H,0,94.63,6
 5.85,95.122\H,0,95.71,66.44,96.312\H,0,95.19,68.85,97.402\H,0,93.69,67
 .2,93.782\H,0,94.95,71.16,96.382\H,0,93.07,69.37,92.892\H,0,92.98,71.7
 5,93.482\N,0,93.63,63.36,96.542\C,0,93.99,61.96,96.512\C,0,94.46,61.53
 ,95.132\O,0,93.81,61.81,94.132\C,0,92.77,61.14,96.952\C,0,91.96,61.7,9
 8.112\C,0,93.17,59.69,97.232\C,0,92.53,61.91,99.512\H,0,92.83,63.66,95
 .992\H,0,94.8,61.77,97.212\H,0,92.04,61.14,96.142\H,0,91.06,61.08,98.1
 22\H,0,91.62,62.66,97.712\H,0,92.26,59.27,97.652\H,0,93.51,59.34,96.25
 2\H,0,94.02,59.64,97.902\H,0,93.29,62.69,99.592\H,0,91.73,62.24,100.18
 2\H,0,93.,60.99,99.832\N,0,95.64,60.89,95.132\C,0,96.19,60.26,93.952\C
 ,0,95.81,58.78,93.892\O,0,95.24,58.27,94.852\C,0,97.7,60.49,93.942\O,0
 ,98.34,59.69,94.912\H,0,96.05,60.78,96.042\H,0,95.85,60.69,93.012\H,0,
 97.93,61.53,94.172\H,0,98.05,60.17,92.962\H,0,98.95,60.28,95.372\N,0,9
 6.08,58.13,92.762\C,0,95.81,56.71,92.682\C,0,96.58,55.95,93.752\O,0,96
 .05,55.,94.322\C,0,96.05,56.28,91.242\H,0,96.45,58.64,91.972\H,0,94.76
 ,56.53,92.932\H,0,95.86,55.21,91.202\H,0,95.23,56.7,90.652\H,0,96.99,5
 6.66,90.832\N,0,97.83,56.39,93.952\C,0,98.68,55.87,95.002\C,0,98.14,55
 .96,96.422\O,0,98.28,54.98,97.162\C,0,100.07,56.47,94.792\H,0,98.26,57
 .06,93.332\H,0,98.86,54.82,94.762\H,0,100.41,56.18,93.792\H,0,100.09,5
 7.54,94.982\H,0,100.7,56.,95.542\N,0,97.48,57.06,96.782\C,0,96.85,57.2
 1,98.072\C,0,95.58,56.38,98.252\O,0,95.27,55.82,99.302\C,0,96.59,58.71
 ,98.202\C,0,97.89,59.35,98.682\C,0,97.74,60.85,98.872\O,0,98.55,61.48,
 99.592\O,0,97.02,61.45,98.042\H,0,97.42,57.81,96.102\H,0,97.59,56.85,9
 8.792\H,0,95.89,58.8,99.032\H,0,96.21,59.09,97.252\H,0,98.71,59.18,97.
 982\H,0,98.13,58.98,99.682\N,0,94.91,56.16,97.122\C,0,93.55,55.66,97.1
 32\H,0,92.902,56.362,96.607\H,0,93.515,54.691,96.634\H,0,93.209,55.552
 ,98.162\H,0,95.27,56.65,96.312\Ca,0,97.54,63.86,98.9\O,0,100.082,63.93
 ,97.88\H,0,100.362,64.53,98.58\H,0,100.882,63.67,97.44\\Version=ES64L-
 G16RevA.03\State=1-A\HF=-5333.5826916\RMSD=2.048e-09\Dipole=5.8843752,
 -11.8104597,-4.0349399\Quadrupole=16.209672,-36.2539682,20.0442962,-76
 .2441777,2.8924775,-90.3024059\PG=C01 [X(C54H83Ca1N15O23)]\\@


 THERE IS NO SUBJECT, HOWEVER COMPLEX,
 WHICH, IF STUDIED WITH PATIENCE AND INTELLIGIENCE
 WILL NOT BECOME
 MORE COMPLEX
                        QUOTED BY D. GORDON ROHMAN
 Job cpu time:       0 days  8 hours 59 minutes 48.0 seconds.
 Elapsed time:       0 days  0 hours 11 minutes 22.4 seconds.
 File lengths (MBytes):  RWF=   1517 Int=      0 D2E=      0 Chk=    171 Scr=      1
 Normal termination of Gaussian 16 at Sat Sep 14 22:38:06 2019.
