 Entering Gaussian System, Link 0=g16
 Initial command:
 /home1/apps/gaussian/16rA.03/g16/l1.exe "/scratch/01990/pengzhi/4345046/Gau-81650.inp" -scrdir="/scratch/01990/pengzhi/4345046/"
 Entering Link 1 = /home1/apps/gaussian/16rA.03/g16/l1.exe PID=     81652.
  
 Copyright (c) 1988,1990,1992,1993,1995,1998,2003,2009,2016,
            Gaussian, Inc.  All Rights Reserved.
  
 This is part of the Gaussian(R) 16 program.  It is based on
 the Gaussian(R) 09 system (copyright 2009, Gaussian, Inc.),
 the Gaussian(R) 03 system (copyright 2003, Gaussian, Inc.),
 the Gaussian(R) 98 system (copyright 1998, Gaussian, Inc.),
 the Gaussian(R) 94 system (copyright 1995, Gaussian, Inc.),
 the Gaussian 92(TM) system (copyright 1992, Gaussian, Inc.),
 the Gaussian 90(TM) system (copyright 1990, Gaussian, Inc.),
 the Gaussian 88(TM) system (copyright 1988, Gaussian, Inc.),
 the Gaussian 86(TM) system (copyright 1986, Carnegie Mellon
 University), and the Gaussian 82(TM) system (copyright 1983,
 Carnegie Mellon University). Gaussian is a federally registered
 trademark of Gaussian, Inc.
  
 This software contains proprietary and confidential information,
 including trade secrets, belonging to Gaussian, Inc.
  
 This software is provided under written license and may be
 used, copied, transmitted, or stored only in accord with that
 written license.
  
 The following legend is applicable only to US Government
 contracts under FAR:
  
                    RESTRICTED RIGHTS LEGEND
  
 Use, reproduction and disclosure by the US Government is
 subject to restrictions as set forth in subparagraphs (a)
 and (c) of the Commercial Computer Software - Restricted
 Rights clause in FAR 52.227-19.
  
 Gaussian, Inc.
 340 Quinnipiac St., Bldg. 40, Wallingford CT 06492
  
  
 ---------------------------------------------------------------
 Warning -- This program may not be used in any manner that
 competes with the business of Gaussian, Inc. or will provide
 assistance to any competitor of Gaussian, Inc.  The licensee
 of this program is prohibited from giving any competitor of
 Gaussian, Inc. access to this program.  By using this program,
 the user acknowledges that Gaussian, Inc. is engaged in the
 business of creating and licensing software in the field of
 computational chemistry and represents and warrants to the
 licensee that it is not a competitor of Gaussian, Inc. and that
 it will not use this program in any manner prohibited above.
 ---------------------------------------------------------------
  

 Cite this work as:
 Gaussian 16, Revision A.03,
 M. J. Frisch, G. W. Trucks, H. B. Schlegel, G. E. Scuseria, 
 M. A. Robb, J. R. Cheeseman, G. Scalmani, V. Barone, 
 G. A. Petersson, H. Nakatsuji, X. Li, M. Caricato, A. V. Marenich, 
 J. Bloino, B. G. Janesko, R. Gomperts, B. Mennucci, H. P. Hratchian, 
 J. V. Ortiz, A. F. Izmaylov, J. L. Sonnenberg, D. Williams-Young, 
 F. Ding, F. Lipparini, F. Egidi, J. Goings, B. Peng, A. Petrone, 
 T. Henderson, D. Ranasinghe, V. G. Zakrzewski, J. Gao, N. Rega, 
 G. Zheng, W. Liang, M. Hada, M. Ehara, K. Toyota, R. Fukuda, 
 J. Hasegawa, M. Ishida, T. Nakajima, Y. Honda, O. Kitao, H. Nakai, 
 T. Vreven, K. Throssell, J. A. Montgomery, Jr., J. E. Peralta, 
 F. Ogliaro, M. J. Bearpark, J. J. Heyd, E. N. Brothers, K. N. Kudin, 
 V. N. Staroverov, T. A. Keith, R. Kobayashi, J. Normand, 
 K. Raghavachari, A. P. Rendell, J. C. Burant, S. S. Iyengar, 
 J. Tomasi, M. Cossi, J. M. Millam, M. Klene, C. Adamo, R. Cammi, 
 J. W. Ochterski, R. L. Martin, K. Morokuma, O. Farkas, 
 J. B. Foresman, and D. J. Fox, Gaussian, Inc., Wallingford CT, 2016.
 
 ******************************************
 Gaussian 16:  ES64L-G16RevA.03 25-Dec-2016
                17-Sep-2019 
 ******************************************
 %chk=Ng-293_loop3_31.0.chk
 %nprocshared=48
 Will use up to   48 processors via shared memory.
 %mem=10GB
 %nosave
 ----------------------------------------------------------------------
 #b3lyp/svp scf=(tight,noincore) Test #IOP(5/87=12) Density=Current Pop
 =(MK,readradii) iop(6/33=2) iop(6/42=6)
 ----------------------------------------------------------------------
 1/30=1,38=1,172=1/1;
 2/12=2,17=6,18=5,40=1/2;
 3/5=18,7=101,11=2,25=1,30=1,74=-5/1,2,3;
 4//1;
 5/5=4,32=2,38=5,87=12/2;
 6/7=2,8=2,9=2,10=2,15=8,20=101,22=-1,28=1,33=2,42=6/1,2;
 99/5=1,9=1/99;
 -----------------
 Ng-293_loop3_31.0
 -----------------
 Symbolic Z-matrix:
 Charge =  0 Multiplicity = 1
 C                     59.31     17.72     7.6 
 C                     59.16     18.73     6.47 
 O                     58.97     18.34     5.32 
 H                     60.001    18.111    8.347 
 H                     58.339    17.544    8.062 
 H                     59.699    16.783    7.201 
 N                     59.31     20.       6.85 
 C                     59.29     21.15     5.97 
 C                     57.86     21.5      5.58 
 O                     56.99     21.6      6.44 
 C                     60.01     22.36     6.56 
 C                     59.7      22.7      8.01 
 O                     59.93     23.86     8.41 
 O                     59.19     21.9      8.83 
 H                     59.25     20.21     7.83 
 H                     59.89     20.83     5.12 
 H                     59.88     23.21     5.9 
 H                     61.06     22.1      6.5 
 N                     57.67     21.77     4.29 
 C                     56.44     21.98     3.56 
 C                     55.82     23.35     3.8 
 O                     55.46     23.98     2.81 
 C                     55.54     20.76     3.71 
 C                     56.07     19.33     3.65 
 C                     56.82     19.       2.36 
 C                     56.57     17.52     2.09 
 N                     57.27     17.16     0.85 
 H                     58.5      21.7      3.71 
 H                     56.86     21.93     2.56 
 H                     54.6      20.8      3.15 
 H                     55.09     20.85     4.7 
 H                     55.15     18.74     3.61 
 H                     56.71     19.15     4.51 
 H                     57.86     19.17     2.63 
 H                     56.39     19.57     1.54 
 H                     55.48     17.46     2.02 
 H                     57.02     17.01     2.94 
 H                     58.26     16.98     0.94 
 H                     56.93     16.3      0.45 
 H                     57.12     17.77     0.06 
 N                     55.62     23.76     5.06 
 C                     55.01     25.01     5.46 
 C                     55.63     25.46     6.77 
 O                     55.91     24.68     7.67 
 C                     53.54     24.7      5.69 
 C                     52.7      25.93     6. 
 O                     52.98     26.99     5.4 
 O                     51.83     25.85     6.89 
 H                     56.15     23.22     5.74 
 H                     55.18     25.76     4.69 
 H                     53.5      24.07     6.58 
 H                     53.12     24.21     4.81 
 N                     55.83     26.78     6.83 
 C                     56.49     27.42     7.95 
 C                     55.75     27.77     9.24 
 O                     54.55     27.99     9.26 
 H                     55.45     27.39     6.12 
 H                     57.03     28.3      7.59 
 H                     57.24     26.68     8.21 
 N                     56.46     27.89     10.37 
 C                     56.03     28.1      11.74 
 C                     56.49     29.35     12.48 
 O                     55.71     29.86     13.29 
 C                     56.04     26.82     12.57 
 C                     55.67     25.57     11.79 
 N                     56.61     24.94     11.09 
 O                     54.53     25.1      11.86 
 H                     57.44     27.71     10.22 
 H                     54.97     28.34     11.7 
 H                     55.33     27.02     13.37 
 H                     57.03     26.62     12.97 
 H                     57.57     25.25     11.1 
 H                     56.41     24.02     10.72 
 N                     57.67     29.92     12.24 
 C                     58.16     31.05     12.99 
 C                     58.3      30.71     14.47 
 O                     58.78     29.64     14.81 
 H                     58.32     29.6      11.53 
 H                     57.45     31.86     12.84 
 H                     59.14     31.41     12.68 
 N                     57.78     31.59     15.33 
 C                     57.75     31.39     16.77 
 C                     57.14     30.06     17.19 
 O                     57.31     29.63     18.33 
 C                     59.14     31.51     17.39 
 C                     60.04     32.63     16.92 
 C                     61.06     32.36     15.99 
 C                     59.83     33.92     17.42 
 C                     61.88     33.4      15.55 
 C                     60.76     34.93     17.12 
 C                     61.81     34.64     16.23 
 O                     62.67     35.64     15.91 
 H                     57.3      32.42     15.02 
 H                     57.28     32.22     17.29 
 H                     59.67     30.57     17.24 
 H                     59.04     31.7      18.46 
 H                     61.17     31.37     15.58 
 H                     59.06     34.04     18.17 
 H                     62.67     33.26     14.83 
 H                     60.58     35.87     17.62 
 H                     62.44     36.39     16.46 
 N                     56.23     29.52     16.36 
 C                     55.27     28.48     16.64 
 C                     54.13     28.76     17.6 
 O                     52.98     28.39     17.4 
 C                     55.85     27.14     17.09 
 C                     57.21     26.82     16.47 
 C                     54.88     25.96     17.11 
 C                     57.79     25.43     16.7 
 H                     56.16     29.93     15.44 
 H                     54.75     28.21     15.72 
 H                     56.06     27.25     18.16 
 H                     57.98     27.47     16.88 
 H                     57.2      26.89     15.39 
 H                     55.32     25.03     17.48 
 H                     54.14     26.04     17.9 
 H                     54.44     25.73     16.14 
 H                     57.19     24.65     16.23 
 H                     58.73     25.28     16.17 
 H                     57.99     25.31     17.77 
 N                     54.44     29.49     18.68 
 C                     53.4      30.03     19.53 
 C                     52.45     29.01     20.16 
 O                     51.29     29.31     20.47 
 C                     53.78     31.14     20.5 
 O                     54.78     32.       20. 
 H                     55.39     29.75     18.91 
 H                     52.76     30.55     18.83 
 H                     54.25     30.72     21.39 
 H                     52.88     31.68     20.8 
 H                     54.49     32.11     19.09 
 N                     52.97     27.82     20.46 
 C                     52.29     26.61     20.88 
 C                     50.97     26.37     20.17 
 O                     49.94     26.42     20.85 
 C                     52.27     26.47     22.4 
 H                     53.96     27.74     20.32 
 H                     52.94     25.78     20.58 
 H                     51.67     25.65     22.8 
 H                     53.29     26.28     22.72 
 H                     51.85     27.35     22.88 
 N                     50.92     26.28     18.83 
 C                     49.73     26.07     18.03 
 C                     49.99     25.2      16.81 
 O                     51.12     25.03     16.38 
 C                     49.12     27.35     17.48 
 H                     51.69     26.51     18.22 
 H                     49.02     25.58     18.7 
 H                     49.83     27.91     16.88 
 H                     48.23     27.18     16.88 
 H                     48.79     27.95     18.33 
 N                     48.93     24.65     16.21 
 C                     48.97     23.55     15.27 
 C                     49.49     22.23     15.8 
 O                     50.39     21.62     15.24 
 C                     49.62     23.91     13.93 
 C                     48.81     25.06     13.33 
 C                     49.35     25.25     11.92 
 O                     50.27     26.08     11.74 
 O                     49.07     24.47     10.99 
 H                     48.04     24.9      16.61 
 H                     47.9      23.41     15.1 
 H                     49.65     23.05     13.27 
 H                     50.67     24.18     14.08 
 H                     48.83     25.97     13.93 
 H                     47.77     24.76     13.22 
 N                     48.92     21.8      16.93 
 C                     49.54     20.84     17.82 
 H                     50.458    21.263    18.227 
 H                     48.856    20.605    18.635 
 H                     49.774    19.93     17.268 
 H                     48.1      22.28     17.28 
 Ca                    50.83     25.33     9.28 
 O                     51.72     27.81     9.36 
 H                     52.53     28.04     8.91 
 H                     51.27     28.64     9.49 
 
 Stoichiometry    C54H83CaN15O23
 Framework group  C1[X(C54H83CaN15O23)]
 Deg. of freedom   522
 Full point group                 C1      NOp   1
 Largest Abelian subgroup         C1      NOp   1
 Largest concise Abelian subgroup C1      NOp   1
                         Standard orientation:                         
 ---------------------------------------------------------------------
 Center     Atomic      Atomic             Coordinates (Angstroms)
 Number     Number       Type             X           Y           Z
 ---------------------------------------------------------------------
      1          6           0        8.834192    0.123124    5.736736
      2          6           0        9.267249    0.741586    4.414062
      3          8           0       10.424157    0.604232    4.022400
      4          1           0        8.079634    0.756312    6.203734
      5          1           0        8.415051   -0.866253    5.555864
      6          1           0        9.696635    0.038250    6.398158
      7          7           0        8.315306    1.451666    3.806287
      8          6           0        8.479254    2.202481    2.578810
      9          6           0        8.465559    1.269233    1.375332
     10          8           0        7.578510    0.429906    1.252146
     11          6           0        7.445826    3.315224    2.422503
     12          6           0        5.999462    2.952144    2.723174
     13          8           0        5.095789    3.667872    2.243999
     14          8           0        5.646362    1.953325    3.394130
     15          1           0        7.365445    1.320484    4.104035
     16          1           0        9.437756    2.700933    2.711920
     17          1           0        7.561586    3.776107    1.448241
     18          1           0        7.752902    4.066135    3.140512
     19          7           0        9.406482    1.501492    0.462195
     20          6           0        9.777573    0.728097   -0.701443
     21          6           0        8.803494    0.876175   -1.862539
     22          8           0        9.285486    1.095469   -2.969875
     23          6           0       10.163553   -0.683304   -0.277337
     24          6           0       11.003954   -0.972375    0.963455
     25          6           0       12.360594   -0.268839    0.971555
     26          6           0       13.313632   -1.192481    1.722823
     27          7           0       14.636969   -0.555841    1.748694
     28          1           0       10.034694    2.268743    0.678701
     29          1           0       10.705612    1.245893   -0.923998
     30          1           0       10.510188   -1.336460   -1.084822
     31          1           0        9.220181   -1.203381   -0.103358
     32          1           0       11.229496   -2.036675    0.851668
     33          1           0       10.437173   -0.699843    1.850069
     34          1           0       12.166427    0.632810    1.548379
     35          1           0       12.719796   -0.171947   -0.050104
     36          1           0       13.275378   -2.117498    1.140174
     37          1           0       12.900701   -1.247413    2.728591
     38          1           0       14.768347    0.157515    2.451874
     39          1           0       15.375213   -1.207493    1.962110
     40          1           0       14.983250   -0.210905    0.865626
     41          7           0        7.496614    0.677868   -1.642454
     42          6           0        6.448200    0.740958   -2.638169
     43          6           0        5.174978    1.236386   -1.977518
     44          8           0        4.836572    0.890127   -0.853958
     45          6           0        6.236274   -0.688360   -3.109377
     46          6           0        5.247698   -0.809666   -4.259422
     47          8           0        5.253866    0.089875   -5.127056
     48          8           0        4.426534   -1.748209   -4.244350
     49          1           0        7.253389    0.706965   -0.655087
     50          1           0        6.743982    1.421066   -3.434577
     51          1           0        5.792452   -1.221264   -2.266978
     52          1           0        7.186551   -1.121484   -3.426044
     53          7           0        4.476518    2.076138   -2.747563
     54          6           0        3.273545    2.740324   -2.287875
     55          6           0        1.907919    2.055490   -2.304310
     56          8           0        1.637618    1.166707   -3.095386
     57          1           0        4.727441    2.214064   -3.716384
     58          1           0        3.197085    3.716354   -2.774823
     59          1           0        3.516206    2.930319   -1.247338
     60          7           0        0.966580    2.489557   -1.455272
     61          6           0       -0.359609    1.974647   -1.168935
     62          6           0       -1.571978    2.862572   -1.420831
     63          8           0       -2.614131    2.320608   -1.801346
     64          6           0       -0.416011    1.157759    0.118277
     65          6           0        0.841090    0.352525    0.399518
     66          7           0        1.869242    0.944086    1.002393
     67          8           0        0.885872   -0.854019    0.139432
     68          1           0        1.301530    3.241165   -0.873727
     69          1           0       -0.572387    1.224440   -1.927035
     70          1           0       -1.283836    0.515168   -0.016100
     71          1           0       -0.538938    1.800576    0.985326
     72          1           0        1.816309    1.902230    1.313772
     73          1           0        2.628886    0.372037    1.347360
     74          7           0       -1.517836    4.187296   -1.290158
     75          6           0       -2.674214    5.035994   -1.438486
     76          6           0       -3.747549    4.688915   -0.412286
     77          8           0       -3.437249    4.467376    0.747686
     78          1           0       -0.672878    4.700205   -1.062187
     79          1           0       -3.041579    4.894273   -2.452221
     80          1           0       -2.477200    6.098835   -1.305615
     81          7           0       -4.989755    4.545684   -0.882189
     82          6           0       -6.120151    4.137475   -0.063612
     83          6           0       -5.874432    2.858037    0.723829
     84          8           0       -6.608429    2.555221    1.663484
     85          6           0       -6.546251    5.236647    0.906522
     86          6           0       -6.608409    6.658265    0.396192
     87          6           0       -5.557566    7.547853    0.683528
     88          6           0       -7.715321    7.055719   -0.362080
     89          6           0       -5.614089    8.855538    0.199415
     90          6           0       -7.863071    8.412247   -0.698234
     91          6           0       -6.832653    9.308672   -0.361541
     92          8           0       -6.966509   10.605615   -0.738397
     93          1           0       -5.203676    4.636875   -1.862659
     94          1           0       -7.040990    4.075913   -0.636731
     95          1           0       -5.878094    5.219281    1.766909
     96          1           0       -7.567444    5.044319    1.239951
     97          1           0       -4.691686    7.205335    1.225039
     98          1           0       -8.506904    6.331371   -0.498155
     99          1           0       -4.835579    9.580337    0.374591
    100          1           0       -8.788572    8.653078   -1.199681
    101          1           0       -7.843998   10.696533   -1.112090
    102          7           0       -4.999152    1.981321    0.200518
    103          6           0       -4.822629    0.588132    0.531371
    104          6           0       -5.918291   -0.401994    0.186735
    105          8           0       -5.695164   -1.512580   -0.278254
    106          6           0       -4.457169    0.288409    1.984335
    107          6           0       -3.605312    1.374956    2.640197
    108          6           0       -3.988861   -1.135287    2.280101
    109          6           0       -3.026754    1.091986    4.020993
    110          1           0       -4.430893    2.314319   -0.564723
    111          1           0       -3.961820    0.193665   -0.010020
    112          1           0       -5.401168    0.312661    2.540551
    113          1           0       -4.194683    2.273700    2.808725
    114          1           0       -2.720688    1.612547    2.063663
    115          1           0       -3.780020   -1.323310    3.336715
    116          1           0       -4.790705   -1.863176    2.207130
    117          1           0       -3.096296   -1.432693    1.730304
    118          1           0       -2.300092    0.278967    4.004787
    119          1           0       -2.387576    1.899605    4.376245
    120          1           0       -3.855043    0.988576    4.729897
    121          7           0       -7.174129    0.025261    0.375739
    122          6           0       -8.296297   -0.725361   -0.146759
    123          6           0       -8.427354   -2.167773    0.345250
    124          8           0       -8.981005   -3.038027   -0.338730
    125          6           0       -9.643163   -0.021315   -0.234343
    126          8           0       -9.535806    1.354477   -0.526352
    127          1           0       -7.390518    0.906442    0.822613
    128          1           0       -8.038810   -0.852534   -1.189605
    129          1           0      -10.133603   -0.020663    0.739756
    130          1           0      -10.279611   -0.548643   -0.947407
    131          1           0       -8.849543    1.346719   -1.199614
    132          7           0       -8.017229   -2.410510    1.589989
    133          6           0       -7.840747   -3.685962    2.257053
    134          6           0       -7.268629   -4.771652    1.363712
    135          8           0       -7.995561   -5.735196    1.101124
    136          6           0       -9.068707   -4.070241    3.078541
    137          1           0       -7.740454   -1.600632    2.113050
    138          1           0       -7.086381   -3.517238    3.034141
    139          1           0       -9.063937   -5.072855    3.511140
    140          1           0       -9.124931   -3.381733    3.916214
    141          1           0       -9.974939   -4.056470    2.478746
    142          7           0       -6.085592   -4.599921    0.749602
    143          6           0       -5.436617   -5.544349   -0.137578
    144          6           0       -3.923011   -5.542525    0.010385
    145          8           0       -3.336589   -4.606508    0.530654
    146          6           0       -5.689807   -5.281326   -1.613964
    147          1           0       -5.591322   -3.721144    0.712887
    148          1           0       -5.842867   -6.519720    0.139391
    149          1           0       -5.378851   -4.283220   -1.905152
    150          1           0       -5.196429   -5.994051   -2.269403
    151          1           0       -6.758788   -5.409713   -1.793397
    152          7           0       -3.256547   -6.593947   -0.475864
    153          6           0       -1.890856   -6.948960   -0.153289
    154          6           0       -1.610882   -7.303784    1.292192
    155          8           0       -0.717046   -6.762318    1.927465
    156          6           0       -0.854014   -5.960964   -0.697830
    157          6           0       -1.022051   -5.922198   -2.217323
    158          6           0        0.147941   -5.100403   -2.738447
    159          8           0       -0.011884   -3.868882   -2.898172
    160          8           0        1.304757   -5.557735   -2.804204
    161          1           0       -3.829746   -7.282824   -0.935745
    162          1           0       -1.800783   -7.879427   -0.718547
    163          1           0        0.149651   -6.254117   -0.410048
    164          1           0       -0.995449   -4.975815   -0.242443
    165          1           0       -1.994047   -5.549831   -2.541466
    166          1           0       -0.898316   -6.922350   -2.627305
    167          7           0       -2.423563   -8.220740    1.826458
    168          6           0       -2.621887   -8.375388    3.252940
    169          1           0       -3.075890   -7.470626    3.656162
    170          1           0       -3.278371   -9.224946    3.438916
    171          1           0       -1.660906   -8.545604    3.737812
    172          1           0       -3.062746   -8.722299    1.222153
    173         20           0        2.533972   -3.314385   -3.270798
    174          8           0        1.310243   -1.302188   -4.455049
    175          1           0        1.672726   -0.421161   -4.392631
    176          1           0        0.724481   -1.271412   -5.206205
 ---------------------------------------------------------------------
 Rotational constants (GHZ):           0.0180383           0.0082993           0.0066533
 Standard basis: SVP (5D, 7F)
 There are  1809 symmetry adapted cartesian basis functions of A   symmetry.
 There are  1717 symmetry adapted basis functions of A   symmetry.
  1717 basis functions,  2922 primitive gaussians,  1809 cartesian basis functions
   358 alpha electrons      358 beta electrons
       nuclear repulsion energy     18623.2154820841 Hartrees.
 NAtoms=  176 NActive=  176 NUniq=  176 SFac= 1.00D+00 NAtFMM=   60 NAOKFM=T Big=T
 Integral buffers will be    131072 words long.
 Raffenetti 2 integral format.
 Two-electron integral symmetry is turned on.
 One-electron integrals computed using PRISM.
 NBasis=  1717 RedAO= T EigKep=  3.28D-04  NBF=  1717
 NBsUse=  1717 1.00D-06 EigRej= -1.00D+00 NBFU=  1717
 ExpMin= 1.98D-02 ExpMax= 3.51D+04 ExpMxC= 5.28D+03 IAcc=3 IRadAn=         5 AccDes= 0.00D+00
 Harris functional with IExCor=  402 and IRadAn=       5 diagonalized for initial guess.
 HarFok:  IExCor=  402 AccDes= 0.00D+00 IRadAn=         5 IDoV= 1 UseB2=F ITyADJ=14
 ICtDFT=  3500011 ScaDFX=  1.000000  1.000000  1.000000  1.000000
 FoFCou: FMM=F IPFlag=           0 FMFlag=      100000 FMFlg1=        2001
         NFxFlg=           0 DoJE=T BraDBF=F KetDBF=T FulRan=T
         wScrn=  0.000000 ICntrl=       500 IOpCl=  0 I1Cent=   200000004 NGrid=           0
         NMat0=    1 NMatS0=      1 NMatT0=    0 NMatD0=    1 NMtDS0=    0 NMtDT0=    0
 Petite list used in FoFCou.
 Requested convergence on RMS density matrix=1.00D-08 within 128 cycles.
 Requested convergence on MAX density matrix=1.00D-06.
 Requested convergence on             energy=1.00D-06.
 No special actions if energy rises.
 EnCoef did     2 forward-backward iterations
 EnCoef did     2 forward-backward iterations
 EnCoef did     4 forward-backward iterations
 Restarting incremental Fock formation.
 SCF Done:  E(RB3LYP) =  -5333.38884178     A.U. after   25 cycles
            NFock= 25  Conv=0.19D-08     -V/T= 2.0081
 SCF density gives NOpUse=  1 NOpAll=  1.
 Hyperfine terms turned off by default for NAtoms > 100.

 **********************************************************************

            Population analysis using the SCF density.

 **********************************************************************

 Orbital symmetries:
 BldTbl:  Degeneracy threshold= 1.00D-02
       Occupied  (A) (A) (A) (A) (A) (A) (A) (A) (A) (A) (A) (A)
                 (A) (A) (A) (A) (A) (A) (A) (A) (A) (A) (A) (A)
                 (A) (A) (A) (A) (A) (A) (A) (A) (A) (A) (A) (A)
                 (A) (A) (A) (A) (A) (A) (A) (A) (A) (A) (A) (A)
                 (A) (A) (A) (A) (A) (A) (A) (A) (A) (A) (A) (A)
                 (A) (A) (A) (A) (A) (A) (A) (A) (A) (A) (A) (A)
                 (A) (A) (A) (A) (A) (A) (A) (A) (A) (A) (A) (A)
                 (A) (A) (A) (A) (A) (A) (A) (A) (A) (A) (A) (A)
                 (A) (A) (A) (A) (A) (A) (A) (A) (A) (A) (A) (A)
                 (A) (A) (A) (A) (A) (A) (A) (A) (A) (A) (A) (A)
                 (A) (A) (A) (A) (A) (A) (A) (A) (A) (A) (A) (A)
                 (A) (A) (A) (A) (A) (A) (A) (A) (A) (A) (A) (A)
                 (A) (A) (A) (A) (A) (A) (A) (A) (A) (A) (A) (A)
                 (A) (A) (A) (A) (A) (A) (A) (A) (A) (A) (A) (A)
                 (A) (A) (A) (A) (A) (A) (A) (A) (A) (A) (A) (A)
                 (A) (A) (A) (A) (A) (A) (A) (A) (A) (A) (A) (A)
                 (A) (A) (A) (A) (A) (A) (A) (A) (A) (A) (A) (A)
                 (A) (A) (A) (A) (A) (A) (A) (A) (A) (A) (A) (A)
                 (A) (A) (A) (A) (A) (A) (A) (A) (A) (A) (A) (A)
                 (A) (A) (A) (A) (A) (A) (A) (A) (A) (A) (A) (A)
                 (A) (A) (A) (A) (A) (A) (A) (A) (A) (A) (A) (A)
                 (A) (A) (A) (A) (A) (A) (A) (A) (A) (A) (A) (A)
                 (A) (A) (A) (A) (A) (A) (A) (A) (A) (A) (A) (A)
                 (A) (A) (A) (A) (A) (A) (A) (A) (A) (A) (A) (A)
                 (A) (A) (A) (A) (A) (A) (A) (A) (A) (A) (A) (A)
                 (A) (A) (A) (A) (A) (A) (A) (A) (A) (A) (A) (A)
                 (A) (A) (A) (A) (A) (A) (A) (A) (A) (A) (A) (A)
                 (A) (A) (A) (A) (A) (A) (A) (A) (A) (A) (A) (A)
                 (A) (A) (A) (A) (A) (A) (A) (A) (A) (A) (A) (A)
                 (A) (A) (A) (A) (A) (A) (A) (A) (A) (A)
       Virtual   (A) (A) (A) (A) (A) (A) (A) (A) (A) (A) (A) (A)
                 (A) (A) (A) (A) (A) (A) (A) (A) (A) (A) (A) (A)
                 (A) (A) (A) (A) (A) (A) (A) (A) (A) (A) (A) (A)
                 (A) (A) (A) (A) (A) (A) (A) (A) (A) (A) (A) (A)
                 (A) (A) (A) (A) (A) (A) (A) (A) (A) (A) (A) (A)
                 (A) (A) (A) (A) (A) (A) (A) (A) (A) (A) (A) (A)
                 (A) (A) (A) (A) (A) (A) (A) (A) (A) (A) (A) (A)
                 (A) (A) (A) (A) (A) (A) (A) (A) (A) (A) (A) (A)
                 (A) (A) (A) (A) (A) (A) (A) (A) (A) (A) (A) (A)
                 (A) (A) (A) (A) (A) (A) (A) (A) (A) (A) (A) (A)
                 (A) (A) (A) (A) (A) (A) (A) (A) (A) (A) (A) (A)
                 (A) (A) (A) (A) (A) (A) (A) (A) (A) (A) (A) (A)
                 (A) (A) (A) (A) (A) (A) (A) (A) (A) (A) (A) (A)
                 (A) (A) (A) (A) (A) (A) (A) (A) (A) (A) (A) (A)
                 (A) (A) (A) (A) (A) (A) (A) (A) (A) (A) (A) (A)
                 (A) (A) (A) (A) (A) (A) (A) (A) (A) (A) (A) (A)
                 (A) (A) (A) (A) (A) (A) (A) (A) (A) (A) (A) (A)
                 (A) (A) (A) (A) (A) (A) (A) (A) (A) (A) (A) (A)
                 (A) (A) (A) (A) (A) (A) (A) (A) (A) (A) (A) (A)
                 (A) (A) (A) (A) (A) (A) (A) (A) (A) (A) (A) (A)
                 (A) (A) (A) (A) (A) (A) (A) (A) (A) (A) (A) (A)
                 (A) (A) (A) (A) (A) (A) (A) (A) (A) (A) (A) (A)
                 (A) (A) (A) (A) (A) (A) (A) (A) (A) (A) (A) (A)
                 (A) (A) (A) (A) (A) (A) (A) (A) (A) (A) (A) (A)
                 (A) (A) (A) (A) (A) (A) (A) (A) (A) (A) (A) (A)
                 (A) (A) (A) (A) (A) (A) (A) (A) (A) (A) (A) (A)
                 (A) (A) (A) (A) (A) (A) (A) (A) (A) (A) (A) (A)
                 (A) (A) (A) (A) (A) (A) (A) (A) (A) (A) (A) (A)
                 (A) (A) (A) (A) (A) (A) (A) (A) (A) (A) (A) (A)
                 (A) (A) (A) (A) (A) (A) (A) (A) (A) (A) (A) (A)
                 (A) (A) (A) (A) (A) (A) (A) (A) (A) (A) (A) (A)
                 (A) (A) (A) (A) (A) (A) (A) (A) (A) (A) (A) (A)
                 (A) (A) (A) (A) (A) (A) (A) (A) (A) (A) (A) (A)
                 (A) (A) (A) (A) (A) (A) (A) (A) (A) (A) (A) (A)
                 (A) (A) (A) (A) (A) (A) (A) (A) (A) (A) (A) (A)
                 (A) (A) (A) (A) (A) (A) (A) (A) (A) (A) (A) (A)
                 (A) (A) (A) (A) (A) (A) (A) (A) (A) (A) (A) (A)
                 (A) (A) (A) (A) (A) (A) (A) (A) (A) (A) (A) (A)
                 (A) (A) (A) (A) (A) (A) (A) (A) (A) (A) (A) (A)
                 (A) (A) (A) (A) (A) (A) (A) (A) (A) (A) (A) (A)
                 (A) (A) (A) (A) (A) (A) (A) (A) (A) (A) (A) (A)
                 (A) (A) (A) (A) (A) (A) (A) (A) (A) (A) (A) (A)
                 (A) (A) (A) (A) (A) (A) (A) (A) (A) (A) (A) (A)
                 (A) (A) (A) (A) (A) (A) (A) (A) (A) (A) (A) (A)
                 (A) (A) (A) (A) (A) (A) (A) (A) (A) (A) (A) (A)
                 (A) (A) (A) (A) (A) (A) (A) (A) (A) (A) (A) (A)
                 (A) (A) (A) (A) (A) (A) (A) (A) (A) (A) (A) (A)
                 (A) (A) (A) (A) (A) (A) (A) (A) (A) (A) (A) (A)
                 (A) (A) (A) (A) (A) (A) (A) (A) (A) (A) (A) (A)
                 (A) (A) (A) (A) (A) (A) (A) (A) (A) (A) (A) (A)
                 (A) (A) (A) (A) (A) (A) (A) (A) (A) (A) (A) (A)
                 (A) (A) (A) (A) (A) (A) (A) (A) (A) (A) (A) (A)
                 (A) (A) (A) (A) (A) (A) (A) (A) (A) (A) (A) (A)
                 (A) (A) (A) (A) (A) (A) (A) (A) (A) (A) (A) (A)
                 (A) (A) (A) (A) (A) (A) (A) (A) (A) (A) (A) (A)
                 (A) (A) (A) (A) (A) (A) (A) (A) (A) (A) (A) (A)
                 (A) (A) (A) (A) (A) (A) (A) (A) (A) (A) (A) (A)
                 (A) (A) (A) (A) (A) (A) (A) (A) (A) (A) (A) (A)
                 (A) (A) (A) (A) (A) (A) (A) (A) (A) (A) (A) (A)
                 (A) (A) (A) (A) (A) (A) (A) (A) (A) (A) (A) (A)
                 (A) (A) (A) (A) (A) (A) (A) (A) (A) (A) (A) (A)
                 (A) (A) (A) (A) (A) (A) (A) (A) (A) (A) (A) (A)
                 (A) (A) (A) (A) (A) (A) (A) (A) (A) (A) (A) (A)
                 (A) (A) (A) (A) (A) (A) (A) (A) (A) (A) (A) (A)
                 (A) (A) (A) (A) (A) (A) (A) (A) (A) (A) (A) (A)
                 (A) (A) (A) (A) (A) (A) (A) (A) (A) (A) (A) (A)
                 (A) (A) (A) (A) (A) (A) (A) (A) (A) (A) (A) (A)
                 (A) (A) (A) (A) (A) (A) (A) (A) (A) (A) (A) (A)
                 (A) (A) (A) (A) (A) (A) (A) (A) (A) (A) (A) (A)
                 (A) (A) (A) (A) (A) (A) (A) (A) (A) (A) (A) (A)
                 (A) (A) (A) (A) (A) (A) (A) (A) (A) (A) (A) (A)
                 (A) (A) (A) (A) (A) (A) (A) (A) (A) (A) (A) (A)
                 (A) (A) (A) (A) (A) (A) (A) (A) (A) (A) (A) (A)
                 (A) (A) (A) (A) (A) (A) (A) (A) (A) (A) (A) (A)
                 (A) (A) (A) (A) (A) (A) (A) (A) (A) (A) (A) (A)
                 (A) (A) (A) (A) (A) (A) (A) (A) (A) (A) (A) (A)
                 (A) (A) (A) (A) (A) (A) (A) (A) (A) (A) (A) (A)
                 (A) (A) (A) (A) (A) (A) (A) (A) (A) (A) (A) (A)
                 (A) (A) (A) (A) (A) (A) (A) (A) (A) (A) (A) (A)
                 (A) (A) (A) (A) (A) (A) (A) (A) (A) (A) (A) (A)
                 (A) (A) (A) (A) (A) (A) (A) (A) (A) (A) (A) (A)
                 (A) (A) (A) (A) (A) (A) (A) (A) (A) (A) (A) (A)
                 (A) (A) (A) (A) (A) (A) (A) (A) (A) (A) (A) (A)
                 (A) (A) (A) (A) (A) (A) (A) (A) (A) (A) (A) (A)
                 (A) (A) (A) (A) (A) (A) (A) (A) (A) (A) (A) (A)
                 (A) (A) (A) (A) (A) (A) (A) (A) (A) (A) (A) (A)
                 (A) (A) (A) (A) (A) (A) (A) (A) (A) (A) (A) (A)
                 (A) (A) (A) (A) (A) (A) (A) (A) (A) (A) (A) (A)
                 (A) (A) (A) (A) (A) (A) (A) (A) (A) (A) (A) (A)
                 (A) (A) (A) (A) (A) (A) (A) (A) (A) (A) (A) (A)
                 (A) (A) (A) (A) (A) (A) (A) (A) (A) (A) (A) (A)
                 (A) (A) (A) (A) (A) (A) (A) (A) (A) (A) (A) (A)
                 (A) (A) (A) (A) (A) (A) (A) (A) (A) (A) (A) (A)
                 (A) (A) (A) (A) (A) (A) (A) (A) (A) (A) (A) (A)
                 (A) (A) (A) (A) (A) (A) (A) (A) (A) (A) (A) (A)
                 (A) (A) (A) (A) (A) (A) (A) (A) (A) (A) (A) (A)
                 (A) (A) (A) (A) (A) (A) (A) (A) (A) (A) (A) (A)
                 (A) (A) (A) (A) (A) (A) (A) (A) (A) (A) (A) (A)
                 (A) (A) (A) (A) (A) (A) (A) (A) (A) (A) (A) (A)
                 (A) (A) (A) (A) (A) (A) (A) (A) (A) (A) (A) (A)
                 (A) (A) (A) (A) (A) (A) (A) (A) (A) (A) (A) (A)
                 (A) (A) (A) (A) (A) (A) (A) (A) (A) (A) (A) (A)
                 (A) (A) (A) (A) (A) (A) (A) (A) (A) (A) (A) (A)
                 (A) (A) (A) (A) (A) (A) (A) (A) (A) (A) (A) (A)
                 (A) (A) (A) (A) (A) (A) (A) (A) (A) (A) (A) (A)
                 (A) (A) (A) (A) (A) (A) (A) (A) (A) (A) (A) (A)
                 (A) (A) (A) (A) (A) (A) (A) (A) (A) (A) (A) (A)
                 (A) (A) (A) (A) (A) (A) (A) (A) (A) (A) (A) (A)
                 (A) (A) (A) (A) (A) (A) (A) (A) (A) (A) (A) (A)
                 (A) (A) (A) (A) (A) (A) (A) (A) (A) (A) (A) (A)
                 (A) (A) (A) (A) (A) (A) (A) (A) (A) (A) (A) (A)
                 (A) (A) (A) (A) (A) (A) (A) (A) (A) (A) (A) (A)
                 (A) (A) (A) (A) (A) (A) (A) (A) (A) (A) (A) (A)
                 (A) (A) (A)
 The electronic state is 1-A.
 Alpha  occ. eigenvalues -- -145.44211 -19.16284 -19.13647 -19.13330 -19.11581
 Alpha  occ. eigenvalues --  -19.11000 -19.09871 -19.09691 -19.09193 -19.08294
 Alpha  occ. eigenvalues --  -19.07984 -19.07813 -19.07722 -19.07554 -19.07262
 Alpha  occ. eigenvalues --  -19.07140 -19.06384 -19.06177 -19.06154 -19.04807
 Alpha  occ. eigenvalues --  -19.04729 -19.01622 -18.97084 -18.95884 -15.50122
 Alpha  occ. eigenvalues --  -14.58017 -14.38100 -14.37300 -14.36238 -14.35314
 Alpha  occ. eigenvalues --  -14.34788 -14.34436 -14.34262 -14.33888 -14.33865
 Alpha  occ. eigenvalues --  -14.33841 -14.32175 -14.32065 -14.31918 -14.30993
 Alpha  occ. eigenvalues --  -12.63768 -12.63700 -12.63604 -10.34003 -10.30457
 Alpha  occ. eigenvalues --  -10.29766 -10.28844 -10.28680 -10.27403 -10.26625
 Alpha  occ. eigenvalues --  -10.26528 -10.26206 -10.26168 -10.26028 -10.25939
 Alpha  occ. eigenvalues --  -10.25929 -10.25877 -10.25767 -10.25744 -10.25290
 Alpha  occ. eigenvalues --  -10.24949 -10.24357 -10.24283 -10.24096 -10.23685
 Alpha  occ. eigenvalues --  -10.23234 -10.22440 -10.22418 -10.22251 -10.22000
 Alpha  occ. eigenvalues --  -10.21930 -10.21857 -10.21568 -10.21131 -10.20899
 Alpha  occ. eigenvalues --  -10.20213 -10.20062 -10.19854 -10.19308 -10.19235
 Alpha  occ. eigenvalues --  -10.19081 -10.18947 -10.18891 -10.18713 -10.17998
 Alpha  occ. eigenvalues --  -10.17129 -10.17000 -10.16862 -10.16100 -10.15921
 Alpha  occ. eigenvalues --  -10.15342 -10.15183 -10.15067 -10.14888 -10.14870
 Alpha  occ. eigenvalues --  -10.14700 -10.13951  -1.86640  -1.14459  -1.13926
 Alpha  occ. eigenvalues --   -1.13453  -1.13274  -1.05540  -1.05253  -1.04026
 Alpha  occ. eigenvalues --   -1.03132  -1.03055  -1.02416  -1.01907  -1.01853
 Alpha  occ. eigenvalues --   -1.01589  -1.00855  -1.00790  -1.00417  -1.00127
 Alpha  occ. eigenvalues --   -1.00126  -0.99775  -0.99478  -0.98878  -0.98736
 Alpha  occ. eigenvalues --   -0.97552  -0.94184  -0.93922  -0.92651  -0.92558
 Alpha  occ. eigenvalues --   -0.91776  -0.91772  -0.91473  -0.91090  -0.90307
 Alpha  occ. eigenvalues --   -0.90107  -0.89847  -0.89564  -0.89245  -0.88870
 Alpha  occ. eigenvalues --   -0.88694  -0.88656  -0.87673  -0.86753  -0.84865
 Alpha  occ. eigenvalues --   -0.80886  -0.80665  -0.80163  -0.79436  -0.78695
 Alpha  occ. eigenvalues --   -0.77842  -0.76909  -0.76626  -0.75319  -0.75094
 Alpha  occ. eigenvalues --   -0.74748  -0.74611  -0.74031  -0.73633  -0.72889
 Alpha  occ. eigenvalues --   -0.72666  -0.71826  -0.71722  -0.71520  -0.71139
 Alpha  occ. eigenvalues --   -0.69666  -0.68375  -0.68217  -0.67540  -0.67446
 Alpha  occ. eigenvalues --   -0.65409  -0.65026  -0.64117  -0.63886  -0.62882
 Alpha  occ. eigenvalues --   -0.62700  -0.62276  -0.62098  -0.61940  -0.61495
 Alpha  occ. eigenvalues --   -0.61056  -0.60520  -0.60451  -0.60328  -0.59597
 Alpha  occ. eigenvalues --   -0.58425  -0.58310  -0.58116  -0.57498  -0.57473
 Alpha  occ. eigenvalues --   -0.57294  -0.56747  -0.56566  -0.56099  -0.55863
 Alpha  occ. eigenvalues --   -0.55692  -0.55358  -0.54937  -0.54648  -0.54411
 Alpha  occ. eigenvalues --   -0.53860  -0.53754  -0.53390  -0.53227  -0.53017
 Alpha  occ. eigenvalues --   -0.52790  -0.52433  -0.52369  -0.51901  -0.50693
 Alpha  occ. eigenvalues --   -0.50625  -0.50411  -0.49907  -0.49531  -0.49288
 Alpha  occ. eigenvalues --   -0.48914  -0.48131  -0.48116  -0.47679  -0.47141
 Alpha  occ. eigenvalues --   -0.47030  -0.47004  -0.46838  -0.46704  -0.46558
 Alpha  occ. eigenvalues --   -0.46454  -0.46137  -0.46068  -0.45823  -0.45582
 Alpha  occ. eigenvalues --   -0.45402  -0.45261  -0.45117  -0.45094  -0.44705
 Alpha  occ. eigenvalues --   -0.44499  -0.44262  -0.44183  -0.44029  -0.43839
 Alpha  occ. eigenvalues --   -0.43791  -0.43482  -0.43221  -0.43101  -0.43021
 Alpha  occ. eigenvalues --   -0.42857  -0.42765  -0.42567  -0.42397  -0.42168
 Alpha  occ. eigenvalues --   -0.41938  -0.41854  -0.41573  -0.41361  -0.41287
 Alpha  occ. eigenvalues --   -0.41260  -0.41052  -0.40944  -0.40876  -0.40511
 Alpha  occ. eigenvalues --   -0.40488  -0.40454  -0.40206  -0.40069  -0.39955
 Alpha  occ. eigenvalues --   -0.39761  -0.39647  -0.39484  -0.39301  -0.39260
 Alpha  occ. eigenvalues --   -0.39176  -0.38855  -0.38792  -0.38661  -0.38608
 Alpha  occ. eigenvalues --   -0.38484  -0.38419  -0.38014  -0.37894  -0.37718
 Alpha  occ. eigenvalues --   -0.37395  -0.37278  -0.37135  -0.37053  -0.36939
 Alpha  occ. eigenvalues --   -0.36862  -0.36768  -0.36456  -0.36369  -0.36343
 Alpha  occ. eigenvalues --   -0.36297  -0.36010  -0.35882  -0.35737  -0.35620
 Alpha  occ. eigenvalues --   -0.35517  -0.35465  -0.35020  -0.34717  -0.34499
 Alpha  occ. eigenvalues --   -0.34470  -0.34360  -0.34238  -0.34185  -0.34042
 Alpha  occ. eigenvalues --   -0.34000  -0.33905  -0.33822  -0.33160  -0.32987
 Alpha  occ. eigenvalues --   -0.32938  -0.32653  -0.32603  -0.32447  -0.32083
 Alpha  occ. eigenvalues --   -0.32040  -0.31917  -0.31447  -0.30870  -0.29679
 Alpha  occ. eigenvalues --   -0.29421  -0.29370  -0.28720  -0.28512  -0.28346
 Alpha  occ. eigenvalues --   -0.28309  -0.27550  -0.27382  -0.26691  -0.26552
 Alpha  occ. eigenvalues --   -0.26504  -0.26296  -0.26178  -0.26118  -0.26010
 Alpha  occ. eigenvalues --   -0.25055  -0.25049  -0.24798  -0.24674  -0.24410
 Alpha  occ. eigenvalues --   -0.23979  -0.23770  -0.23697  -0.23691  -0.23614
 Alpha  occ. eigenvalues --   -0.23480  -0.22983  -0.22948  -0.22740  -0.22728
 Alpha  occ. eigenvalues --   -0.22458  -0.22014  -0.22001  -0.21982  -0.21878
 Alpha  occ. eigenvalues --   -0.21853  -0.20898  -0.20665  -0.20469  -0.17895
 Alpha  occ. eigenvalues --   -0.15364  -0.13806  -0.11444
 Alpha virt. eigenvalues --   -0.10376  -0.04654  -0.04416  -0.04003  -0.02071
 Alpha virt. eigenvalues --   -0.01098  -0.00620  -0.00211   0.00351   0.00463
 Alpha virt. eigenvalues --    0.01817   0.01890   0.01957   0.02291   0.02306
 Alpha virt. eigenvalues --    0.02573   0.02658   0.02807   0.03751   0.03790
 Alpha virt. eigenvalues --    0.03854   0.04066   0.04332   0.04479   0.04544
 Alpha virt. eigenvalues --    0.04813   0.04904   0.05069   0.05111   0.05198
 Alpha virt. eigenvalues --    0.05588   0.05880   0.06854   0.06904   0.07113
 Alpha virt. eigenvalues --    0.07323   0.07443   0.07867   0.08002   0.08339
 Alpha virt. eigenvalues --    0.08539   0.08597   0.08718   0.09166   0.09291
 Alpha virt. eigenvalues --    0.09588   0.09779   0.10003   0.10308   0.10423
 Alpha virt. eigenvalues --    0.10499   0.10584   0.10721   0.10881   0.11168
 Alpha virt. eigenvalues --    0.11586   0.11695   0.11849   0.11982   0.12325
 Alpha virt. eigenvalues --    0.12365   0.12545   0.12622   0.12687   0.13010
 Alpha virt. eigenvalues --    0.13370   0.13421   0.13583   0.13805   0.14036
 Alpha virt. eigenvalues --    0.14120   0.14166   0.14264   0.14398   0.14543
 Alpha virt. eigenvalues --    0.14723   0.14824   0.14979   0.15173   0.15266
 Alpha virt. eigenvalues --    0.15547   0.15565   0.15862   0.15965   0.16042
 Alpha virt. eigenvalues --    0.16213   0.16414   0.16641   0.16729   0.16816
 Alpha virt. eigenvalues --    0.16954   0.17014   0.17088   0.17319   0.17457
 Alpha virt. eigenvalues --    0.17573   0.17657   0.17980   0.18102   0.18185
 Alpha virt. eigenvalues --    0.18295   0.18538   0.18764   0.19068   0.19174
 Alpha virt. eigenvalues --    0.19369   0.19491   0.19675   0.19889   0.19944
 Alpha virt. eigenvalues --    0.20694   0.20799   0.21092   0.21136   0.21334
 Alpha virt. eigenvalues --    0.21417   0.21542   0.21825   0.22015   0.22158
 Alpha virt. eigenvalues --    0.22297   0.22634   0.22791   0.23455   0.23662
 Alpha virt. eigenvalues --    0.23727   0.23911   0.24117   0.24278   0.24449
 Alpha virt. eigenvalues --    0.24631   0.24869   0.25115   0.25303   0.25514
 Alpha virt. eigenvalues --    0.25742   0.26182   0.26349   0.26424   0.26636
 Alpha virt. eigenvalues --    0.26823   0.27033   0.27290   0.27585   0.27691
 Alpha virt. eigenvalues --    0.27979   0.28325   0.28775   0.28910   0.29151
 Alpha virt. eigenvalues --    0.29192   0.29267   0.29430   0.29790   0.29908
 Alpha virt. eigenvalues --    0.29964   0.30052   0.30436   0.30476   0.30623
 Alpha virt. eigenvalues --    0.31056   0.31461   0.31898   0.32026   0.32334
 Alpha virt. eigenvalues --    0.32427   0.32812   0.33334   0.33443   0.33654
 Alpha virt. eigenvalues --    0.33812   0.33911   0.34320   0.34575   0.34697
 Alpha virt. eigenvalues --    0.35471   0.35609   0.35944   0.36476   0.36794
 Alpha virt. eigenvalues --    0.37088   0.37313   0.37475   0.37935   0.38151
 Alpha virt. eigenvalues --    0.38356   0.38584   0.38999   0.39339   0.39364
 Alpha virt. eigenvalues --    0.39463   0.39734   0.40074   0.40763   0.40948
 Alpha virt. eigenvalues --    0.41026   0.41203   0.41340   0.41759   0.42064
 Alpha virt. eigenvalues --    0.42308   0.42746   0.42848   0.42951   0.43341
 Alpha virt. eigenvalues --    0.43405   0.43579   0.43869   0.44205   0.44341
 Alpha virt. eigenvalues --    0.44602   0.44639   0.44692   0.45376   0.45478
 Alpha virt. eigenvalues --    0.45700   0.45768   0.45949   0.46059   0.46249
 Alpha virt. eigenvalues --    0.46434   0.46875   0.46972   0.47060   0.47079
 Alpha virt. eigenvalues --    0.47353   0.47535   0.47823   0.48091   0.48193
 Alpha virt. eigenvalues --    0.48233   0.48519   0.48588   0.48764   0.48876
 Alpha virt. eigenvalues --    0.48954   0.49140   0.49370   0.49519   0.49627
 Alpha virt. eigenvalues --    0.49928   0.50098   0.50267   0.50712   0.50768
 Alpha virt. eigenvalues --    0.51010   0.51150   0.51600   0.51931   0.52050
 Alpha virt. eigenvalues --    0.52091   0.52395   0.52509   0.52565   0.52811
 Alpha virt. eigenvalues --    0.53338   0.53625   0.53879   0.54017   0.54082
 Alpha virt. eigenvalues --    0.54214   0.54352   0.54454   0.54685   0.54838
 Alpha virt. eigenvalues --    0.54877   0.55032   0.55183   0.55350   0.55455
 Alpha virt. eigenvalues --    0.55724   0.55879   0.56284   0.56479   0.56825
 Alpha virt. eigenvalues --    0.57179   0.57328   0.57453   0.58014   0.58146
 Alpha virt. eigenvalues --    0.58338   0.58485   0.58762   0.58981   0.59161
 Alpha virt. eigenvalues --    0.59272   0.59454   0.59544   0.59778   0.59843
 Alpha virt. eigenvalues --    0.59887   0.60005   0.60071   0.60567   0.60713
 Alpha virt. eigenvalues --    0.60858   0.61021   0.61114   0.61282   0.61422
 Alpha virt. eigenvalues --    0.61443   0.61530   0.61768   0.61913   0.62112
 Alpha virt. eigenvalues --    0.62428   0.62604   0.62713   0.62866   0.62931
 Alpha virt. eigenvalues --    0.62983   0.63033   0.63168   0.63370   0.63518
 Alpha virt. eigenvalues --    0.63654   0.63786   0.63965   0.64123   0.64127
 Alpha virt. eigenvalues --    0.64426   0.64460   0.64686   0.64788   0.64851
 Alpha virt. eigenvalues --    0.64934   0.65165   0.65260   0.65342   0.65511
 Alpha virt. eigenvalues --    0.65585   0.65802   0.65875   0.65936   0.65976
 Alpha virt. eigenvalues --    0.66133   0.66161   0.66336   0.66497   0.66529
 Alpha virt. eigenvalues --    0.66614   0.66634   0.66831   0.66888   0.66930
 Alpha virt. eigenvalues --    0.66995   0.67190   0.67299   0.67334   0.67478
 Alpha virt. eigenvalues --    0.67579   0.67683   0.67871   0.67974   0.68010
 Alpha virt. eigenvalues --    0.68146   0.68229   0.68367   0.68416   0.68596
 Alpha virt. eigenvalues --    0.68640   0.68887   0.68996   0.69040   0.69122
 Alpha virt. eigenvalues --    0.69252   0.69371   0.69417   0.69466   0.69591
 Alpha virt. eigenvalues --    0.69662   0.69925   0.70041   0.70131   0.70226
 Alpha virt. eigenvalues --    0.70366   0.70419   0.70638   0.70719   0.70854
 Alpha virt. eigenvalues --    0.70925   0.70970   0.71075   0.71180   0.71301
 Alpha virt. eigenvalues --    0.71447   0.71471   0.71524   0.71678   0.71762
 Alpha virt. eigenvalues --    0.71875   0.71927   0.71987   0.72119   0.72407
 Alpha virt. eigenvalues --    0.72507   0.72738   0.72772   0.72938   0.73018
 Alpha virt. eigenvalues --    0.73199   0.73553   0.73855   0.74016   0.74078
 Alpha virt. eigenvalues --    0.74330   0.74520   0.74562   0.74890   0.74989
 Alpha virt. eigenvalues --    0.75257   0.75351   0.75747   0.75822   0.76241
 Alpha virt. eigenvalues --    0.76490   0.76551   0.76796   0.77013   0.77119
 Alpha virt. eigenvalues --    0.77214   0.77454   0.77626   0.77925   0.78116
 Alpha virt. eigenvalues --    0.78253   0.78403   0.79044   0.79178   0.79351
 Alpha virt. eigenvalues --    0.79513   0.79691   0.79896   0.80061   0.80381
 Alpha virt. eigenvalues --    0.80546   0.80780   0.81124   0.81376   0.81516
 Alpha virt. eigenvalues --    0.81817   0.82150   0.82494   0.82795   0.82939
 Alpha virt. eigenvalues --    0.83349   0.83669   0.83784   0.83995   0.84534
 Alpha virt. eigenvalues --    0.84570   0.84706   0.85464   0.85778   0.85806
 Alpha virt. eigenvalues --    0.85962   0.86296   0.86404   0.86913   0.87161
 Alpha virt. eigenvalues --    0.87501   0.87847   0.88260   0.88609   0.88683
 Alpha virt. eigenvalues --    0.88968   0.89111   0.89259   0.89617   0.89789
 Alpha virt. eigenvalues --    0.90096   0.90547   0.91034   0.91189   0.91609
 Alpha virt. eigenvalues --    0.91731   0.92077   0.92482   0.92588   0.92795
 Alpha virt. eigenvalues --    0.93569   0.93771   0.93852   0.94173   0.94285
 Alpha virt. eigenvalues --    0.94638   0.94818   0.95118   0.95188   0.95819
 Alpha virt. eigenvalues --    0.96021   0.96089   0.96407   0.97326   0.97493
 Alpha virt. eigenvalues --    0.97670   0.97881   0.98030   0.98086   0.98399
 Alpha virt. eigenvalues --    0.98809   0.99585   0.99766   0.99819   1.00439
 Alpha virt. eigenvalues --    1.00513   1.00886   1.01169   1.01292   1.01560
 Alpha virt. eigenvalues --    1.01660   1.02310   1.02381   1.02497   1.02540
 Alpha virt. eigenvalues --    1.02966   1.03344   1.03422   1.03545   1.03866
 Alpha virt. eigenvalues --    1.04332   1.04458   1.04506   1.04956   1.05329
 Alpha virt. eigenvalues --    1.05866   1.06367   1.06525   1.06784   1.07254
 Alpha virt. eigenvalues --    1.07492   1.08003   1.08136   1.08363   1.08483
 Alpha virt. eigenvalues --    1.08839   1.08996   1.09188   1.09338   1.09685
 Alpha virt. eigenvalues --    1.09879   1.10351   1.10713   1.10869   1.11239
 Alpha virt. eigenvalues --    1.11376   1.11614   1.11680   1.12076   1.12369
 Alpha virt. eigenvalues --    1.12449   1.12839   1.12875   1.13372   1.13758
 Alpha virt. eigenvalues --    1.13957   1.14206   1.14601   1.14846   1.15255
 Alpha virt. eigenvalues --    1.15546   1.15924   1.15974   1.16444   1.16532
 Alpha virt. eigenvalues --    1.16664   1.16818   1.17233   1.17352   1.17929
 Alpha virt. eigenvalues --    1.17990   1.18247   1.18523   1.18768   1.19105
 Alpha virt. eigenvalues --    1.19671   1.19952   1.20031   1.20228   1.20291
 Alpha virt. eigenvalues --    1.20725   1.20820   1.21242   1.21409   1.21409
 Alpha virt. eigenvalues --    1.21825   1.21958   1.22100   1.22267   1.22417
 Alpha virt. eigenvalues --    1.22960   1.23060   1.23352   1.23424   1.23878
 Alpha virt. eigenvalues --    1.24197   1.24683   1.24724   1.24922   1.25197
 Alpha virt. eigenvalues --    1.25728   1.25859   1.26019   1.26521   1.26753
 Alpha virt. eigenvalues --    1.27018   1.27040   1.27115   1.27307   1.27360
 Alpha virt. eigenvalues --    1.27548   1.27906   1.28090   1.28432   1.28545
 Alpha virt. eigenvalues --    1.28745   1.28972   1.29313   1.29423   1.29564
 Alpha virt. eigenvalues --    1.29936   1.30664   1.30937   1.31390   1.31880
 Alpha virt. eigenvalues --    1.32167   1.32363   1.32566   1.32606   1.33182
 Alpha virt. eigenvalues --    1.33505   1.33723   1.34201   1.34298   1.34868
 Alpha virt. eigenvalues --    1.35009   1.35163   1.35627   1.36073   1.36527
 Alpha virt. eigenvalues --    1.36990   1.37203   1.37459   1.37583   1.38466
 Alpha virt. eigenvalues --    1.38677   1.38899   1.39359   1.39486   1.39941
 Alpha virt. eigenvalues --    1.40432   1.40716   1.40928   1.41108   1.41395
 Alpha virt. eigenvalues --    1.41794   1.42248   1.42467   1.42589   1.42770
 Alpha virt. eigenvalues --    1.42910   1.42965   1.43217   1.43322   1.43818
 Alpha virt. eigenvalues --    1.43920   1.44044   1.44317   1.44540   1.44839
 Alpha virt. eigenvalues --    1.44939   1.45230   1.45622   1.45922   1.46363
 Alpha virt. eigenvalues --    1.46538   1.47257   1.47385   1.47673   1.48233
 Alpha virt. eigenvalues --    1.48858   1.49338   1.49925   1.50324   1.50400
 Alpha virt. eigenvalues --    1.50523   1.50585   1.50844   1.51213   1.51737
 Alpha virt. eigenvalues --    1.52091   1.52285   1.52413   1.52855   1.53216
 Alpha virt. eigenvalues --    1.53324   1.54101   1.54124   1.54259   1.54506
 Alpha virt. eigenvalues --    1.55247   1.55350   1.55489   1.55944   1.56225
 Alpha virt. eigenvalues --    1.56794   1.57171   1.57409   1.57443   1.57716
 Alpha virt. eigenvalues --    1.58241   1.58582   1.58779   1.59455   1.61054
 Alpha virt. eigenvalues --    1.61618   1.61752   1.61891   1.62227   1.62289
 Alpha virt. eigenvalues --    1.62707   1.62992   1.63085   1.63592   1.63699
 Alpha virt. eigenvalues --    1.64014   1.64159   1.64330   1.64966   1.65352
 Alpha virt. eigenvalues --    1.65625   1.65812   1.65982   1.66376   1.66390
 Alpha virt. eigenvalues --    1.67001   1.67086   1.67535   1.67576   1.67851
 Alpha virt. eigenvalues --    1.68196   1.68496   1.69010   1.69529   1.69591
 Alpha virt. eigenvalues --    1.70078   1.70357   1.70724   1.71107   1.71563
 Alpha virt. eigenvalues --    1.71672   1.71706   1.71862   1.72063   1.72201
 Alpha virt. eigenvalues --    1.72587   1.72774   1.73190   1.73316   1.73400
 Alpha virt. eigenvalues --    1.73629   1.73679   1.73814   1.74147   1.74301
 Alpha virt. eigenvalues --    1.74430   1.74658   1.74833   1.74884   1.75520
 Alpha virt. eigenvalues --    1.75808   1.76033   1.76403   1.76507   1.76695
 Alpha virt. eigenvalues --    1.76838   1.76926   1.77087   1.77260   1.77317
 Alpha virt. eigenvalues --    1.77833   1.78234   1.78265   1.78365   1.78657
 Alpha virt. eigenvalues --    1.78869   1.78892   1.79004   1.79107   1.79500
 Alpha virt. eigenvalues --    1.79557   1.79642   1.79668   1.79863   1.80180
 Alpha virt. eigenvalues --    1.80241   1.80539   1.80568   1.80811   1.80930
 Alpha virt. eigenvalues --    1.81131   1.81486   1.81704   1.81724   1.81940
 Alpha virt. eigenvalues --    1.82092   1.82231   1.82312   1.82526   1.82800
 Alpha virt. eigenvalues --    1.82888   1.82924   1.82998   1.83328   1.83368
 Alpha virt. eigenvalues --    1.83609   1.83716   1.83874   1.83922   1.84189
 Alpha virt. eigenvalues --    1.84266   1.84683   1.84864   1.85008   1.85102
 Alpha virt. eigenvalues --    1.85620   1.85721   1.85957   1.86310   1.86431
 Alpha virt. eigenvalues --    1.86571   1.86693   1.86874   1.87070   1.87435
 Alpha virt. eigenvalues --    1.87636   1.88063   1.88175   1.88177   1.88493
 Alpha virt. eigenvalues --    1.88633   1.88705   1.89027   1.89146   1.89259
 Alpha virt. eigenvalues --    1.89516   1.89688   1.89904   1.89977   1.90251
 Alpha virt. eigenvalues --    1.90321   1.90367   1.90493   1.90870   1.90935
 Alpha virt. eigenvalues --    1.91138   1.91205   1.91327   1.91662   1.91899
 Alpha virt. eigenvalues --    1.91934   1.92118   1.92702   1.92772   1.92973
 Alpha virt. eigenvalues --    1.93512   1.93598   1.93904   1.94162   1.94260
 Alpha virt. eigenvalues --    1.94541   1.94672   1.94856   1.95078   1.95332
 Alpha virt. eigenvalues --    1.95486   1.95721   1.95879   1.96213   1.96361
 Alpha virt. eigenvalues --    1.96427   1.96566   1.96887   1.97020   1.97147
 Alpha virt. eigenvalues --    1.97613   1.97744   1.97857   1.98287   1.98400
 Alpha virt. eigenvalues --    1.98667   1.98883   1.99179   1.99374   1.99395
 Alpha virt. eigenvalues --    1.99504   1.99823   1.99896   2.00165   2.00437
 Alpha virt. eigenvalues --    2.00783   2.00958   2.01099   2.01506   2.01862
 Alpha virt. eigenvalues --    2.02343   2.02591   2.02682   2.02754   2.03085
 Alpha virt. eigenvalues --    2.03180   2.03274   2.03735   2.03892   2.04136
 Alpha virt. eigenvalues --    2.04390   2.04450   2.04741   2.05027   2.05252
 Alpha virt. eigenvalues --    2.05661   2.05940   2.05986   2.06112   2.06890
 Alpha virt. eigenvalues --    2.07009   2.07116   2.07501   2.07867   2.08244
 Alpha virt. eigenvalues --    2.08432   2.08553   2.09028   2.09197   2.09522
 Alpha virt. eigenvalues --    2.09958   2.10087   2.10258   2.10804   2.11181
 Alpha virt. eigenvalues --    2.11511   2.11671   2.11881   2.11943   2.12277
 Alpha virt. eigenvalues --    2.12377   2.12757   2.12970   2.13260   2.13908
 Alpha virt. eigenvalues --    2.13960   2.14271   2.14533   2.14663   2.14902
 Alpha virt. eigenvalues --    2.14961   2.14973   2.15751   2.16090   2.16182
 Alpha virt. eigenvalues --    2.16329   2.16452   2.16814   2.17175   2.17347
 Alpha virt. eigenvalues --    2.17429   2.17988   2.18420   2.18972   2.19490
 Alpha virt. eigenvalues --    2.19739   2.19940   2.19955   2.20117   2.20271
 Alpha virt. eigenvalues --    2.20834   2.21297   2.21540   2.21790   2.21981
 Alpha virt. eigenvalues --    2.22181   2.22599   2.22950   2.23770   2.24172
 Alpha virt. eigenvalues --    2.24352   2.24484   2.25459   2.25555   2.25701
 Alpha virt. eigenvalues --    2.26070   2.26142   2.26799   2.26864   2.27305
 Alpha virt. eigenvalues --    2.27380   2.27647   2.28349   2.28406   2.28634
 Alpha virt. eigenvalues --    2.28882   2.28900   2.29572   2.29715   2.30321
 Alpha virt. eigenvalues --    2.30559   2.30791   2.30929   2.31024   2.31098
 Alpha virt. eigenvalues --    2.31494   2.31786   2.31808   2.32111   2.33024
 Alpha virt. eigenvalues --    2.33133   2.33227   2.33361   2.33683   2.34339
 Alpha virt. eigenvalues --    2.34658   2.35470   2.35748   2.35818   2.36388
 Alpha virt. eigenvalues --    2.36827   2.37224   2.37568   2.37818   2.38991
 Alpha virt. eigenvalues --    2.39095   2.39281   2.39345   2.39399   2.39613
 Alpha virt. eigenvalues --    2.40085   2.40569   2.41104   2.41196   2.41625
 Alpha virt. eigenvalues --    2.42038   2.42428   2.42608   2.42803   2.43210
 Alpha virt. eigenvalues --    2.43430   2.44143   2.44390   2.44429   2.44660
 Alpha virt. eigenvalues --    2.44724   2.45461   2.45868   2.46044   2.46649
 Alpha virt. eigenvalues --    2.47027   2.48028   2.48233   2.48237   2.48381
 Alpha virt. eigenvalues --    2.48848   2.49181   2.49847   2.49947   2.50371
 Alpha virt. eigenvalues --    2.50684   2.51317   2.51344   2.51935   2.52089
 Alpha virt. eigenvalues --    2.52404   2.53291   2.53370   2.54068   2.54367
 Alpha virt. eigenvalues --    2.54562   2.54666   2.55024   2.55341   2.55711
 Alpha virt. eigenvalues --    2.55868   2.56205   2.56458   2.57305   2.57408
 Alpha virt. eigenvalues --    2.57648   2.58239   2.58388   2.58412   2.58863
 Alpha virt. eigenvalues --    2.59373   2.59429   2.59620   2.59875   2.60581
 Alpha virt. eigenvalues --    2.60690   2.61568   2.61631   2.61946   2.61958
 Alpha virt. eigenvalues --    2.62113   2.62263   2.62733   2.62873   2.63058
 Alpha virt. eigenvalues --    2.63336   2.63884   2.63988   2.64501   2.64757
 Alpha virt. eigenvalues --    2.65029   2.65549   2.65690   2.65924   2.66114
 Alpha virt. eigenvalues --    2.66238   2.66478   2.66703   2.67022   2.67406
 Alpha virt. eigenvalues --    2.67823   2.68284   2.68953   2.69395   2.69857
 Alpha virt. eigenvalues --    2.70006   2.70305   2.70554   2.70638   2.71687
 Alpha virt. eigenvalues --    2.71844   2.71959   2.72138   2.72567   2.72636
 Alpha virt. eigenvalues --    2.72792   2.72873   2.73323   2.73407   2.73478
 Alpha virt. eigenvalues --    2.73717   2.73996   2.74076   2.74574   2.74627
 Alpha virt. eigenvalues --    2.75011   2.75627   2.75656   2.75822   2.76123
 Alpha virt. eigenvalues --    2.76504   2.77211   2.77359   2.77408   2.77777
 Alpha virt. eigenvalues --    2.77911   2.78681   2.78806   2.78931   2.79016
 Alpha virt. eigenvalues --    2.79342   2.79519   2.80002   2.80254   2.80292
 Alpha virt. eigenvalues --    2.80435   2.80980   2.81224   2.81503   2.81630
 Alpha virt. eigenvalues --    2.81921   2.82033   2.82175   2.82743   2.82872
 Alpha virt. eigenvalues --    2.83686   2.83858   2.83883   2.84625   2.84718
 Alpha virt. eigenvalues --    2.85354   2.85435   2.86289   2.86511   2.86626
 Alpha virt. eigenvalues --    2.87054   2.87112   2.87286   2.87689   2.88020
 Alpha virt. eigenvalues --    2.88354   2.89074   2.89188   2.89250   2.89575
 Alpha virt. eigenvalues --    2.90062   2.90483   2.90521   2.91530   2.91944
 Alpha virt. eigenvalues --    2.92017   2.92279   2.92313   2.92759   2.92929
 Alpha virt. eigenvalues --    2.92994   2.93045   2.93506   2.94114   2.94185
 Alpha virt. eigenvalues --    2.94318   2.94968   2.95181   2.95909   2.95994
 Alpha virt. eigenvalues --    2.96373   2.96436   2.96763   2.96941   2.97225
 Alpha virt. eigenvalues --    2.97434   2.97902   2.98273   2.98351   2.98545
 Alpha virt. eigenvalues --    2.98664   2.98735   2.99832   2.99934   3.00370
 Alpha virt. eigenvalues --    3.00477   3.00661   3.00700   3.01445   3.01590
 Alpha virt. eigenvalues --    3.01727   3.01992   3.02815   3.02917   3.03174
 Alpha virt. eigenvalues --    3.03671   3.04401   3.04453   3.04675   3.05062
 Alpha virt. eigenvalues --    3.05515   3.06936   3.06958   3.07027   3.07968
 Alpha virt. eigenvalues --    3.08243   3.09195   3.09433   3.09522   3.09843
 Alpha virt. eigenvalues --    3.09984   3.10198   3.11121   3.11551   3.11843
 Alpha virt. eigenvalues --    3.12174   3.13804   3.14125   3.14530   3.14571
 Alpha virt. eigenvalues --    3.14989   3.15199   3.15914   3.15955   3.16886
 Alpha virt. eigenvalues --    3.17089   3.17174   3.17787   3.18347   3.18567
 Alpha virt. eigenvalues --    3.18723   3.18957   3.19197   3.19322   3.19526
 Alpha virt. eigenvalues --    3.19804   3.20104   3.20210   3.20634   3.20934
 Alpha virt. eigenvalues --    3.21096   3.21278   3.21588   3.21595   3.21951
 Alpha virt. eigenvalues --    3.22439   3.22568   3.22998   3.23644   3.23820
 Alpha virt. eigenvalues --    3.24147   3.24735   3.25328   3.26927   3.27685
 Alpha virt. eigenvalues --    3.27741   3.28210   3.28443   3.29116   3.30057
 Alpha virt. eigenvalues --    3.30259   3.31466   3.31607   3.32463   3.32635
 Alpha virt. eigenvalues --    3.33226   3.36056   3.36197   3.36441   3.37225
 Alpha virt. eigenvalues --    3.40503   3.40938   3.47313   3.48308   3.52676
 Alpha virt. eigenvalues --    3.53340   3.54578   3.55005   3.55560   3.56349
 Alpha virt. eigenvalues --    3.57129   3.57545   3.58064   3.58259   3.58347
 Alpha virt. eigenvalues --    3.58766   3.59014   3.59706   3.60140   3.61817
 Alpha virt. eigenvalues --    3.62423   3.66427   3.67771   3.68147   3.69076
 Alpha virt. eigenvalues --    3.69404   3.69765   3.69994   3.70095   3.70151
 Alpha virt. eigenvalues --    3.70652   3.70678   3.71390   3.71825   3.72168
 Alpha virt. eigenvalues --    3.72904   3.73122   3.74266   3.75362   3.76124
 Alpha virt. eigenvalues --    3.78214   3.79521   3.81764   3.83326
          Condensed to atoms (all electrons):
 Mulliken charges:
               1
     1  C    0.050358
     2  C    0.023437
     3  O   -0.356090
     4  H    0.030955
     5  H    0.037256
     6  H    0.004760
     7  N   -0.102123
     8  C    0.105806
     9  C    0.078332
    10  O   -0.264857
    11  C    0.083004
    12  C    0.059836
    13  O   -0.386441
    14  O   -0.376803
    15  H    0.111101
    16  H   -0.052253
    17  H   -0.023603
    18  H   -0.005836
    19  N   -0.148022
    20  C    0.152090
    21  C    0.076981
    22  O   -0.286668
    23  C    0.026998
    24  C    0.006421
    25  C   -0.050846
    26  C    0.013023
    27  N    0.112033
    28  H    0.115005
    29  H   -0.040216
    30  H   -0.010472
    31  H    0.016129
    32  H   -0.006783
    33  H    0.070783
    34  H    0.041543
    35  H    0.017451
    36  H    0.075482
    37  H    0.101360
    38  H    0.180557
    39  H    0.156263
    40  H    0.165241
    41  N   -0.151640
    42  C    0.139130
    43  C    0.050494
    44  O   -0.250062
    45  C    0.081467
    46  C    0.117800
    47  O   -0.363777
    48  O   -0.484918
    49  H    0.153674
    50  H    0.000675
    51  H   -0.030438
    52  H    0.012398
    53  N   -0.120720
    54  C    0.153607
    55  C    0.090575
    56  O   -0.279774
    57  H    0.136548
    58  H    0.027088
    59  H    0.041416
    60  N   -0.151385
    61  C    0.104415
    62  C    0.109320
    63  O   -0.305773
    64  C    0.084374
    65  C   -0.002910
    66  N   -0.026286
    67  O   -0.270684
    68  H    0.106805
    69  H    0.038283
    70  H    0.041725
    71  H    0.018401
    72  H    0.118082
    73  H    0.157686
    74  N   -0.116455
    75  C    0.211208
    76  C    0.019677
    77  O   -0.258359
    78  H    0.119623
    79  H    0.002134
    80  H    0.040388
    81  N   -0.121796
    82  C    0.096732
    83  C    0.104851
    84  O   -0.305346
    85  C    0.135581
    86  C   -0.055137
    87  C    0.000515
    88  C   -0.023014
    89  C   -0.012927
    90  C   -0.052554
    91  C    0.162417
    92  O   -0.183657
    93  H    0.127776
    94  H    0.014075
    95  H    0.002673
    96  H    0.014741
    97  H   -0.013098
    98  H   -0.026255
    99  H   -0.021567
   100  H   -0.034502
   101  H    0.168298
   102  N   -0.091907
   103  C    0.207572
   104  C    0.042143
   105  O   -0.256201
   106  C   -0.150100
   107  C    0.060997
   108  C    0.087620
   109  C    0.003396
   110  H    0.135402
   111  H    0.007997
   112  H   -0.027917
   113  H    0.015724
   114  H   -0.025965
   115  H   -0.007020
   116  H   -0.023169
   117  H    0.037313
   118  H    0.012708
   119  H   -0.004255
   120  H    0.003886
   121  N   -0.146455
   122  C    0.034103
   123  C    0.061761
   124  O   -0.275993
   125  C    0.274698
   126  O   -0.296709
   127  H    0.128978
   128  H    0.001601
   129  H   -0.009785
   130  H    0.022984
   131  H    0.153813
   132  N   -0.125743
   133  C    0.091284
   134  C    0.076334
   135  O   -0.276303
   136  C    0.082780
   137  H    0.111827
   138  H    0.006129
   139  H    0.008136
   140  H   -0.014415
   141  H    0.027973
   142  N   -0.141596
   143  C    0.071633
   144  C    0.059205
   145  O   -0.248525
   146  C    0.065872
   147  H    0.154216
   148  H   -0.001909
   149  H    0.030755
   150  H   -0.015269
   151  H    0.038371
   152  N   -0.134015
   153  C    0.068461
   154  C    0.089396
   155  O   -0.244643
   156  C    0.040379
   157  C    0.142966
   158  C    0.075232
   159  O   -0.424417
   160  O   -0.460644
   161  H    0.106940
   162  H   -0.018733
   163  H    0.007958
   164  H    0.053777
   165  H   -0.001015
   166  H   -0.034385
   167  N   -0.156514
   168  C    0.135839
   169  H    0.032327
   170  H    0.008489
   171  H    0.034935
   172  H    0.100842
   173  Ca   1.413035
   174  O   -0.316721
   175  H    0.182793
   176  H    0.176925
 Sum of Mulliken charges =  -0.00000
 Mulliken charges with hydrogens summed into heavy atoms:
               1
     1  C    0.123329
     2  C    0.023437
     3  O   -0.356090
     7  N    0.008978
     8  C    0.053553
     9  C    0.078332
    10  O   -0.264857
    11  C    0.053565
    12  C    0.059836
    13  O   -0.386441
    14  O   -0.376803
    19  N   -0.033017
    20  C    0.111874
    21  C    0.076981
    22  O   -0.286668
    23  C    0.032656
    24  C    0.070422
    25  C    0.008147
    26  C    0.189864
    27  N    0.614095
    41  N    0.002034
    42  C    0.139805
    43  C    0.050494
    44  O   -0.250062
    45  C    0.063426
    46  C    0.117800
    47  O   -0.363777
    48  O   -0.484918
    53  N    0.015828
    54  C    0.222111
    55  C    0.090575
    56  O   -0.279774
    60  N   -0.044580
    61  C    0.142699
    62  C    0.109320
    63  O   -0.305773
    64  C    0.144501
    65  C   -0.002910
    66  N    0.249483
    67  O   -0.270684
    74  N    0.003169
    75  C    0.253730
    76  C    0.019677
    77  O   -0.258359
    81  N    0.005980
    82  C    0.110807
    83  C    0.104851
    84  O   -0.305346
    85  C    0.152995
    86  C   -0.055137
    87  C   -0.012583
    88  C   -0.049270
    89  C   -0.034494
    90  C   -0.087056
    91  C    0.162417
    92  O   -0.015359
   102  N    0.043495
   103  C    0.215569
   104  C    0.042143
   105  O   -0.256201
   106  C   -0.178016
   107  C    0.050756
   108  C    0.094744
   109  C    0.015735
   121  N   -0.017477
   122  C    0.035704
   123  C    0.061761
   124  O   -0.275993
   125  C    0.287898
   126  O   -0.142895
   132  N   -0.013915
   133  C    0.097413
   134  C    0.076334
   135  O   -0.276303
   136  C    0.104475
   142  N    0.012621
   143  C    0.069724
   144  C    0.059205
   145  O   -0.248525
   146  C    0.119728
   152  N   -0.027075
   153  C    0.049728
   154  C    0.089396
   155  O   -0.244643
   156  C    0.102115
   157  C    0.107567
   158  C    0.075232
   159  O   -0.424417
   160  O   -0.460644
   167  N   -0.055672
   168  C    0.211589
   173  Ca   1.413035
   174  O    0.042997
 DipInt: DoE/N= T F RetVal/Mat= T F Init=T NMatP=  1 IDeriv=0 Min/MaxMlt=  0  4
 Entering OneElI...
 OneElI was handed  1333951383 working-precision words.
 Multipole integrals L=0 to 4 MinM= 0 MaxM= 0.
 Requested accuracy = 0.1000D-12
 ShPair: Thresh= 1.00D-13 NBox=     0 BxSize= 0.00D+00 RnKept= 3.32D+01
         NSMCal=               327645 NSMKep=              118266
 PrmmSu-InSpLW:  IPartL=    0 NPrtUS=    1 NPrtUL=    1 DoSpLW=F IThBeg=    0 IThEnd=    0 NThAct=    1.
 PrsmSu:  NPrtUS=   1 ThrOK=F IAlg=1 NPAlg=1 LenDen=           0 ISkipM=0 DoSpLW=F IThBeg=    0 IThEnd=    0.
 Prism:   IPart=     0 DynPar=F LinDyn=F Incr=         512.
 PRISM was handed  1325496561 working-precision words and118266 shell-pairs
 IPart=  0 NShTot=      118266 NBatch=         281 AvBLen=       420.9
 PrsmSu-ThDecC:  IPartSL=    0    0 NPrtUSL=    1    1 IThBeg=    0 IThEnd=    0 CPU=   -1 GPU=   -1 NThAct=    1.
 PrSmSu:  NxtVal=            513.
 Electronic moments (au):
       -716.00000000         13.27572712         -0.19787356         -0.42605112
    -104797.09175601     -41411.51701875     -12933.51513618        -89.60888423
         73.13173132        -28.48485851    -492750.87143578     -30902.56735758
      -1643.07295273     292401.11177968     -83625.97875369    -143845.09400902
     -76076.19934699      14267.85922902      -6344.23912756     -40551.68013529
  -31531154.14121062   -7204032.90266480    -657212.44155698     149771.13508465
   -1936323.09116934    1739595.48244534     393025.01825026     -98478.51846766
     -62997.71458750   -4220743.64192753   -1811888.14110109    -426614.78711203
     163266.76052905      91025.66534476    -161668.36433209
 Electronic spatial extent (au):  <R**2>=         159142.1239
 DipInt: DoE/N= F T RetVal/Mat= T F Init=T NMatP=  1 IDeriv=0 Min/MaxMlt=  0  4
 Nuclear    moments (au):
        716.00000000         -0.00000000          0.00000000          0.00000000
     104823.99379975      41032.19580660      12491.49042795          0.00000000
          0.00000000          0.00000000     508527.37498719      30537.69755576
       1769.48518348    -292540.38159261      83431.83083655     145616.55069111
      75607.78300738     -14483.45631001       5947.02760972      40713.46848426
   31597528.01199878    7070806.96331972     611371.51674946    -189455.01595171
    1992316.11314134   -1742077.40421205    -397045.65551059     102670.42851884
      62721.95060137    4140538.42707587    1742424.55194364     396203.39026893
    -169136.12656323     -89356.24149548     160721.62734087
 Total      moments (au):
          0.00000000         13.27572712         -0.19787356         -0.42605112
         26.90204374       -379.32121215       -442.02470823        -89.60888423
         73.13173132        -28.48485851      15776.50355142       -364.86980182
        126.41223075       -139.26981293       -194.14791715       1771.45668208
       -468.41633962       -215.59708099       -397.21151784        161.78834898
      66373.87078816    -133225.93934509     -45840.92480752     -39683.88086706
      55993.02197200      -2481.92176671      -4020.63726033       4191.91005119
       -275.76398613     -80205.21485166     -69463.58915745     -30411.39684311
      -5869.36603418       1669.42384928       -946.73699122
 Traceless Quadrup. (au):
        291.71666929       -114.50658661       -177.21008268        -89.60888423
         73.13173132        -28.48485851
 Charge=              0.0000 electrons
 Dipole moment (field-independent basis, Debye):
    X=             33.7435    Y=             -0.5029    Z=             -1.0829  Tot=             33.7646
 Quadrupole moment (field-independent basis, Debye-Ang):
   XX=             36.1842   YY=           -510.2000   ZZ=           -594.5384
   XY=           -120.5270   XZ=             98.3647   YZ=            -38.3131
 Traceless Quadrupole moment (field-independent basis, Debye-Ang):
   XX=            392.3689   YY=           -154.0153   ZZ=           -238.3536
   XY=           -120.5270   XZ=             98.3647   YZ=            -38.3131
 Octapole moment (field-independent basis, Debye-Ang**2):
  XXX=          11229.1074  YYY=           -259.7003  ZZZ=             89.9754  XYY=            -99.1269
  XXY=           -138.1870  XXZ=           1260.8546  XZZ=           -333.4007  YZZ=           -153.4537
  YYZ=           -282.7199  XYZ=            115.1547
 Hexadecapole moment (field-independent basis, Debye-Ang**3):
 XXXX=          24999.5825 YYYY=         -50179.2772 ZZZZ=         -17265.8904 XXXY=         -14946.8524
 XXXZ=          21089.6570 YYYX=           -934.8107 YYYZ=          -1514.3648 ZZZX=           1578.8743
 ZZZY=           -103.8659 XXYY=         -30209.1299 XXZZ=         -26163.3186 YYZZ=         -11454.3903
 XXYZ=          -2210.6847 YYXZ=            628.7851 ZZXY=           -356.5865
 N-N= 1.862321548208D+04 E-N=-4.973216009536D+04  KE= 5.290517929330D+03
 Leave Link  601 at Tue Sep 17 10:17:33 2019, MaxMem=  1342177280 cpu:              41.6 elap:               1.0
 FitSet:  NAtFit=   176 NAtPot=   176 NAtFrz=     0 MDM=   180 TotChg=   0.00000
 Merz-Kollman atomic radii used.
 Read replacement radii for each type of atom:
 Rad(20) =   1.700000000000D+00
 Atom Element Radius
    1     6    1.50
    2     6    1.50
    3     8    1.40
    4     1    1.20
    5     1    1.20
    6     1    1.20
    7     7    1.50
    8     6    1.50
    9     6    1.50
   10     8    1.40
   11     6    1.50
   12     6    1.50
   13     8    1.40
   14     8    1.40
   15     1    1.20
   16     1    1.20
   17     1    1.20
   18     1    1.20
   19     7    1.50
   20     6    1.50
   21     6    1.50
   22     8    1.40
   23     6    1.50
   24     6    1.50
   25     6    1.50
   26     6    1.50
   27     7    1.50
   28     1    1.20
   29     1    1.20
   30     1    1.20
   31     1    1.20
   32     1    1.20
   33     1    1.20
   34     1    1.20
   35     1    1.20
   36     1    1.20
   37     1    1.20
   38     1    1.20
   39     1    1.20
   40     1    1.20
   41     7    1.50
   42     6    1.50
   43     6    1.50
   44     8    1.40
   45     6    1.50
   46     6    1.50
   47     8    1.40
   48     8    1.40
   49     1    1.20
   50     1    1.20
   51     1    1.20
   52     1    1.20
   53     7    1.50
   54     6    1.50
   55     6    1.50
   56     8    1.40
   57     1    1.20
   58     1    1.20
   59     1    1.20
   60     7    1.50
   61     6    1.50
   62     6    1.50
   63     8    1.40
   64     6    1.50
   65     6    1.50
   66     7    1.50
   67     8    1.40
   68     1    1.20
   69     1    1.20
   70     1    1.20
   71     1    1.20
   72     1    1.20
   73     1    1.20
   74     7    1.50
   75     6    1.50
   76     6    1.50
   77     8    1.40
   78     1    1.20
   79     1    1.20
   80     1    1.20
   81     7    1.50
   82     6    1.50
   83     6    1.50
   84     8    1.40
   85     6    1.50
   86     6    1.50
   87     6    1.50
   88     6    1.50
   89     6    1.50
   90     6    1.50
   91     6    1.50
   92     8    1.40
   93     1    1.20
   94     1    1.20
   95     1    1.20
   96     1    1.20
   97     1    1.20
   98     1    1.20
   99     1    1.20
  100     1    1.20
  101     1    1.20
  102     7    1.50
  103     6    1.50
  104     6    1.50
  105     8    1.40
  106     6    1.50
  107     6    1.50
  108     6    1.50
  109     6    1.50
  110     1    1.20
  111     1    1.20
  112     1    1.20
  113     1    1.20
  114     1    1.20
  115     1    1.20
  116     1    1.20
  117     1    1.20
  118     1    1.20
  119     1    1.20
  120     1    1.20
  121     7    1.50
  122     6    1.50
  123     6    1.50
  124     8    1.40
  125     6    1.50
  126     8    1.40
  127     1    1.20
  128     1    1.20
  129     1    1.20
  130     1    1.20
  131     1    1.20
  132     7    1.50
  133     6    1.50
  134     6    1.50
  135     8    1.40
  136     6    1.50
  137     1    1.20
  138     1    1.20
  139     1    1.20
  140     1    1.20
  141     1    1.20
  142     7    1.50
  143     6    1.50
  144     6    1.50
  145     8    1.40
  146     6    1.50
  147     1    1.20
  148     1    1.20
  149     1    1.20
  150     1    1.20
  151     1    1.20
  152     7    1.50
  153     6    1.50
  154     6    1.50
  155     8    1.40
  156     6    1.50
  157     6    1.50
  158     6    1.50
  159     8    1.40
  160     8    1.40
  161     1    1.20
  162     1    1.20
  163     1    1.20
  164     1    1.20
  165     1    1.20
  166     1    1.20
  167     7    1.50
  168     6    1.50
  169     1    1.20
  170     1    1.20
  171     1    1.20
[...]
 **** Fit       0.003538
 **** Fit       0.002712
 **** Fit       0.001620
 **** Fit      -0.001588
 **** Fit       0.000087
 **** Fit       0.001715
 **** Fit       0.003141
 **** Fit       0.004276
 **** Fit       0.005080
 **** Fit       0.005540
 **** Fit       0.005657
 **** Fit       0.005437
 **** Fit       0.004888
 **** Fit       0.004015
 **** Fit       0.002822
 **** Fit       0.000964
 **** Fit       0.002582
 **** Fit       0.004143
 **** Fit       0.005475
 **** Fit       0.006485
 **** Fit       0.007134
 **** Fit       0.007408
 **** Fit       0.007308
 **** Fit       0.006835
 **** Fit       0.005984
 **** Fit       0.004745
 **** Fit       0.006542
 **** Fit       0.007778
 **** Fit       0.008803
 **** Fit       0.009520
 **** Fit       0.009882
 **** Fit       0.009867
 **** Fit       0.009463
 **** Fit       0.008650
 **** Fit       0.007396
 **** Fit       0.013577
 **** Fit       0.013753
 **** Fit       0.013570
 **** Fit       0.012975
 **** Fit      -0.009376
 **** Fit      -0.010557
 **** Fit      -0.011577
 **** Fit      -0.008592
 **** Fit      -0.011803
 **** Fit      -0.013566
 **** Fit      -0.014229
 **** Fit      -0.006618
 **** Fit      -0.007923
 **** Fit      -0.009729
 **** Fit      -0.013206
 **** Fit      -0.015336
 **** Fit      -0.016922
 **** Fit      -0.017481
 **** Fit      -0.006103
 **** Fit      -0.007387
 **** Fit      -0.009018
 **** Fit      -0.010998
 **** Fit      -0.014853
 **** Fit      -0.017395
 **** Fit      -0.019637
 **** Fit      -0.021139
 **** Fit      -0.021504
 **** Fit      -0.004449
 **** Fit      -0.005513
 **** Fit      -0.006763
 **** Fit      -0.008287
 **** Fit      -0.010151
 **** Fit      -0.012367
 **** Fit      -0.016829
 **** Fit      -0.019894
 **** Fit      -0.022830
 **** Fit      -0.025202
 **** Fit      -0.026531
 **** Fit      -0.026450
 **** Fit      -0.004823
 **** Fit      -0.006065
 **** Fit      -0.007517
 **** Fit      -0.009275
 **** Fit      -0.011410
 **** Fit      -0.013945
 **** Fit      -0.019218
 **** Fit      -0.022852
 **** Fit      -0.026546
 **** Fit      -0.029885
 **** Fit      -0.032335
 **** Fit      -0.033374
 **** Fit      -0.004255
 **** Fit      -0.005521
 **** Fit      -0.006931
 **** Fit      -0.008592
 **** Fit      -0.010597
 **** Fit      -0.013020
 **** Fit      -0.015901
 **** Fit      -0.022099
 **** Fit      -0.026658
 **** Fit      -0.031518
 **** Fit      -0.036211
 **** Fit      -0.004545
 **** Fit      -0.005989
 **** Fit      -0.007607
 **** Fit      -0.009519
 **** Fit      -0.011837
 **** Fit      -0.014664
 **** Fit      -0.018076
 **** Fit      -0.025537
 **** Fit      -0.031217
 **** Fit      -0.005096
 **** Fit      -0.006735
 **** Fit      -0.008581
 **** Fit      -0.010767
 **** Fit      -0.013426
 **** Fit      -0.016695
 **** Fit      -0.020701
 **** Fit      -0.029556
 **** Fit      -0.005586
 **** Fit      -0.007459
 **** Fit      -0.009560
 **** Fit      -0.012048
 **** Fit      -0.015094
 **** Fit      -0.018889
 **** Fit      -0.023638
 **** Fit      -0.007712
 **** Fit      -0.010107
 **** Fit      -0.012923
 **** Fit      -0.016401
 **** Fit      -0.020832
 **** Fit      -0.026574
 **** Fit      -0.010370
 **** Fit      -0.013502
 **** Fit      -0.017383
 **** Fit      -0.022446
 **** Fit       0.009367
 **** Fit       0.004555
 **** Fit       0.006991
 **** Fit       0.009447
 **** Fit       0.011598
 **** Fit       0.013247
 **** Fit       0.014288
 **** Fit       0.014664
 **** Fit       0.014351
 **** Fit       0.013343
 **** Fit       0.007582
 **** Fit       0.009534
 **** Fit       0.011484
 **** Fit       0.013128
 **** Fit       0.014307
 **** Fit       0.014946
 **** Fit       0.015011
 **** Fit       0.014489
 **** Fit       0.013377
 **** Fit       0.011674
 **** Fit       0.011356
 **** Fit       0.012687
 **** Fit       0.014019
 **** Fit       0.015066
 **** Fit       0.015685
 **** Fit       0.015810
 **** Fit       0.015411
 **** Fit       0.014476
 **** Fit       0.013002
 **** Fit       0.010992
 **** Fit       0.015346
 **** Fit       0.015710
 **** Fit       0.016321
 **** Fit       0.016814
 **** Fit       0.016994
 **** Fit       0.016760
 **** Fit       0.016064
 **** Fit       0.014885
 **** Fit       0.013224
 **** Fit       0.011097
 **** Fit       0.019425
 **** Fit       0.019061
 **** Fit       0.018839
 **** Fit       0.018486
 **** Fit       0.017853
 **** Fit       0.016861
 **** Fit       0.015483
 **** Fit       0.013729
 **** Fit       0.011649
 **** Fit       0.021947
 **** Fit       0.020860
 **** Fit       0.019836
 **** Fit       0.018648
 **** Fit       0.017202
 **** Fit       0.015495
 **** Fit       0.013617
 **** Fit       0.024653
 **** Fit       0.022672
 **** Fit       0.021015
 **** Fit       0.019394
 **** Fit       0.017757
 **** Fit       0.025117
 **** Fit       0.022837
 **** Fit      -0.014382
 **** Fit      -0.006520
 **** Fit      -0.015296
 **** Fit      -0.014346
 **** Fit      -0.006727
 **** Fit       0.000017
 **** Fit      -0.006356
 **** Fit      -0.023633
 **** Fit      -0.015526
 **** Fit      -0.007685
 **** Fit      -0.001164
 **** Fit       0.001832
 **** Fit       0.005171
 **** Fit      -0.000291
 **** Fit      -0.007985
 **** Fit      -0.031889
 **** Fit      -0.024615
 **** Fit      -0.018021
 **** Fit      -0.011042
 **** Fit      -0.003636
 **** Fit       0.002879
 **** Fit       0.006966
 **** Fit       0.007756
 **** Fit       0.009078
 **** Fit       0.003829
 **** Fit      -0.002937
 **** Fit      -0.010692
 **** Fit      -0.008928
 **** Fit      -0.001143
 **** Fit       0.005754
 **** Fit       0.010596
 **** Fit       0.012792
 **** Fit       0.012217
 **** Fit       0.011918
 **** Fit       0.006443
 **** Fit      -0.000350
 **** Fit      -0.007930
 **** Fit      -0.015694
 **** Fit      -0.001468
 **** Fit       0.006551
 **** Fit       0.012564
 **** Fit       0.016113
 **** Fit       0.017090
 **** Fit       0.015601
 **** Fit       0.013807
 **** Fit       0.008180
 **** Fit       0.006349
 **** Fit       0.013439
 **** Fit       0.018108
 **** Fit       0.020334
 **** Fit       0.020218
 **** Fit       0.017946
 **** Fit       0.014727
 **** Fit       0.003667
 **** Fit       0.012385
 **** Fit       0.018492
 **** Fit       0.022083
 **** Fit       0.023302
 **** Fit       0.022318
 **** Fit       0.019350
 **** Fit       0.010343
 **** Fit       0.017775
 **** Fit       0.022580
 **** Fit       0.024982
 **** Fit       0.025166
 **** Fit       0.023309
 **** Fit       0.019634
 **** Fit       0.007723
 **** Fit       0.016297
 **** Fit       0.022130
 **** Fit       0.025532
 **** Fit       0.026726
 **** Fit       0.025874
 **** Fit       0.023124
 **** Fit       0.018679
 **** Fit       0.011643
 **** Fit       0.019399
 **** Fit       0.024417
 **** Fit       0.027019
 **** Fit       0.027410
 **** Fit       0.025728
 **** Fit       0.022087
 **** Fit       0.016654
 **** Fit       0.015487
 **** Fit       0.022077
 **** Fit       0.026064
 **** Fit       0.027719
 **** Fit       0.027198
 **** Fit       0.024588
 **** Fit       0.019951
 **** Fit       0.013395
 **** Fit       0.009228
 **** Fit       0.017847
 **** Fit       0.023570
 **** Fit       0.026761
 **** Fit       0.027634
 **** Fit       0.026294
 **** Fit       0.022771
 **** Fit       0.017065
 **** Fit       0.009217
 **** Fit       0.012695
 **** Fit       0.020002
 **** Fit       0.024657
 **** Fit       0.026918
 **** Fit       0.026920
 **** Fit       0.024698
 **** Fit       0.020216
 **** Fit       0.013398
 **** Fit       0.013270
 **** Fit       0.020211
 **** Fit       0.024532
 **** Fit       0.026426
 **** Fit       0.025971
 **** Fit       0.023147
 **** Fit       0.017844
 **** Fit       0.009893
 **** Fit       0.014234
 **** Fit       0.020506
 **** Fit       0.024309
 **** Fit       0.025734
 **** Fit       0.024786
 **** Fit       0.021376
 **** Fit       0.015317
 **** Fit       0.014252
 **** Fit       0.020129
 **** Fit       0.023684
 **** Fit       0.024899
 **** Fit       0.023702
 **** Fit       0.019938
 **** Fit       0.013345
 **** Fit       0.007726
 **** Fit       0.014758
 **** Fit       0.019954
 **** Fit       0.023096
 **** Fit       0.024034
 **** Fit       0.022610
 **** Fit       0.018603
 **** Fit       0.011695
 **** Fit       0.007062
 **** Fit       0.013401
 **** Fit       0.018520
 **** Fit       0.021902
 **** Fit       0.023201
 **** Fit       0.022136
 **** Fit       0.018409
 **** Fit       0.011642
 **** Fit       0.007903
 **** Fit       0.012875
 **** Fit       0.017415
 **** Fit       0.020760
 **** Fit       0.022332
 **** Fit       0.021682
 **** Fit       0.018410
 **** Fit       0.012088
 **** Fit       0.001369
 **** Fit       0.001040
 **** Fit       0.002108
 **** Fit       0.003596
 **** Fit       0.005188
 **** Fit       0.007163
 **** Fit       0.009869
 **** Fit       0.013251
 **** Fit       0.016793
 **** Fit       0.019759
 **** Fit       0.021425
 **** Fit       0.021171
 **** Fit       0.018473
 **** Fit       0.012845
 **** Fit       0.003797
 **** Fit       0.008969
 **** Fit       0.007846
 **** Fit       0.008331
 **** Fit       0.009606
 **** Fit       0.011306
 **** Fit       0.013425
 **** Fit       0.015921
 **** Fit       0.018424
 **** Fit       0.020259
 **** Fit       0.020650
 **** Fit       0.018876
 **** Fit       0.014311
 **** Fit       0.006432
 **** Fit       0.012318
 **** Fit       0.012641
 **** Fit       0.013801
 **** Fit       0.015418
 **** Fit       0.017248
 **** Fit       0.018908
 **** Fit       0.019731
 **** Fit       0.018877
 **** Fit       0.015536
 **** Fit       0.009079
 **** Fit      -0.000781
 **** Fit       0.013981
 **** Fit       0.014446
 **** Fit       0.015475
 **** Fit       0.016848
 **** Fit       0.018070
 **** Fit       0.018370
 **** Fit       0.016692
 **** Fit       0.012021
 **** Fit       0.003871
 **** Fit      -0.001120
 **** Fit      -0.009271
 **** Fit      -0.011203
 **** Fit       0.013099
 **** Fit       0.014922
 **** Fit       0.016199
 **** Fit       0.016382
 **** Fit       0.014058
 **** Fit       0.007991
 **** Fit       0.003951
 **** Fit      -0.000038
 **** Fit       0.005072
 **** Fit       0.011069
 **** Fit       0.013329
 **** Fit       0.011103
 **** Fit       0.008017
 **** Fit      -0.055771
 **** Fit      -0.051596
 **** Fit      -0.043002
 **** Fit      -0.049386
 **** Fit      -0.031182
 **** Fit      -0.034399
 **** Fit      -0.038775
 **** Fit      -0.044740
 **** Fit      -0.023133
 **** Fit      -0.024023
 **** Fit      -0.025878
 **** Fit      -0.028672
 **** Fit      -0.032579
 **** Fit      -0.037887
 **** Fit      -0.016998
 **** Fit      -0.042796
 **** Fit       0.013214
 **** Fit      -0.035055
 **** Fit      -0.037176
 **** Fit      -0.034027
 **** Fit      -0.027091
 **** Fit      -0.018741
 **** Fit       0.006805
 **** Fit       0.001696
 **** Fit      -0.006814
 **** Fit      -0.017556
 **** Fit      -0.027911
 **** Fit      -0.023022
 **** Fit      -0.024002
 **** Fit      -0.020071
 **** Fit      -0.008818
 **** Fit      -0.017197
 **** Fit      -0.029836
 **** Fit      -0.022578
 **** Fit      -0.017140
 **** Fit      -0.012504
 **** Fit      -0.008006
 **** Fit      -0.039333
 **** Fit      -0.028799
 **** Fit      -0.020613
 **** Fit      -0.014177
 **** Fit      -0.008590
 **** Fit      -0.034357
 **** Fit      -0.025177
 **** Fit      -0.016890
 **** Fit      -0.009740
 **** Fit      -0.019162
 **** Fit      -0.022262
 **** Fit      -0.024345
 **** Fit      -0.027348
 **** Fit      -0.031454
 **** Fit      -0.036953
 **** Fit      -0.014709
 **** Fit      -0.015063
 **** Fit      -0.016126
 **** Fit      -0.017774
 **** Fit      -0.020028
 **** Fit      -0.022960
 **** Fit      -0.026643
 **** Fit      -0.031093
 **** Fit      -0.009738
 **** Fit      -0.009211
 **** Fit      -0.009362
 **** Fit      -0.010030
 **** Fit      -0.011120
 **** Fit      -0.012606
 **** Fit      -0.014494
 **** Fit      -0.016770
 **** Fit      -0.019370
 **** Fit      -0.022104
 **** Fit      -0.006678
 **** Fit      -0.005522
 **** Fit      -0.004838
 **** Fit      -0.004674
 **** Fit      -0.004967
 **** Fit      -0.005634
 **** Fit      -0.006623
 **** Fit      -0.007900
 **** Fit      -0.009418
 **** Fit      -0.011089
 **** Fit      -0.012741
 **** Fit      -0.014054
 **** Fit      -0.014481
 **** Fit      -0.013208
 **** Fit      -0.003655
 **** Fit      -0.002372
 **** Fit      -0.001546
 **** Fit      -0.001185
 **** Fit      -0.001247
 **** Fit      -0.001664
 **** Fit      -0.002371
 **** Fit      -0.003309
 **** Fit      -0.004397
 **** Fit      -0.005512
 **** Fit      -0.006458
 **** Fit      -0.006925
 **** Fit      -0.006471
 **** Fit      -0.004551
 **** Fit      -0.000659
 **** Fit       0.005437
 **** Fit      -0.004687
 **** Fit      -0.002249
 **** Fit      -0.000538
 **** Fit       0.000603
 **** Fit       0.001250
 **** Fit       0.001466
 **** Fit       0.001324
 **** Fit       0.000901
 **** Fit       0.000277
 **** Fit      -0.000448
 **** Fit      -0.001137
 **** Fit      -0.001600
 **** Fit      -0.001578
 **** Fit      -0.000764
 **** Fit       0.001134
 **** Fit       0.004247
 **** Fit       0.008333
 **** Fit       0.012527
 **** Fit      -0.007535
 **** Fit      -0.003577
 **** Fit      -0.000752
 **** Fit       0.001194
 **** Fit       0.002450
 **** Fit       0.003143
 **** Fit       0.003381
 **** Fit       0.003270
 **** Fit       0.002923
 **** Fit       0.002473
 **** Fit       0.002085
 **** Fit       0.001965
 **** Fit       0.002340
 **** Fit       0.003405
 **** Fit       0.005187
 **** Fit       0.007365
 **** Fit       0.009082
 **** Fit       0.008972
 **** Fit      -0.015273
 **** Fit      -0.011041
 **** Fit      -0.006484
 **** Fit      -0.002588
 **** Fit       0.000359
 **** Fit       0.002417
 **** Fit       0.003731
 **** Fit       0.004446
 **** Fit       0.004703
 **** Fit       0.004650
 **** Fit       0.004454
 **** Fit       0.004300
 **** Fit       0.004380
 **** Fit       0.004841
 **** Fit       0.005661
 **** Fit       0.006496
 **** Fit       0.006575
 **** Fit       0.004860
 **** Fit       0.000663
 **** Fit      -0.009235
 **** Fit      -0.009829
 **** Fit      -0.007730
 **** Fit      -0.004278
 **** Fit      -0.000839
 **** Fit       0.001892
 **** Fit       0.003766
 **** Fit       0.004874
 **** Fit       0.005390
 **** Fit       0.005528
 **** Fit       0.005517
 **** Fit       0.005557
 **** Fit       0.005720
 **** Fit       0.005780
 **** Fit       0.005098
 **** Fit       0.002868
 **** Fit      -0.001136
 **** Fit      -0.005840
 **** Fit      -0.003744
 **** Fit      -0.003814
 **** Fit      -0.001471
 **** Fit       0.001481
 **** Fit       0.003771
 **** Fit       0.005087
 **** Fit       0.005623
 **** Fit       0.005713
 **** Fit       0.005517
 **** Fit       0.004686
 **** Fit       0.002486
 **** Fit      -0.000971
 **** Fit       0.000278
 **** Fit       0.001022
 **** Fit       0.003499
 **** Fit       0.004825
 **** Fit       0.004604
 **** Fit       0.002667
 **** Fit       0.003078
 -----------------------------------------------------------------
 Leave Link  602 at Tue Sep 17 10:17:36 2019, MaxMem=  1342177280 cpu:             127.9 elap:               2.7

 Test job not archived.
 1\1\GINC-C489-064\SP\RB3LYP\SVP\C54H83Ca1N15O23\PENGZHI\17-Sep-2019\0\
 \#b3lyp/svp scf=(tight,noincore) Test #IOP(5/87=12) Density=Current Po
 p=(MK,readradii) iop(6/33=2) iop(6/42=6)\\Ng-293_loop3_31.0\\0,1\C,0,5
 9.31,17.72,7.6\C,0,59.16,18.73,6.47\O,0,58.97,18.34,5.32\H,0,60.001,18
 .111,8.347\H,0,58.339,17.544,8.062\H,0,59.699,16.783,7.201\N,0,59.31,2
 0.,6.85\C,0,59.29,21.15,5.97\C,0,57.86,21.5,5.58\O,0,56.99,21.6,6.44\C
 ,0,60.01,22.36,6.56\C,0,59.7,22.7,8.01\O,0,59.93,23.86,8.41\O,0,59.19,
 21.9,8.83\H,0,59.25,20.21,7.83\H,0,59.89,20.83,5.12\H,0,59.88,23.21,5.
 9\H,0,61.06,22.1,6.5\N,0,57.67,21.77,4.29\C,0,56.44,21.98,3.56\C,0,55.
 82,23.35,3.8\O,0,55.46,23.98,2.81\C,0,55.54,20.76,3.71\C,0,56.07,19.33
 ,3.65\C,0,56.82,19.,2.36\C,0,56.57,17.52,2.09\N,0,57.27,17.16,0.85\H,0
 ,58.5,21.7,3.71\H,0,56.86,21.93,2.56\H,0,54.6,20.8,3.15\H,0,55.09,20.8
 5,4.7\H,0,55.15,18.74,3.61\H,0,56.71,19.15,4.51\H,0,57.86,19.17,2.63\H
 ,0,56.39,19.57,1.54\H,0,55.48,17.46,2.02\H,0,57.02,17.01,2.94\H,0,58.2
 6,16.98,0.94\H,0,56.93,16.3,0.45\H,0,57.12,17.77,0.06\N,0,55.62,23.76,
 5.06\C,0,55.01,25.01,5.46\C,0,55.63,25.46,6.77\O,0,55.91,24.68,7.67\C,
 0,53.54,24.7,5.69\C,0,52.7,25.93,6.\O,0,52.98,26.99,5.4\O,0,51.83,25.8
 5,6.89\H,0,56.15,23.22,5.74\H,0,55.18,25.76,4.69\H,0,53.5,24.07,6.58\H
 ,0,53.12,24.21,4.81\N,0,55.83,26.78,6.83\C,0,56.49,27.42,7.95\C,0,55.7
 5,27.77,9.24\O,0,54.55,27.99,9.26\H,0,55.45,27.39,6.12\H,0,57.03,28.3,
 7.59\H,0,57.24,26.68,8.21\N,0,56.46,27.89,10.37\C,0,56.03,28.1,11.74\C
 ,0,56.49,29.35,12.48\O,0,55.71,29.86,13.29\C,0,56.04,26.82,12.57\C,0,5
 5.67,25.57,11.79\N,0,56.61,24.94,11.09\O,0,54.53,25.1,11.86\H,0,57.44,
 27.71,10.22\H,0,54.97,28.34,11.7\H,0,55.33,27.02,13.37\H,0,57.03,26.62
 ,12.97\H,0,57.57,25.25,11.1\H,0,56.41,24.02,10.72\N,0,57.67,29.92,12.2
 4\C,0,58.16,31.05,12.99\C,0,58.3,30.71,14.47\O,0,58.78,29.64,14.81\H,0
 ,58.32,29.6,11.53\H,0,57.45,31.86,12.84\H,0,59.14,31.41,12.68\N,0,57.7
 8,31.59,15.33\C,0,57.75,31.39,16.77\C,0,57.14,30.06,17.19\O,0,57.31,29
 .63,18.33\C,0,59.14,31.51,17.39\C,0,60.04,32.63,16.92\C,0,61.06,32.36,
 15.99\C,0,59.83,33.92,17.42\C,0,61.88,33.4,15.55\C,0,60.76,34.93,17.12
 \C,0,61.81,34.64,16.23\O,0,62.67,35.64,15.91\H,0,57.3,32.42,15.02\H,0,
 57.28,32.22,17.29\H,0,59.67,30.57,17.24\H,0,59.04,31.7,18.46\H,0,61.17
 ,31.37,15.58\H,0,59.06,34.04,18.17\H,0,62.67,33.26,14.83\H,0,60.58,35.
 87,17.62\H,0,62.44,36.39,16.46\N,0,56.23,29.52,16.36\C,0,55.27,28.48,1
 6.64\C,0,54.13,28.76,17.6\O,0,52.98,28.39,17.4\C,0,55.85,27.14,17.09\C
 ,0,57.21,26.82,16.47\C,0,54.88,25.96,17.11\C,0,57.79,25.43,16.7\H,0,56
 .16,29.93,15.44\H,0,54.75,28.21,15.72\H,0,56.06,27.25,18.16\H,0,57.98,
 27.47,16.88\H,0,57.2,26.89,15.39\H,0,55.32,25.03,17.48\H,0,54.14,26.04
 ,17.9\H,0,54.44,25.73,16.14\H,0,57.19,24.65,16.23\H,0,58.73,25.28,16.1
 7\H,0,57.99,25.31,17.77\N,0,54.44,29.49,18.68\C,0,53.4,30.03,19.53\C,0
 ,52.45,29.01,20.16\O,0,51.29,29.31,20.47\C,0,53.78,31.14,20.5\O,0,54.7
 8,32.,20.\H,0,55.39,29.75,18.91\H,0,52.76,30.55,18.83\H,0,54.25,30.72,
 21.39\H,0,52.88,31.68,20.8\H,0,54.49,32.11,19.09\N,0,52.97,27.82,20.46
 \C,0,52.29,26.61,20.88\C,0,50.97,26.37,20.17\O,0,49.94,26.42,20.85\C,0
 ,52.27,26.47,22.4\H,0,53.96,27.74,20.32\H,0,52.94,25.78,20.58\H,0,51.6
 7,25.65,22.8\H,0,53.29,26.28,22.72\H,0,51.85,27.35,22.88\N,0,50.92,26.
 28,18.83\C,0,49.73,26.07,18.03\C,0,49.99,25.2,16.81\O,0,51.12,25.03,16
 .38\C,0,49.12,27.35,17.48\H,0,51.69,26.51,18.22\H,0,49.02,25.58,18.7\H
 ,0,49.83,27.91,16.88\H,0,48.23,27.18,16.88\H,0,48.79,27.95,18.33\N,0,4
 8.93,24.65,16.21\C,0,48.97,23.55,15.27\C,0,49.49,22.23,15.8\O,0,50.39,
 21.62,15.24\C,0,49.62,23.91,13.93\C,0,48.81,25.06,13.33\C,0,49.35,25.2
 5,11.92\O,0,50.27,26.08,11.74\O,0,49.07,24.47,10.99\H,0,48.04,24.9,16.
 61\H,0,47.9,23.41,15.1\H,0,49.65,23.05,13.27\H,0,50.67,24.18,14.08\H,0
 ,48.83,25.97,13.93\H,0,47.77,24.76,13.22\N,0,48.92,21.8,16.93\C,0,49.5
 4,20.84,17.82\H,0,50.458,21.263,18.227\H,0,48.856,20.605,18.635\H,0,49
 .774,19.93,17.268\H,0,48.1,22.28,17.28\Ca,0,50.83,25.33,9.28\O,0,51.72
 ,27.81,9.36\H,0,52.53,28.04,8.91\H,0,51.27,28.64,9.49\\Version=ES64L-G
 16RevA.03\State=1-A\HF=-5333.3888418\RMSD=1.857e-09\Dipole=1.1693171,-
 6.5567322,-11.4938055\Quadrupole=-161.1620829,79.4587218,81.7033611,13
 .6921132,-29.6743928,241.7582822\PG=C01 [X(C54H83Ca1N15O23)]\\@


 THE FIRST AND LAST THING REQUIRED OF GENIUS IS THE LOVE OF TRUTH.

                          -- GOETHE
 Job cpu time:       0 days  7 hours 35 minutes  5.9 seconds.
 Elapsed time:       0 days  0 hours  9 minutes 37.5 seconds.
 File lengths (MBytes):  RWF=   1517 Int=      0 D2E=      0 Chk=    171 Scr=      1
 Normal termination of Gaussian 16 at Tue Sep 17 10:17:38 2019.
