 Entering Gaussian System, Link 0=g16
 Initial command:
 /home1/apps/gaussian/16rA.03/g16/l1.exe "/scratch/01990/pengzhi/4350483/Gau-186090.inp" -scrdir="/scratch/01990/pengzhi/4350483/"
 Entering Link 1 = /home1/apps/gaussian/16rA.03/g16/l1.exe PID=    186091.
  
 Copyright (c) 1988,1990,1992,1993,1995,1998,2003,2009,2016,
            Gaussian, Inc.  All Rights Reserved.
  
 This is part of the Gaussian(R) 16 program.  It is based on
 the Gaussian(R) 09 system (copyright 2009, Gaussian, Inc.),
 the Gaussian(R) 03 system (copyright 2003, Gaussian, Inc.),
 the Gaussian(R) 98 system (copyright 1998, Gaussian, Inc.),
 the Gaussian(R) 94 system (copyright 1995, Gaussian, Inc.),
 the Gaussian 92(TM) system (copyright 1992, Gaussian, Inc.),
 the Gaussian 90(TM) system (copyright 1990, Gaussian, Inc.),
 the Gaussian 88(TM) system (copyright 1988, Gaussian, Inc.),
 the Gaussian 86(TM) system (copyright 1986, Carnegie Mellon
 University), and the Gaussian 82(TM) system (copyright 1983,
 Carnegie Mellon University). Gaussian is a federally registered
 trademark of Gaussian, Inc.
  
 This software contains proprietary and confidential information,
 including trade secrets, belonging to Gaussian, Inc.
  
 This software is provided under written license and may be
 used, copied, transmitted, or stored only in accord with that
 written license.
  
 The following legend is applicable only to US Government
 contracts under FAR:
  
                    RESTRICTED RIGHTS LEGEND
  
 Use, reproduction and disclosure by the US Government is
 subject to restrictions as set forth in subparagraphs (a)
 and (c) of the Commercial Computer Software - Restricted
 Rights clause in FAR 52.227-19.
  
 Gaussian, Inc.
 340 Quinnipiac St., Bldg. 40, Wallingford CT 06492
  
  
 ---------------------------------------------------------------
 Warning -- This program may not be used in any manner that
 competes with the business of Gaussian, Inc. or will provide
 assistance to any competitor of Gaussian, Inc.  The licensee
 of this program is prohibited from giving any competitor of
 Gaussian, Inc. access to this program.  By using this program,
 the user acknowledges that Gaussian, Inc. is engaged in the
 business of creating and licensing software in the field of
 computational chemistry and represents and warrants to the
 licensee that it is not a competitor of Gaussian, Inc. and that
 it will not use this program in any manner prohibited above.
 ---------------------------------------------------------------
  

 Cite this work as:
 Gaussian 16, Revision A.03,
 M. J. Frisch, G. W. Trucks, H. B. Schlegel, G. E. Scuseria, 
 M. A. Robb, J. R. Cheeseman, G. Scalmani, V. Barone, 
 G. A. Petersson, H. Nakatsuji, X. Li, M. Caricato, A. V. Marenich, 
 J. Bloino, B. G. Janesko, R. Gomperts, B. Mennucci, H. P. Hratchian, 
 J. V. Ortiz, A. F. Izmaylov, J. L. Sonnenberg, D. Williams-Young, 
 F. Ding, F. Lipparini, F. Egidi, J. Goings, B. Peng, A. Petrone, 
 T. Henderson, D. Ranasinghe, V. G. Zakrzewski, J. Gao, N. Rega, 
 G. Zheng, W. Liang, M. Hada, M. Ehara, K. Toyota, R. Fukuda, 
 J. Hasegawa, M. Ishida, T. Nakajima, Y. Honda, O. Kitao, H. Nakai, 
 T. Vreven, K. Throssell, J. A. Montgomery, Jr., J. E. Peralta, 
 F. Ogliaro, M. J. Bearpark, J. J. Heyd, E. N. Brothers, K. N. Kudin, 
 V. N. Staroverov, T. A. Keith, R. Kobayashi, J. Normand, 
 K. Raghavachari, A. P. Rendell, J. C. Burant, S. S. Iyengar, 
 J. Tomasi, M. Cossi, J. M. Millam, M. Klene, C. Adamo, R. Cammi, 
 J. W. Ochterski, R. L. Martin, K. Morokuma, O. Farkas, 
 J. B. Foresman, and D. J. Fox, Gaussian, Inc., Wallingford CT, 2016.
 
 ******************************************
 Gaussian 16:  ES64L-G16RevA.03 25-Dec-2016
                17-Sep-2019 
 ******************************************
 %chk=Ng-295_loop3_22.0.chk
 %nprocshared=48
 Will use up to   48 processors via shared memory.
 %mem=10GB
 %nosave
 ----------------------------------------------------------------------
 #b3lyp/svp scf=(tight,noincore) Test #IOP(5/87=12) Density=Current Pop
 =(MK,readradii) iop(6/33=2) iop(6/42=6)
 ----------------------------------------------------------------------
 1/30=1,38=1,172=1/1;
 2/12=2,17=6,18=5,40=1/2;
 3/5=18,7=101,11=2,25=1,30=1,74=-5/1,2,3;
 4//1;
 5/5=4,32=2,38=5,87=12/2;
 6/7=2,8=2,9=2,10=2,15=8,20=101,22=-1,28=1,33=2,42=6/1,2;
 99/5=1,9=1/99;
 -----------------
 Ng-295_loop3_22.0
 -----------------
 Symbolic Z-matrix:
 Charge =  0 Multiplicity = 1
 C                     9.27      76.       68.52 
 C                     8.45      75.12     67.6 
 O                     7.22      75.14     67.51 
 H                     10.177    76.317    68.005 
 H                     8.686     76.877    68.8 
 H                     9.538     75.44     69.416 
 N                     9.06      74.09     67.02 
 C                     8.49      73.02     66.22 
 C                     8.08      71.79     67.02 
 O                     8.81      70.81     67.16 
 C                     9.46      72.72     65.08 
 C                     8.73      72.15     63.87 
 O                     8.07      72.85     63.07 
 O                     8.62      70.93     63.62 
 H                     10.06     74.07     67.16 
 H                     7.66      73.55     65.74 
 H                     10.26     72.06     65.42 
 H                     9.96      73.66     64.86 
 N                     6.84      71.8      67.5 
 C                     6.27      70.95     68.53 
 C                     6.06      69.48     68.21 
 O                     5.59      68.73     69.06 
 C                     4.98      71.59     69.02 
 C                     5.13      73.06     69.4 
 C                     3.9       73.53     70.17 
 C                     4.01      74.96     70.71 
 N                     5.14      75.13     71.64 
 H                     6.24      72.55     67.17 
 H                     6.94      70.86     69.38 
 H                     4.63      71.03     69.89 
 H                     4.19      71.53     68.28 
 H                     5.29      73.61     68.47 
 H                     6.        73.09     70.05 
 H                     3.62      72.94     71.04 
 H                     3.        73.45     69.57 
 H                     3.06      75.33     71.11 
 H                     4.15      75.61     69.84 
 H                     5.02      74.5      72.42 
 H                     6.04      75.01     71.22 
 H                     5.16      76.09     71.94 
 N                     6.45      68.97     67.03 
 C                     6.37      67.58     66.63 
 C                     7.69      66.94     66.24 
 O                     7.93      65.73     66.2 
 C                     5.19      67.36     65.69 
 C                     4.95      68.43     64.63 
 O                     3.85      68.53     64.04 
 O                     5.84      69.19     64.21 
 H                     6.98      69.59     66.44 
 H                     6.12      66.95     67.49 
 H                     4.32      67.17     66.31 
 H                     5.45      66.45     65.15 
 N                     8.64      67.81     65.91 
 C                     9.94      67.46     65.36 
 C                     9.73      66.79     64.01 
 O                     10.5      65.9      63.64 
 H                     8.39      68.79     65.9 
 H                     10.4      66.74     66.03 
 H                     10.64     68.27     65.2 
 N                     8.73      67.23     63.24 
 C                     8.51      66.72     61.9 
 C                     8.7       67.86     60.91 
 O                     8.13      68.93     61.1 
 C                     7.07      66.22     61.86 
 C                     6.57      65.66     60.53 
 N                     5.77      64.6      60.59 
 O                     7.01      65.98     59.43 
 H                     8.06      67.87     63.63 
 H                     9.22      65.93     61.64 
 H                     6.39      66.98     62.25 
 H                     7.05      65.32     62.48 
 H                     5.36      64.27     61.46 
 H                     5.37      64.27     59.72 
 N                     9.61      67.63     59.96 
 C                     10.15     68.59     59.02 
 C                     10.34     68.11     57.59 
 O                     10.83     68.83     56.73 
 H                     10.05     66.72     59.95 
 H                     11.07     69.04     59.39 
 H                     9.48      69.45     59.1 
 N                     9.89      66.88     57.32 
 C                     10.12     66.41     55.97 
 C                     9.15      66.99     54.95 
 O                     7.97      67.04     55.3 
 C                     10.03     64.89     55.97 
 C                     10.71     64.24     54.8 
 C                     10.02     63.73     53.69 
 C                     12.1      64.39     54.69 
 C                     10.71     63.22     52.59 
 C                     12.81     63.93     53.57 
 C                     12.12     63.31     52.51 
 O                     12.77     62.97     51.37 
 H                     9.64      66.21     58.03 
 H                     11.12     66.71     55.65 
 H                     8.97      64.64     55.99 
 H                     10.43     64.44     56.88 
 H                     8.96      63.54     53.82 
 H                     12.62     64.9      55.49 
 H                     10.15     62.87     51.73 
 H                     13.82     64.27     53.44 
 H                     13.69     63.22     51.47 
 N                     9.6       67.41     53.76 
 C                     8.89      68.09     52.69 
 C                     7.94      67.19     51.92 
 O                     7.28      66.3      52.45 
 C                     8.28      69.47     52.95 
 C                     9.14      70.43     53.77 
 C                     6.86      69.44     53.49 
 C                     10.46     70.73     53.07 
 H                     10.55     67.19     53.5 
 H                     9.64      68.22     51.91 
 H                     8.22      69.88     51.95 
 H                     9.22      70.08     54.8 
 H                     8.61      71.39     53.76 
 H                     6.89      68.93     54.46 
 H                     6.48      70.46     53.47 
 H                     6.19      68.83     52.88 
 H                     11.11     71.35     53.69 
 H                     11.11     69.85     53.07 
 H                     10.2      71.12     52.09 
 N                     7.67      67.49     50.65 
 C                     6.76      66.71     49.84 
 C                     7.15      66.72     48.37 
 O                     6.43      66.1      47.58 
 C                     5.36      67.23     50.13 
 O                     5.21      68.54     49.64 
 H                     8.28      68.15     50.19 
 H                     6.73      65.66     50.13 
 H                     5.3       67.1      51.21 
 H                     4.57      66.55     49.8 
 H                     4.94      68.68     48.73 
 N                     8.24      67.36     47.95 
 C                     8.77      67.48     46.61 
 C                     7.74      67.94     45.58 
 O                     7.17      67.12     44.85 
 C                     9.31      66.11     46.19 
 H                     8.75      67.74     48.74 
 H                     9.64      68.14     46.56 
 H                     8.64      65.29     46.42 
 H                     9.39      66.14     45.11 
 H                     10.27     65.94     46.69 
 N                     7.45      69.24     45.46 
 C                     7.91      70.31     46.32 
 C                     8.52      71.46     45.54 
 O                     8.1       71.66     44.4 
 C                     6.75      70.79     47.2 
 H                     6.77      69.5      44.77 
 H                     8.78      69.96     46.89 
 H                     7.05      71.36     48.08 
 H                     6.13      71.53     46.7 
 H                     6.18      69.92     47.53 
 N                     9.38      72.37     46.01 
 C                     9.77      72.55     47.39 
 C                     11.23     72.94     47.54 
 O                     11.7      72.92     48.67 
 C                     8.86      73.52     48.15 
 C                     8.75      73.28     49.65 
 C                     8.15      74.5      50.33 
 O                     8.84      75.49     50.64 
 O                     6.91      74.47     50.47 
 H                     9.58      73.14     45.38 
 H                     9.7       71.61     47.94 
 H                     7.84      73.48     47.77 
 H                     9.12      74.55     47.9 
 H                     9.75      73.15     50.07 
 H                     8.38      72.31     50. 
 N                     11.95     73.27     46.46 
 C                     13.3      73.79     46.54 
 H                     13.956    73.194    45.906 
 H                     13.311    74.826    46.202 
 H                     13.649    73.74     47.571 
 H                     11.45     73.36     45.58 
 Ca                    6.41      71.03     62.2 
 O                     7.81      71.51     60.11 
 H                     7.75      71.42     59.16 
 H                     8.72      71.77     60.27 
 
 Stoichiometry    C54H83CaN15O23
 Framework group  C1[X(C54H83CaN15O23)]
 Deg. of freedom   522
 Full point group                 C1      NOp   1
 Largest Abelian subgroup         C1      NOp   1
 Largest concise Abelian subgroup C1      NOp   1
                         Standard orientation:                         
 ---------------------------------------------------------------------
 Center     Atomic      Atomic             Coordinates (Angstroms)
 Number     Number       Type             X           Y           Z
 ---------------------------------------------------------------------
      1          6           0      -11.304275    5.373020    2.791560
      2          6           0      -10.403032    4.666548    1.800673
      3          8           0      -10.448935    4.805796    0.575968
      4          1           0      -10.724717    5.657171    3.670044
      5          1           0      -11.723676    6.266528    2.328600
      6          1           0      -12.111912    4.704504    3.089970
      7          7           0       -9.670031    3.649069    2.244348
      8          6           0       -8.843414    2.719882    1.493938
      9          6           0       -9.569121    1.457906    1.044757
     10          8           0       -9.540451    0.407256    1.683673
     11          6           0       -7.582720    2.449420    2.311252
     12          6           0       -6.412526    2.071035    1.411603
     13          8           0       -5.754987    2.903886    0.748577
     14          8           0       -6.067108    0.896950    1.156240
     15          1           0       -9.698538    3.525476    3.246303
     16          1           0       -8.505794    3.367563    0.677407
     17          1           0       -7.773282    1.689601    3.071226
     18          1           0       -7.395381    3.357990    2.878177
     19          7           0      -10.179527    1.531187   -0.134283
     20          6           0      -11.184477    0.637149   -0.681159
     21          6           0      -10.758082   -0.768697   -1.067402
     22          8           0      -11.582998   -1.554633   -1.523163
     23          6           0      -11.866910    1.338210   -1.845890
     24          6           0      -12.359205    2.743448   -1.513097
     25          6           0      -13.297046    3.242684   -2.607591
     26          6           0      -13.948478    4.595889   -2.302511
     27          7           0      -14.762137    4.569964   -1.074509
     28          1           0       -9.985308    2.361234   -0.686280
     29          1           0      -11.945346    0.402876    0.057553
     30          1           0      -12.715734    0.727779   -2.161915
     31          1           0      -11.214438    1.423626   -2.707450
     32          1           0      -11.470655    3.367024   -1.392134
     33          1           0      -12.911209    2.630114   -0.584255
     34          1           0      -14.135589    2.596240   -2.857303
     35          1           0      -12.793292    3.304169   -3.566158
     36          1           0      -14.480681    5.007863   -3.166477
     37          1           0      -13.130498    5.314359   -2.185424
     38          1           0      -15.490648    3.878510   -1.178732
     39          1           0      -14.238052    4.412212   -0.237103
     40          1           0      -15.143398    5.489490   -0.929215
     41          7           0       -9.501696   -1.191183   -0.849229
     42          6           0       -8.989221   -2.521433   -1.106726
     43          6           0       -8.402543   -3.235179    0.097631
     44          8           0       -8.228028   -4.451763    0.210624
     45          6           0       -8.166576   -2.539566   -2.390208
     46          6           0       -7.239450   -1.351799   -2.626318
     47          8           0       -6.783459   -1.094988   -3.763956
     48          8           0       -6.795664   -0.636630   -1.711065
     49          1           0       -8.915989   -0.565435   -0.321226
     50          1           0       -9.811014   -3.209209   -1.331717
     51          1           0       -8.857513   -2.711682   -3.208977
     52          1           0       -7.521883   -3.410705   -2.277118
     53          7           0       -8.051265   -2.425387    1.092186
     54          6           0       -7.334452   -2.833978    2.289780
     55          6           0       -5.960336   -3.344157    1.881096
     56          8           0       -5.430518   -4.258253    2.517979
     57          1           0       -8.156656   -1.430824    0.941397
     58          1           0       -7.883145   -3.655701    2.739900
     59          1           0       -7.173153   -2.078182    3.047708
     60          7           0       -5.345915   -2.741420    0.858504
     61          6           0       -3.997185   -3.093150    0.456865
     62          6           0       -3.099095   -1.881620    0.660406
     63          8           0       -3.445251   -0.789126    0.221620
     64          6           0       -4.068523   -3.455330   -1.022640
     65          6           0       -2.755516   -3.832466   -1.705488
     66          7           0       -2.806137   -4.817026   -2.597273
     67          8           0       -1.647633   -3.444959   -1.347113
     68          1           0       -5.862200   -2.086034    0.297683
     69          1           0       -3.591771   -3.913757    1.055231
     70          1           0       -4.596693   -2.680134   -1.581396
     71          1           0       -4.603495   -4.407328   -1.070657
     72          1           0       -3.682164   -5.194154   -2.949767
     73          1           0       -1.958420   -5.021189   -3.112533
     74          7           0       -2.039307   -2.096314    1.444150
     75          6           0       -1.136611   -1.099574    1.981224
     76          6           0        0.342923   -1.449394    1.979568
     77          8           0        1.182606   -0.693983    2.451147
     78          1           0       -1.899839   -3.036572    1.788045
     79          1           0       -1.443798   -0.773226    2.973662
     80          1           0       -1.365789   -0.195206    1.411577
     81          7           0        0.672221   -2.600864    1.384605
     82          6           0        2.075984   -2.952360    1.431487
     83          6           0        2.928560   -2.188606    0.427748
     84          8           0        2.449756   -2.068085   -0.700800
     85          6           0        2.203065   -4.450502    1.190821
     86          6           0        3.493560   -5.038757    1.683142
     87          6           0        4.563682   -5.371269    0.839001
     88          6           0        3.739495   -5.003926    3.063361
     89          6           0        5.773354   -5.828685    1.362130
     90          6           0        4.966633   -5.411593    3.609291
     91          6           0        5.997155   -5.858104    2.759143
     92          8           0        7.226794   -6.139473    3.255651
     93          1           0        0.002534   -3.313289    1.140740
     94          1           0        2.474088   -2.712890    2.419702
     95          1           0        2.090973   -4.605062    0.118418
     96          1           0        1.385961   -5.023266    1.632275
     97          1           0        4.337285   -5.477365   -0.216502
     98          1           0        2.957873   -4.625174    3.708430
     99          1           0        6.595644   -6.039301    0.687458
    100          1           0        5.174112   -5.152368    4.630249
    101          1           0        7.204920   -5.984333    4.201354
    102          7           0        4.117628   -1.693909    0.797064
    103          6           0        5.038861   -0.849409    0.055748
    104          6           0        5.779321   -1.579016   -1.050956
    105          8           0        5.263242   -2.454650   -1.740542
    106          6           0        4.591166    0.546872   -0.384783
    107          6           0        3.786056    1.339020    0.643760
    108          6           0        3.905465    0.590681   -1.740067
    109          6           0        4.595028    1.587729    1.911083
    110          1           0        4.497724   -1.971232    1.689879
    111          1           0        5.880609   -0.709988    0.733850
    112          1           0        5.537795    1.058464   -0.502538
    113          1           0        2.806491    0.882090    0.790276
    114          1           0        3.652141    2.338904    0.213761
    115          1           0        2.994289   -0.014314   -1.664962
    116          1           0        3.792294    1.637553   -2.016567
    117          1           0        4.491737    0.107318   -2.524761
    118          1           0        3.995789    2.081798    2.677966
    119          1           0        4.744637    0.657345    2.466873
    120          1           0        5.501997    2.095461    1.595307
    121          7           0        6.980419   -1.130593   -1.414384
    122          6           0        7.754010   -1.740883   -2.473489
    123          6           0        9.250697   -1.619105   -2.232244
    124          8           0       10.010661   -2.089902   -3.085300
    125          6           0        7.268474   -1.128874   -3.778939
    126          8           0        7.619423    0.231682   -3.845450
    127          1           0        7.442485   -0.485381   -0.790288
    128          1           0        7.558170   -2.807649   -2.579110
    129          1           0        6.204441   -1.360223   -3.744133
    130          1           0        7.570843   -1.698806   -4.661634
    131          1           0        8.478511    0.485583   -4.189108
    132          7           0        9.726944   -1.040805   -1.130946
    133          6           0       11.100186   -0.835584   -0.727225
    134          6           0       11.966967   -0.184355   -1.803325
    135          8           0       12.701777   -0.872803   -2.521861
    136          6           0       11.697806   -2.199683   -0.370878
    137          1           0        8.965842   -0.788977   -0.509733
    138          1           0       11.184495   -0.254683    0.194972
    139          1           0       11.471354   -2.975077   -1.093155
    140          1           0       12.773007   -2.069223   -0.395855
    141          1           0       11.322058   -2.504297    0.612242
    142          7           0       11.937341    1.141890   -1.972724
    143          6           0       11.039409    2.074958   -1.325266
    144          6           0       11.774177    3.237704   -0.684066
    145          8           0       12.839328    3.587511   -1.193073
    146          6           0        9.999345    2.566827   -2.338543
    147          1           0       12.523418    1.529533   -2.688508
    148          1           0       10.600815    1.593062   -0.442253
    149          1           0        9.109293    3.016794   -1.897365
    150          1           0       10.360604    3.405747   -2.928208
    151          1           0        9.689219    1.722916   -2.956877
    152          7           0       11.320080    4.015277    0.304760
    153          6           0        9.979866    4.020738    0.845772
    154          6           0        9.954368    4.261129    2.345026
    155          8           0        8.888329    4.086200    2.920492
    156          6           0        9.041571    4.987710    0.116959
    157          6           0        7.566211    4.609880    0.132973
    158          6           0        6.718187    5.804747   -0.271933
    159          8           0        6.396883    6.692846    0.540683
    160          8           0        6.447993    5.872363   -1.488700
    161          1           0       11.896148    4.823292    0.517031
    162          1           0        9.512383    3.040586    0.737318
    163          1           0        9.310921    5.077624   -0.934595
    164          1           0        9.224518    6.010011    0.452269
    165          1           0        7.270396    4.349306    1.151745
    166          1           0        7.266946    3.646920   -0.295336
    167          7           0       11.071874    4.631407    2.983598
    168          6           0       11.092063    5.017490    4.379962
    169          1           0       11.844439    4.431343    4.907096
    170          1           0       11.334628    6.076886    4.460613
    171          1           0       10.113635    4.833589    4.822816
    172          1           0       11.880854    4.853415    2.410219
    173         20           0       -4.909599    1.336357   -1.162724
    174          8           0       -2.732018    1.895143    0.063817
    175          1           0       -1.789882    1.906271   -0.098833
    176          1           0       -2.815278    2.055094    1.006570
 ---------------------------------------------------------------------
 Rotational constants (GHZ):           0.0268676           0.0054321           0.0049411
 Standard basis: SVP (5D, 7F)
 There are  1809 symmetry adapted cartesian basis functions of A   symmetry.
 There are  1717 symmetry adapted basis functions of A   symmetry.
  1717 basis functions,  2922 primitive gaussians,  1809 cartesian basis functions
   358 alpha electrons      358 beta electrons
       nuclear repulsion energy     18028.6560727663 Hartrees.
 NAtoms=  176 NActive=  176 NUniq=  176 SFac= 1.00D+00 NAtFMM=   60 NAOKFM=T Big=T
 Integral buffers will be    131072 words long.
 Raffenetti 2 integral format.
 Two-electron integral symmetry is turned on.
 One-electron integrals computed using PRISM.
 NBasis=  1717 RedAO= T EigKep=  3.03D-04  NBF=  1717
 NBsUse=  1717 1.00D-06 EigRej= -1.00D+00 NBFU=  1717
 ExpMin= 1.98D-02 ExpMax= 3.51D+04 ExpMxC= 5.28D+03 IAcc=3 IRadAn=         5 AccDes= 0.00D+00
 Harris functional with IExCor=  402 and IRadAn=       5 diagonalized for initial guess.
 HarFok:  IExCor=  402 AccDes= 0.00D+00 IRadAn=         5 IDoV= 1 UseB2=F ITyADJ=14
 ICtDFT=  3500011 ScaDFX=  1.000000  1.000000  1.000000  1.000000
 FoFCou: FMM=F IPFlag=           0 FMFlag=      100000 FMFlg1=        2001
         NFxFlg=           0 DoJE=T BraDBF=F KetDBF=T FulRan=T
         wScrn=  0.000000 ICntrl=       500 IOpCl=  0 I1Cent=   200000004 NGrid=           0
         NMat0=    1 NMatS0=      1 NMatT0=    0 NMatD0=    1 NMtDS0=    0 NMtDT0=    0
 Petite list used in FoFCou.
 Requested convergence on RMS density matrix=1.00D-08 within 128 cycles.
 Requested convergence on MAX density matrix=1.00D-06.
 Requested convergence on             energy=1.00D-06.
 No special actions if energy rises.
 EnCoef did     2 forward-backward iterations
 EnCoef did     3 forward-backward iterations
 EnCoef did     4 forward-backward iterations
 EnCoef did     1 forward-backward iterations
 EnCoef did     2 forward-backward iterations
 EnCoef did     2 forward-backward iterations
 EnCoef did     6 forward-backward iterations
 EnCoef did    24 forward-backward iterations
 EnCoef did   100 forward-backward iterations
 EnCoef did     5 forward-backward iterations
 Rare condition: small coef for last iteration:  0.666D-15
 EnCoef did   100 forward-backward iterations
 EnCoef did   100 forward-backward iterations
 EnCoef did   100 forward-backward iterations
 EnCoef did   100 forward-backward iterations
 Rare condition: small coef for last iteration:  0.101D-14
 EnCoef did    45 forward-backward iterations
 Restarting incremental Fock formation.
 EnCoef did   100 forward-backward iterations
 EnCoef did   100 forward-backward iterations
 Rare condition: small coef for last iteration:  0.304D-14
 EnCoef did   100 forward-backward iterations
 EnCoef did   100 forward-backward iterations
 EnCoef did   100 forward-backward iterations
 Rare condition: small coef for last iteration: -0.373D-14
 EnCoef did   100 forward-backward iterations
 EnCoef did   100 forward-backward iterations
 EnCoef did   100 forward-backward iterations
 Rare condition: small coef for last iteration:  0.126D-14
 EnCoef did   100 forward-backward iterations
 EnCoef did   100 forward-backward iterations
 EnCoef did   100 forward-backward iterations
 Rare condition: small coef for last iteration:  0.116D-14
 EnCoef did   100 forward-backward iterations
 EnCoef did   100 forward-backward iterations
 Rare condition: small coef for last iteration: -0.382D-15
 EnCoef did   100 forward-backward iterations
 Rare condition: small coef for last iteration: -0.163D-15
 EnCoef did   100 forward-backward iterations
 EnCoef did   100 forward-backward iterations
 EnCoef did   100 forward-backward iterations
 Rare condition: small coef for last iteration:  0.420D-15
 EnCoef did   100 forward-backward iterations
 EnCoef did   100 forward-backward iterations
 Rare condition: small coef for last iteration: -0.191D-14
 EnCoef did   100 forward-backward iterations
 Rare condition: small coef for last iteration:  0.000D+00
 Restarting incremental Fock formation.
 EnCoef did   100 forward-backward iterations
 EnCoef did   100 forward-backward iterations
 Rare condition: small coef for last iteration: -0.166D-14
 EnCoef did   100 forward-backward iterations
 EnCoef did   100 forward-backward iterations
 Rare condition: small coef for last iteration:  0.619D-15
 EnCoef did   100 forward-backward iterations
 EnCoef did   100 forward-backward iterations
 EnCoef did   100 forward-backward iterations
 EnCoef did   100 forward-backward iterations
 Rare condition: small coef for last iteration:  0.000D+00
 Rare condition: small coef for last iteration:  0.000D+00
 Rare condition: small coef for last iteration:  0.000D+00
 Rare condition: small coef for last iteration:  0.000D+00
 Rare condition: small coef for last iteration:  0.000D+00
 Restarting incremental Fock formation.
 EnCoef did   100 forward-backward iterations
 EnCoef did   100 forward-backward iterations
 Rare condition: small coef for last iteration:  0.139D-14
 EnCoef did    22 forward-backward iterations
 Rare condition: small coef for last iteration:  0.000D+00
 EnCoef did   100 forward-backward iterations
 Rare condition: small coef for last iteration:  0.000D+00
 EnCoef did   100 forward-backward iterations
 EnCoef did    56 forward-backward iterations
 EnCoef did    89 forward-backward iterations
 Restarting incremental Fock formation.
 SCF Done:  E(RB3LYP) =  -5333.29773418     A.U. after   81 cycles
            NFock= 81  Conv=0.93D-09     -V/T= 2.0081
 SCF density gives NOpUse=  1 NOpAll=  1.
 Hyperfine terms turned off by default for NAtoms > 100.

 **********************************************************************

            Population analysis using the SCF density.

 **********************************************************************

 Orbital symmetries:
 BldTbl:  Degeneracy threshold= 1.00D-02
       Occupied  (A) (A) (A) (A) (A) (A) (A) (A) (A) (A) (A) (A)
                 (A) (A) (A) (A) (A) (A) (A) (A) (A) (A) (A) (A)
                 (A) (A) (A) (A) (A) (A) (A) (A) (A) (A) (A) (A)
                 (A) (A) (A) (A) (A) (A) (A) (A) (A) (A) (A) (A)
                 (A) (A) (A) (A) (A) (A) (A) (A) (A) (A) (A) (A)
                 (A) (A) (A) (A) (A) (A) (A) (A) (A) (A) (A) (A)
                 (A) (A) (A) (A) (A) (A) (A) (A) (A) (A) (A) (A)
                 (A) (A) (A) (A) (A) (A) (A) (A) (A) (A) (A) (A)
                 (A) (A) (A) (A) (A) (A) (A) (A) (A) (A) (A) (A)
                 (A) (A) (A) (A) (A) (A) (A) (A) (A) (A) (A) (A)
                 (A) (A) (A) (A) (A) (A) (A) (A) (A) (A) (A) (A)
                 (A) (A) (A) (A) (A) (A) (A) (A) (A) (A) (A) (A)
                 (A) (A) (A) (A) (A) (A) (A) (A) (A) (A) (A) (A)
                 (A) (A) (A) (A) (A) (A) (A) (A) (A) (A) (A) (A)
                 (A) (A) (A) (A) (A) (A) (A) (A) (A) (A) (A) (A)
                 (A) (A) (A) (A) (A) (A) (A) (A) (A) (A) (A) (A)
                 (A) (A) (A) (A) (A) (A) (A) (A) (A) (A) (A) (A)
                 (A) (A) (A) (A) (A) (A) (A) (A) (A) (A) (A) (A)
                 (A) (A) (A) (A) (A) (A) (A) (A) (A) (A) (A) (A)
                 (A) (A) (A) (A) (A) (A) (A) (A) (A) (A) (A) (A)
                 (A) (A) (A) (A) (A) (A) (A) (A) (A) (A) (A) (A)
                 (A) (A) (A) (A) (A) (A) (A) (A) (A) (A) (A) (A)
                 (A) (A) (A) (A) (A) (A) (A) (A) (A) (A) (A) (A)
                 (A) (A) (A) (A) (A) (A) (A) (A) (A) (A) (A) (A)
                 (A) (A) (A) (A) (A) (A) (A) (A) (A) (A) (A) (A)
                 (A) (A) (A) (A) (A) (A) (A) (A) (A) (A) (A) (A)
                 (A) (A) (A) (A) (A) (A) (A) (A) (A) (A) (A) (A)
                 (A) (A) (A) (A) (A) (A) (A) (A) (A) (A) (A) (A)
                 (A) (A) (A) (A) (A) (A) (A) (A) (A) (A) (A) (A)
                 (A) (A) (A) (A) (A) (A) (A) (A) (A) (A)
       Virtual   (A) (A) (A) (A) (A) (A) (A) (A) (A) (A) (A) (A)
                 (A) (A) (A) (A) (A) (A) (A) (A) (A) (A) (A) (A)
                 (A) (A) (A) (A) (A) (A) (A) (A) (A) (A) (A) (A)
                 (A) (A) (A) (A) (A) (A) (A) (A) (A) (A) (A) (A)
                 (A) (A) (A) (A) (A) (A) (A) (A) (A) (A) (A) (A)
                 (A) (A) (A) (A) (A) (A) (A) (A) (A) (A) (A) (A)
                 (A) (A) (A) (A) (A) (A) (A) (A) (A) (A) (A) (A)
                 (A) (A) (A) (A) (A) (A) (A) (A) (A) (A) (A) (A)
                 (A) (A) (A) (A) (A) (A) (A) (A) (A) (A) (A) (A)
                 (A) (A) (A) (A) (A) (A) (A) (A) (A) (A) (A) (A)
                 (A) (A) (A) (A) (A) (A) (A) (A) (A) (A) (A) (A)
                 (A) (A) (A) (A) (A) (A) (A) (A) (A) (A) (A) (A)
                 (A) (A) (A) (A) (A) (A) (A) (A) (A) (A) (A) (A)
                 (A) (A) (A) (A) (A) (A) (A) (A) (A) (A) (A) (A)
                 (A) (A) (A) (A) (A) (A) (A) (A) (A) (A) (A) (A)
                 (A) (A) (A) (A) (A) (A) (A) (A) (A) (A) (A) (A)
                 (A) (A) (A) (A) (A) (A) (A) (A) (A) (A) (A) (A)
                 (A) (A) (A) (A) (A) (A) (A) (A) (A) (A) (A) (A)
                 (A) (A) (A) (A) (A) (A) (A) (A) (A) (A) (A) (A)
                 (A) (A) (A) (A) (A) (A) (A) (A) (A) (A) (A) (A)
                 (A) (A) (A) (A) (A) (A) (A) (A) (A) (A) (A) (A)
                 (A) (A) (A) (A) (A) (A) (A) (A) (A) (A) (A) (A)
                 (A) (A) (A) (A) (A) (A) (A) (A) (A) (A) (A) (A)
                 (A) (A) (A) (A) (A) (A) (A) (A) (A) (A) (A) (A)
                 (A) (A) (A) (A) (A) (A) (A) (A) (A) (A) (A) (A)
                 (A) (A) (A) (A) (A) (A) (A) (A) (A) (A) (A) (A)
                 (A) (A) (A) (A) (A) (A) (A) (A) (A) (A) (A) (A)
                 (A) (A) (A) (A) (A) (A) (A) (A) (A) (A) (A) (A)
                 (A) (A) (A) (A) (A) (A) (A) (A) (A) (A) (A) (A)
                 (A) (A) (A) (A) (A) (A) (A) (A) (A) (A) (A) (A)
                 (A) (A) (A) (A) (A) (A) (A) (A) (A) (A) (A) (A)
                 (A) (A) (A) (A) (A) (A) (A) (A) (A) (A) (A) (A)
                 (A) (A) (A) (A) (A) (A) (A) (A) (A) (A) (A) (A)
                 (A) (A) (A) (A) (A) (A) (A) (A) (A) (A) (A) (A)
                 (A) (A) (A) (A) (A) (A) (A) (A) (A) (A) (A) (A)
                 (A) (A) (A) (A) (A) (A) (A) (A) (A) (A) (A) (A)
                 (A) (A) (A) (A) (A) (A) (A) (A) (A) (A) (A) (A)
                 (A) (A) (A) (A) (A) (A) (A) (A) (A) (A) (A) (A)
                 (A) (A) (A) (A) (A) (A) (A) (A) (A) (A) (A) (A)
                 (A) (A) (A) (A) (A) (A) (A) (A) (A) (A) (A) (A)
                 (A) (A) (A) (A) (A) (A) (A) (A) (A) (A) (A) (A)
                 (A) (A) (A) (A) (A) (A) (A) (A) (A) (A) (A) (A)
                 (A) (A) (A) (A) (A) (A) (A) (A) (A) (A) (A) (A)
                 (A) (A) (A) (A) (A) (A) (A) (A) (A) (A) (A) (A)
                 (A) (A) (A) (A) (A) (A) (A) (A) (A) (A) (A) (A)
                 (A) (A) (A) (A) (A) (A) (A) (A) (A) (A) (A) (A)
                 (A) (A) (A) (A) (A) (A) (A) (A) (A) (A) (A) (A)
                 (A) (A) (A) (A) (A) (A) (A) (A) (A) (A) (A) (A)
                 (A) (A) (A) (A) (A) (A) (A) (A) (A) (A) (A) (A)
                 (A) (A) (A) (A) (A) (A) (A) (A) (A) (A) (A) (A)
                 (A) (A) (A) (A) (A) (A) (A) (A) (A) (A) (A) (A)
                 (A) (A) (A) (A) (A) (A) (A) (A) (A) (A) (A) (A)
                 (A) (A) (A) (A) (A) (A) (A) (A) (A) (A) (A) (A)
                 (A) (A) (A) (A) (A) (A) (A) (A) (A) (A) (A) (A)
                 (A) (A) (A) (A) (A) (A) (A) (A) (A) (A) (A) (A)
                 (A) (A) (A) (A) (A) (A) (A) (A) (A) (A) (A) (A)
                 (A) (A) (A) (A) (A) (A) (A) (A) (A) (A) (A) (A)
                 (A) (A) (A) (A) (A) (A) (A) (A) (A) (A) (A) (A)
                 (A) (A) (A) (A) (A) (A) (A) (A) (A) (A) (A) (A)
                 (A) (A) (A) (A) (A) (A) (A) (A) (A) (A) (A) (A)
                 (A) (A) (A) (A) (A) (A) (A) (A) (A) (A) (A) (A)
                 (A) (A) (A) (A) (A) (A) (A) (A) (A) (A) (A) (A)
                 (A) (A) (A) (A) (A) (A) (A) (A) (A) (A) (A) (A)
                 (A) (A) (A) (A) (A) (A) (A) (A) (A) (A) (A) (A)
                 (A) (A) (A) (A) (A) (A) (A) (A) (A) (A) (A) (A)
                 (A) (A) (A) (A) (A) (A) (A) (A) (A) (A) (A) (A)
                 (A) (A) (A) (A) (A) (A) (A) (A) (A) (A) (A) (A)
                 (A) (A) (A) (A) (A) (A) (A) (A) (A) (A) (A) (A)
                 (A) (A) (A) (A) (A) (A) (A) (A) (A) (A) (A) (A)
                 (A) (A) (A) (A) (A) (A) (A) (A) (A) (A) (A) (A)
                 (A) (A) (A) (A) (A) (A) (A) (A) (A) (A) (A) (A)
                 (A) (A) (A) (A) (A) (A) (A) (A) (A) (A) (A) (A)
                 (A) (A) (A) (A) (A) (A) (A) (A) (A) (A) (A) (A)
                 (A) (A) (A) (A) (A) (A) (A) (A) (A) (A) (A) (A)
                 (A) (A) (A) (A) (A) (A) (A) (A) (A) (A) (A) (A)
                 (A) (A) (A) (A) (A) (A) (A) (A) (A) (A) (A) (A)
                 (A) (A) (A) (A) (A) (A) (A) (A) (A) (A) (A) (A)
                 (A) (A) (A) (A) (A) (A) (A) (A) (A) (A) (A) (A)
                 (A) (A) (A) (A) (A) (A) (A) (A) (A) (A) (A) (A)
                 (A) (A) (A) (A) (A) (A) (A) (A) (A) (A) (A) (A)
                 (A) (A) (A) (A) (A) (A) (A) (A) (A) (A) (A) (A)
                 (A) (A) (A) (A) (A) (A) (A) (A) (A) (A) (A) (A)
                 (A) (A) (A) (A) (A) (A) (A) (A) (A) (A) (A) (A)
                 (A) (A) (A) (A) (A) (A) (A) (A) (A) (A) (A) (A)
                 (A) (A) (A) (A) (A) (A) (A) (A) (A) (A) (A) (A)
                 (A) (A) (A) (A) (A) (A) (A) (A) (A) (A) (A) (A)
                 (A) (A) (A) (A) (A) (A) (A) (A) (A) (A) (A) (A)
                 (A) (A) (A) (A) (A) (A) (A) (A) (A) (A) (A) (A)
                 (A) (A) (A) (A) (A) (A) (A) (A) (A) (A) (A) (A)
                 (A) (A) (A) (A) (A) (A) (A) (A) (A) (A) (A) (A)
                 (A) (A) (A) (A) (A) (A) (A) (A) (A) (A) (A) (A)
                 (A) (A) (A) (A) (A) (A) (A) (A) (A) (A) (A) (A)
                 (A) (A) (A) (A) (A) (A) (A) (A) (A) (A) (A) (A)
                 (A) (A) (A) (A) (A) (A) (A) (A) (A) (A) (A) (A)
                 (A) (A) (A) (A) (A) (A) (A) (A) (A) (A) (A) (A)
                 (A) (A) (A) (A) (A) (A) (A) (A) (A) (A) (A) (A)
                 (A) (A) (A) (A) (A) (A) (A) (A) (A) (A) (A) (A)
                 (A) (A) (A) (A) (A) (A) (A) (A) (A) (A) (A) (A)
                 (A) (A) (A) (A) (A) (A) (A) (A) (A) (A) (A) (A)
                 (A) (A) (A) (A) (A) (A) (A) (A) (A) (A) (A) (A)
                 (A) (A) (A) (A) (A) (A) (A) (A) (A) (A) (A) (A)
                 (A) (A) (A) (A) (A) (A) (A) (A) (A) (A) (A) (A)
                 (A) (A) (A) (A) (A) (A) (A) (A) (A) (A) (A) (A)
                 (A) (A) (A) (A) (A) (A) (A) (A) (A) (A) (A) (A)
                 (A) (A) (A) (A) (A) (A) (A) (A) (A) (A) (A) (A)
                 (A) (A) (A) (A) (A) (A) (A) (A) (A) (A) (A) (A)
                 (A) (A) (A) (A) (A) (A) (A) (A) (A) (A) (A) (A)
                 (A) (A) (A) (A) (A) (A) (A) (A) (A) (A) (A) (A)
                 (A) (A) (A) (A) (A) (A) (A) (A) (A) (A) (A) (A)
                 (A) (A) (A) (A) (A) (A) (A) (A) (A) (A) (A) (A)
                 (A) (A) (A) (A) (A) (A) (A) (A) (A) (A) (A) (A)
                 (A) (A) (A) (A) (A) (A) (A) (A) (A) (A) (A) (A)
                 (A) (A) (A) (A) (A) (A) (A) (A) (A) (A) (A) (A)
                 (A) (A) (A)
 The electronic state is 1-A.
 Alpha  occ. eigenvalues -- -145.47991 -19.20886 -19.16320 -19.14613 -19.14552
 Alpha  occ. eigenvalues --  -19.13135 -19.10760 -19.10753 -19.10385 -19.10139
 Alpha  occ. eigenvalues --  -19.09629 -19.09124 -19.09051 -19.08462 -19.07809
 Alpha  occ. eigenvalues --  -19.07448 -19.07265 -19.06983 -19.06968 -19.06487
 Alpha  occ. eigenvalues --  -19.06177 -19.04137 -18.97203 -18.97106 -15.53806
 Alpha  occ. eigenvalues --  -14.57132 -14.40698 -14.40457 -14.38406 -14.36259
 Alpha  occ. eigenvalues --  -14.36101 -14.36014 -14.35290 -14.35219 -14.35084
 Alpha  occ. eigenvalues --  -14.34583 -14.34466 -14.34014 -14.33995 -14.33015
 Alpha  occ. eigenvalues --  -12.67410 -12.67388 -12.67341 -10.35172 -10.33801
 Alpha  occ. eigenvalues --  -10.33209 -10.31023 -10.30048 -10.29410 -10.29400
 Alpha  occ. eigenvalues --  -10.29323 -10.28764 -10.28085 -10.28038 -10.27961
 Alpha  occ. eigenvalues --  -10.27588 -10.26675 -10.26664 -10.26529 -10.26469
 Alpha  occ. eigenvalues --  -10.26309 -10.25846 -10.25635 -10.25503 -10.25424
 Alpha  occ. eigenvalues --  -10.25008 -10.24818 -10.24658 -10.24638 -10.23087
 Alpha  occ. eigenvalues --  -10.22832 -10.22756 -10.22604 -10.22554 -10.22257
 Alpha  occ. eigenvalues --  -10.22201 -10.21319 -10.21155 -10.21074 -10.20897
 Alpha  occ. eigenvalues --  -10.20481 -10.18996 -10.18978 -10.18862 -10.18598
 Alpha  occ. eigenvalues --  -10.18570 -10.18517 -10.18287 -10.16917 -10.16642
 Alpha  occ. eigenvalues --  -10.16178 -10.15396 -10.15003 -10.14692 -10.14510
 Alpha  occ. eigenvalues --  -10.13293 -10.10519  -1.90330  -1.17719  -1.17561
 Alpha  occ. eigenvalues --   -1.17247  -1.13022  -1.08210  -1.07394  -1.06733
 Alpha  occ. eigenvalues --   -1.05664  -1.05541  -1.05370  -1.04202  -1.03739
 Alpha  occ. eigenvalues --   -1.03324  -1.02458  -1.01854  -1.01559  -1.01232
 Alpha  occ. eigenvalues --   -1.01160  -1.00701  -1.00018  -0.99916  -0.98952
 Alpha  occ. eigenvalues --   -0.98319  -0.97567  -0.96893  -0.95250  -0.93398
 Alpha  occ. eigenvalues --   -0.92832  -0.92475  -0.92260  -0.91931  -0.91466
 Alpha  occ. eigenvalues --   -0.90959  -0.90711  -0.90670  -0.90578  -0.90236
 Alpha  occ. eigenvalues --   -0.89831  -0.89695  -0.89369  -0.89193  -0.84962
 Alpha  occ. eigenvalues --   -0.84654  -0.83154  -0.81514  -0.80209  -0.79766
 Alpha  occ. eigenvalues --   -0.79516  -0.78464  -0.78214  -0.77607  -0.76614
 Alpha  occ. eigenvalues --   -0.75631  -0.75378  -0.74804  -0.74378  -0.73833
 Alpha  occ. eigenvalues --   -0.73582  -0.73385  -0.72386  -0.72283  -0.70867
 Alpha  occ. eigenvalues --   -0.70480  -0.70099  -0.69985  -0.68558  -0.68364
 Alpha  occ. eigenvalues --   -0.66823  -0.66199  -0.65555  -0.65341  -0.64886
 Alpha  occ. eigenvalues --   -0.64830  -0.64782  -0.63372  -0.63211  -0.62412
 Alpha  occ. eigenvalues --   -0.62052  -0.61944  -0.61134  -0.60788  -0.59939
 Alpha  occ. eigenvalues --   -0.59871  -0.59828  -0.59373  -0.59278  -0.59182
 Alpha  occ. eigenvalues --   -0.58825  -0.58290  -0.58215  -0.57969  -0.57942
 Alpha  occ. eigenvalues --   -0.57740  -0.57280  -0.56562  -0.56423  -0.55977
 Alpha  occ. eigenvalues --   -0.55541  -0.55091  -0.54768  -0.54565  -0.54412
 Alpha  occ. eigenvalues --   -0.54255  -0.53991  -0.53777  -0.52821  -0.52530
 Alpha  occ. eigenvalues --   -0.52219  -0.52043  -0.51884  -0.51474  -0.51205
 Alpha  occ. eigenvalues --   -0.50826  -0.50789  -0.50528  -0.50436  -0.50313
 Alpha  occ. eigenvalues --   -0.50212  -0.49748  -0.48747  -0.48627  -0.48478
 Alpha  occ. eigenvalues --   -0.48096  -0.47824  -0.47733  -0.47533  -0.47335
 Alpha  occ. eigenvalues --   -0.47220  -0.46780  -0.46564  -0.46356  -0.46285
 Alpha  occ. eigenvalues --   -0.46136  -0.45884  -0.45760  -0.45503  -0.45450
 Alpha  occ. eigenvalues --   -0.45167  -0.45002  -0.44768  -0.44726  -0.44704
 Alpha  occ. eigenvalues --   -0.44596  -0.44402  -0.44190  -0.44078  -0.43956
 Alpha  occ. eigenvalues --   -0.43753  -0.43628  -0.43544  -0.43229  -0.42967
 Alpha  occ. eigenvalues --   -0.42921  -0.42871  -0.42765  -0.42472  -0.42382
 Alpha  occ. eigenvalues --   -0.42224  -0.42012  -0.41690  -0.41406  -0.41334
 Alpha  occ. eigenvalues --   -0.41255  -0.41067  -0.41013  -0.40719  -0.40678
 Alpha  occ. eigenvalues --   -0.40637  -0.40475  -0.40334  -0.40090  -0.39712
 Alpha  occ. eigenvalues --   -0.39595  -0.39518  -0.39388  -0.39221  -0.39201
 Alpha  occ. eigenvalues --   -0.39077  -0.39017  -0.38638  -0.38513  -0.38373
 Alpha  occ. eigenvalues --   -0.38217  -0.38149  -0.38108  -0.37936  -0.37852
 Alpha  occ. eigenvalues --   -0.37291  -0.37266  -0.37193  -0.37113  -0.36976
 Alpha  occ. eigenvalues --   -0.36684  -0.36248  -0.36146  -0.36014  -0.35805
 Alpha  occ. eigenvalues --   -0.35382  -0.35343  -0.35042  -0.34987  -0.34896
 Alpha  occ. eigenvalues --   -0.34654  -0.34404  -0.34361  -0.33644  -0.33317
 Alpha  occ. eigenvalues --   -0.33280  -0.33189  -0.33068  -0.32915  -0.32727
 Alpha  occ. eigenvalues --   -0.32452  -0.32007  -0.31644  -0.30907  -0.30562
 Alpha  occ. eigenvalues --   -0.30138  -0.29973  -0.29827  -0.29701  -0.29447
 Alpha  occ. eigenvalues --   -0.29371  -0.29188  -0.29105  -0.27924  -0.27894
 Alpha  occ. eigenvalues --   -0.27627  -0.27247  -0.27147  -0.26904  -0.26882
 Alpha  occ. eigenvalues --   -0.26627  -0.26570  -0.26377  -0.26256  -0.25636
 Alpha  occ. eigenvalues --   -0.25602  -0.25352  -0.25176  -0.25060  -0.24488
 Alpha  occ. eigenvalues --   -0.24403  -0.23931  -0.23742  -0.23709  -0.23510
 Alpha  occ. eigenvalues --   -0.23481  -0.23262  -0.23126  -0.22939  -0.22540
 Alpha  occ. eigenvalues --   -0.22171  -0.21593  -0.21437  -0.21350  -0.19798
 Alpha  occ. eigenvalues --   -0.14236  -0.13913  -0.11162
 Alpha virt. eigenvalues --   -0.10659  -0.10264  -0.05377  -0.04634  -0.04302
 Alpha virt. eigenvalues --   -0.02744  -0.01646  -0.01381  -0.01223  -0.00874
 Alpha virt. eigenvalues --   -0.00602   0.00027   0.00044   0.00354   0.00913
 Alpha virt. eigenvalues --    0.01125   0.01397   0.01522   0.01724   0.01991
 Alpha virt. eigenvalues --    0.02263   0.02424   0.02709   0.03064   0.03096
 Alpha virt. eigenvalues --    0.03210   0.03226   0.03693   0.03845   0.03915
 Alpha virt. eigenvalues --    0.04295   0.04761   0.04943   0.05067   0.05128
 Alpha virt. eigenvalues --    0.05142   0.05457   0.05702   0.05853   0.06197
 Alpha virt. eigenvalues --    0.06675   0.06744   0.07110   0.07440   0.07491
 Alpha virt. eigenvalues --    0.07726   0.07883   0.08088   0.08408   0.08527
 Alpha virt. eigenvalues --    0.08723   0.08854   0.08954   0.09235   0.09468
 Alpha virt. eigenvalues --    0.09631   0.09683   0.09922   0.10130   0.10305
 Alpha virt. eigenvalues --    0.10487   0.10635   0.11059   0.11198   0.11554
 Alpha virt. eigenvalues --    0.11681   0.11851   0.11992   0.12193   0.12519
 Alpha virt. eigenvalues --    0.12626   0.12731   0.12815   0.13142   0.13206
 Alpha virt. eigenvalues --    0.13550   0.13882   0.14157   0.14307   0.14371
 Alpha virt. eigenvalues --    0.14581   0.14642   0.14909   0.15095   0.15172
 Alpha virt. eigenvalues --    0.15245   0.15393   0.15452   0.15548   0.15650
 Alpha virt. eigenvalues --    0.15826   0.15908   0.16027   0.16191   0.16357
 Alpha virt. eigenvalues --    0.16665   0.16745   0.16878   0.17194   0.17235
 Alpha virt. eigenvalues --    0.17391   0.17499   0.17792   0.17963   0.17998
 Alpha virt. eigenvalues --    0.18393   0.18601   0.18663   0.18828   0.19193
 Alpha virt. eigenvalues --    0.19228   0.19372   0.19662   0.19846   0.20265
 Alpha virt. eigenvalues --    0.20390   0.20769   0.20961   0.21095   0.21223
 Alpha virt. eigenvalues --    0.21355   0.21489   0.21690   0.22141   0.22516
 Alpha virt. eigenvalues --    0.22579   0.22737   0.22987   0.23280   0.23304
 Alpha virt. eigenvalues --    0.23423   0.23679   0.23816   0.24135   0.24308
 Alpha virt. eigenvalues --    0.24428   0.24520   0.24889   0.25022   0.25254
 Alpha virt. eigenvalues --    0.25333   0.25482   0.25505   0.26157   0.26302
 Alpha virt. eigenvalues --    0.26858   0.27010   0.27353   0.27580   0.27692
 Alpha virt. eigenvalues --    0.27777   0.28169   0.28585   0.28695   0.28942
 Alpha virt. eigenvalues --    0.29134   0.29280   0.29404   0.29757   0.29971
 Alpha virt. eigenvalues --    0.30220   0.30323   0.30471   0.30616   0.31028
 Alpha virt. eigenvalues --    0.31259   0.31292   0.31444   0.31811   0.32011
 Alpha virt. eigenvalues --    0.32082   0.32276   0.32606   0.33050   0.33381
 Alpha virt. eigenvalues --    0.33651   0.33837   0.33930   0.34334   0.34787
 Alpha virt. eigenvalues --    0.35094   0.35649   0.35863   0.36218   0.36384
 Alpha virt. eigenvalues --    0.36875   0.37121   0.37190   0.37714   0.38111
 Alpha virt. eigenvalues --    0.38220   0.38468   0.38614   0.39048   0.39441
 Alpha virt. eigenvalues --    0.39515   0.39848   0.40382   0.40834   0.40888
 Alpha virt. eigenvalues --    0.40938   0.41447   0.41519   0.41642   0.42210
 Alpha virt. eigenvalues --    0.42217   0.42565   0.42678   0.42753   0.43064
 Alpha virt. eigenvalues --    0.43159   0.43311   0.43479   0.43948   0.44019
 Alpha virt. eigenvalues --    0.44190   0.44531   0.44717   0.44852   0.44916
 Alpha virt. eigenvalues --    0.45247   0.45504   0.46064   0.46102   0.46214
 Alpha virt. eigenvalues --    0.46373   0.46608   0.46714   0.46984   0.47199
 Alpha virt. eigenvalues --    0.47310   0.47548   0.47597   0.47736   0.47865
 Alpha virt. eigenvalues --    0.48297   0.48356   0.48649   0.48714   0.48870
 Alpha virt. eigenvalues --    0.49039   0.49222   0.49328   0.49802   0.50153
 Alpha virt. eigenvalues --    0.50256   0.50319   0.50498   0.50551   0.50664
 Alpha virt. eigenvalues --    0.50833   0.50904   0.51326   0.51417   0.51803
 Alpha virt. eigenvalues --    0.52048   0.52246   0.52309   0.52398   0.52523
 Alpha virt. eigenvalues --    0.52807   0.53062   0.53272   0.53471   0.53543
 Alpha virt. eigenvalues --    0.53756   0.54122   0.54176   0.54323   0.54607
 Alpha virt. eigenvalues --    0.54647   0.54784   0.54938   0.55217   0.55307
 Alpha virt. eigenvalues --    0.55561   0.55807   0.56271   0.56398   0.56676
 Alpha virt. eigenvalues --    0.56914   0.57017   0.57405   0.57505   0.57625
 Alpha virt. eigenvalues --    0.57777   0.57936   0.58142   0.58328   0.58507
 Alpha virt. eigenvalues --    0.58542   0.58823   0.58889   0.58965   0.59085
 Alpha virt. eigenvalues --    0.59225   0.59415   0.59535   0.59591   0.59920
 Alpha virt. eigenvalues --    0.60140   0.60198   0.60215   0.60267   0.60606
 Alpha virt. eigenvalues --    0.60675   0.60755   0.60865   0.60991   0.61068
 Alpha virt. eigenvalues --    0.61244   0.61399   0.61552   0.61737   0.61842
 Alpha virt. eigenvalues --    0.61999   0.62024   0.62184   0.62315   0.62566
 Alpha virt. eigenvalues --    0.62606   0.62728   0.62888   0.62923   0.63030
 Alpha virt. eigenvalues --    0.63214   0.63260   0.63499   0.63649   0.63682
 Alpha virt. eigenvalues --    0.64012   0.64059   0.64123   0.64176   0.64205
 Alpha virt. eigenvalues --    0.64312   0.64543   0.64649   0.64769   0.64839
 Alpha virt. eigenvalues --    0.65009   0.65090   0.65267   0.65343   0.65351
 Alpha virt. eigenvalues --    0.65463   0.65585   0.65648   0.65766   0.65926
 Alpha virt. eigenvalues --    0.66050   0.66226   0.66447   0.66638   0.66752
 Alpha virt. eigenvalues --    0.66939   0.67067   0.67123   0.67268   0.67327
 Alpha virt. eigenvalues --    0.67500   0.67607   0.67702   0.67779   0.67868
 Alpha virt. eigenvalues --    0.67969   0.68164   0.68240   0.68308   0.68552
 Alpha virt. eigenvalues --    0.68660   0.69025   0.69084   0.69343   0.69360
 Alpha virt. eigenvalues --    0.69480   0.69543   0.69752   0.69978   0.70063
 Alpha virt. eigenvalues --    0.70149   0.70321   0.70340   0.70404   0.70461
 Alpha virt. eigenvalues --    0.70541   0.70748   0.70946   0.71053   0.71330
 Alpha virt. eigenvalues --    0.71442   0.71715   0.71759   0.72110   0.72291
 Alpha virt. eigenvalues --    0.72437   0.72586   0.72648   0.72755   0.72856
 Alpha virt. eigenvalues --    0.73165   0.73236   0.73531   0.73615   0.73702
 Alpha virt. eigenvalues --    0.73857   0.74026   0.74224   0.74267   0.74486
 Alpha virt. eigenvalues --    0.74556   0.74761   0.74960   0.75031   0.75092
 Alpha virt. eigenvalues --    0.75242   0.75515   0.75608   0.75899   0.76193
 Alpha virt. eigenvalues --    0.76297   0.76395   0.76607   0.76682   0.77096
 Alpha virt. eigenvalues --    0.77578   0.77658   0.77803   0.78183   0.78424
 Alpha virt. eigenvalues --    0.78821   0.78849   0.78997   0.79103   0.79431
 Alpha virt. eigenvalues --    0.79663   0.79826   0.80182   0.80258   0.80543
 Alpha virt. eigenvalues --    0.80702   0.80950   0.81303   0.81671   0.81987
 Alpha virt. eigenvalues --    0.82023   0.82255   0.82737   0.82842   0.82915
 Alpha virt. eigenvalues --    0.83395   0.83621   0.83862   0.84164   0.84393
 Alpha virt. eigenvalues --    0.84553   0.85539   0.85666   0.85895   0.86236
 Alpha virt. eigenvalues --    0.86547   0.86794   0.87156   0.87555   0.87798
 Alpha virt. eigenvalues --    0.87972   0.88175   0.88294   0.88549   0.88728
 Alpha virt. eigenvalues --    0.88769   0.89162   0.89334   0.89466   0.89792
 Alpha virt. eigenvalues --    0.90050   0.90453   0.90929   0.90971   0.91295
 Alpha virt. eigenvalues --    0.91351   0.91948   0.92226   0.92585   0.92709
 Alpha virt. eigenvalues --    0.92902   0.93136   0.93741   0.93888   0.94144
 Alpha virt. eigenvalues --    0.94378   0.94599   0.94722   0.95059   0.95641
 Alpha virt. eigenvalues --    0.95773   0.95827   0.96312   0.96420   0.97134
 Alpha virt. eigenvalues --    0.97260   0.97853   0.97907   0.97978   0.98529
 Alpha virt. eigenvalues --    0.98738   0.98921   0.99312   0.99553   1.00118
 Alpha virt. eigenvalues --    1.00230   1.00457   1.00593   1.00696   1.00895
 Alpha virt. eigenvalues --    1.01080   1.01646   1.02038   1.02218   1.02527
 Alpha virt. eigenvalues --    1.02615   1.02788   1.03077   1.03514   1.03676
 Alpha virt. eigenvalues --    1.04179   1.04313   1.04483   1.05090   1.05238
 Alpha virt. eigenvalues --    1.05344   1.05383   1.06309   1.06356   1.06543
 Alpha virt. eigenvalues --    1.07003   1.07197   1.07489   1.07584   1.07781
 Alpha virt. eigenvalues --    1.08013   1.08485   1.08879   1.09137   1.09409
 Alpha virt. eigenvalues --    1.09694   1.09864   1.10398   1.10568   1.10866
 Alpha virt. eigenvalues --    1.11241   1.11406   1.11804   1.12138   1.12535
 Alpha virt. eigenvalues --    1.12671   1.12961   1.13065   1.13258   1.13502
 Alpha virt. eigenvalues --    1.13695   1.14105   1.14187   1.14593   1.14692
 Alpha virt. eigenvalues --    1.14946   1.15336   1.15619   1.16025   1.16328
 Alpha virt. eigenvalues --    1.16430   1.16514   1.16668   1.16736   1.16869
 Alpha virt. eigenvalues --    1.17177   1.17495   1.18004   1.18375   1.18431
 Alpha virt. eigenvalues --    1.18463   1.18643   1.18881   1.19099   1.19273
 Alpha virt. eigenvalues --    1.19762   1.20071   1.20317   1.20624   1.20878
 Alpha virt. eigenvalues --    1.20977   1.21293   1.21486   1.21719   1.22112
 Alpha virt. eigenvalues --    1.22942   1.23092   1.23291   1.23488   1.23823
 Alpha virt. eigenvalues --    1.24076   1.24352   1.24679   1.25025   1.25161
 Alpha virt. eigenvalues --    1.25290   1.25550   1.25645   1.26286   1.26324
 Alpha virt. eigenvalues --    1.26701   1.26795   1.27156   1.27637   1.27850
 Alpha virt. eigenvalues --    1.28363   1.28478   1.28829   1.29242   1.29323
 Alpha virt. eigenvalues --    1.30086   1.30211   1.30312   1.30655   1.30839
 Alpha virt. eigenvalues --    1.31268   1.31453   1.32162   1.32339   1.32497
 Alpha virt. eigenvalues --    1.33026   1.33414   1.33485   1.33578   1.33768
 Alpha virt. eigenvalues --    1.33996   1.34070   1.34564   1.34872   1.34988
 Alpha virt. eigenvalues --    1.35816   1.35958   1.36289   1.36425   1.36871
 Alpha virt. eigenvalues --    1.37488   1.37774   1.37864   1.37979   1.38176
 Alpha virt. eigenvalues --    1.38350   1.38553   1.38655   1.39439   1.39635
 Alpha virt. eigenvalues --    1.39763   1.40007   1.40484   1.40512   1.41010
 Alpha virt. eigenvalues --    1.41329   1.41508   1.41954   1.42243   1.42576
 Alpha virt. eigenvalues --    1.42819   1.43044   1.43234   1.43945   1.44511
 Alpha virt. eigenvalues --    1.45023   1.45067   1.45264   1.45453   1.45915
 Alpha virt. eigenvalues --    1.46257   1.46484   1.46776   1.46993   1.47188
 Alpha virt. eigenvalues --    1.47761   1.47794   1.48335   1.48457   1.49014
 Alpha virt. eigenvalues --    1.49255   1.49608   1.49928   1.50579   1.50644
 Alpha virt. eigenvalues --    1.50911   1.51115   1.51513   1.51661   1.51987
 Alpha virt. eigenvalues --    1.52452   1.52459   1.53019   1.53465   1.53691
 Alpha virt. eigenvalues --    1.53951   1.54239   1.54378   1.54693   1.54709
 Alpha virt. eigenvalues --    1.54939   1.55440   1.55945   1.56523   1.56694
 Alpha virt. eigenvalues --    1.56982   1.57404   1.57823   1.57861   1.58219
 Alpha virt. eigenvalues --    1.58401   1.58493   1.58800   1.59358   1.59981
 Alpha virt. eigenvalues --    1.60330   1.60844   1.60977   1.61384   1.61580
 Alpha virt. eigenvalues --    1.62009   1.62119   1.62466   1.62797   1.62871
 Alpha virt. eigenvalues --    1.63217   1.63285   1.63685   1.64497   1.64891
 Alpha virt. eigenvalues --    1.65173   1.65442   1.65594   1.65904   1.66128
 Alpha virt. eigenvalues --    1.66370   1.66685   1.66767   1.67180   1.67307
 Alpha virt. eigenvalues --    1.67617   1.67925   1.68192   1.68635   1.69070
 Alpha virt. eigenvalues --    1.69352   1.69490   1.69953   1.70220   1.70435
 Alpha virt. eigenvalues --    1.70521   1.70718   1.71642   1.71722   1.71736
 Alpha virt. eigenvalues --    1.71873   1.72062   1.72199   1.72474   1.72546
 Alpha virt. eigenvalues --    1.72739   1.73095   1.73260   1.73347   1.73394
 Alpha virt. eigenvalues --    1.73548   1.73933   1.74260   1.74321   1.74667
 Alpha virt. eigenvalues --    1.74709   1.74896   1.75109   1.75197   1.75514
 Alpha virt. eigenvalues --    1.75799   1.76023   1.76138   1.76248   1.76369
 Alpha virt. eigenvalues --    1.76741   1.77004   1.77040   1.77282   1.77402
 Alpha virt. eigenvalues --    1.77510   1.77718   1.78012   1.78207   1.78438
 Alpha virt. eigenvalues --    1.78525   1.78665   1.78859   1.79326   1.79372
 Alpha virt. eigenvalues --    1.79852   1.79960   1.80295   1.80560   1.80589
 Alpha virt. eigenvalues --    1.80735   1.80890   1.81261   1.81426   1.81486
 Alpha virt. eigenvalues --    1.81609   1.81644   1.81909   1.82063   1.82327
 Alpha virt. eigenvalues --    1.82348   1.82559   1.82734   1.82839   1.82955
 Alpha virt. eigenvalues --    1.83203   1.83224   1.83343   1.83386   1.83529
 Alpha virt. eigenvalues --    1.83674   1.84011   1.84238   1.84267   1.84390
 Alpha virt. eigenvalues --    1.84603   1.84949   1.85388   1.85432   1.85604
 Alpha virt. eigenvalues --    1.85742   1.85826   1.86221   1.86487   1.86610
 Alpha virt. eigenvalues --    1.86988   1.87136   1.87283   1.87439   1.87693
 Alpha virt. eigenvalues --    1.87710   1.87939   1.88060   1.88225   1.88450
 Alpha virt. eigenvalues --    1.88860   1.88969   1.89268   1.89480   1.89588
 Alpha virt. eigenvalues --    1.89908   1.89985   1.90244   1.90386   1.90478
 Alpha virt. eigenvalues --    1.90706   1.91399   1.91498   1.91605   1.91677
 Alpha virt. eigenvalues --    1.91963   1.92191   1.92260   1.92703   1.92802
 Alpha virt. eigenvalues --    1.92845   1.93189   1.93394   1.93574   1.93668
 Alpha virt. eigenvalues --    1.93967   1.94312   1.94582   1.94693   1.94700
 Alpha virt. eigenvalues --    1.94731   1.94910   1.95077   1.95465   1.95671
 Alpha virt. eigenvalues --    1.95886   1.96230   1.96284   1.96346   1.96670
 Alpha virt. eigenvalues --    1.97435   1.97783   1.97981   1.98113   1.98125
 Alpha virt. eigenvalues --    1.98493   1.98712   1.99137   1.99591   1.99707
 Alpha virt. eigenvalues --    2.00140   2.00332   2.00431   2.00678   2.00811
 Alpha virt. eigenvalues --    2.00972   2.01119   2.01280   2.01486   2.01524
 Alpha virt. eigenvalues --    2.02148   2.02223   2.02467   2.02641   2.02980
 Alpha virt. eigenvalues --    2.03106   2.03622   2.03795   2.03952   2.04144
 Alpha virt. eigenvalues --    2.04446   2.04864   2.05107   2.05324   2.05548
 Alpha virt. eigenvalues --    2.05693   2.05990   2.06164   2.06313   2.06897
 Alpha virt. eigenvalues --    2.07010   2.07309   2.07514   2.07609   2.07988
 Alpha virt. eigenvalues --    2.08107   2.08333   2.08538   2.08938   2.09139
 Alpha virt. eigenvalues --    2.09356   2.09783   2.10207   2.10598   2.10756
 Alpha virt. eigenvalues --    2.10990   2.11086   2.11370   2.11561   2.11757
 Alpha virt. eigenvalues --    2.12148   2.12618   2.12728   2.12917   2.13167
 Alpha virt. eigenvalues --    2.13201   2.13441   2.14071   2.14130   2.14546
 Alpha virt. eigenvalues --    2.14718   2.15482   2.15888   2.16035   2.16262
 Alpha virt. eigenvalues --    2.16514   2.16551   2.17201   2.17679   2.17814
 Alpha virt. eigenvalues --    2.18162   2.18375   2.18711   2.19407   2.19749
 Alpha virt. eigenvalues --    2.20014   2.20129   2.20587   2.20683   2.20982
 Alpha virt. eigenvalues --    2.21216   2.21348   2.21590   2.21889   2.22299
 Alpha virt. eigenvalues --    2.22671   2.22924   2.23055   2.23336   2.23750
 Alpha virt. eigenvalues --    2.24151   2.24365   2.24586   2.24808   2.24929
 Alpha virt. eigenvalues --    2.24974   2.25969   2.26532   2.26588   2.26869
 Alpha virt. eigenvalues --    2.27039   2.27478   2.28298   2.28563   2.28763
 Alpha virt. eigenvalues --    2.29302   2.29924   2.30026   2.30532   2.31265
 Alpha virt. eigenvalues --    2.31421   2.31887   2.32094   2.32206   2.32299
 Alpha virt. eigenvalues --    2.32751   2.32927   2.33024   2.33527   2.33759
 Alpha virt. eigenvalues --    2.33858   2.34461   2.35074   2.35306   2.35451
 Alpha virt. eigenvalues --    2.35788   2.35933   2.36038   2.36543   2.37284
 Alpha virt. eigenvalues --    2.37509   2.37680   2.37792   2.37961   2.38112
 Alpha virt. eigenvalues --    2.38882   2.38998   2.39716   2.39806   2.40039
 Alpha virt. eigenvalues --    2.41261   2.41713   2.41792   2.41865   2.42047
 Alpha virt. eigenvalues --    2.43312   2.43655   2.43710   2.43886   2.44040
 Alpha virt. eigenvalues --    2.44220   2.44930   2.45228   2.45325   2.45492
 Alpha virt. eigenvalues --    2.45678   2.46215   2.46334   2.47046   2.47633
 Alpha virt. eigenvalues --    2.47742   2.47799   2.47972   2.48578   2.49087
 Alpha virt. eigenvalues --    2.49149   2.49732   2.49886   2.50076   2.50667
 Alpha virt. eigenvalues --    2.51093   2.51385   2.51888   2.52157   2.52420
 Alpha virt. eigenvalues --    2.52575   2.53438   2.53491   2.53835   2.54248
 Alpha virt. eigenvalues --    2.54549   2.54795   2.55426   2.55632   2.55972
 Alpha virt. eigenvalues --    2.56867   2.57394   2.57669   2.57930   2.57962
 Alpha virt. eigenvalues --    2.58011   2.58390   2.58759   2.59341   2.59734
 Alpha virt. eigenvalues --    2.59892   2.60160   2.60631   2.60713   2.60873
 Alpha virt. eigenvalues --    2.61034   2.61261   2.61371   2.61626   2.62246
 Alpha virt. eigenvalues --    2.62596   2.63204   2.63721   2.63835   2.64007
 Alpha virt. eigenvalues --    2.64079   2.64937   2.65279   2.65408   2.65689
 Alpha virt. eigenvalues --    2.65821   2.65904   2.66636   2.66647   2.66733
 Alpha virt. eigenvalues --    2.66874   2.67085   2.67123   2.67293   2.67914
 Alpha virt. eigenvalues --    2.68747   2.68856   2.69414   2.69527   2.69607
 Alpha virt. eigenvalues --    2.69834   2.70059   2.70116   2.70654   2.71059
 Alpha virt. eigenvalues --    2.71179   2.71502   2.71986   2.72077   2.72297
 Alpha virt. eigenvalues --    2.72444   2.72564   2.72666   2.73044   2.73200
 Alpha virt. eigenvalues --    2.74135   2.74600   2.74785   2.74987   2.75311
 Alpha virt. eigenvalues --    2.75741   2.76522   2.76786   2.76965   2.77094
 Alpha virt. eigenvalues --    2.77421   2.77564   2.77651   2.77688   2.77897
 Alpha virt. eigenvalues --    2.78022   2.78282   2.78817   2.78961   2.79130
 Alpha virt. eigenvalues --    2.79216   2.79366   2.80072   2.80398   2.80705
 Alpha virt. eigenvalues --    2.80801   2.81168   2.81315   2.81551   2.81813
 Alpha virt. eigenvalues --    2.81910   2.82404   2.82618   2.82930   2.83081
 Alpha virt. eigenvalues --    2.83489   2.83702   2.84591   2.85163   2.85254
 Alpha virt. eigenvalues --    2.85681   2.86083   2.86508   2.86691   2.86789
 Alpha virt. eigenvalues --    2.86854   2.86998   2.87504   2.87680   2.87761
 Alpha virt. eigenvalues --    2.88193   2.88458   2.88818   2.88840   2.88922
 Alpha virt. eigenvalues --    2.89310   2.89507   2.90327   2.91036   2.91184
 Alpha virt. eigenvalues --    2.91857   2.92061   2.92317   2.92384   2.92629
 Alpha virt. eigenvalues --    2.92820   2.92993   2.93076   2.93373   2.93507
 Alpha virt. eigenvalues --    2.93687   2.94058   2.94269   2.94494   2.94720
 Alpha virt. eigenvalues --    2.94999   2.95346   2.95930   2.96233   2.96423
 Alpha virt. eigenvalues --    2.96678   2.97279   2.98263   2.98387   2.98542
 Alpha virt. eigenvalues --    2.99070   2.99200   2.99259   2.99439   2.99699
 Alpha virt. eigenvalues --    3.00530   3.00553   3.00729   3.01004   3.01178
 Alpha virt. eigenvalues --    3.01755   3.02100   3.02353   3.02839   3.03087
 Alpha virt. eigenvalues --    3.03388   3.03637   3.04193   3.05562   3.06131
 Alpha virt. eigenvalues --    3.06653   3.06966   3.07949   3.08807   3.09109
 Alpha virt. eigenvalues --    3.09247   3.09512   3.09922   3.10432   3.10756
 Alpha virt. eigenvalues --    3.10822   3.11091   3.11861   3.12112   3.12737
 Alpha virt. eigenvalues --    3.12920   3.13367   3.13434   3.13552   3.14250
 Alpha virt. eigenvalues --    3.14370   3.14883   3.15066   3.15174   3.16118
 Alpha virt. eigenvalues --    3.16238   3.16566   3.16768   3.16952   3.17284
 Alpha virt. eigenvalues --    3.17439   3.17854   3.18005   3.18085   3.18426
 Alpha virt. eigenvalues --    3.18551   3.19365   3.19447   3.19516   3.20187
 Alpha virt. eigenvalues --    3.20330   3.20831   3.20940   3.21489   3.21696
 Alpha virt. eigenvalues --    3.21997   3.22860   3.22995   3.23937   3.25644
 Alpha virt. eigenvalues --    3.26528   3.27270   3.27900   3.28379   3.28586
 Alpha virt. eigenvalues --    3.29254   3.31090   3.32454   3.32524   3.33050
 Alpha virt. eigenvalues --    3.36559   3.36772   3.38873   3.39463   3.39854
 Alpha virt. eigenvalues --    3.40754   3.43795   3.44903   3.46325   3.49355
 Alpha virt. eigenvalues --    3.51581   3.51924   3.53315   3.53896   3.54374
 Alpha virt. eigenvalues --    3.54741   3.54834   3.55214   3.56953   3.57675
 Alpha virt. eigenvalues --    3.58462   3.58577   3.58721   3.59286   3.60074
 Alpha virt. eigenvalues --    3.60825   3.61172   3.63569   3.64275   3.65678
 Alpha virt. eigenvalues --    3.66372   3.66690   3.67142   3.67767   3.68232
 Alpha virt. eigenvalues --    3.68602   3.68937   3.69627   3.69920   3.70514
 Alpha virt. eigenvalues --    3.70540   3.71296   3.72175   3.73908   3.74287
 Alpha virt. eigenvalues --    3.74492   3.79063   3.80713   3.81634
          Condensed to atoms (all electrons):
 Mulliken charges:
               1
     1  C    0.040763
     2  C    0.025135
     3  O   -0.319917
     4  H    0.042957
     5  H    0.028542
     6  H    0.041556
     7  N   -0.129749
     8  C    0.043289
     9  C    0.109412
    10  O   -0.265146
    11  C    0.160451
    12  C    0.066344
    13  O   -0.456769
    14  O   -0.403297
    15  H    0.115119
    16  H    0.015088
    17  H    0.017676
    18  H   -0.006203
    19  N   -0.134546
    20  C    0.176621
    21  C    0.049463
    22  O   -0.283908
    23  C   -0.034151
    24  C    0.025446
    25  C   -0.019627
    26  C    0.041491
    27  N    0.160937
    28  H    0.133848
    29  H    0.021295
    30  H    0.029041
    31  H    0.014246
    32  H    0.038111
    33  H   -0.033347
    34  H    0.015922
    35  H    0.038923
    36  H    0.064742
    37  H    0.060175
    38  H    0.114991
    39  H    0.118986
    40  H    0.100437
    41  N   -0.116958
    42  C    0.119958
    43  C    0.037344
    44  O   -0.270561
    45  C    0.094810
    46  C    0.062631
    47  O   -0.360445
    48  O   -0.450878
    49  H    0.126405
    50  H    0.028294
    51  H    0.020448
    52  H    0.011538
    53  N   -0.175265
    54  C    0.275430
    55  C    0.003056
    56  O   -0.288187
    57  H    0.118055
    58  H    0.022240
    59  H    0.041144
    60  N   -0.131366
    61  C    0.091222
    62  C    0.161490
    63  O   -0.341277
    64  C    0.030769
    65  C    0.010913
    66  N   -0.049874
    67  O   -0.271170
    68  H    0.122131
    69  H    0.003492
    70  H    0.052354
    71  H    0.036170
    72  H    0.123955
    73  H    0.135785
    74  N   -0.148536
    75  C    0.232321
    76  C    0.051755
    77  O   -0.272555
    78  H    0.129430
    79  H    0.029274
    80  H   -0.009981
    81  N   -0.102783
    82  C    0.102349
    83  C    0.101217
    84  O   -0.264731
    85  C    0.146460
    86  C   -0.065931
    87  C    0.013856
    88  C   -0.041147
    89  C   -0.021008
    90  C   -0.038927
    91  C    0.152535
    92  O   -0.178432
    93  H    0.117331
    94  H   -0.014131
    95  H    0.012610
    96  H   -0.009823
    97  H   -0.000769
    98  H   -0.027399
    99  H   -0.011598
   100  H   -0.037284
   101  H    0.170624
   102  N   -0.106637
   103  C    0.157305
   104  C    0.048418
   105  O   -0.264278
   106  C   -0.101313
   107  C    0.032048
   108  C    0.080958
   109  C    0.034158
   110  H    0.126275
   111  H   -0.036825
   112  H   -0.024616
   113  H    0.002795
   114  H    0.009787
   115  H    0.022599
   116  H    0.009083
   117  H    0.009743
   118  H    0.002999
   119  H   -0.026447
   120  H    0.033185
   121  N   -0.149443
   122  C    0.126664
   123  C    0.010997
   124  O   -0.272479
   125  C    0.261545
   126  O   -0.338371
   127  H    0.108517
   128  H    0.027357
   129  H    0.018884
   130  H   -0.000533
   131  H    0.190734
   132  N   -0.105655
   133  C   -0.000022
   134  C    0.070858
   135  O   -0.250749
   136  C    0.097427
   137  H    0.085902
   138  H    0.026954
   139  H    0.038921
   140  H    0.014556
   141  H   -0.014084
   142  N   -0.084048
   143  C    0.043046
   144  C    0.043976
   145  O   -0.288839
   146  C    0.068489
   147  H    0.125313
   148  H   -0.004075
   149  H    0.044965
   150  H    0.026800
   151  H   -0.012028
   152  N   -0.090364
   153  C    0.069061
   154  C    0.064539
   155  O   -0.260172
   156  C    0.065899
   157  C    0.044816
   158  C    0.042141
   159  O   -0.336063
   160  O   -0.346584
   161  H    0.121565
   162  H    0.006832
   163  H   -0.006525
   164  H   -0.007996
   165  H   -0.006177
   166  H   -0.038365
   167  N   -0.156587
   168  C    0.122586
   169  H    0.016735
   170  H    0.022344
   171  H    0.053038
   172  H    0.101180
   173  Ca   1.383918
   174  O   -0.312245
   175  H    0.202833
   176  H    0.210043
 Sum of Mulliken charges =  -0.00000
 Mulliken charges with hydrogens summed into heavy atoms:
               1
     1  C    0.153817
     2  C    0.025135
     3  O   -0.319917
     7  N   -0.014630
     8  C    0.058377
     9  C    0.109412
    10  O   -0.265146
    11  C    0.171924
    12  C    0.066344
    13  O   -0.456769
    14  O   -0.403297
    19  N   -0.000698
    20  C    0.197917
    21  C    0.049463
    22  O   -0.283908
    23  C    0.009136
    24  C    0.030209
    25  C    0.035218
    26  C    0.166408
    27  N    0.495351
    41  N    0.009447
    42  C    0.148252
    43  C    0.037344
    44  O   -0.270561
    45  C    0.126796
    46  C    0.062631
    47  O   -0.360445
    48  O   -0.450878
    53  N   -0.057210
    54  C    0.338813
    55  C    0.003056
    56  O   -0.288187
    60  N   -0.009234
    61  C    0.094715
    62  C    0.161490
    63  O   -0.341277
    64  C    0.119294
    65  C    0.010913
    66  N    0.209866
    67  O   -0.271170
    74  N   -0.019105
    75  C    0.251613
    76  C    0.051755
    77  O   -0.272555
    81  N    0.014548
    82  C    0.088218
    83  C    0.101217
    84  O   -0.264731
    85  C    0.149246
    86  C   -0.065931
    87  C    0.013087
    88  C   -0.068546
    89  C   -0.032606
    90  C   -0.076211
    91  C    0.152535
    92  O   -0.007809
   102  N    0.019638
   103  C    0.120480
   104  C    0.048418
   105  O   -0.264278
   106  C   -0.125929
   107  C    0.044631
   108  C    0.122384
   109  C    0.043895
   121  N   -0.040926
   122  C    0.154022
   123  C    0.010997
   124  O   -0.272479
   125  C    0.279896
   126  O   -0.147637
   132  N   -0.019753
   133  C    0.026932
   134  C    0.070858
   135  O   -0.250749
   136  C    0.136820
   142  N    0.041264
   143  C    0.038971
   144  C    0.043976
   145  O   -0.288839
   146  C    0.128227
   152  N    0.031201
   153  C    0.075893
   154  C    0.064539
   155  O   -0.260172
   156  C    0.051377
   157  C    0.000274
   158  C    0.042141
   159  O   -0.336063
   160  O   -0.346584
   167  N   -0.055406
   168  C    0.214704
   173  Ca   1.383918
   174  O    0.100631
 DipInt: DoE/N= T F RetVal/Mat= T F Init=T NMatP=  1 IDeriv=0 Min/MaxMlt=  0  4
 Entering OneElI...
 OneElI was handed  1333951383 working-precision words.
 Multipole integrals L=0 to 4 MinM= 0 MaxM= 0.
 Requested accuracy = 0.1000D-12
 PrtBox:  NBox=     1 Levels=  1 BoxLen=   98.75 SMaxX=       53.54
          Shift=           29.273082           11.601922            8.809212
 Box      1 Number                   0 centers from      1 to    809:
 ShPair: Thresh= 1.00D-13 NBox=     1 BxSize= 9.87D+01 RnKept= 3.42D+01
         NSMCal=               327645 NSMKep=              114672
 PrmmSu-InSpLW:  IPartL=    0 NPrtUS=    1 NPrtUL=    1 DoSpLW=F IThBeg=    0 IThEnd=    0 NThAct=    1.
 PrsmSu:  NPrtUS=   1 ThrOK=F IAlg=1 NPAlg=1 LenDen=           0 ISkipM=0 DoSpLW=F IThBeg=    0 IThEnd=    0.
 Prism:   IPart=     0 DynPar=F LinDyn=F Incr=         512.
 PRISM was handed  1325585511 working-precision words and114672 shell-pairs
 IPart=  0 NShTot=      114672 NBatch=         277 AvBLen=       414.0
 PrsmSu-ThDecC:  IPartSL=    0    0 NPrtUSL=    1    1 IThBeg=    0 IThEnd=    0 CPU=   -1 GPU=   -1 NThAct=    1.
 PrSmSu:  NxtVal=            513.
 Electronic moments (au):
       -716.00000000        -24.02180849          3.74106932          2.61001669
    -169043.09689523     -27265.25215444      -9739.85934638       -270.49218998
         97.06426771         -8.69839101     134860.20966519     -20750.97150840
      -2181.60201212     -53924.27329083    -406761.51634504     112942.24168054
     -27438.00620274       3579.88697854     -38666.67727092      -5565.76510705
  -65851716.95941168   -2189171.70929445    -316116.93401951    1835473.43550402
    -429933.68378443     -34611.56988213     100788.27251897     -96624.62473497
     -30881.78733213   -6675186.57734333   -2481607.73457571    -435311.73587462
    -366416.77731320    -424424.48079815      38871.55886874
 Electronic spatial extent (au):  <R**2>=         206048.2084
 DipInt: DoE/N= F T RetVal/Mat= T F Init=T NMatP=  1 IDeriv=0 Min/MaxMlt=  0  4
 Nuclear    moments (au):
        716.00000000          0.00000000         -0.00000000         -0.00000000
     168934.99745968      26805.58031521       9332.37109445         -0.00000000
          0.00000000         -0.00000000    -150862.29354533      20328.30991607
       2398.88381588      51697.85231625     412331.25274572    -112089.67831930
      27092.90295336      -3459.60507497      38632.26971797       5757.57545489
   65568674.19117296    2082723.25221390     284073.95482271   -1973274.80831515
     488582.17163093      10212.84787356     -97606.77414064      97295.97450536
      30526.96463852    6587818.16980186    2383166.08050481     416460.21056356
     359534.13648954     431802.85050580     -43008.99416939
 Total      moments (au):
         -0.00000000        -24.02180849          3.74106932          2.61001669
       -108.09943556       -459.67183923       -407.48825193       -270.49218998
         97.06426771         -8.69839101     -16002.08388014       -422.66159232
        217.28180376      -2226.42097458       5569.73640068        852.56336125
       -345.10324938        120.28190357        -34.40755295        191.81034783
    -283042.76823872    -106448.45708055     -32042.97919680    -137801.37281113
      58648.48784650     -24398.72200857       3181.49837833        671.34977039
       -354.82269361     -87368.40754147     -98441.65407090     -18851.52531106
      -6882.64082366       7378.36970765      -4137.43530065
 Traceless Quadrup. (au):
        216.98707335       -134.58533032        -82.40174303       -270.49218998
         97.06426771         -8.69839101
 Charge=             -0.0000 electrons
 Dipole moment (field-independent basis, Debye):
    X=            -61.0573    Y=              9.5088    Z=              6.6340  Tot=             62.1484
 Quadrupole moment (field-independent basis, Debye-Ang):
   XX=           -145.3974   YY=           -618.2744   ZZ=           -548.0857
   XY=           -363.8213   XZ=            130.5548   YZ=            -11.6996
 Traceless Quadrupole moment (field-independent basis, Debye-Ang):
   XX=            291.8550   YY=           -181.0219   ZZ=           -110.8332
   XY=           -363.8213   XZ=            130.5548   YZ=            -11.6996
 Octapole moment (field-independent basis, Debye-Ang**2):
  XXX=         -11389.6668  YYY=           -300.8342  ZZZ=            154.6528  XYY=          -1584.6807
  XXY=           3964.3238  XXZ=            606.8218  XZZ=           -245.6312  YZZ=             85.6120
  YYZ=            -24.4900  XYZ=            136.5232
 Hexadecapole moment (field-independent basis, Debye-Ang**3):
 XXXX=        -106607.4789 YYYY=         -40093.5933 ZZZZ=         -12068.9225 XXXY=         -51902.6048
 XXXZ=          22089.8328 YYYX=          -9189.7287 YYYZ=           1198.3048 ZZZX=            252.8625
 ZZZY=           -133.6432 XXYY=         -32907.1317 XXZZ=         -37077.8474 YYZZ=          -7100.3884
 XXYZ=          -2592.3326 YYXZ=           2779.0478 ZZXY=          -1558.3565
[...]
 **** Fit       0.001291
 **** Fit      -0.002444
 **** Fit      -0.006026
 **** Fit      -0.009701
 **** Fit      -0.013635
 **** Fit      -0.017914
 **** Fit      -0.022523
 **** Fit      -0.002885
 **** Fit      -0.007436
 **** Fit      -0.011984
 **** Fit      -0.011364
 **** Fit      -0.012347
 **** Fit      -0.013344
 **** Fit      -0.012476
 **** Fit      -0.013629
 **** Fit      -0.015106
 **** Fit      -0.015691
 **** Fit      -0.015228
 **** Fit      -0.013867
 **** Fit      -0.012011
 **** Fit      -0.015248
 **** Fit      -0.016946
 **** Fit      -0.018104
 **** Fit      -0.018574
 **** Fit      -0.018274
 **** Fit      -0.017239
 **** Fit      -0.015636
 **** Fit      -0.013715
 **** Fit      -0.015756
 **** Fit      -0.017940
 **** Fit      -0.019787
 **** Fit      -0.021184
 **** Fit      -0.022012
 **** Fit      -0.022174
 **** Fit      -0.021616
 **** Fit      -0.020375
 **** Fit      -0.018589
 **** Fit      -0.016475
 **** Fit      -0.014242
 **** Fit      -0.019651
 **** Fit      -0.021992
 **** Fit      -0.023983
 **** Fit      -0.025522
 **** Fit      -0.026498
 **** Fit      -0.026801
 **** Fit      -0.026348
 **** Fit      -0.025127
 **** Fit      -0.023228
 **** Fit      -0.020850
 **** Fit      -0.018242
 **** Fit      -0.015612
 **** Fit      -0.021530
 **** Fit      -0.024366
 **** Fit      -0.026934
 **** Fit      -0.029157
 **** Fit      -0.030939
 **** Fit      -0.032165
 **** Fit      -0.032708
 **** Fit      -0.032448
 **** Fit      -0.031316
 **** Fit      -0.029344
 **** Fit      -0.026695
 **** Fit      -0.023633
 **** Fit      -0.020445
 **** Fit      -0.025814
 **** Fit      -0.029226
 **** Fit      -0.032379
 **** Fit      -0.035188
 **** Fit      -0.037544
 **** Fit      -0.039308
 **** Fit      -0.040302
 **** Fit      -0.040329
 **** Fit      -0.039223
 **** Fit      -0.036949
 **** Fit      -0.033669
 **** Fit      -0.029727
 **** Fit      -0.025543
 **** Fit      -0.021483
 **** Fit      -0.030986
 **** Fit      -0.035105
 **** Fit      -0.039007
 **** Fit      -0.042604
 **** Fit      -0.045781
 **** Fit      -0.027273
 **** Fit      -0.038895
 **** Fit      -0.043993
 **** Fit      -0.048933
 **** Fit      -0.046953
 **** Fit       0.004206
 **** Fit       0.005325
 **** Fit       0.006110
 **** Fit       0.006523
 **** Fit       0.006546
 **** Fit       0.002797
 **** Fit       0.003234
 **** Fit       0.004544
 **** Fit       0.005528
 **** Fit       0.006123
 **** Fit       0.006276
 **** Fit       0.005948
 **** Fit       0.005101
 **** Fit      -0.001898
 **** Fit      -0.000061
 **** Fit       0.001673
 **** Fit       0.001963
 **** Fit       0.003554
 **** Fit       0.004818
 **** Fit       0.005666
 **** Fit       0.006027
 **** Fit       0.005843
 **** Fit       0.005065
 **** Fit       0.003638
 **** Fit      -0.005436
 **** Fit      -0.003654
 **** Fit      -0.001760
 **** Fit       0.000152
 **** Fit       0.000322
 **** Fit       0.002408
 **** Fit       0.004119
 **** Fit       0.005326
 **** Fit       0.005934
 **** Fit       0.005874
 **** Fit       0.005096
 **** Fit       0.003557
 **** Fit      -0.006406
 **** Fit      -0.004283
 **** Fit      -0.001974
 **** Fit      -0.001702
 **** Fit       0.001195
 **** Fit       0.003607
 **** Fit       0.005346
 **** Fit       0.006294
 **** Fit       0.006381
 **** Fit       0.005572
 **** Fit       0.003864
 **** Fit      -0.004813
 **** Fit       0.033104
 **** Fit       0.041792
 **** Fit       0.041457
 **** Fit       0.040443
 **** Fit       0.038849
 **** Fit       0.048254
 **** Fit       0.048545
 **** Fit       0.048547
 **** Fit       0.048140
 **** Fit       0.047398
 **** Fit       0.046521
 **** Fit       0.045807
 **** Fit       0.045601
 **** Fit       0.046239
 **** Fit       0.047967
 **** Fit       0.050861
 **** Fit       0.054756
 **** Fit       0.059191
 **** Fit       0.053679
 **** Fit       0.054035
 **** Fit       0.054465
 **** Fit       0.054726
 **** Fit       0.054740
 **** Fit       0.054562
 **** Fit       0.054333
 **** Fit       0.054256
 **** Fit       0.054541
 **** Fit       0.055370
 **** Fit       0.056831
 **** Fit       0.058877
 **** Fit       0.061268
 **** Fit       0.063499
 **** Fit       0.064673
 **** Fit       0.030396
 **** Fit       0.058005
 **** Fit       0.057985
 **** Fit       0.058370
 **** Fit       0.058949
 **** Fit       0.059513
 **** Fit       0.059935
 **** Fit       0.060188
 **** Fit       0.060327
 **** Fit       0.060460
 **** Fit       0.060714
 **** Fit       0.061201
 **** Fit       0.061966
 **** Fit       0.062950
 **** Fit       0.063936
 **** Fit       0.064487
 **** Fit       0.063861
 **** Fit       0.060989
 **** Fit       0.054663
 **** Fit       0.023603
 **** Fit       0.028378
 **** Fit       0.034401
 **** Fit       0.040966
 **** Fit       0.052990
 **** Fit       0.056380
 **** Fit       0.058555
 **** Fit       0.059730
 **** Fit       0.060357
 **** Fit       0.060863
 **** Fit       0.061465
 **** Fit       0.062180
 **** Fit       0.062916
 **** Fit       0.063570
 **** Fit       0.064084
 **** Fit       0.064453
 **** Fit       0.064717
 **** Fit       0.064939
 **** Fit       0.065170
 **** Fit       0.065415
 **** Fit       0.065593
 **** Fit       0.065491
 **** Fit       0.064716
 **** Fit       0.062644
 **** Fit       0.058427
 **** Fit       0.051116
 **** Fit       0.039932
 **** Fit       0.026883
 **** Fit       0.029492
 **** Fit       0.033410
 **** Fit       0.038235
 **** Fit       0.043452
 **** Fit       0.048540
 **** Fit       0.053925
 **** Fit       0.057155
 **** Fit       0.059528
 **** Fit       0.061192
 **** Fit       0.062424
 **** Fit       0.063467
 **** Fit       0.064443
 **** Fit       0.065355
 **** Fit       0.066152
 **** Fit       0.066784
 **** Fit       0.067229
 **** Fit       0.067494
 **** Fit       0.067593
 **** Fit       0.067511
 **** Fit       0.067169
 **** Fit       0.066372
 **** Fit       0.064767
 **** Fit       0.061793
 **** Fit       0.056686
 **** Fit       0.048549
 **** Fit       0.036533
 **** Fit       0.025168
 **** Fit       0.029013
 **** Fit       0.032514
 **** Fit       0.036405
 **** Fit       0.040788
 **** Fit       0.045415
 **** Fit       0.049919
 **** Fit       0.054961
 **** Fit       0.058171
 **** Fit       0.060704
 **** Fit       0.062663
 **** Fit       0.064224
 **** Fit       0.065530
 **** Fit       0.066645
 **** Fit       0.067564
 **** Fit       0.068253
 **** Fit       0.068678
 **** Fit       0.068812
 **** Fit       0.068612
 **** Fit       0.067992
 **** Fit       0.066766
 **** Fit       0.064609
 **** Fit       0.061006
 **** Fit       0.055239
 **** Fit       0.046420
 **** Fit       0.033585
 **** Fit       0.018768
 **** Fit       0.026859
 **** Fit       0.032684
 **** Fit       0.037596
 **** Fit       0.042257
 **** Fit       0.046807
 **** Fit       0.051116
 **** Fit       0.055592
 **** Fit       0.058886
 **** Fit       0.061559
 **** Fit       0.063692
 **** Fit       0.065398
 **** Fit       0.066761
 **** Fit       0.067807
 **** Fit       0.068515
 **** Fit       0.068841
 **** Fit       0.068719
 **** Fit       0.068046
 **** Fit       0.066642
 **** Fit       0.064203
 **** Fit       0.060251
 **** Fit       0.054103
 **** Fit       0.044876
 **** Fit       0.031503
 **** Fit       0.020002
 **** Fit       0.029525
 **** Fit       0.036518
 **** Fit       0.042214
 **** Fit       0.047209
 **** Fit       0.051679
 **** Fit       0.055493
 **** Fit       0.059061
 **** Fit       0.061918
 **** Fit       0.064146
 **** Fit       0.065829
 **** Fit       0.067000
 **** Fit       0.067638
 **** Fit       0.067667
 **** Fit       0.066954
 **** Fit       0.065277
 **** Fit       0.062278
 **** Fit       0.057400
 **** Fit       0.049857
 **** Fit       0.038620
 **** Fit       0.020927
 **** Fit       0.031788
 **** Fit       0.039725
 **** Fit       0.045977
 **** Fit       0.051156
 **** Fit       0.054446
 **** Fit       0.058389
 **** Fit       0.061390
 **** Fit       0.063544
 **** Fit       0.064892
 **** Fit       0.065397
 **** Fit       0.064924
 **** Fit       0.063224
 **** Fit       0.059883
 **** Fit       0.054271
 **** Fit       0.045510
 **** Fit       0.032510
 **** Fit       0.023458
 **** Fit       0.034762
 **** Fit       0.043051
 **** Fit       0.049422
 **** Fit       0.052304
 **** Fit       0.056858
 **** Fit       0.059886
 **** Fit       0.061466
 **** Fit       0.061501
 **** Fit       0.059674
 **** Fit       0.055404
 **** Fit       0.047813
 **** Fit       0.035858
 **** Fit       0.025306
 **** Fit       0.037278
 **** Fit       0.045960
 **** Fit       0.048973
 **** Fit       0.054118
 **** Fit       0.056284
 **** Fit       0.055232
 **** Fit       0.050204
 **** Fit       0.040188
 **** Fit       0.028657
 **** Fit       0.040615
 **** Fit       0.044427
 **** Fit       0.048926
 **** Fit       0.044536
 **** Fit       0.032182
 **** Fit       0.033285
 **** Fit       0.038746
 **** Fit       0.027725
 **** Fit       0.025161
 **** Fit       0.023858
 **** Fit       0.022562
 **** Fit       0.021046
 **** Fit       0.018914
 **** Fit       0.015515
 **** Fit       0.024249
 **** Fit       0.022752
 **** Fit       0.021467
 **** Fit       0.020201
 **** Fit       0.018625
 **** Fit       0.016192
 **** Fit       0.011987
 **** Fit       0.022605
 **** Fit       0.021389
 **** Fit       0.020440
 **** Fit       0.019516
 **** Fit       0.018235
 **** Fit       0.015975
 **** Fit       0.023160
 **** Fit       0.022160
 **** Fit       0.021643
 **** Fit       0.021441
 **** Fit       0.021304
 **** Fit       0.020846
 **** Fit       0.024496
 **** Fit       0.023994
 **** Fit       0.024205
 **** Fit       0.025057
 **** Fit       0.026460
 **** Fit       0.028309
 **** Fit       0.026972
 **** Fit       0.027229
 **** Fit       0.028472
 **** Fit       0.030781
 **** Fit       0.034311
 **** Fit       0.030508
 **** Fit       0.031073
 **** Fit       0.032944
 **** Fit       0.036372
 **** Fit       0.041761
 **** Fit       0.035771
 **** Fit       0.038637
 **** Fit       0.043697
 **** Fit       0.020803
 **** Fit       0.041095
 **** Fit       0.045056
 **** Fit       0.051881
 **** Fit       0.031167
 **** Fit       0.044546
 **** Fit       0.047669
 **** Fit       0.053538
 **** Fit       0.041128
 **** Fit       0.048896
 **** Fit       0.051277
 **** Fit       0.056303
 **** Fit       0.048319
 **** Fit       0.019994
 **** Fit       0.022383
 **** Fit       0.025454
 **** Fit       0.028894
 **** Fit       0.014902
 **** Fit       0.017567
 **** Fit       0.020446
 **** Fit       0.023353
 **** Fit       0.026326
 **** Fit       0.011799
 **** Fit       0.014297
 **** Fit       0.016856
 **** Fit       0.019358
 **** Fit       0.021822
 **** Fit       0.024263
 **** Fit       0.010294
 **** Fit       0.012473
 **** Fit       0.014746
 **** Fit       0.016996
 **** Fit       0.019219
 **** Fit       0.021408
 **** Fit       0.023485
 **** Fit       0.008585
 **** Fit       0.009753
 **** Fit       0.011587
 **** Fit       0.013563
 **** Fit       0.015565
 **** Fit       0.017580
 **** Fit       0.019598
 **** Fit       0.021545
 **** Fit       0.023273
 **** Fit       0.007639
 **** Fit       0.009796
 **** Fit       0.011492
 **** Fit       0.013306
 **** Fit       0.015162
 **** Fit       0.017062
 **** Fit       0.019006
 **** Fit       0.020929
 **** Fit       0.022702
 **** Fit       0.007327
 **** Fit       0.008344
 **** Fit       0.010427
 **** Fit       0.012185
 **** Fit       0.014010
 **** Fit       0.015878
 **** Fit       0.017819
 **** Fit       0.019840
 **** Fit       0.021879
 **** Fit       0.023820
 **** Fit       0.006325
 **** Fit       0.006524
 **** Fit       0.007433
 **** Fit       0.008808
 **** Fit       0.011829
 **** Fit       0.013692
 **** Fit       0.015603
 **** Fit       0.017579
 **** Fit       0.019672
 **** Fit       0.021893
 **** Fit       0.024197
 **** Fit       0.026518
 **** Fit       0.006229
 **** Fit       0.006520
 **** Fit       0.007245
 **** Fit       0.008486
 **** Fit       0.010065
 **** Fit       0.014181
 **** Fit       0.016058
 **** Fit       0.018034
 **** Fit       0.020138
 **** Fit       0.022430
 **** Fit       0.024938
 **** Fit       0.027675
 **** Fit       0.009913
 **** Fit       0.009352
 **** Fit       0.009301
 **** Fit       0.009848
 **** Fit       0.010955
 **** Fit       0.012448
 **** Fit       0.017572
 **** Fit       0.019486
 **** Fit       0.021654
 **** Fit       0.024111
 **** Fit       0.026937
 **** Fit       0.030230
 **** Fit       0.016621
 **** Fit       0.014837
 **** Fit       0.014346
 **** Fit       0.014816
 **** Fit       0.015967
 **** Fit       0.022034
 **** Fit       0.023919
 **** Fit       0.026342
 **** Fit       0.029355
 **** Fit       0.033118
 **** Fit       0.037966
 **** Fit       0.023882
 **** Fit       0.021197
 **** Fit       0.020360
 **** Fit       0.020770
 **** Fit       0.027659
 **** Fit       0.029616
 **** Fit       0.032712
 **** Fit       0.037109
 **** Fit       0.031713
 **** Fit       0.028043
 **** Fit       0.026980
 **** Fit       0.034716
 **** Fit       0.037213
 **** Fit       0.042577
 **** Fit       0.040271
 **** Fit       0.035321
 **** Fit       0.043775
 **** Fit       0.048853
 **** Fit       0.027229
 **** Fit       0.028163
 **** Fit       0.027423
 **** Fit       0.026319
 **** Fit       0.025458
 **** Fit       0.026310
 **** Fit       0.028129
 **** Fit       0.028332
 **** Fit       0.027718
 **** Fit       0.027170
 **** Fit       0.026285
 **** Fit       0.025022
 **** Fit       0.023752
 **** Fit       0.022767
 **** Fit       0.022577
 **** Fit       0.024283
 **** Fit       0.027373
 **** Fit       0.029269
 **** Fit       0.027866
 **** Fit       0.027352
 **** Fit       0.027081
 **** Fit       0.026670
 **** Fit       0.025893
 **** Fit       0.024623
 **** Fit       0.022967
 **** Fit       0.021379
 **** Fit       0.020219
 **** Fit       0.017846
 **** Fit       0.018070
 **** Fit       0.020669
 **** Fit       0.029129
 **** Fit       0.027062
 **** Fit       0.026744
 **** Fit       0.026654
 **** Fit       0.026447
 **** Fit       0.025973
 **** Fit       0.025089
 **** Fit       0.023626
 **** Fit       0.021492
 **** Fit       0.018925
 **** Fit       0.013396
 **** Fit       0.026473
 **** Fit       0.026413
 **** Fit       0.026435
 **** Fit       0.026256
 **** Fit       0.025833
 **** Fit       0.025111
 **** Fit       0.023933
 **** Fit       0.022043
 **** Fit       0.019165
 **** Fit       0.015227
 **** Fit       0.026924
 **** Fit       0.027026
 **** Fit       0.026989
 **** Fit       0.026640
 **** Fit       0.026049
 **** Fit       0.025271
 **** Fit       0.024241
 **** Fit       0.022753
 **** Fit       0.020458
 **** Fit       0.016887
 **** Fit       0.028903
 **** Fit       0.027994
 **** Fit       0.026859
 **** Fit       0.025651
 **** Fit       0.024361
 **** Fit       0.022798
 **** Fit       0.020591
 **** Fit       0.017152
 **** Fit       0.025075
 **** Fit       0.023295
 **** Fit       0.021193
 **** Fit       0.018215
 **** Fit       0.013480
 -----------------------------------------------------------------
 Leave Link  602 at Wed Sep 18 00:08:26 2019, MaxMem=  1342177280 cpu:             144.0 elap:               3.0

 Test job not archived.
 1\1\GINC-C506-072\SP\RB3LYP\SVP\C54H83Ca1N15O23\PENGZHI\18-Sep-2019\0\
 \#b3lyp/svp scf=(tight,noincore) Test #IOP(5/87=12) Density=Current Po
 p=(MK,readradii) iop(6/33=2) iop(6/42=6)\\Ng-295_loop3_22.0\\0,1\C,0,9
 .27,76.,68.52\C,0,8.45,75.12,67.6\O,0,7.22,75.14,67.51\H,0,10.177,76.3
 17,68.005\H,0,8.686,76.877,68.8\H,0,9.538,75.44,69.416\N,0,9.06,74.09,
 67.02\C,0,8.49,73.02,66.22\C,0,8.08,71.79,67.02\O,0,8.81,70.81,67.16\C
 ,0,9.46,72.72,65.08\C,0,8.73,72.15,63.87\O,0,8.07,72.85,63.07\O,0,8.62
 ,70.93,63.62\H,0,10.06,74.07,67.16\H,0,7.66,73.55,65.74\H,0,10.26,72.0
 6,65.42\H,0,9.96,73.66,64.86\N,0,6.84,71.8,67.5\C,0,6.27,70.95,68.53\C
 ,0,6.06,69.48,68.21\O,0,5.59,68.73,69.06\C,0,4.98,71.59,69.02\C,0,5.13
 ,73.06,69.4\C,0,3.9,73.53,70.17\C,0,4.01,74.96,70.71\N,0,5.14,75.13,71
 .64\H,0,6.24,72.55,67.17\H,0,6.94,70.86,69.38\H,0,4.63,71.03,69.89\H,0
 ,4.19,71.53,68.28\H,0,5.29,73.61,68.47\H,0,6.,73.09,70.05\H,0,3.62,72.
 94,71.04\H,0,3.,73.45,69.57\H,0,3.06,75.33,71.11\H,0,4.15,75.61,69.84\
 H,0,5.02,74.5,72.42\H,0,6.04,75.01,71.22\H,0,5.16,76.09,71.94\N,0,6.45
 ,68.97,67.03\C,0,6.37,67.58,66.63\C,0,7.69,66.94,66.24\O,0,7.93,65.73,
 66.2\C,0,5.19,67.36,65.69\C,0,4.95,68.43,64.63\O,0,3.85,68.53,64.04\O,
 0,5.84,69.19,64.21\H,0,6.98,69.59,66.44\H,0,6.12,66.95,67.49\H,0,4.32,
 67.17,66.31\H,0,5.45,66.45,65.15\N,0,8.64,67.81,65.91\C,0,9.94,67.46,6
 5.36\C,0,9.73,66.79,64.01\O,0,10.5,65.9,63.64\H,0,8.39,68.79,65.9\H,0,
 10.4,66.74,66.03\H,0,10.64,68.27,65.2\N,0,8.73,67.23,63.24\C,0,8.51,66
 .72,61.9\C,0,8.7,67.86,60.91\O,0,8.13,68.93,61.1\C,0,7.07,66.22,61.86\
 C,0,6.57,65.66,60.53\N,0,5.77,64.6,60.59\O,0,7.01,65.98,59.43\H,0,8.06
 ,67.87,63.63\H,0,9.22,65.93,61.64\H,0,6.39,66.98,62.25\H,0,7.05,65.32,
 62.48\H,0,5.36,64.27,61.46\H,0,5.37,64.27,59.72\N,0,9.61,67.63,59.96\C
 ,0,10.15,68.59,59.02\C,0,10.34,68.11,57.59\O,0,10.83,68.83,56.73\H,0,1
 0.05,66.72,59.95\H,0,11.07,69.04,59.39\H,0,9.48,69.45,59.1\N,0,9.89,66
 .88,57.32\C,0,10.12,66.41,55.97\C,0,9.15,66.99,54.95\O,0,7.97,67.04,55
 .3\C,0,10.03,64.89,55.97\C,0,10.71,64.24,54.8\C,0,10.02,63.73,53.69\C,
 0,12.1,64.39,54.69\C,0,10.71,63.22,52.59\C,0,12.81,63.93,53.57\C,0,12.
 12,63.31,52.51\O,0,12.77,62.97,51.37\H,0,9.64,66.21,58.03\H,0,11.12,66
 .71,55.65\H,0,8.97,64.64,55.99\H,0,10.43,64.44,56.88\H,0,8.96,63.54,53
 .82\H,0,12.62,64.9,55.49\H,0,10.15,62.87,51.73\H,0,13.82,64.27,53.44\H
 ,0,13.69,63.22,51.47\N,0,9.6,67.41,53.76\C,0,8.89,68.09,52.69\C,0,7.94
 ,67.19,51.92\O,0,7.28,66.3,52.45\C,0,8.28,69.47,52.95\C,0,9.14,70.43,5
 3.77\C,0,6.86,69.44,53.49\C,0,10.46,70.73,53.07\H,0,10.55,67.19,53.5\H
 ,0,9.64,68.22,51.91\H,0,8.22,69.88,51.95\H,0,9.22,70.08,54.8\H,0,8.61,
 71.39,53.76\H,0,6.89,68.93,54.46\H,0,6.48,70.46,53.47\H,0,6.19,68.83,5
 2.88\H,0,11.11,71.35,53.69\H,0,11.11,69.85,53.07\H,0,10.2,71.12,52.09\
 N,0,7.67,67.49,50.65\C,0,6.76,66.71,49.84\C,0,7.15,66.72,48.37\O,0,6.4
 3,66.1,47.58\C,0,5.36,67.23,50.13\O,0,5.21,68.54,49.64\H,0,8.28,68.15,
 50.19\H,0,6.73,65.66,50.13\H,0,5.3,67.1,51.21\H,0,4.57,66.55,49.8\H,0,
 4.94,68.68,48.73\N,0,8.24,67.36,47.95\C,0,8.77,67.48,46.61\C,0,7.74,67
 .94,45.58\O,0,7.17,67.12,44.85\C,0,9.31,66.11,46.19\H,0,8.75,67.74,48.
 74\H,0,9.64,68.14,46.56\H,0,8.64,65.29,46.42\H,0,9.39,66.14,45.11\H,0,
 10.27,65.94,46.69\N,0,7.45,69.24,45.46\C,0,7.91,70.31,46.32\C,0,8.52,7
 1.46,45.54\O,0,8.1,71.66,44.4\C,0,6.75,70.79,47.2\H,0,6.77,69.5,44.77\
 H,0,8.78,69.96,46.89\H,0,7.05,71.36,48.08\H,0,6.13,71.53,46.7\H,0,6.18
 ,69.92,47.53\N,0,9.38,72.37,46.01\C,0,9.77,72.55,47.39\C,0,11.23,72.94
 ,47.54\O,0,11.7,72.92,48.67\C,0,8.86,73.52,48.15\C,0,8.75,73.28,49.65\
 C,0,8.15,74.5,50.33\O,0,8.84,75.49,50.64\O,0,6.91,74.47,50.47\H,0,9.58
 ,73.14,45.38\H,0,9.7,71.61,47.94\H,0,7.84,73.48,47.77\H,0,9.12,74.55,4
 7.9\H,0,9.75,73.15,50.07\H,0,8.38,72.31,50.\N,0,11.95,73.27,46.46\C,0,
 13.3,73.79,46.54\H,0,13.956,73.194,45.906\H,0,13.311,74.826,46.202\H,0
 ,13.649,73.74,47.571\H,0,11.45,73.36,45.58\Ca,0,6.41,71.03,62.2\O,0,7.
 81,71.51,60.11\H,0,7.75,71.42,59.16\H,0,8.72,71.77,60.27\\Version=ES64
 L-G16RevA.03\State=1-A\HF=-5333.2977342\RMSD=9.302e-10\Dipole=-0.35333
 78,6.1298065,23.6676086\Quadrupole=-51.6897339,-86.4220645,138.1117984
 ,-45.5486383,-146.8455021,283.5673956\PG=C01 [X(C54H83Ca1N15O23)]\\@


 IT IS BY LOGIC THAT WE PROVE, BUT BY INTUITION THAT WE DISCOVER.
     -- J.H.POINCARE (1854-1912)
 Job cpu time:       0 days 23 hours  6 minutes 14.6 seconds.
 Elapsed time:       0 days  0 hours 29 minutes 16.2 seconds.
 File lengths (MBytes):  RWF=   1517 Int=      0 D2E=      0 Chk=    171 Scr=      1
 Normal termination of Gaussian 16 at Wed Sep 18 00:08:28 2019.
