 Entering Gaussian System, Link 0=g16
 Initial command:
 /home1/apps/gaussian/16rA.03/g16/l1.exe "/scratch/01990/pengzhi/4345052/Gau-74015.inp" -scrdir="/scratch/01990/pengzhi/4345052/"
 Entering Link 1 = /home1/apps/gaussian/16rA.03/g16/l1.exe PID=     74017.
  
 Copyright (c) 1988,1990,1992,1993,1995,1998,2003,2009,2016,
            Gaussian, Inc.  All Rights Reserved.
  
 This is part of the Gaussian(R) 16 program.  It is based on
 the Gaussian(R) 09 system (copyright 2009, Gaussian, Inc.),
 the Gaussian(R) 03 system (copyright 2003, Gaussian, Inc.),
 the Gaussian(R) 98 system (copyright 1998, Gaussian, Inc.),
 the Gaussian(R) 94 system (copyright 1995, Gaussian, Inc.),
 the Gaussian 92(TM) system (copyright 1992, Gaussian, Inc.),
 the Gaussian 90(TM) system (copyright 1990, Gaussian, Inc.),
 the Gaussian 88(TM) system (copyright 1988, Gaussian, Inc.),
 the Gaussian 86(TM) system (copyright 1986, Carnegie Mellon
 University), and the Gaussian 82(TM) system (copyright 1983,
 Carnegie Mellon University). Gaussian is a federally registered
 trademark of Gaussian, Inc.
  
 This software contains proprietary and confidential information,
 including trade secrets, belonging to Gaussian, Inc.
  
 This software is provided under written license and may be
 used, copied, transmitted, or stored only in accord with that
 written license.
  
 The following legend is applicable only to US Government
 contracts under FAR:
  
                    RESTRICTED RIGHTS LEGEND
  
 Use, reproduction and disclosure by the US Government is
 subject to restrictions as set forth in subparagraphs (a)
 and (c) of the Commercial Computer Software - Restricted
 Rights clause in FAR 52.227-19.
  
 Gaussian, Inc.
 340 Quinnipiac St., Bldg. 40, Wallingford CT 06492
  
  
 ---------------------------------------------------------------
 Warning -- This program may not be used in any manner that
 competes with the business of Gaussian, Inc. or will provide
 assistance to any competitor of Gaussian, Inc.  The licensee
 of this program is prohibited from giving any competitor of
 Gaussian, Inc. access to this program.  By using this program,
 the user acknowledges that Gaussian, Inc. is engaged in the
 business of creating and licensing software in the field of
 computational chemistry and represents and warrants to the
 licensee that it is not a competitor of Gaussian, Inc. and that
 it will not use this program in any manner prohibited above.
 ---------------------------------------------------------------
  

 Cite this work as:
 Gaussian 16, Revision A.03,
 M. J. Frisch, G. W. Trucks, H. B. Schlegel, G. E. Scuseria, 
 M. A. Robb, J. R. Cheeseman, G. Scalmani, V. Barone, 
 G. A. Petersson, H. Nakatsuji, X. Li, M. Caricato, A. V. Marenich, 
 J. Bloino, B. G. Janesko, R. Gomperts, B. Mennucci, H. P. Hratchian, 
 J. V. Ortiz, A. F. Izmaylov, J. L. Sonnenberg, D. Williams-Young, 
 F. Ding, F. Lipparini, F. Egidi, J. Goings, B. Peng, A. Petrone, 
 T. Henderson, D. Ranasinghe, V. G. Zakrzewski, J. Gao, N. Rega, 
 G. Zheng, W. Liang, M. Hada, M. Ehara, K. Toyota, R. Fukuda, 
 J. Hasegawa, M. Ishida, T. Nakajima, Y. Honda, O. Kitao, H. Nakai, 
 T. Vreven, K. Throssell, J. A. Montgomery, Jr., J. E. Peralta, 
 F. Ogliaro, M. J. Bearpark, J. J. Heyd, E. N. Brothers, K. N. Kudin, 
 V. N. Staroverov, T. A. Keith, R. Kobayashi, J. Normand, 
 K. Raghavachari, A. P. Rendell, J. C. Burant, S. S. Iyengar, 
 J. Tomasi, M. Cossi, J. M. Millam, M. Klene, C. Adamo, R. Cammi, 
 J. W. Ochterski, R. L. Martin, K. Morokuma, O. Farkas, 
 J. B. Foresman, and D. J. Fox, Gaussian, Inc., Wallingford CT, 2016.
 
 ******************************************
 Gaussian 16:  ES64L-G16RevA.03 25-Dec-2016
                17-Sep-2019 
 ******************************************
 %chk=Ng-293_loop3_36.0.chk
 %nprocshared=48
 Will use up to   48 processors via shared memory.
 %mem=10GB
 %nosave
 ----------------------------------------------------------------------
 #b3lyp/svp scf=(tight,noincore) Test #IOP(5/87=12) Density=Current Pop
 =(MK,readradii) iop(6/33=2) iop(6/42=6)
 ----------------------------------------------------------------------
 1/30=1,38=1,172=1/1;
 2/12=2,17=6,18=5,40=1/2;
 3/5=18,7=101,11=2,25=1,30=1,74=-5/1,2,3;
 4//1;
 5/5=4,32=2,38=5,87=12/2;
 6/7=2,8=2,9=2,10=2,15=8,20=101,22=-1,28=1,33=2,42=6/1,2;
 99/5=1,9=1/99;
 -----------------
 Ng-293_loop3_36.0
 -----------------
 Symbolic Z-matrix:
 Charge =  0 Multiplicity = 1
 C                     61.06     19.01     8.95 
 C                     60.74     20.12     7.97 
 O                     60.26     21.19     8.36 
 H                     61.92     19.297    9.555 
 H                     60.201    18.839    9.599 
 H                     61.29     18.096    8.402 
 N                     61.04     19.95     6.68 
 C                     61.23     20.94     5.64 
 C                     60.03     21.58     4.95 
 O                     60.26     22.42     4.09 
 C                     62.21     21.99     6.14 
 C                     63.39     21.55     7. 
 O                     64.32     20.97     6.41 
 O                     63.37     21.82     8.22 
 H                     61.19     18.99     6.4 
 H                     61.78     20.39     4.88 
 H                     61.57     22.72     6.65 
 H                     62.65     22.44     5.25 
 N                     58.79     21.22     5.28 
 C                     57.64     21.86     4.67 
 C                     57.39     23.31     5.05 
 O                     56.83     24.03     4.23 
 C                     56.41     21.       4.94 
 C                     55.27     21.41     4.01 
 C                     54.02     20.56     4.18 
 C                     52.81     21.12     3.44 
 N                     52.33     22.37     4.05 
 H                     58.6      20.46     5.92 
 H                     57.79     22.03     3.61 
 H                     56.19     21.18     5.99 
 H                     56.66     19.97     4.67 
 H                     55.58     21.32     2.96 
 H                     55.05     22.47     4.13 
 H                     53.69     20.43     5.22 
 H                     54.19     19.58     3.73 
 H                     52.       20.39     3.41 
 H                     53.11     21.3      2.41 
 H                     52.26     22.24     5.05 
 H                     52.98     23.11     3.82 
 H                     51.44     22.72     3.71 
 N                     57.88     23.79     6.19 
 C                     57.65     25.03     6.91 
 C                     58.82     25.26     7.86 
 O                     59.72     24.43     7.98 
 C                     56.33     24.89     7.67 
 C                     55.91     26.24     8.21 
 O                     56.18     27.3      7.6 
 O                     55.17     26.3      9.22 
 H                     58.49     23.17     6.69 
 H                     57.61     25.9      6.26 
 H                     56.41     24.09     8.41 
 H                     55.59     24.56     6.94 
 N                     58.83     26.4      8.55 
 C                     59.53     26.72     9.78 
 C                     58.98     27.92     10.53 
 O                     57.95     28.45     10.12 
 H                     58.18     27.1      8.22 
 H                     60.61     26.82     9.64 
 H                     59.54     25.86     10.45 
 N                     59.69     28.37     11.57 
 C                     59.35     29.55     12.33 
 C                     60.49     30.56     12.3 
 O                     60.43     31.52     13.07 
 C                     58.96     29.06     13.72 
 C                     57.71     28.2      13.86 
 N                     56.74     28.64     14.67 
 O                     57.48     27.19     13.2 
 H                     60.51     27.81     11.79 
 H                     58.51     30.06     11.86 
 H                     58.78     29.91     14.38 
 H                     59.83     28.53     14.1 
 H                     56.85     29.57     15.07 
 H                     55.86     28.15     14.74 
 N                     61.5      30.48     11.43 
 C                     62.6      31.43     11.38 
 C                     63.41     31.43     12.67 
 O                     63.59     30.34     13.21 
 H                     61.61     29.7      10.81 
 H                     62.21     32.42     11.15 
 H                     63.22     31.08     10.55 
 N                     63.84     32.59     13.15 
 C                     64.38     32.97     14.44 
 C                     63.49     32.85     15.66 
 O                     63.81     33.39     16.71 
 C                     65.69     32.21     14.66 
 C                     66.6      32.11     13.46 
 C                     66.65     31.02     12.57 
 C                     67.16     33.31     13.03 
 C                     67.19     31.08     11.28 
 C                     67.66     33.42     11.73 
 C                     67.78     32.29     10.89 
 O                     68.47     32.38     9.72 
 H                     63.45     33.39     12.67 
 H                     64.57     34.04     14.36 
 H                     65.36     31.2      14.91 
 H                     66.26     32.57     15.51 
 H                     66.16     30.11     12.9 
 H                     66.99     34.21     13.61 
 H                     67.19     30.29     10.54 
 H                     68.19     34.3      11.4 
 H                     68.92     33.22     9.62 
 N                     62.39     32.11     15.46 
 C                     61.35     31.65     16.36 
 C                     60.58     32.83     16.94 
 O                     59.42     33.02     16.61 
 C                     61.93     30.71     17.41 
 C                     62.8      29.56     16.91 
 C                     60.84     30.16     18.33 
 C                     63.71     28.79     17.86 
 H                     62.23     31.86     14.5 
 H                     60.65     31.01     15.82 
 H                     62.55     31.26     18.11 
 H                     63.4      29.94     16.09 
 H                     62.11     28.82     16.51 
 H                     61.23     29.38     18.98 
 H                     60.53     30.91     19.06 
 H                     60.07     29.69     17.72 
 H                     63.06     28.25     18.55 
 H                     64.29     28.07     17.28 
 H                     64.44     29.44     18.33 
 N                     61.21     33.59     17.85 
 C                     60.65     34.81     18.38 
 C                     59.49     34.51     19.32 
 O                     58.67     35.38     19.57 
 C                     61.69     35.67     19.08 
 O                     62.66     36.18     18.19 
 H                     62.16     33.4      18.12 
 H                     60.22     35.35     17.53 
 H                     62.16     35.07     19.86 
 H                     61.17     36.49     19.58 
 H                     62.26     35.95     17.35 
 N                     59.28     33.28     19.79 
 C                     58.07     32.76     20.41 
 C                     56.79     33.09     19.66 
 O                     55.77     33.41     20.27 
 C                     58.02     33.23     21.86 
 H                     59.96     32.56     19.57 
 H                     58.1      31.68     20.53 
 H                     57.07     32.84     22.23 
 H                     58.82     32.75     22.42 
 H                     58.05     34.32     21.87 
 N                     56.83     33.07     18.33 
 C                     55.68     33.42     17.52 
 C                     55.29     32.27     16.6 
 O                     56.09     31.44     16.19 
 C                     55.84     34.8      16.89 
 H                     57.73     32.91     17.89 
 H                     54.85     33.53     18.22 
 H                     56.6      34.79     16.11 
 H                     54.86     35.07     16.48 
 H                     56.08     35.48     17.7 
 N                     54.04     32.24     16.15 
 C                     53.39     31.27     15.29 
 C                     53.29     29.88     15.89 
 O                     53.28     28.87     15.18 
 C                     53.71     31.41     13.81 
 C                     52.83     30.78     12.73 
 C                     53.3      30.81     11.28 
 O                     53.51     31.9      10.7 
 O                     53.29     29.74     10.65 
 H                     53.45     32.94     16.59 
 H                     52.33     31.54     15.37 
 H                     54.71     31.03     13.58 
 H                     53.76     32.48     13.61 
 H                     51.88     31.3      12.65 
 H                     52.6      29.74     12.94 
 N                     53.21     29.87     17.22 
 C                     53.31     28.65     18.01 
 H                     53.983    28.817    18.851 
 H                     52.323    28.376    18.384 
 H                     53.7      27.844    17.388 
 H                     53.36     30.75     17.67 
 Ca                    55.48     29.19     9.32 
 O                     55.3      27.95     11.64 
 H                     54.56     27.7      12.18 
 H                     56.07     27.67     12.14 
 
 Stoichiometry    C54H83CaN15O23
 Framework group  C1[X(C54H83CaN15O23)]
 Deg. of freedom   522
 Full point group                 C1      NOp   1
 Largest Abelian subgroup         C1      NOp   1
 Largest concise Abelian subgroup C1      NOp   1
                         Standard orientation:                         
 ---------------------------------------------------------------------
 Center     Atomic      Atomic             Coordinates (Angstroms)
 Number     Number       Type             X           Y           Z
 ---------------------------------------------------------------------
      1          6           0        8.669648    2.585827    5.106264
      2          6           0        8.667254    2.409602    3.601659
      3          8           0        7.719650    1.859276    3.030180
      4          1           0        7.928921    3.335282    5.384895
      5          1           0        8.423239    1.637430    5.583912
      6          1           0        9.657329    2.912165    5.432746
      7          7           0        9.679300    2.912164    2.890185
      8          6           0        9.737714    3.250612    1.483117
      9          6           0        9.954286    2.166151    0.433002
     10          8           0        9.978972    2.517687   -0.739138
     11          6           0        8.540766    4.124648    1.142122
     12          6           0        8.067982    5.159722    2.157355
     13          8           0        8.771831    6.179226    2.278219
     14          8           0        7.003718    4.943303    2.775581
     15          1           0       10.514068    3.117763    3.422530
     16          1           0       10.592058    3.921410    1.430906
     17          1           0        7.756793    3.402053    0.885521
     18          1           0        8.825204    4.693635    0.256940
     19          7           0       10.114887    0.894640    0.798472
     20          6           0       10.267233   -0.153108   -0.193099
     21          6           0        9.040415   -0.480000   -1.028239
     22          8           0        9.216611   -0.913119   -2.162154
     23          6           0       10.808982   -1.398372    0.500605
     24          6           0       11.347789   -2.382470   -0.535658
     25          6           0       11.957707   -3.631802    0.081650
     26          6           0       12.265984   -4.717127   -0.944184
     27          7           0       11.036997   -5.304726   -1.500349
     28          1           0       10.190314    0.616290    1.768076
     29          1           0       10.901016    0.160299   -1.014741
     30          1           0        9.953970   -1.784128    1.051464
     31          1           0       11.671409   -1.094660    1.100837
     32          1           0       12.130498   -1.909094   -1.143920
     33          1           0       10.569919   -2.633252   -1.255676
     34          1           0       11.333886   -4.120314    0.842966
     35          1           0       12.926668   -3.379294    0.516569
     36          1           0       12.884217   -5.502059   -0.506498
     37          1           0       12.852432   -4.260505   -1.738460
     38          1           0       10.409523   -5.530208   -0.740589
     39          1           0       10.620404   -4.636780   -2.135407
     40          1           0       11.157717   -6.134482   -2.072302
     41          7           0        7.827745   -0.183126   -0.568460
     42          6           0        6.494482   -0.541155   -1.019153
     43          6           0        5.503579    0.460588   -0.436981
     44          8           0        5.866351    1.341621    0.341144
     45          6           0        6.204504   -1.962688   -0.534637
     46          6           0        4.950906   -2.481354   -1.205442
     47          8           0        4.640344   -2.132893   -2.367649
     48          8           0        4.271471   -3.372536   -0.643783
     49          1           0        7.809289    0.348593    0.282089
     50          1           0        6.380595   -0.489821   -2.098687
     51          1           0        6.200725   -1.989728    0.557725
     52          1           0        7.049868   -2.573303   -0.853869
     53          7           0        4.229717    0.345636   -0.810961
     54          6           0        3.033960    0.837816   -0.152764
     55          6           0        1.746238    0.159651   -0.585041
     56          8           0        1.813216   -0.799737   -1.349887
     57          1           0        4.075818   -0.253564   -1.610132
     58          1           0        2.932054    1.924885   -0.215189
     59          1           0        3.130345    0.753561    0.929923
     60          7           0        0.598734    0.689965   -0.148919
     61          6           0       -0.709028    0.217830   -0.539365
     62          6           0       -1.515016    1.334212   -1.191035
     63          8           0       -2.716026    1.139973   -1.385833
     64          6           0       -1.334817   -0.380321    0.715587
     65          6           0       -0.696388   -1.624771    1.320114
     66          7           0       -1.459678   -2.716636    1.445889
     67          8           0        0.495227   -1.733563    1.597276
     68          1           0        0.716079    1.472479    0.490065
     69          1           0       -0.608873   -0.544203   -1.311295
     70          1           0       -2.366519   -0.674126    0.516163
     71          1           0       -1.359984    0.425841    1.444744
     72          1           0       -2.393663   -2.684098    1.041399
     73          1           0       -1.067790   -3.589801    1.767459
     74          7           0       -0.957320    2.470104   -1.617796
     75          6           0       -1.703128    3.550982   -2.242673
     76          6           0       -2.739231    4.146683   -1.298305
     77          8           0       -2.414098    4.253999   -0.117258
     78          1           0        0.006739    2.687506   -1.449792
     79          1           0       -2.158679    3.188676   -3.162623
     80          1           0       -0.942438    4.299210   -2.482057
     81          7           0       -3.927237    4.479343   -1.787057
     82          6           0       -5.187052    4.803236   -1.148260
     83          6           0       -5.877765    3.733220   -0.327967
     84          8           0       -7.044580    3.875659    0.010787
     85          6           0       -4.995622    6.072289   -0.314618
     86          6           0       -4.172773    7.161917   -0.957837
     87          6           0       -2.795458    7.367052   -0.748976
     88          6           0       -4.745020    7.766304   -2.073969
     89          6           0       -1.969443    8.103404   -1.606172
     90          6           0       -3.940635    8.464056   -2.978516
     91          6           0       -2.581208    8.730946   -2.699897
     92          8           0       -1.881279    9.596003   -3.484036
     93          1           0       -4.072895    4.159192   -2.735101
     94          1           0       -5.878276    4.988748   -1.969962
     95          1           0       -4.450647    5.720839    0.563439
     96          1           0       -5.926915    6.495668    0.046552
     97          1           0       -2.356142    6.843601    0.093699
     98          1           0       -5.753920    7.494337   -2.362853
     99          1           0       -0.897874    8.231318   -1.522035
    100          1           0       -4.364634    9.027413   -3.795250
    101          1           0       -2.434732   10.044548   -4.124815
    102          7           0       -5.093215    2.688990   -0.025202
    103          6           0       -5.302823    1.526168    0.815697
    104          6           0       -6.426234    0.657956    0.262655
    105          8           0       -6.170414   -0.437755   -0.211236
    106          6           0       -5.499004    1.945685    2.267599
    107          6           0       -4.466429    2.899563    2.861994
    108          6           0       -5.655815    0.731573    3.183209
    109          6           0       -4.746823    3.658371    4.153927
    110          1           0       -4.208259    2.686295   -0.501169
    111          1           0       -4.389969    0.929264    0.855710
    112          1           0       -6.456711    2.439538    2.393321
    113          1           0       -4.205325    3.616414    2.090793
    114          1           0       -3.588455    2.291766    3.070426
    115          1           0       -5.646860    1.024561    4.230624
    116          1           0       -6.654122    0.299723    3.091619
    117          1           0       -4.798709    0.074287    3.044488
    118          1           0       -4.799022    2.914918    4.950641
    119          1           0       -3.911393    4.332660    4.350372
    120          1           0       -5.619515    4.295829    4.062509
    121          7           0       -7.679672    1.125577    0.375903
    122          6           0       -8.820332    0.472059   -0.219670
    123          6           0       -9.152317   -0.817770    0.518793
    124          8           0       -9.820264   -1.678887   -0.032680
    125          6           0      -10.040889    1.376318   -0.280969
    126          8           0       -9.863635    2.467757   -1.158717
    127          1           0       -7.865676    2.023442    0.789114
    128          1           0       -8.516700    0.174515   -1.228766
    129          1           0      -10.258161    1.725252    0.729148
    130          1           0      -10.893686    0.772544   -0.598766
    131          1           0       -9.049044    2.208851   -1.592202
    132          7           0       -8.632631   -1.082508    1.717851
    133          6           0       -8.577405   -2.368063    2.398439
    134          6           0       -8.097188   -3.517752    1.528148
    135          8           0       -8.627981   -4.625699    1.603064
    136          6           0       -9.940089   -2.653232    3.021071
    137          1           0       -8.070528   -0.366425    2.165585
    138          1           0       -7.935986   -2.342555    3.275724
    139          1           0       -9.824520   -3.644334    3.463633
    140          1           0      -10.120755   -1.945340    3.827451
    141          1           0      -10.689987   -2.640200    2.229501
    142          7           0       -7.125221   -3.267631    0.654295
    143          6           0       -6.631413   -4.279755   -0.258316
    144          6           0       -5.136476   -4.503469   -0.068269
    145          8           0       -4.377233   -3.637343    0.344496
    146          6           0       -7.130604   -4.041141   -1.679855
    147          1           0       -6.810975   -2.307252    0.564174
    148          1           0       -7.108889   -5.211455    0.049826
    149          1           0       -6.654181   -3.167277   -2.121989
    150          1           0       -6.893652   -4.947584   -2.248727
    151          1           0       -8.208431   -3.941657   -1.612828
    152          7           0       -4.633302   -5.666031   -0.469724
    153          6           0       -3.271219   -6.158416   -0.397007
    154          6           0       -2.751047   -6.332908    1.017586
    155          8           0       -1.550821   -6.216583    1.282590
    156          6           0       -2.334193   -5.610324   -1.461891
    157          6           0       -1.014362   -6.299677   -1.809077
    158          6           0       -0.043325   -5.606719   -2.758390
    159          8           0       -0.388425   -5.322655   -3.928353
    160          8           0        1.139623   -5.502220   -2.395602
    161          1           0       -5.352506   -6.327776   -0.746383
    162          1           0       -3.379176   -7.221342   -0.644864
    163          1           0       -2.035483   -4.581399   -1.239666
    164          1           0       -2.920923   -5.544057   -2.377728
    165          1           0       -1.189691   -7.232135   -2.337360
    166          1           0       -0.432624   -6.545657   -0.926085
    167          7           0       -3.697658   -6.622109    1.909600
    168          6           0       -3.455456   -6.631528    3.346176
    169          1           0       -4.262325   -6.102375    3.853187
    170          1           0       -3.416775   -7.661390    3.702559
    171          1           0       -2.507461   -6.137002    3.559177
    172          1           0       -4.638988   -6.557298    1.579303
    173         20           0        2.201057   -3.122070   -2.670813
    174          8           0        1.383649   -3.649648   -0.220119
    175          1           0        1.254816   -4.462228    0.254029
    176          1           0        1.114634   -2.964639    0.396074
 ---------------------------------------------------------------------
 Rotational constants (GHZ):           0.0193443           0.0084062           0.0065453
 Standard basis: SVP (5D, 7F)
 There are  1809 symmetry adapted cartesian basis functions of A   symmetry.
 There are  1717 symmetry adapted basis functions of A   symmetry.
  1717 basis functions,  2922 primitive gaussians,  1809 cartesian basis functions
   358 alpha electrons      358 beta electrons
       nuclear repulsion energy     18801.6177097708 Hartrees.
 NAtoms=  176 NActive=  176 NUniq=  176 SFac= 1.00D+00 NAtFMM=   60 NAOKFM=T Big=T
 Integral buffers will be    131072 words long.
 Raffenetti 2 integral format.
 Two-electron integral symmetry is turned on.
 One-electron integrals computed using PRISM.
 NBasis=  1717 RedAO= T EigKep=  3.06D-04  NBF=  1717
 NBsUse=  1717 1.00D-06 EigRej= -1.00D+00 NBFU=  1717
 ExpMin= 1.98D-02 ExpMax= 3.51D+04 ExpMxC= 5.28D+03 IAcc=3 IRadAn=         5 AccDes= 0.00D+00
 Harris functional with IExCor=  402 and IRadAn=       5 diagonalized for initial guess.
 HarFok:  IExCor=  402 AccDes= 0.00D+00 IRadAn=         5 IDoV= 1 UseB2=F ITyADJ=14
 ICtDFT=  3500011 ScaDFX=  1.000000  1.000000  1.000000  1.000000
 FoFCou: FMM=F IPFlag=           0 FMFlag=      100000 FMFlg1=        2001
         NFxFlg=           0 DoJE=T BraDBF=F KetDBF=T FulRan=T
         wScrn=  0.000000 ICntrl=       500 IOpCl=  0 I1Cent=   200000004 NGrid=           0
         NMat0=    1 NMatS0=      1 NMatT0=    0 NMatD0=    1 NMtDS0=    0 NMtDT0=    0
 Petite list used in FoFCou.
 Requested convergence on RMS density matrix=1.00D-08 within 128 cycles.
 Requested convergence on MAX density matrix=1.00D-06.
 Requested convergence on             energy=1.00D-06.
 No special actions if energy rises.
 EnCoef did     2 forward-backward iterations
 EnCoef did     2 forward-backward iterations
 EnCoef did     3 forward-backward iterations
 EnCoef did     1 forward-backward iterations
 EnCoef did     9 forward-backward iterations
 EnCoef did   100 forward-backward iterations
 Rare condition: small coef for last iteration:  0.000D+00
 Restarting incremental Fock formation.
 EnCoef did   100 forward-backward iterations
 EnCoef did   100 forward-backward iterations
 Rare condition: small coef for last iteration: -0.476D-15
 EnCoef did   100 forward-backward iterations
 Rare condition: small coef for last iteration:  0.000D+00
 EnCoef did   100 forward-backward iterations
 EnCoef did   100 forward-backward iterations
 Rare condition: small coef for last iteration: -0.119D-15
 EnCoef did   100 forward-backward iterations
 EnCoef did   100 forward-backward iterations
 Rare condition: small coef for last iteration:  0.595D-16
 EnCoef did   100 forward-backward iterations
 EnCoef did   100 forward-backward iterations
 Rare condition: small coef for last iteration: -0.481D-15
 EnCoef did   100 forward-backward iterations
 EnCoef did   100 forward-backward iterations
 Rare condition: small coef for last iteration:  0.714D-15
 EnCoef did   100 forward-backward iterations
 EnCoef did   100 forward-backward iterations
 Rare condition: small coef for last iteration: -0.245D-15
 EnCoef did   100 forward-backward iterations
 EnCoef did   100 forward-backward iterations
 Rare condition: small coef for last iteration:  0.580D-15
 EnCoef did   100 forward-backward iterations
 EnCoef did   100 forward-backward iterations
 EnCoef did     8 forward-backward iterations
 EnCoef did     7 forward-backward iterations
 EnCoef did     8 forward-backward iterations
 Restarting incremental Fock formation.
 SCF Done:  E(RB3LYP) =  -5333.40818388     A.U. after   50 cycles
            NFock= 50  Conv=0.15D-08     -V/T= 2.0081
 SCF density gives NOpUse=  1 NOpAll=  1.
 Hyperfine terms turned off by default for NAtoms > 100.

 **********************************************************************

            Population analysis using the SCF density.

 **********************************************************************

 Orbital symmetries:
 BldTbl:  Degeneracy threshold= 1.00D-02
       Occupied  (A) (A) (A) (A) (A) (A) (A) (A) (A) (A) (A) (A)
                 (A) (A) (A) (A) (A) (A) (A) (A) (A) (A) (A) (A)
                 (A) (A) (A) (A) (A) (A) (A) (A) (A) (A) (A) (A)
                 (A) (A) (A) (A) (A) (A) (A) (A) (A) (A) (A) (A)
                 (A) (A) (A) (A) (A) (A) (A) (A) (A) (A) (A) (A)
                 (A) (A) (A) (A) (A) (A) (A) (A) (A) (A) (A) (A)
                 (A) (A) (A) (A) (A) (A) (A) (A) (A) (A) (A) (A)
                 (A) (A) (A) (A) (A) (A) (A) (A) (A) (A) (A) (A)
                 (A) (A) (A) (A) (A) (A) (A) (A) (A) (A) (A) (A)
                 (A) (A) (A) (A) (A) (A) (A) (A) (A) (A) (A) (A)
                 (A) (A) (A) (A) (A) (A) (A) (A) (A) (A) (A) (A)
                 (A) (A) (A) (A) (A) (A) (A) (A) (A) (A) (A) (A)
                 (A) (A) (A) (A) (A) (A) (A) (A) (A) (A) (A) (A)
                 (A) (A) (A) (A) (A) (A) (A) (A) (A) (A) (A) (A)
                 (A) (A) (A) (A) (A) (A) (A) (A) (A) (A) (A) (A)
                 (A) (A) (A) (A) (A) (A) (A) (A) (A) (A) (A) (A)
                 (A) (A) (A) (A) (A) (A) (A) (A) (A) (A) (A) (A)
                 (A) (A) (A) (A) (A) (A) (A) (A) (A) (A) (A) (A)
                 (A) (A) (A) (A) (A) (A) (A) (A) (A) (A) (A) (A)
                 (A) (A) (A) (A) (A) (A) (A) (A) (A) (A) (A) (A)
                 (A) (A) (A) (A) (A) (A) (A) (A) (A) (A) (A) (A)
                 (A) (A) (A) (A) (A) (A) (A) (A) (A) (A) (A) (A)
                 (A) (A) (A) (A) (A) (A) (A) (A) (A) (A) (A) (A)
                 (A) (A) (A) (A) (A) (A) (A) (A) (A) (A) (A) (A)
                 (A) (A) (A) (A) (A) (A) (A) (A) (A) (A) (A) (A)
                 (A) (A) (A) (A) (A) (A) (A) (A) (A) (A) (A) (A)
                 (A) (A) (A) (A) (A) (A) (A) (A) (A) (A) (A) (A)
                 (A) (A) (A) (A) (A) (A) (A) (A) (A) (A) (A) (A)
                 (A) (A) (A) (A) (A) (A) (A) (A) (A) (A) (A) (A)
                 (A) (A) (A) (A) (A) (A) (A) (A) (A) (A)
       Virtual   (A) (A) (A) (A) (A) (A) (A) (A) (A) (A) (A) (A)
                 (A) (A) (A) (A) (A) (A) (A) (A) (A) (A) (A) (A)
                 (A) (A) (A) (A) (A) (A) (A) (A) (A) (A) (A) (A)
                 (A) (A) (A) (A) (A) (A) (A) (A) (A) (A) (A) (A)
                 (A) (A) (A) (A) (A) (A) (A) (A) (A) (A) (A) (A)
                 (A) (A) (A) (A) (A) (A) (A) (A) (A) (A) (A) (A)
                 (A) (A) (A) (A) (A) (A) (A) (A) (A) (A) (A) (A)
                 (A) (A) (A) (A) (A) (A) (A) (A) (A) (A) (A) (A)
                 (A) (A) (A) (A) (A) (A) (A) (A) (A) (A) (A) (A)
                 (A) (A) (A) (A) (A) (A) (A) (A) (A) (A) (A) (A)
                 (A) (A) (A) (A) (A) (A) (A) (A) (A) (A) (A) (A)
                 (A) (A) (A) (A) (A) (A) (A) (A) (A) (A) (A) (A)
                 (A) (A) (A) (A) (A) (A) (A) (A) (A) (A) (A) (A)
                 (A) (A) (A) (A) (A) (A) (A) (A) (A) (A) (A) (A)
                 (A) (A) (A) (A) (A) (A) (A) (A) (A) (A) (A) (A)
                 (A) (A) (A) (A) (A) (A) (A) (A) (A) (A) (A) (A)
                 (A) (A) (A) (A) (A) (A) (A) (A) (A) (A) (A) (A)
                 (A) (A) (A) (A) (A) (A) (A) (A) (A) (A) (A) (A)
                 (A) (A) (A) (A) (A) (A) (A) (A) (A) (A) (A) (A)
                 (A) (A) (A) (A) (A) (A) (A) (A) (A) (A) (A) (A)
                 (A) (A) (A) (A) (A) (A) (A) (A) (A) (A) (A) (A)
                 (A) (A) (A) (A) (A) (A) (A) (A) (A) (A) (A) (A)
                 (A) (A) (A) (A) (A) (A) (A) (A) (A) (A) (A) (A)
                 (A) (A) (A) (A) (A) (A) (A) (A) (A) (A) (A) (A)
                 (A) (A) (A) (A) (A) (A) (A) (A) (A) (A) (A) (A)
                 (A) (A) (A) (A) (A) (A) (A) (A) (A) (A) (A) (A)
                 (A) (A) (A) (A) (A) (A) (A) (A) (A) (A) (A) (A)
                 (A) (A) (A) (A) (A) (A) (A) (A) (A) (A) (A) (A)
                 (A) (A) (A) (A) (A) (A) (A) (A) (A) (A) (A) (A)
                 (A) (A) (A) (A) (A) (A) (A) (A) (A) (A) (A) (A)
                 (A) (A) (A) (A) (A) (A) (A) (A) (A) (A) (A) (A)
                 (A) (A) (A) (A) (A) (A) (A) (A) (A) (A) (A) (A)
                 (A) (A) (A) (A) (A) (A) (A) (A) (A) (A) (A) (A)
                 (A) (A) (A) (A) (A) (A) (A) (A) (A) (A) (A) (A)
                 (A) (A) (A) (A) (A) (A) (A) (A) (A) (A) (A) (A)
                 (A) (A) (A) (A) (A) (A) (A) (A) (A) (A) (A) (A)
                 (A) (A) (A) (A) (A) (A) (A) (A) (A) (A) (A) (A)
                 (A) (A) (A) (A) (A) (A) (A) (A) (A) (A) (A) (A)
                 (A) (A) (A) (A) (A) (A) (A) (A) (A) (A) (A) (A)
                 (A) (A) (A) (A) (A) (A) (A) (A) (A) (A) (A) (A)
                 (A) (A) (A) (A) (A) (A) (A) (A) (A) (A) (A) (A)
                 (A) (A) (A) (A) (A) (A) (A) (A) (A) (A) (A) (A)
                 (A) (A) (A) (A) (A) (A) (A) (A) (A) (A) (A) (A)
                 (A) (A) (A) (A) (A) (A) (A) (A) (A) (A) (A) (A)
                 (A) (A) (A) (A) (A) (A) (A) (A) (A) (A) (A) (A)
                 (A) (A) (A) (A) (A) (A) (A) (A) (A) (A) (A) (A)
                 (A) (A) (A) (A) (A) (A) (A) (A) (A) (A) (A) (A)
                 (A) (A) (A) (A) (A) (A) (A) (A) (A) (A) (A) (A)
                 (A) (A) (A) (A) (A) (A) (A) (A) (A) (A) (A) (A)
                 (A) (A) (A) (A) (A) (A) (A) (A) (A) (A) (A) (A)
                 (A) (A) (A) (A) (A) (A) (A) (A) (A) (A) (A) (A)
                 (A) (A) (A) (A) (A) (A) (A) (A) (A) (A) (A) (A)
                 (A) (A) (A) (A) (A) (A) (A) (A) (A) (A) (A) (A)
                 (A) (A) (A) (A) (A) (A) (A) (A) (A) (A) (A) (A)
                 (A) (A) (A) (A) (A) (A) (A) (A) (A) (A) (A) (A)
                 (A) (A) (A) (A) (A) (A) (A) (A) (A) (A) (A) (A)
                 (A) (A) (A) (A) (A) (A) (A) (A) (A) (A) (A) (A)
                 (A) (A) (A) (A) (A) (A) (A) (A) (A) (A) (A) (A)
                 (A) (A) (A) (A) (A) (A) (A) (A) (A) (A) (A) (A)
                 (A) (A) (A) (A) (A) (A) (A) (A) (A) (A) (A) (A)
                 (A) (A) (A) (A) (A) (A) (A) (A) (A) (A) (A) (A)
                 (A) (A) (A) (A) (A) (A) (A) (A) (A) (A) (A) (A)
                 (A) (A) (A) (A) (A) (A) (A) (A) (A) (A) (A) (A)
                 (A) (A) (A) (A) (A) (A) (A) (A) (A) (A) (A) (A)
                 (A) (A) (A) (A) (A) (A) (A) (A) (A) (A) (A) (A)
                 (A) (A) (A) (A) (A) (A) (A) (A) (A) (A) (A) (A)
                 (A) (A) (A) (A) (A) (A) (A) (A) (A) (A) (A) (A)
                 (A) (A) (A) (A) (A) (A) (A) (A) (A) (A) (A) (A)
                 (A) (A) (A) (A) (A) (A) (A) (A) (A) (A) (A) (A)
                 (A) (A) (A) (A) (A) (A) (A) (A) (A) (A) (A) (A)
                 (A) (A) (A) (A) (A) (A) (A) (A) (A) (A) (A) (A)
                 (A) (A) (A) (A) (A) (A) (A) (A) (A) (A) (A) (A)
                 (A) (A) (A) (A) (A) (A) (A) (A) (A) (A) (A) (A)
                 (A) (A) (A) (A) (A) (A) (A) (A) (A) (A) (A) (A)
                 (A) (A) (A) (A) (A) (A) (A) (A) (A) (A) (A) (A)
                 (A) (A) (A) (A) (A) (A) (A) (A) (A) (A) (A) (A)
                 (A) (A) (A) (A) (A) (A) (A) (A) (A) (A) (A) (A)
                 (A) (A) (A) (A) (A) (A) (A) (A) (A) (A) (A) (A)
                 (A) (A) (A) (A) (A) (A) (A) (A) (A) (A) (A) (A)
                 (A) (A) (A) (A) (A) (A) (A) (A) (A) (A) (A) (A)
                 (A) (A) (A) (A) (A) (A) (A) (A) (A) (A) (A) (A)
                 (A) (A) (A) (A) (A) (A) (A) (A) (A) (A) (A) (A)
                 (A) (A) (A) (A) (A) (A) (A) (A) (A) (A) (A) (A)
                 (A) (A) (A) (A) (A) (A) (A) (A) (A) (A) (A) (A)
                 (A) (A) (A) (A) (A) (A) (A) (A) (A) (A) (A) (A)
                 (A) (A) (A) (A) (A) (A) (A) (A) (A) (A) (A) (A)
                 (A) (A) (A) (A) (A) (A) (A) (A) (A) (A) (A) (A)
                 (A) (A) (A) (A) (A) (A) (A) (A) (A) (A) (A) (A)
                 (A) (A) (A) (A) (A) (A) (A) (A) (A) (A) (A) (A)
                 (A) (A) (A) (A) (A) (A) (A) (A) (A) (A) (A) (A)
                 (A) (A) (A) (A) (A) (A) (A) (A) (A) (A) (A) (A)
                 (A) (A) (A) (A) (A) (A) (A) (A) (A) (A) (A) (A)
                 (A) (A) (A) (A) (A) (A) (A) (A) (A) (A) (A) (A)
                 (A) (A) (A) (A) (A) (A) (A) (A) (A) (A) (A) (A)
                 (A) (A) (A) (A) (A) (A) (A) (A) (A) (A) (A) (A)
                 (A) (A) (A) (A) (A) (A) (A) (A) (A) (A) (A) (A)
                 (A) (A) (A) (A) (A) (A) (A) (A) (A) (A) (A) (A)
                 (A) (A) (A) (A) (A) (A) (A) (A) (A) (A) (A) (A)
                 (A) (A) (A) (A) (A) (A) (A) (A) (A) (A) (A) (A)
                 (A) (A) (A) (A) (A) (A) (A) (A) (A) (A) (A) (A)
                 (A) (A) (A) (A) (A) (A) (A) (A) (A) (A) (A) (A)
                 (A) (A) (A) (A) (A) (A) (A) (A) (A) (A) (A) (A)
                 (A) (A) (A) (A) (A) (A) (A) (A) (A) (A) (A) (A)
                 (A) (A) (A) (A) (A) (A) (A) (A) (A) (A) (A) (A)
                 (A) (A) (A) (A) (A) (A) (A) (A) (A) (A) (A) (A)
                 (A) (A) (A) (A) (A) (A) (A) (A) (A) (A) (A) (A)
                 (A) (A) (A) (A) (A) (A) (A) (A) (A) (A) (A) (A)
                 (A) (A) (A) (A) (A) (A) (A) (A) (A) (A) (A) (A)
                 (A) (A) (A) (A) (A) (A) (A) (A) (A) (A) (A) (A)
                 (A) (A) (A) (A) (A) (A) (A) (A) (A) (A) (A) (A)
                 (A) (A) (A) (A) (A) (A) (A) (A) (A) (A) (A) (A)
                 (A) (A) (A) (A) (A) (A) (A) (A) (A) (A) (A) (A)
                 (A) (A) (A) (A) (A) (A) (A) (A) (A) (A) (A) (A)
                 (A) (A) (A)
 The electronic state is 1-A.
 Alpha  occ. eigenvalues -- -145.45142 -19.17113 -19.16099 -19.14184 -19.14010
 Alpha  occ. eigenvalues --  -19.12930 -19.12635 -19.12517 -19.12212 -19.11643
 Alpha  occ. eigenvalues --  -19.11520 -19.10673 -19.10230 -19.09095 -19.08271
 Alpha  occ. eigenvalues --  -19.08204 -19.08170 -19.06110 -19.05631 -19.05080
 Alpha  occ. eigenvalues --  -19.03167 -19.02962 -18.94856 -18.94691 -15.50949
 Alpha  occ. eigenvalues --  -14.55748 -14.40847 -14.40531 -14.39603 -14.37871
 Alpha  occ. eigenvalues --  -14.37591 -14.37479 -14.36700 -14.36530 -14.36355
 Alpha  occ. eigenvalues --  -14.34635 -14.34586 -14.33998 -14.33147 -14.30197
 Alpha  occ. eigenvalues --  -12.64564 -12.64539 -12.64471 -10.34231 -10.33573
 Alpha  occ. eigenvalues --  -10.33184 -10.32107 -10.31109 -10.31025 -10.30946
 Alpha  occ. eigenvalues --  -10.29948 -10.29324 -10.29322 -10.29016 -10.27973
 Alpha  occ. eigenvalues --  -10.27484 -10.27022 -10.26903 -10.26867 -10.26444
 Alpha  occ. eigenvalues --  -10.26028 -10.25932 -10.25453 -10.25339 -10.25191
 Alpha  occ. eigenvalues --  -10.24886 -10.24828 -10.24793 -10.24140 -10.23927
 Alpha  occ. eigenvalues --  -10.23649 -10.23502 -10.23383 -10.23262 -10.22704
 Alpha  occ. eigenvalues --  -10.22637 -10.22403 -10.22091 -10.20874 -10.20475
 Alpha  occ. eigenvalues --  -10.20260 -10.19953 -10.19934 -10.19750 -10.19679
 Alpha  occ. eigenvalues --  -10.19650 -10.19232 -10.19026 -10.18787 -10.18324
 Alpha  occ. eigenvalues --  -10.18245 -10.17735 -10.17367 -10.15361 -10.14436
 Alpha  occ. eigenvalues --  -10.14212 -10.08214  -1.87462  -1.14950  -1.14689
 Alpha  occ. eigenvalues --   -1.14254  -1.11326  -1.08647  -1.07651  -1.06353
 Alpha  occ. eigenvalues --   -1.05982  -1.05819  -1.05164  -1.05040  -1.04951
 Alpha  occ. eigenvalues --   -1.04125  -1.03070  -1.02836  -1.02249  -1.02077
 Alpha  occ. eigenvalues --   -1.01775  -1.01005  -0.99681  -0.99197  -0.98566
 Alpha  occ. eigenvalues --   -0.98318  -0.96976  -0.96018  -0.95999  -0.95163
 Alpha  occ. eigenvalues --   -0.94858  -0.94467  -0.93000  -0.92560  -0.91549
 Alpha  occ. eigenvalues --   -0.91446  -0.91127  -0.91075  -0.90746  -0.89960
 Alpha  occ. eigenvalues --   -0.89081  -0.88507  -0.87952  -0.86426  -0.85940
 Alpha  occ. eigenvalues --   -0.83846  -0.83353  -0.81567  -0.81367  -0.80451
 Alpha  occ. eigenvalues --   -0.79537  -0.79327  -0.77984  -0.77569  -0.77528
 Alpha  occ. eigenvalues --   -0.76281  -0.75688  -0.75479  -0.75023  -0.74695
 Alpha  occ. eigenvalues --   -0.74321  -0.73760  -0.72388  -0.72044  -0.71336
 Alpha  occ. eigenvalues --   -0.71193  -0.70106  -0.69351  -0.68305  -0.68038
 Alpha  occ. eigenvalues --   -0.67030  -0.66852  -0.66633  -0.66117  -0.65421
 Alpha  occ. eigenvalues --   -0.64887  -0.64589  -0.64217  -0.63595  -0.63536
 Alpha  occ. eigenvalues --   -0.63101  -0.62222  -0.61774  -0.61078  -0.60917
 Alpha  occ. eigenvalues --   -0.60768  -0.60321  -0.60070  -0.60062  -0.59745
 Alpha  occ. eigenvalues --   -0.59417  -0.58854  -0.58612  -0.58049  -0.57925
 Alpha  occ. eigenvalues --   -0.57475  -0.57337  -0.56781  -0.56237  -0.55807
 Alpha  occ. eigenvalues --   -0.55608  -0.55504  -0.55436  -0.55036  -0.54800
 Alpha  occ. eigenvalues --   -0.54187  -0.54096  -0.53288  -0.53253  -0.52536
 Alpha  occ. eigenvalues --   -0.52511  -0.52296  -0.52228  -0.51310  -0.51086
 Alpha  occ. eigenvalues --   -0.50692  -0.50640  -0.50404  -0.50033  -0.49908
 Alpha  occ. eigenvalues --   -0.49746  -0.49359  -0.49196  -0.49042  -0.48950
 Alpha  occ. eigenvalues --   -0.48606  -0.48209  -0.48122  -0.48002  -0.47891
 Alpha  occ. eigenvalues --   -0.47715  -0.47522  -0.47396  -0.47104  -0.46726
 Alpha  occ. eigenvalues --   -0.46712  -0.46285  -0.46032  -0.45842  -0.45499
 Alpha  occ. eigenvalues --   -0.45432  -0.45287  -0.45184  -0.45077  -0.44785
 Alpha  occ. eigenvalues --   -0.44521  -0.44450  -0.44305  -0.44225  -0.44069
 Alpha  occ. eigenvalues --   -0.43967  -0.43881  -0.43685  -0.43657  -0.43342
 Alpha  occ. eigenvalues --   -0.43268  -0.43141  -0.43030  -0.42958  -0.42590
 Alpha  occ. eigenvalues --   -0.42218  -0.42075  -0.41906  -0.41668  -0.41601
 Alpha  occ. eigenvalues --   -0.41569  -0.41378  -0.41267  -0.41149  -0.41043
 Alpha  occ. eigenvalues --   -0.40701  -0.40599  -0.40408  -0.40338  -0.40172
 Alpha  occ. eigenvalues --   -0.40108  -0.40077  -0.39955  -0.39831  -0.39678
 Alpha  occ. eigenvalues --   -0.39577  -0.39467  -0.39385  -0.39323  -0.39021
 Alpha  occ. eigenvalues --   -0.38981  -0.38875  -0.38737  -0.38642  -0.38433
 Alpha  occ. eigenvalues --   -0.38127  -0.37897  -0.37891  -0.37369  -0.37300
 Alpha  occ. eigenvalues --   -0.37131  -0.36872  -0.36769  -0.36767  -0.36511
 Alpha  occ. eigenvalues --   -0.36307  -0.36068  -0.35978  -0.35866  -0.35395
 Alpha  occ. eigenvalues --   -0.35071  -0.34596  -0.34386  -0.34323  -0.34188
 Alpha  occ. eigenvalues --   -0.34106  -0.33724  -0.33621  -0.33240  -0.32956
 Alpha  occ. eigenvalues --   -0.32865  -0.32485  -0.32114  -0.31903  -0.31866
 Alpha  occ. eigenvalues --   -0.31120  -0.30720  -0.30410  -0.30161  -0.29964
 Alpha  occ. eigenvalues --   -0.29750  -0.29615  -0.29412  -0.29178  -0.28893
 Alpha  occ. eigenvalues --   -0.28520  -0.28433  -0.27764  -0.27662  -0.27556
 Alpha  occ. eigenvalues --   -0.27277  -0.27204  -0.26986  -0.26654  -0.26531
 Alpha  occ. eigenvalues --   -0.25953  -0.25741  -0.25608  -0.25592  -0.25381
 Alpha  occ. eigenvalues --   -0.25061  -0.24813  -0.24659  -0.24602  -0.23951
 Alpha  occ. eigenvalues --   -0.23653  -0.23194  -0.23152  -0.22766  -0.22516
 Alpha  occ. eigenvalues --   -0.21776  -0.21560  -0.19448  -0.18904  -0.18732
 Alpha  occ. eigenvalues --   -0.12254  -0.11708  -0.09627
 Alpha virt. eigenvalues --   -0.08746  -0.07197  -0.03665  -0.02939  -0.02767
 Alpha virt. eigenvalues --   -0.02579  -0.02487  -0.02222  -0.01878  -0.01445
 Alpha virt. eigenvalues --   -0.01172  -0.00609  -0.00417  -0.00256   0.00180
 Alpha virt. eigenvalues --    0.00593   0.00824   0.01278   0.01537   0.01656
 Alpha virt. eigenvalues --    0.02134   0.02385   0.02713   0.02749   0.03395
 Alpha virt. eigenvalues --    0.03868   0.03901   0.04065   0.04189   0.04548
 Alpha virt. eigenvalues --    0.05175   0.05299   0.05430   0.05534   0.05626
 Alpha virt. eigenvalues --    0.05830   0.06215   0.06282   0.06555   0.06764
 Alpha virt. eigenvalues --    0.07023   0.07252   0.07418   0.07501   0.07712
 Alpha virt. eigenvalues --    0.08108   0.08397   0.08492   0.08565   0.08837
 Alpha virt. eigenvalues --    0.09147   0.09332   0.09527   0.09613   0.09669
 Alpha virt. eigenvalues --    0.09811   0.09965   0.10106   0.10537   0.10698
 Alpha virt. eigenvalues --    0.10933   0.11025   0.11362   0.11592   0.11625
 Alpha virt. eigenvalues --    0.11824   0.12042   0.12158   0.12234   0.12448
 Alpha virt. eigenvalues --    0.12520   0.12665   0.12894   0.12918   0.12958
 Alpha virt. eigenvalues --    0.13128   0.13255   0.13375   0.13485   0.13676
 Alpha virt. eigenvalues --    0.13711   0.13866   0.13908   0.14101   0.14210
 Alpha virt. eigenvalues --    0.14406   0.14674   0.14860   0.15078   0.15145
 Alpha virt. eigenvalues --    0.15277   0.15467   0.15762   0.15847   0.15876
 Alpha virt. eigenvalues --    0.15978   0.16120   0.16343   0.16579   0.16747
 Alpha virt. eigenvalues --    0.16778   0.17050   0.17277   0.17331   0.17528
 Alpha virt. eigenvalues --    0.17899   0.18054   0.18162   0.18553   0.18933
 Alpha virt. eigenvalues --    0.19116   0.19309   0.19556   0.19727   0.19791
 Alpha virt. eigenvalues --    0.20102   0.20362   0.20448   0.20500   0.20557
 Alpha virt. eigenvalues --    0.20666   0.21032   0.21293   0.21648   0.21702
 Alpha virt. eigenvalues --    0.21993   0.22263   0.22491   0.22553   0.22774
 Alpha virt. eigenvalues --    0.23054   0.23160   0.23363   0.23658   0.23895
 Alpha virt. eigenvalues --    0.24020   0.24124   0.24719   0.24839   0.24980
 Alpha virt. eigenvalues --    0.25077   0.25331   0.25539   0.25629   0.25780
 Alpha virt. eigenvalues --    0.26124   0.26177   0.26815   0.26865   0.27177
 Alpha virt. eigenvalues --    0.27550   0.27824   0.28390   0.28632   0.28684
 Alpha virt. eigenvalues --    0.28903   0.29194   0.29316   0.29413   0.29501
 Alpha virt. eigenvalues --    0.29783   0.30041   0.30665   0.31083   0.31287
 Alpha virt. eigenvalues --    0.31402   0.31508   0.31803   0.31965   0.32134
 Alpha virt. eigenvalues --    0.32601   0.32832   0.32972   0.33414   0.33542
 Alpha virt. eigenvalues --    0.33708   0.34075   0.34407   0.34641   0.35261
 Alpha virt. eigenvalues --    0.35300   0.35661   0.35823   0.36068   0.36440
 Alpha virt. eigenvalues --    0.36655   0.36890   0.37372   0.37696   0.37881
 Alpha virt. eigenvalues --    0.38021   0.38474   0.38682   0.38825   0.39101
 Alpha virt. eigenvalues --    0.39536   0.39778   0.40107   0.40244   0.40553
 Alpha virt. eigenvalues --    0.40853   0.40944   0.41162   0.41281   0.41460
 Alpha virt. eigenvalues --    0.41731   0.42201   0.42375   0.42632   0.42705
 Alpha virt. eigenvalues --    0.42917   0.43299   0.43447   0.43548   0.43734
 Alpha virt. eigenvalues --    0.43929   0.44053   0.44078   0.44266   0.44693
 Alpha virt. eigenvalues --    0.44793   0.45126   0.45186   0.45238   0.45327
 Alpha virt. eigenvalues --    0.45659   0.45864   0.45878   0.46252   0.46801
 Alpha virt. eigenvalues --    0.46883   0.46926   0.47293   0.47429   0.47658
 Alpha virt. eigenvalues --    0.47754   0.47873   0.48094   0.48387   0.48487
 Alpha virt. eigenvalues --    0.48659   0.48781   0.48867   0.49045   0.49415
 Alpha virt. eigenvalues --    0.49481   0.49554   0.49906   0.50219   0.50504
 Alpha virt. eigenvalues --    0.50747   0.50905   0.51076   0.51293   0.51623
 Alpha virt. eigenvalues --    0.51717   0.52123   0.52220   0.52315   0.52413
 Alpha virt. eigenvalues --    0.52753   0.52981   0.53555   0.53665   0.53828
 Alpha virt. eigenvalues --    0.54002   0.54281   0.54436   0.54647   0.54805
 Alpha virt. eigenvalues --    0.54977   0.55164   0.55199   0.55455   0.55910
 Alpha virt. eigenvalues --    0.56096   0.56115   0.56165   0.56228   0.56375
 Alpha virt. eigenvalues --    0.56604   0.56675   0.56908   0.57005   0.57429
 Alpha virt. eigenvalues --    0.57641   0.57705   0.58041   0.58110   0.58196
 Alpha virt. eigenvalues --    0.58281   0.58353   0.58580   0.58908   0.58958
 Alpha virt. eigenvalues --    0.59148   0.59257   0.59374   0.59496   0.59659
 Alpha virt. eigenvalues --    0.59823   0.59943   0.59963   0.60201   0.60250
 Alpha virt. eigenvalues --    0.60585   0.60642   0.60759   0.60854   0.60921
 Alpha virt. eigenvalues --    0.61109   0.61232   0.61456   0.61628   0.61723
 Alpha virt. eigenvalues --    0.61762   0.61783   0.61927   0.62078   0.62289
 Alpha virt. eigenvalues --    0.62426   0.62458   0.62600   0.62682   0.62731
 Alpha virt. eigenvalues --    0.62796   0.62910   0.63004   0.63261   0.63383
 Alpha virt. eigenvalues --    0.63521   0.63669   0.63725   0.63923   0.64002
 Alpha virt. eigenvalues --    0.64121   0.64140   0.64196   0.64376   0.64532
 Alpha virt. eigenvalues --    0.64594   0.64630   0.64852   0.64992   0.65085
 Alpha virt. eigenvalues --    0.65217   0.65426   0.65442   0.65499   0.65570
 Alpha virt. eigenvalues --    0.65765   0.65843   0.65979   0.66119   0.66284
 Alpha virt. eigenvalues --    0.66336   0.66479   0.66559   0.66639   0.66886
 Alpha virt. eigenvalues --    0.66924   0.67060   0.67243   0.67331   0.67436
 Alpha virt. eigenvalues --    0.67448   0.67558   0.67604   0.67796   0.67963
 Alpha virt. eigenvalues --    0.68046   0.68175   0.68374   0.68530   0.68586
 Alpha virt. eigenvalues --    0.68653   0.68729   0.68921   0.69036   0.69160
 Alpha virt. eigenvalues --    0.69305   0.69465   0.69507   0.69558   0.69726
 Alpha virt. eigenvalues --    0.69828   0.70043   0.70156   0.70326   0.70367
 Alpha virt. eigenvalues --    0.70483   0.70594   0.70747   0.70773   0.71068
 Alpha virt. eigenvalues --    0.71118   0.71212   0.71616   0.71762   0.71819
 Alpha virt. eigenvalues --    0.71917   0.72031   0.72332   0.72337   0.72498
 Alpha virt. eigenvalues --    0.72570   0.72787   0.73082   0.73313   0.73510
 Alpha virt. eigenvalues --    0.73782   0.73925   0.74240   0.74409   0.74535
 Alpha virt. eigenvalues --    0.74745   0.74934   0.75107   0.75168   0.75317
 Alpha virt. eigenvalues --    0.75719   0.76303   0.76370   0.76746   0.76835
 Alpha virt. eigenvalues --    0.77075   0.77575   0.77653   0.78061   0.78089
 Alpha virt. eigenvalues --    0.78494   0.78674   0.79005   0.79077   0.79285
 Alpha virt. eigenvalues --    0.79722   0.79776   0.79897   0.80118   0.80260
 Alpha virt. eigenvalues --    0.80443   0.80754   0.80894   0.81394   0.81630
 Alpha virt. eigenvalues --    0.81846   0.82094   0.82322   0.82591   0.83141
 Alpha virt. eigenvalues --    0.83238   0.83457   0.83807   0.84094   0.84323
 Alpha virt. eigenvalues --    0.84596   0.85099   0.85340   0.85536   0.85693
 Alpha virt. eigenvalues --    0.85885   0.86259   0.86815   0.87052   0.87397
 Alpha virt. eigenvalues --    0.87915   0.88037   0.88233   0.88452   0.88674
 Alpha virt. eigenvalues --    0.89090   0.89313   0.89803   0.90226   0.90402
 Alpha virt. eigenvalues --    0.90944   0.91091   0.91487   0.91657   0.91892
 Alpha virt. eigenvalues --    0.92347   0.92668   0.92925   0.93034   0.93460
 Alpha virt. eigenvalues --    0.93863   0.94169   0.94453   0.94766   0.95196
 Alpha virt. eigenvalues --    0.95607   0.95721   0.95863   0.95977   0.96368
 Alpha virt. eigenvalues --    0.96579   0.96835   0.97036   0.97271   0.97434
 Alpha virt. eigenvalues --    0.98001   0.98188   0.98334   0.98583   0.99091
 Alpha virt. eigenvalues --    0.99299   0.99772   0.99996   1.00227   1.00353
 Alpha virt. eigenvalues --    1.00759   1.00857   1.01031   1.01252   1.01526
 Alpha virt. eigenvalues --    1.02267   1.02342   1.02461   1.02868   1.03079
 Alpha virt. eigenvalues --    1.03347   1.03738   1.04028   1.04228   1.04454
 Alpha virt. eigenvalues --    1.04603   1.04761   1.05069   1.05385   1.05628
 Alpha virt. eigenvalues --    1.06014   1.06101   1.06339   1.06662   1.06782
 Alpha virt. eigenvalues --    1.07148   1.07599   1.07866   1.08004   1.08049
 Alpha virt. eigenvalues --    1.08091   1.08266   1.09012   1.09270   1.09996
 Alpha virt. eigenvalues --    1.10183   1.10360   1.10790   1.10829   1.11867
 Alpha virt. eigenvalues --    1.12093   1.12120   1.12370   1.12617   1.12784
 Alpha virt. eigenvalues --    1.12997   1.13080   1.13369   1.13463   1.13809
 Alpha virt. eigenvalues --    1.14031   1.14430   1.14706   1.14871   1.14979
 Alpha virt. eigenvalues --    1.15290   1.15389   1.16020   1.16285   1.16473
 Alpha virt. eigenvalues --    1.16758   1.16936   1.17235   1.17736   1.17948
 Alpha virt. eigenvalues --    1.18074   1.18250   1.18767   1.18835   1.19058
 Alpha virt. eigenvalues --    1.19144   1.19461   1.19741   1.20125   1.20382
 Alpha virt. eigenvalues --    1.20734   1.20834   1.20889   1.21164   1.21496
 Alpha virt. eigenvalues --    1.21827   1.22080   1.22190   1.22317   1.22520
 Alpha virt. eigenvalues --    1.22781   1.23226   1.23355   1.23513   1.23723
 Alpha virt. eigenvalues --    1.24193   1.24300   1.24717   1.24898   1.25361
 Alpha virt. eigenvalues --    1.25538   1.25894   1.26370   1.26388   1.26693
 Alpha virt. eigenvalues --    1.26844   1.27323   1.27575   1.27782   1.28523
 Alpha virt. eigenvalues --    1.28570   1.28800   1.28956   1.29379   1.29690
 Alpha virt. eigenvalues --    1.29801   1.30315   1.30909   1.31450   1.31531
 Alpha virt. eigenvalues --    1.31731   1.32080   1.32281   1.32499   1.32683
 Alpha virt. eigenvalues --    1.33268   1.33420   1.34052   1.34339   1.34683
 Alpha virt. eigenvalues --    1.34709   1.34899   1.35116   1.35622   1.35782
 Alpha virt. eigenvalues --    1.36097   1.36136   1.36474   1.36957   1.37049
 Alpha virt. eigenvalues --    1.37497   1.37916   1.38084   1.38398   1.38583
 Alpha virt. eigenvalues --    1.38845   1.38950   1.38999   1.39834   1.39924
 Alpha virt. eigenvalues --    1.40624   1.40763   1.41024   1.41105   1.41675
 Alpha virt. eigenvalues --    1.41865   1.42298   1.42547   1.42684   1.43145
 Alpha virt. eigenvalues --    1.43653   1.44071   1.44250   1.44565   1.44692
 Alpha virt. eigenvalues --    1.44987   1.45609   1.45940   1.46017   1.46111
 Alpha virt. eigenvalues --    1.46285   1.46395   1.46627   1.46832   1.47685
 Alpha virt. eigenvalues --    1.48183   1.48622   1.48774   1.49130   1.49467
 Alpha virt. eigenvalues --    1.49634   1.50091   1.50458   1.50844   1.51069
 Alpha virt. eigenvalues --    1.51272   1.51505   1.51560   1.52073   1.52313
 Alpha virt. eigenvalues --    1.52467   1.52615   1.52817   1.53656   1.54141
 Alpha virt. eigenvalues --    1.54328   1.54618   1.54739   1.55109   1.55605
 Alpha virt. eigenvalues --    1.55828   1.56235   1.56350   1.56428   1.57245
 Alpha virt. eigenvalues --    1.57871   1.58087   1.58124   1.58604   1.58709
 Alpha virt. eigenvalues --    1.58967   1.59287   1.59680   1.60127   1.60705
 Alpha virt. eigenvalues --    1.60814   1.61332   1.61553   1.61790   1.62256
 Alpha virt. eigenvalues --    1.62654   1.63165   1.63347   1.63880   1.64074
 Alpha virt. eigenvalues --    1.64228   1.64469   1.64607   1.64842   1.65282
 Alpha virt. eigenvalues --    1.65488   1.65871   1.66007   1.66100   1.66252
 Alpha virt. eigenvalues --    1.66585   1.66787   1.67193   1.67747   1.68196
 Alpha virt. eigenvalues --    1.68320   1.68449   1.68918   1.69218   1.69388
 Alpha virt. eigenvalues --    1.69726   1.69841   1.70219   1.70286   1.70634
 Alpha virt. eigenvalues --    1.70720   1.70871   1.71312   1.71436   1.71736
 Alpha virt. eigenvalues --    1.71774   1.71858   1.72357   1.72387   1.72637
 Alpha virt. eigenvalues --    1.72796   1.73187   1.73293   1.73529   1.73778
 Alpha virt. eigenvalues --    1.73852   1.74102   1.74400   1.74498   1.74662
 Alpha virt. eigenvalues --    1.74821   1.74946   1.75271   1.75290   1.75576
 Alpha virt. eigenvalues --    1.75604   1.75797   1.75813   1.76032   1.76047
 Alpha virt. eigenvalues --    1.76372   1.76787   1.76880   1.76996   1.77195
 Alpha virt. eigenvalues --    1.77358   1.77724   1.77740   1.78042   1.78171
 Alpha virt. eigenvalues --    1.78401   1.78513   1.78582   1.78656   1.78970
 Alpha virt. eigenvalues --    1.79094   1.79204   1.79231   1.79401   1.79560
 Alpha virt. eigenvalues --    1.79697   1.80067   1.80224   1.80312   1.80357
 Alpha virt. eigenvalues --    1.80639   1.80722   1.80891   1.81191   1.81416
 Alpha virt. eigenvalues --    1.81758   1.81896   1.82064   1.82249   1.82393
 Alpha virt. eigenvalues --    1.82429   1.82562   1.82649   1.82725   1.82960
 Alpha virt. eigenvalues --    1.83031   1.83184   1.83372   1.83522   1.83620
 Alpha virt. eigenvalues --    1.84260   1.84516   1.84682   1.84829   1.85029
 Alpha virt. eigenvalues --    1.85133   1.85171   1.85312   1.85549   1.85636
 Alpha virt. eigenvalues --    1.85897   1.86087   1.86131   1.86169   1.86514
 Alpha virt. eigenvalues --    1.86643   1.86757   1.87327   1.87535   1.87582
 Alpha virt. eigenvalues --    1.87656   1.88230   1.88596   1.88652   1.89094
 Alpha virt. eigenvalues --    1.89296   1.89448   1.89696   1.89845   1.90148
 Alpha virt. eigenvalues --    1.90402   1.90496   1.90726   1.90805   1.90907
 Alpha virt. eigenvalues --    1.91054   1.91228   1.91465   1.91769   1.91884
 Alpha virt. eigenvalues --    1.91915   1.92014   1.92247   1.92470   1.92707
 Alpha virt. eigenvalues --    1.93105   1.93238   1.93262   1.93308   1.93642
 Alpha virt. eigenvalues --    1.93790   1.93961   1.94173   1.94677   1.95161
 Alpha virt. eigenvalues --    1.95337   1.95385   1.95606   1.95974   1.96006
 Alpha virt. eigenvalues --    1.96475   1.96765   1.96802   1.97014   1.97394
 Alpha virt. eigenvalues --    1.97805   1.97863   1.98071   1.98477   1.98645
 Alpha virt. eigenvalues --    1.98737   1.99236   1.99519   1.99661   1.99852
 Alpha virt. eigenvalues --    1.99893   2.00208   2.00354   2.00766   2.00836
 Alpha virt. eigenvalues --    2.01153   2.01368   2.01522   2.01732   2.02175
 Alpha virt. eigenvalues --    2.02422   2.02573   2.02722   2.03097   2.03288
 Alpha virt. eigenvalues --    2.03894   2.03977   2.04358   2.05153   2.05224
 Alpha virt. eigenvalues --    2.05744   2.05986   2.06104   2.06402   2.06700
 Alpha virt. eigenvalues --    2.06818   2.07261   2.07298   2.07448   2.07663
 Alpha virt. eigenvalues --    2.08021   2.08314   2.08677   2.08810   2.09068
 Alpha virt. eigenvalues --    2.09287   2.10098   2.10156   2.10218   2.10420
 Alpha virt. eigenvalues --    2.10804   2.11385   2.11702   2.12203   2.12437
 Alpha virt. eigenvalues --    2.12471   2.12653   2.13051   2.13238   2.13729
 Alpha virt. eigenvalues --    2.14009   2.14129   2.14189   2.14983   2.15072
 Alpha virt. eigenvalues --    2.15178   2.15571   2.15785   2.15929   2.16058
 Alpha virt. eigenvalues --    2.16301   2.16920   2.17058   2.17352   2.17505
 Alpha virt. eigenvalues --    2.18039   2.18380   2.18616   2.18850   2.19218
 Alpha virt. eigenvalues --    2.19290   2.19604   2.20433   2.20913   2.21225
 Alpha virt. eigenvalues --    2.21334   2.21690   2.21778   2.22190   2.22378
 Alpha virt. eigenvalues --    2.22815   2.23080   2.23436   2.23699   2.24637
 Alpha virt. eigenvalues --    2.24848   2.24974   2.25545   2.25892   2.25917
 Alpha virt. eigenvalues --    2.25984   2.26757   2.27026   2.27080   2.27299
 Alpha virt. eigenvalues --    2.27686   2.28458   2.28557   2.28779   2.29292
 Alpha virt. eigenvalues --    2.29493   2.29667   2.29820   2.30518   2.30640
 Alpha virt. eigenvalues --    2.31009   2.31545   2.31964   2.32060   2.32321
 Alpha virt. eigenvalues --    2.33222   2.33307   2.33352   2.33608   2.33726
 Alpha virt. eigenvalues --    2.34143   2.34251   2.34455   2.35108   2.35157
 Alpha virt. eigenvalues --    2.35386   2.35873   2.36127   2.36602   2.36972
 Alpha virt. eigenvalues --    2.37258   2.37632   2.37717   2.38130   2.38434
 Alpha virt. eigenvalues --    2.38466   2.38632   2.39002   2.39341   2.39434
 Alpha virt. eigenvalues --    2.40271   2.40566   2.40862   2.41102   2.41796
 Alpha virt. eigenvalues --    2.41937   2.42235   2.42542   2.42633   2.42986
 Alpha virt. eigenvalues --    2.43036   2.43159   2.43396   2.44434   2.44901
 Alpha virt. eigenvalues --    2.45108   2.45120   2.45446   2.45552   2.45870
 Alpha virt. eigenvalues --    2.46445   2.46992   2.47116   2.47810   2.47873
 Alpha virt. eigenvalues --    2.48154   2.48369   2.48949   2.50088   2.50806
 Alpha virt. eigenvalues --    2.50956   2.51291   2.51354   2.52080   2.52596
 Alpha virt. eigenvalues --    2.52654   2.53551   2.54010   2.54174   2.54393
 Alpha virt. eigenvalues --    2.54781   2.55017   2.55231   2.55343   2.56274
 Alpha virt. eigenvalues --    2.56457   2.56873   2.56939   2.57251   2.57471
 Alpha virt. eigenvalues --    2.57850   2.58429   2.58910   2.59278   2.59315
 Alpha virt. eigenvalues --    2.59565   2.59731   2.60390   2.60427   2.60765
 Alpha virt. eigenvalues --    2.61355   2.61466   2.61542   2.61725   2.62112
 Alpha virt. eigenvalues --    2.62246   2.62486   2.62707   2.62837   2.63107
 Alpha virt. eigenvalues --    2.63135   2.63767   2.64285   2.64552   2.64901
 Alpha virt. eigenvalues --    2.64970   2.65238   2.65546   2.65705   2.65861
 Alpha virt. eigenvalues --    2.66285   2.66860   2.67186   2.67380   2.67841
 Alpha virt. eigenvalues --    2.67885   2.68212   2.68542   2.68719   2.69014
 Alpha virt. eigenvalues --    2.69213   2.69917   2.69970   2.70400   2.70622
 Alpha virt. eigenvalues --    2.70790   2.71007   2.71357   2.71390   2.72012
 Alpha virt. eigenvalues --    2.72042   2.72537   2.72771   2.72910   2.73359
 Alpha virt. eigenvalues --    2.73866   2.74104   2.74234   2.74589   2.74737
 Alpha virt. eigenvalues --    2.75286   2.75338   2.75528   2.75759   2.76060
 Alpha virt. eigenvalues --    2.76082   2.76350   2.76452   2.76536   2.76856
 Alpha virt. eigenvalues --    2.77987   2.78533   2.78837   2.79124   2.79515
 Alpha virt. eigenvalues --    2.79854   2.80019   2.80142   2.80206   2.80532
 Alpha virt. eigenvalues --    2.80869   2.81012   2.81108   2.81317   2.81860
 Alpha virt. eigenvalues --    2.82056   2.82400   2.82560   2.83332   2.83456
 Alpha virt. eigenvalues --    2.83794   2.83903   2.83968   2.84482   2.84682
 Alpha virt. eigenvalues --    2.84857   2.84959   2.85016   2.85258   2.85476
 Alpha virt. eigenvalues --    2.85784   2.86228   2.86945   2.87694   2.88046
 Alpha virt. eigenvalues --    2.88396   2.88755   2.89209   2.89426   2.90015
 Alpha virt. eigenvalues --    2.90186   2.90471   2.91037   2.91388   2.91570
 Alpha virt. eigenvalues --    2.91601   2.92249   2.92281   2.92393   2.92758
 Alpha virt. eigenvalues --    2.92844   2.93108   2.93351   2.94095   2.94412
 Alpha virt. eigenvalues --    2.94911   2.95254   2.95642   2.95790   2.95862
 Alpha virt. eigenvalues --    2.96110   2.96521   2.96857   2.97051   2.97172
 Alpha virt. eigenvalues --    2.97401   2.97854   2.97996   2.98800   2.99145
 Alpha virt. eigenvalues --    2.99243   2.99340   2.99774   3.00126   3.00372
 Alpha virt. eigenvalues --    3.00498   3.00670   3.01295   3.01344   3.01536
 Alpha virt. eigenvalues --    3.01788   3.01923   3.02511   3.03209   3.03379
 Alpha virt. eigenvalues --    3.03722   3.04017   3.04030   3.04992   3.05113
 Alpha virt. eigenvalues --    3.05714   3.06154   3.06369   3.07477   3.07564
 Alpha virt. eigenvalues --    3.08360   3.08399   3.08818   3.10252   3.10839
 Alpha virt. eigenvalues --    3.11003   3.11597   3.12026   3.12421   3.13488
 Alpha virt. eigenvalues --    3.13582   3.14068   3.14358   3.14536   3.14914
 Alpha virt. eigenvalues --    3.15351   3.15810   3.16157   3.16271   3.16580
 Alpha virt. eigenvalues --    3.17034   3.17648   3.17702   3.17749   3.17819
 Alpha virt. eigenvalues --    3.18105   3.18354   3.18555   3.18666   3.18964
 Alpha virt. eigenvalues --    3.19825   3.19980   3.20501   3.20825   3.20961
 Alpha virt. eigenvalues --    3.21399   3.21699   3.21920   3.22193   3.22545
 Alpha virt. eigenvalues --    3.23716   3.24139   3.24533   3.25066   3.25495
 Alpha virt. eigenvalues --    3.25791   3.26227   3.27437   3.27805   3.28761
 Alpha virt. eigenvalues --    3.28860   3.29646   3.30009   3.31148   3.31472
 Alpha virt. eigenvalues --    3.31890   3.32168   3.33026   3.34219   3.37519
 Alpha virt. eigenvalues --    3.38245   3.40437   3.46567   3.48480   3.48660
 Alpha virt. eigenvalues --    3.51921   3.53186   3.54133   3.54240   3.54560
 Alpha virt. eigenvalues --    3.55679   3.56090   3.57057   3.57377   3.57864
 Alpha virt. eigenvalues --    3.58790   3.58833   3.59202   3.59514   3.61790
 Alpha virt. eigenvalues --    3.62984   3.63507   3.65571   3.65867   3.66531
 Alpha virt. eigenvalues --    3.67301   3.67400   3.67575   3.68270   3.68933
 Alpha virt. eigenvalues --    3.69169   3.69225   3.69287   3.70145   3.70521
 Alpha virt. eigenvalues --    3.72007   3.72365   3.73196   3.74127   3.76786
 Alpha virt. eigenvalues --    3.78443   3.79814   3.84066   3.88256
          Condensed to atoms (all electrons):
 Mulliken charges:
               1
     1  C    0.085679
     2  C    0.008714
     3  O   -0.284093
     4  H    0.071258
     5  H    0.002663
     6  H   -0.030091
     7  N   -0.149222
     8  C    0.114191
     9  C    0.065035
    10  O   -0.266838
    11  C    0.070769
    12  C    0.030562
    13  O   -0.366569
    14  O   -0.354028
    15  H    0.102904
    16  H   -0.004643
    17  H   -0.001865
    18  H   -0.011332
    19  N   -0.108836
    20  C    0.122651
    21  C    0.025485
    22  O   -0.308581
    23  C    0.066759
    24  C   -0.042304
    25  C    0.006882
    26  C    0.041489
    27  N    0.121182
    28  H    0.117747
    29  H    0.010488
    30  H    0.013289
    31  H    0.014432
    32  H    0.016006
    33  H   -0.014743
    34  H    0.015889
    35  H    0.040663
    36  H    0.056206
    37  H    0.056445
    38  H    0.140155
    39  H    0.159466
    40  H    0.121674
    41  N   -0.091809
    42  C    0.061139
    43  C    0.041741
    44  O   -0.220277
    45  C    0.150838
    46  C    0.065268
    47  O   -0.477209
    48  O   -0.354513
    49  H    0.139721
    50  H    0.031996
    51  H    0.008580
    52  H   -0.007262
    53  N   -0.134990
    54  C    0.204852
    55  C    0.107446
    56  O   -0.380160
    57  H    0.123671
    58  H    0.026464
    59  H    0.060912
    60  N   -0.146915
    61  C    0.128206
    62  C    0.072031
    63  O   -0.292491
    64  C    0.060272
    65  C    0.024996
    66  N   -0.049721
    67  O   -0.303043
    68  H    0.144786
    69  H    0.037447
    70  H    0.053319
    71  H    0.026424
    72  H    0.144449
    73  H    0.140298
    74  N   -0.104066
    75  C    0.223231
    76  C    0.024540
    77  O   -0.283470
    78  H    0.117476
    79  H    0.010588
    80  H    0.043655
    81  N   -0.116009
    82  C    0.098719
    83  C    0.071290
    84  O   -0.274078
    85  C    0.131646
    86  C   -0.036927
    87  C    0.028995
    88  C   -0.013959
    89  C   -0.032640
    90  C   -0.043134
    91  C    0.133185
    92  O   -0.190309
    93  H    0.127997
    94  H    0.014251
    95  H    0.009963
    96  H    0.024260
    97  H   -0.007059
    98  H   -0.023768
    99  H   -0.014325
   100  H   -0.043235
   101  H    0.175376
   102  N   -0.134888
   103  C    0.209333
   104  C    0.067062
   105  O   -0.254548
   106  C   -0.117827
   107  C   -0.001204
   108  C    0.086738
   109  C    0.041473
   110  H    0.140140
   111  H   -0.002760
   112  H   -0.020224
   113  H    0.006869
   114  H   -0.023535
   115  H   -0.000173
   116  H   -0.033171
   117  H    0.015344
   118  H    0.011676
   119  H    0.019216
   120  H    0.014369
   121  N   -0.151153
   122  C    0.040933
   123  C    0.037435
   124  O   -0.266711
   125  C    0.268996
   126  O   -0.274758
   127  H    0.147175
   128  H    0.023338
   129  H   -0.013417
   130  H    0.019656
   131  H    0.151410
   132  N   -0.120689
   133  C    0.048693
   134  C    0.058689
   135  O   -0.281873
   136  C    0.081656
   137  H    0.115980
   138  H    0.020566
   139  H    0.018556
   140  H   -0.011720
   141  H    0.039959
   142  N   -0.133784
   143  C    0.065204
   144  C    0.066501
   145  O   -0.276700
   146  C    0.085534
   147  H    0.130800
   148  H    0.001819
   149  H    0.028900
   150  H   -0.006502
   151  H    0.050253
   152  N   -0.132826
   153  C    0.098308
   154  C    0.054486
   155  O   -0.279862
   156  C    0.089933
   157  C    0.081273
   158  C    0.019449
   159  O   -0.377594
   160  O   -0.438524
   161  H    0.123575
   162  H    0.012417
   163  H   -0.017125
   164  H   -0.008022
   165  H   -0.009246
   166  H   -0.001037
   167  N   -0.144941
   168  C    0.127616
   169  H    0.024353
   170  H    0.030729
   171  H    0.040370
   172  H    0.106974
   173  Ca   1.378238
   174  O   -0.316147
   175  H    0.180933
   176  H    0.163841
 Sum of Mulliken charges =  -0.00000
 Mulliken charges with hydrogens summed into heavy atoms:
               1
     1  C    0.129509
     2  C    0.008714
     3  O   -0.284093
     7  N   -0.046318
     8  C    0.109548
     9  C    0.065035
    10  O   -0.266838
    11  C    0.057571
    12  C    0.030562
    13  O   -0.366569
    14  O   -0.354028
    19  N    0.008911
    20  C    0.133139
    21  C    0.025485
    22  O   -0.308581
    23  C    0.094480
    24  C   -0.041040
    25  C    0.063435
    26  C    0.154140
    27  N    0.542477
    41  N    0.047912
    42  C    0.093135
    43  C    0.041741
    44  O   -0.220277
    45  C    0.152156
    46  C    0.065268
    47  O   -0.477209
    48  O   -0.354513
    53  N   -0.011319
    54  C    0.292228
    55  C    0.107446
    56  O   -0.380160
    60  N   -0.002129
    61  C    0.165652
    62  C    0.072031
    63  O   -0.292491
    64  C    0.140015
    65  C    0.024996
    66  N    0.235026
    67  O   -0.303043
    74  N    0.013410
    75  C    0.277474
    76  C    0.024540
    77  O   -0.283470
    81  N    0.011988
    82  C    0.112970
    83  C    0.071290
    84  O   -0.274078
    85  C    0.165869
    86  C   -0.036927
    87  C    0.021936
    88  C   -0.037728
    89  C   -0.046965
    90  C   -0.086369
    91  C    0.133185
    92  O   -0.014933
   102  N    0.005253
   103  C    0.206573
   104  C    0.067062
   105  O   -0.254548
   106  C   -0.138051
   107  C   -0.017869
   108  C    0.068737
   109  C    0.086734
   121  N   -0.003978
   122  C    0.064271
   123  C    0.037435
   124  O   -0.266711
   125  C    0.275235
   126  O   -0.123347
   132  N   -0.004708
   133  C    0.069259
   134  C    0.058689
   135  O   -0.281873
   136  C    0.128451
   142  N   -0.002984
   143  C    0.067023
   144  C    0.066501
   145  O   -0.276700
   146  C    0.158185
   152  N   -0.009252
   153  C    0.110724
   154  C    0.054486
   155  O   -0.279862
   156  C    0.064786
   157  C    0.070991
   158  C    0.019449
   159  O   -0.377594
   160  O   -0.438524
   167  N   -0.037968
   168  C    0.223069
   173  Ca   1.378238
   174  O    0.028627
 DipInt: DoE/N= T F RetVal/Mat= T F Init=T NMatP=  1 IDeriv=0 Min/MaxMlt=  0  4
 Entering OneElI...
 OneElI was handed  1333951383 working-precision words.
 Multipole integrals L=0 to 4 MinM= 0 MaxM= 0.
 Requested accuracy = 0.1000D-12
 ShPair: Thresh= 1.00D-13 NBox=     0 BxSize= 0.00D+00 RnKept= 2.65D+01
         NSMCal=               327645 NSMKep=              120517
 PrmmSu-InSpLW:  IPartL=    0 NPrtUS=    1 NPrtUL=    1 DoSpLW=F IThBeg=    0 IThEnd=    0 NThAct=    1.
 PrsmSu:  NPrtUS=   1 ThrOK=F IAlg=1 NPAlg=1 LenDen=           0 ISkipM=0 DoSpLW=F IThBeg=    0 IThEnd=    0.
 Prism:   IPart=     0 DynPar=F LinDyn=F Incr=         512.
 PRISM was handed  1325391205 working-precision words and120517 shell-pairs
 IPart=  0 NShTot=      120517 NBatch=         288 AvBLen=       418.5
 PrsmSu-ThDecC:  IPartSL=    0    0 NPrtUSL=    1    1 IThBeg=    0 IThEnd=    0 CPU=   -1 GPU=   -1 NThAct=    1.
 PrSmSu:  NxtVal=            513.
 Electronic moments (au):
       -716.00000000          2.02804030         -9.66377607         -3.51137426
    -107071.51958194     -41606.21159441      -9276.47079777       -263.59591156
        -52.73171048        -49.62173583    -446457.75588547     -88141.79434777
     -13604.40777271      83598.46489246      20594.25093694     -93534.77129695
      -8704.32110616     -12657.83441970      46596.39178042     -86975.16460435
  -30808781.03495204   -5874180.68587110    -354694.20597944      19969.28168619
     -71873.84072241     460726.86897340     703142.68853028    -108546.82866618
     -52129.81522491   -4279466.62850749   -1269164.59036071    -724132.97152519
    -497993.74441492    -317407.10078674    -116876.18693481
 Electronic spatial extent (au):  <R**2>=         157954.2020
 DipInt: DoE/N= F T RetVal/Mat= T F Init=T NMatP=  1 IDeriv=0 Min/MaxMlt=  0  4
 Nuclear    moments (au):
        716.00000000          0.00000000         -0.00000000          0.00000000
     106764.91027341      41169.78427374       8873.70374328          0.00000000
         -0.00000000         -0.00000000     452632.24419682      86788.66851829
      13551.97515598     -83666.32600713     -25273.48313921      93002.48133782
       8469.23919056      12703.38741121     -47277.75230509      87084.24781042
   30536900.51547664    5732142.13208361     323507.02140623    -118913.37901256
      60716.83826063    -489500.41736068    -713936.12921031     107864.78778192
      48700.01372539    4203441.18425451    1204144.72036630     695726.41742711
     501339.80395424     310992.59652686     112128.17895097
 Total      moments (au):
         -0.00000000          2.02804030         -9.66377607         -3.51137426
       -306.60930853       -436.42732067       -402.76705449       -263.59591156
        -52.73171048        -49.62173583       6174.48831135      -1353.12582948
        -52.43261673        -67.86111468      -4679.23220227       -532.28995913
       -235.08191560         45.55299151       -681.36052466        109.08320607
    -271880.51947539    -142038.55378750     -31187.18457321     -98944.09732637
     -11157.00246179     -28773.54838729     -10793.44068002       -682.04088426
      -3429.80149952     -76025.44425299     -65019.86999441     -28406.55409808
       3346.05953932      -6414.50425988      -4748.00798383
 Traceless Quadrup. (au):
         75.32525270        -54.49275944        -20.83249326       -263.59591156
        -52.73171048        -49.62173583
 Charge=             -0.0000 electrons
 Dipole moment (field-independent basis, Debye):
    X=              5.1548    Y=            -24.5629    Z=             -8.9250  Tot=             26.6376
 Quadrupole moment (field-independent basis, Debye-Ang):
   XX=           -412.4000   YY=           -587.0097   ZZ=           -541.7355
   XY=           -354.5455   XZ=            -70.9260   YZ=            -66.7429
 Traceless Quadrupole moment (field-independent basis, Debye-Ang):
   XX=            101.3150   YY=            -73.2946   ZZ=            -28.0204
   XY=           -354.5455   XZ=            -70.9260   YZ=            -66.7429
 Octapole moment (field-independent basis, Debye-Ang**2):
  XXX=           4394.7629  YYY=           -963.1028  ZZZ=            -37.3195  XYY=            -48.3009
  XXY=          -3330.4972  XXZ=           -378.8635  XZZ=           -167.3223  YZZ=             32.4229
  YYZ=           -484.9662  XYZ=             77.6412
 Hexadecapole moment (field-independent basis, Debye-Ang**3):
 XXXX=        -102403.2407 YYYY=         -53498.5303 ZZZZ=         -11746.5892 XXXY=         -37267.0916
 XXXZ=          -4202.2621 YYYX=         -10837.4981 YYYZ=          -4065.3273 ZZZX=           -256.8893
 ZZZY=          -1291.8277 XXYY=         -28634.8278 XXZZ=         -24489.6008 YYZZ=         -10699.2704
 XXYZ=           1260.2865 YYXZ=          -2416.0099 ZZXY=          -1788.3275
 N-N= 1.880161770977D+04 E-N=-5.007713028277D+04  KE= 5.290508938294D+03
 Leave Link  601 at Tue Sep 17 10:26:35 2019, MaxMem=  1342177280 cpu:              38.9 elap:               1.0
 FitSet:  NAtFit=   176 NAtPot=   176 NAtFrz=     0 MDM=   180 TotChg=   0.00000
 Merz-Kollman atomic radii used.
 Read replacement radii for each type of atom:
 Rad(20) =   1.700000000000D+00
 Atom Element Radius
    1     6    1.50
    2     6    1.50
    3     8    1.40
    4     1    1.20
    5     1    1.20
    6     1    1.20
    7     7    1.50
    8     6    1.50
    9     6    1.50
   10     8    1.40
   11     6    1.50
   12     6    1.50
   13     8    1.40
   14     8    1.40
   15     1    1.20
   16     1    1.20
   17     1    1.20
   18     1    1.20
   19     7    1.50
   20     6    1.50
   21     6    1.50
   22     8    1.40
   23     6    1.50
   24     6    1.50
   25     6    1.50
   26     6    1.50
   27     7    1.50
   28     1    1.20
   29     1    1.20
   30     1    1.20
   31     1    1.20
   32     1    1.20
   33     1    1.20
   34     1    1.20
   35     1    1.20
   36     1    1.20
   37     1    1.20
   38     1    1.20
   39     1    1.20
   40     1    1.20
   41     7    1.50
   42     6    1.50
   43     6    1.50
   44     8    1.40
   45     6    1.50
   46     6    1.50
   47     8    1.40
   48     8    1.40
   49     1    1.20
   50     1    1.20
   51     1    1.20
   52     1    1.20
   53     7    1.50
   54     6    1.50
   55     6    1.50
   56     8    1.40
   57     1    1.20
   58     1    1.20
   59     1    1.20
   60     7    1.50
   61     6    1.50
   62     6    1.50
   63     8    1.40
   64     6    1.50
   65     6    1.50
   66     7    1.50
   67     8    1.40
   68     1    1.20
   69     1    1.20
   70     1    1.20
   71     1    1.20
   72     1    1.20
   73     1    1.20
   74     7    1.50
   75     6    1.50
   76     6    1.50
   77     8    1.40
   78     1    1.20
   79     1    1.20
   80     1    1.20
   81     7    1.50
   82     6    1.50
   83     6    1.50
   84     8    1.40
   85     6    1.50
   86     6    1.50
   87     6    1.50
   88     6    1.50
   89     6    1.50
[...]
 **** Fit       0.014072
 **** Fit       0.000929
 **** Fit      -0.000641
 **** Fit       0.010866
 **** Fit       0.011163
 **** Fit       0.011748
 **** Fit       0.014932
 **** Fit       0.014951
 **** Fit       0.014890
 **** Fit      -0.002423
 **** Fit      -0.004561
 **** Fit       0.009759
 **** Fit       0.016103
 **** Fit       0.016385
 **** Fit       0.016389
 **** Fit       0.016154
 **** Fit       0.015783
 **** Fit      -0.002854
 **** Fit      -0.006196
 **** Fit      -0.009420
 **** Fit       0.006590
 **** Fit       0.006390
 **** Fit       0.017933
 **** Fit       0.018676
 **** Fit       0.018932
 **** Fit       0.018671
 **** Fit       0.018022
 **** Fit       0.017164
 **** Fit      -0.006237
 **** Fit      -0.010831
 **** Fit      -0.004795
 **** Fit       0.013200
 **** Fit       0.013178
 **** Fit       0.013381
 **** Fit       0.013322
 **** Fit       0.013215
 **** Fit       0.013141
 **** Fit       0.013471
 **** Fit       0.013706
 **** Fit       0.013654
 **** Fit       0.013423
 **** Fit       0.013252
 **** Fit       0.013245
 **** Fit       0.013090
 **** Fit       0.013485
 **** Fit       0.013907
 **** Fit       0.014146
 **** Fit       0.014087
 **** Fit       0.013791
 **** Fit       0.013451
 **** Fit       0.013238
 **** Fit       0.013203
 **** Fit       0.013090
 **** Fit       0.013558
 **** Fit       0.014101
 **** Fit       0.014530
 **** Fit       0.014682
 **** Fit       0.014487
 **** Fit       0.014038
 **** Fit       0.013548
 **** Fit       0.013208
 **** Fit       0.013092
 **** Fit       0.013169
 **** Fit       0.013158
 **** Fit       0.013713
 **** Fit       0.014361
 **** Fit       0.014926
 **** Fit       0.015227
 **** Fit       0.015126
 **** Fit       0.014626
 **** Fit       0.013918
 **** Fit       0.013288
 **** Fit       0.012933
 **** Fit       0.012885
 **** Fit       0.013064
 **** Fit       0.013383
 **** Fit       0.013184
 **** Fit       0.013773
 **** Fit       0.014486
 **** Fit       0.015171
 **** Fit       0.015653
 **** Fit       0.015734
 **** Fit       0.015302
 **** Fit       0.014449
 **** Fit       0.013488
 **** Fit       0.012765
 **** Fit       0.012468
 **** Fit       0.012571
 **** Fit       0.012931
 **** Fit       0.013408
 **** Fit       0.013260
 **** Fit       0.013937
 **** Fit       0.014740
 **** Fit       0.015519
 **** Fit       0.016038
 **** Fit       0.016012
 **** Fit       0.015286
 **** Fit       0.014039
 **** Fit       0.012767
 **** Fit       0.011964
 **** Fit       0.011827
 **** Fit       0.012236
 **** Fit       0.012933
 **** Fit       0.013696
 **** Fit       0.012965
 **** Fit       0.013663
 **** Fit       0.014550
 **** Fit       0.015452
 **** Fit       0.016037
 **** Fit       0.015900
 **** Fit       0.014849
 **** Fit       0.013200
 **** Fit       0.011682
 **** Fit       0.010944
 **** Fit       0.011152
 **** Fit       0.012038
 **** Fit       0.013203
 **** Fit       0.012036
 **** Fit       0.012855
 **** Fit       0.013972
 **** Fit       0.015041
 **** Fit       0.015510
 **** Fit       0.014889
 **** Fit       0.013210
 **** Fit       0.011271
 **** Fit       0.010135
 **** Fit       0.010319
 **** Fit       0.011578
 **** Fit       0.013322
 **** Fit       0.015039
 **** Fit       0.009647
 **** Fit       0.010619
 **** Fit       0.012190
 **** Fit       0.013751
 **** Fit       0.014469
 **** Fit       0.010219
 **** Fit       0.010179
 **** Fit       0.011811
 **** Fit       0.014316
 **** Fit       0.010927
 **** Fit       0.012768
 **** Fit       0.011462
 **** Fit       0.010875
 **** Fit       0.012008
 **** Fit       0.011376
 **** Fit       0.010796
 **** Fit       0.010255
 **** Fit       0.009947
 **** Fit       0.012471
 **** Fit       0.011873
 **** Fit       0.011383
 **** Fit       0.010888
 **** Fit       0.010333
 **** Fit       0.009740
 **** Fit       0.009223
 **** Fit       0.008981
 **** Fit       0.012542
 **** Fit       0.012017
 **** Fit       0.011593
 **** Fit       0.011164
 **** Fit       0.010665
 **** Fit       0.010069
 **** Fit       0.009389
 **** Fit       0.008693
 **** Fit       0.008110
 **** Fit       0.007835
 **** Fit       0.012939
 **** Fit       0.012380
 **** Fit       0.011961
 **** Fit       0.011574
 **** Fit       0.011142
 **** Fit       0.010616
 **** Fit       0.009972
 **** Fit       0.009212
 **** Fit       0.008370
 **** Fit       0.007522
 **** Fit       0.006806
 **** Fit       0.006425
 **** Fit       0.012838
 **** Fit       0.012384
 **** Fit       0.011994
 **** Fit       0.011593
 **** Fit       0.011129
 **** Fit       0.010564
 **** Fit       0.009875
 **** Fit       0.009055
 **** Fit       0.008116
 **** Fit       0.007095
 **** Fit       0.006072
 **** Fit       0.005182
 **** Fit       0.013402
 **** Fit       0.012849
 **** Fit       0.012383
 **** Fit       0.011928
 **** Fit       0.011427
 **** Fit       0.010836
 **** Fit       0.010123
 **** Fit       0.009266
 **** Fit       0.008253
 **** Fit       0.007091
 **** Fit       0.005812
 **** Fit       0.004488
 **** Fit       0.003256
 **** Fit       0.014278
 **** Fit       0.013538
 **** Fit       0.012924
 **** Fit       0.012358
 **** Fit       0.011779
 **** Fit       0.011137
 **** Fit       0.010391
 **** Fit       0.009509
 **** Fit       0.008463
 **** Fit       0.007237
 **** Fit       0.005824
 **** Fit       0.004242
 **** Fit       0.002541
 **** Fit       0.000843
 **** Fit       0.014972
 **** Fit       0.014016
 **** Fit       0.013208
 **** Fit       0.012465
 **** Fit       0.011722
 **** Fit       0.010921
 **** Fit       0.010014
 **** Fit       0.008958
 **** Fit       0.007717
 **** Fit       0.006257
 **** Fit       0.004551
 **** Fit       0.002583
 **** Fit       0.000366
 **** Fit       0.015499
 **** Fit       0.014231
 **** Fit       0.013156
 **** Fit       0.012165
 **** Fit       0.011170
 **** Fit       0.010096
 **** Fit       0.008877
 **** Fit       0.007452
 **** Fit       0.005758
 **** Fit       0.003729
 **** Fit       0.001296
 **** Fit      -0.001614
 **** Fit       0.016461
 **** Fit       0.014678
 **** Fit       0.013218
 **** Fit       0.011907
 **** Fit       0.010609
 **** Fit       0.009214
 **** Fit       0.007621
 **** Fit       0.005728
 **** Fit       0.003418
 **** Fit       0.000540
 **** Fit      -0.003106
 **** Fit       0.012999
 **** Fit       0.011361
 **** Fit       0.009745
 **** Fit       0.007994
 **** Fit       0.005958
 **** Fit       0.003465
 **** Fit       0.000286
 **** Fit       0.008164
 **** Fit       0.008591
 **** Fit       0.009600
 **** Fit       0.006609
 **** Fit       0.007013
 **** Fit       0.007837
 **** Fit       0.008938
 **** Fit       0.010201
 **** Fit       0.006745
 **** Fit       0.004888
 **** Fit       0.005370
 **** Fit       0.006226
 **** Fit       0.007331
 **** Fit       0.008559
 **** Fit       0.009837
 **** Fit       0.011168
 **** Fit       0.005400
 **** Fit       0.004878
 **** Fit       0.002878
 **** Fit       0.003517
 **** Fit       0.004543
 **** Fit       0.005818
 **** Fit       0.007189
 **** Fit       0.008538
 **** Fit       0.009830
 **** Fit       0.011120
 **** Fit       0.004061
 **** Fit       0.003109
 **** Fit       0.002723
 **** Fit       0.000422
 **** Fit       0.001294
 **** Fit       0.002598
 **** Fit       0.004178
 **** Fit       0.005833
 **** Fit       0.007375
 **** Fit       0.008714
 **** Fit       0.009897
 **** Fit       0.011046
 **** Fit       0.001170
 **** Fit       0.000329
 **** Fit       0.000084
 **** Fit      -0.002698
 **** Fit      -0.001388
 **** Fit       0.000507
 **** Fit       0.002770
 **** Fit       0.005079
 **** Fit       0.007066
 **** Fit       0.008520
 **** Fit       0.009551
 **** Fit       0.010447
 **** Fit      -0.002245
 **** Fit      -0.003146
 **** Fit      -0.003300
 **** Fit      -0.006843
 **** Fit      -0.004876
 **** Fit      -0.002057
 **** Fit       0.001352
 **** Fit       0.004870
 **** Fit      -0.006801
 **** Fit      -0.007798
 **** Fit      -0.007829
 **** Fit       0.017475
 **** Fit       0.011123
 **** Fit       0.013717
 **** Fit       0.016651
 **** Fit       0.019055
 **** Fit       0.010638
 **** Fit       0.014898
 **** Fit       0.018171
 **** Fit       0.020253
 **** Fit       0.014522
 **** Fit       0.018342
 **** Fit       0.020753
 **** Fit       0.021930
 **** Fit       0.018663
 **** Fit       0.021643
 **** Fit       0.023304
 **** Fit       0.023848
 **** Fit       0.024697
 **** Fit       0.026260
 **** Fit       0.026759
 **** Fit       0.026341
 **** Fit       0.031486
 **** Fit       0.030996
 **** Fit       0.029825
 **** Fit      -0.022347
 **** Fit      -0.014018
 **** Fit      -0.010393
 **** Fit       0.023917
 **** Fit      -0.006253
 **** Fit      -0.002029
 **** Fit      -0.000441
 **** Fit       0.026897
 **** Fit      -0.001119
 **** Fit       0.004104
 **** Fit       0.006580
 **** Fit       0.006511
 **** Fit       0.040454
 **** Fit       0.030578
 **** Fit       0.003222
 **** Fit       0.008998
 **** Fit       0.012056
 **** Fit       0.012495
 **** Fit       0.010209
 **** Fit       0.033737
 **** Fit       0.055081
 **** Fit       0.055943
 **** Fit       0.055199
 **** Fit       0.052444
 **** Fit       0.047439
 **** Fit       0.039996
 **** Fit       0.029729
 **** Fit       0.005811
 **** Fit       0.012335
 **** Fit       0.016184
 **** Fit       0.017424
 **** Fit       0.015978
 **** Fit       0.033683
 **** Fit       0.040043
 **** Fit       0.045067
 **** Fit       0.049082
 **** Fit       0.052278
 **** Fit       0.054688
 **** Fit       0.056195
 **** Fit       0.056554
 **** Fit       0.055437
 **** Fit       0.052518
 **** Fit       0.047504
 **** Fit       0.040065
 **** Fit       0.029660
 **** Fit      -0.001545
 **** Fit       0.007995
 **** Fit       0.014963
 **** Fit       0.019429
 **** Fit       0.021436
 **** Fit       0.020959
 **** Fit       0.017926
 **** Fit       0.029176
 **** Fit       0.036653
 **** Fit       0.042856
 **** Fit       0.047835
 **** Fit       0.051720
 **** Fit       0.054583
 **** Fit       0.056392
 **** Fit       0.056995
 **** Fit       0.056147
 **** Fit       0.053548
 **** Fit       0.048872
 **** Fit       0.041723
 **** Fit       0.031515
 **** Fit       0.006714
 **** Fit       0.015020
 **** Fit       0.020865
 **** Fit       0.024270
 **** Fit       0.025257
 **** Fit       0.023859
 **** Fit       0.020207
 **** Fit       0.033213
 **** Fit       0.039675
 **** Fit       0.045323
 **** Fit       0.049934
 **** Fit       0.053442
 **** Fit       0.055794
 **** Fit       0.056877
 **** Fit       0.056498
 **** Fit       0.054394
 **** Fit       0.050244
 **** Fit       0.043656
 **** Fit       0.034085
 **** Fit       0.020710
 **** Fit      -0.007045
 **** Fit       0.004679
 **** Fit       0.014102
 **** Fit       0.021193
 **** Fit       0.025934
 **** Fit       0.028348
 **** Fit       0.028523
 **** Fit       0.026683
 **** Fit       0.023316
 **** Fit       0.027976
 **** Fit       0.026404
 **** Fit       0.026372
 **** Fit       0.028387
 **** Fit       0.032248
 **** Fit       0.037232
 **** Fit       0.042488
 **** Fit       0.047338
 **** Fit       0.051363
 **** Fit       0.054315
 **** Fit       0.056013
 **** Fit       0.056261
 **** Fit       0.054814
 **** Fit       0.051375
 **** Fit       0.045589
 **** Fit       0.037016
 **** Fit       0.025097
 **** Fit       0.002348
 **** Fit       0.012558
 **** Fit       0.020647
 **** Fit       0.026560
 **** Fit       0.030284
 **** Fit       0.031905
 **** Fit       0.031672
 **** Fit       0.030088
 **** Fit       0.034523
 **** Fit       0.034266
 **** Fit       0.035219
 **** Fit       0.037690
 **** Fit       0.041367
 **** Fit       0.045560
 **** Fit       0.049541
 **** Fit       0.052744
 **** Fit       0.054762
 **** Fit       0.055271
 **** Fit       0.053960
 **** Fit       0.050501
 **** Fit       0.044544
 **** Fit       0.035740
 **** Fit       0.023847
 **** Fit       0.008806
 **** Fit       0.018028
 **** Fit       0.025373
 **** Fit       0.030660
 **** Fit       0.033872
 **** Fit       0.035211
 **** Fit       0.035163
 **** Fit       0.039200
 **** Fit       0.039990
 **** Fit       0.041655
 **** Fit       0.044331
 **** Fit       0.047584
 **** Fit       0.050696
 **** Fit       0.052967
 **** Fit       0.053825
 **** Fit       0.052800
 **** Fit       0.049498
 **** Fit       0.043605
 **** Fit       0.034999
 **** Fit       0.024046
 **** Fit       0.007091
 **** Fit       0.015399
 **** Fit       0.023285
 **** Fit       0.029772
 **** Fit       0.034433
 **** Fit       0.037247
 **** Fit       0.038589
 **** Fit       0.042207
 **** Fit       0.043918
 **** Fit       0.046174
 **** Fit       0.048820
 **** Fit       0.051061
 **** Fit       0.051930
 **** Fit       0.050600
 **** Fit       0.046512
 **** Fit       0.039553
 **** Fit       0.030468
 **** Fit       0.021440
 **** Fit       0.015846
 **** Fit       0.015897
 **** Fit       0.020542
 **** Fit       0.026998
 **** Fit       0.033038
 **** Fit       0.037554
 **** Fit       0.040405
 **** Fit       0.043687
 **** Fit       0.046181
 **** Fit       0.048462
 **** Fit       0.049589
 **** Fit       0.048089
 **** Fit       0.043157
 **** Fit       0.035742
 **** Fit       0.029258
 **** Fit       0.027630
 **** Fit       0.031021
 **** Fit       0.036232
 **** Fit       0.040630
 **** Fit       0.043737
 **** Fit       0.046384
 **** Fit       0.045338
 **** Fit       0.039739
 **** Fit       0.036285
 **** Fit       0.039362
 **** Fit       0.042411
 **** Fit      -0.027387
 **** Fit      -0.022156
 **** Fit      -0.032969
 **** Fit      -0.035450
 **** Fit      -0.028572
 **** Fit      -0.030610
 **** Fit      -0.005999
 **** Fit      -0.009650
 **** Fit      -0.004240
 **** Fit      -0.006850
 **** Fit      -0.013218
 **** Fit      -0.015942
 **** Fit      -0.006080
 **** Fit      -0.007083
 **** Fit      -0.007932
 **** Fit      -0.010144
 **** Fit      -0.017450
 **** Fit      -0.010472
 **** Fit      -0.009041
 **** Fit      -0.009097
 **** Fit      -0.010849
 **** Fit      -0.013913
 **** Fit      -0.023036
 **** Fit      -0.013482
 **** Fit      -0.010838
 **** Fit      -0.010279
 **** Fit      -0.011610
 **** Fit      -0.014566
 **** Fit      -0.018667
 **** Fit      -0.013050
 **** Fit      -0.011763
 **** Fit      -0.012509
 **** Fit      -0.015102
 **** Fit      -0.019387
 **** Fit      -0.024938
 **** Fit      -0.015448
 **** Fit      -0.013769
 **** Fit      -0.014021
 **** Fit      -0.016081
 **** Fit      -0.020034
 **** Fit      -0.025936
 **** Fit      -0.019618
 **** Fit      -0.016940
 **** Fit      -0.016210
 **** Fit      -0.017217
 **** Fit      -0.020142
 **** Fit      -0.025387
 **** Fit      -0.021261
 **** Fit      -0.019958
 **** Fit      -0.019995
 **** Fit      -0.021582
 **** Fit      -0.025253
 **** Fit      -0.031802
 **** Fit      -0.025752
 **** Fit      -0.025111
 **** Fit      -0.025263
 **** Fit      -0.026803
 **** Fit      -0.030617
 **** Fit      -0.032926
 **** Fit      -0.035437
 -----------------------------------------------------------------
 Leave Link  602 at Tue Sep 17 10:26:38 2019, MaxMem=  1342177280 cpu:             126.4 elap:               2.7

 Test job not archived.
 1\1\GINC-C489-092\SP\RB3LYP\SVP\C54H83Ca1N15O23\PENGZHI\17-Sep-2019\0\
 \#b3lyp/svp scf=(tight,noincore) Test #IOP(5/87=12) Density=Current Po
 p=(MK,readradii) iop(6/33=2) iop(6/42=6)\\Ng-293_loop3_36.0\\0,1\C,0,6
 1.06,19.01,8.95\C,0,60.74,20.12,7.97\O,0,60.26,21.19,8.36\H,0,61.92,19
 .297,9.555\H,0,60.201,18.839,9.599\H,0,61.29,18.096,8.402\N,0,61.04,19
 .95,6.68\C,0,61.23,20.94,5.64\C,0,60.03,21.58,4.95\O,0,60.26,22.42,4.0
 9\C,0,62.21,21.99,6.14\C,0,63.39,21.55,7.\O,0,64.32,20.97,6.41\O,0,63.
 37,21.82,8.22\H,0,61.19,18.99,6.4\H,0,61.78,20.39,4.88\H,0,61.57,22.72
 ,6.65\H,0,62.65,22.44,5.25\N,0,58.79,21.22,5.28\C,0,57.64,21.86,4.67\C
 ,0,57.39,23.31,5.05\O,0,56.83,24.03,4.23\C,0,56.41,21.,4.94\C,0,55.27,
 21.41,4.01\C,0,54.02,20.56,4.18\C,0,52.81,21.12,3.44\N,0,52.33,22.37,4
 .05\H,0,58.6,20.46,5.92\H,0,57.79,22.03,3.61\H,0,56.19,21.18,5.99\H,0,
 56.66,19.97,4.67\H,0,55.58,21.32,2.96\H,0,55.05,22.47,4.13\H,0,53.69,2
 0.43,5.22\H,0,54.19,19.58,3.73\H,0,52.,20.39,3.41\H,0,53.11,21.3,2.41\
 H,0,52.26,22.24,5.05\H,0,52.98,23.11,3.82\H,0,51.44,22.72,3.71\N,0,57.
 88,23.79,6.19\C,0,57.65,25.03,6.91\C,0,58.82,25.26,7.86\O,0,59.72,24.4
 3,7.98\C,0,56.33,24.89,7.67\C,0,55.91,26.24,8.21\O,0,56.18,27.3,7.6\O,
 0,55.17,26.3,9.22\H,0,58.49,23.17,6.69\H,0,57.61,25.9,6.26\H,0,56.41,2
 4.09,8.41\H,0,55.59,24.56,6.94\N,0,58.83,26.4,8.55\C,0,59.53,26.72,9.7
 8\C,0,58.98,27.92,10.53\O,0,57.95,28.45,10.12\H,0,58.18,27.1,8.22\H,0,
 60.61,26.82,9.64\H,0,59.54,25.86,10.45\N,0,59.69,28.37,11.57\C,0,59.35
 ,29.55,12.33\C,0,60.49,30.56,12.3\O,0,60.43,31.52,13.07\C,0,58.96,29.0
 6,13.72\C,0,57.71,28.2,13.86\N,0,56.74,28.64,14.67\O,0,57.48,27.19,13.
 2\H,0,60.51,27.81,11.79\H,0,58.51,30.06,11.86\H,0,58.78,29.91,14.38\H,
 0,59.83,28.53,14.1\H,0,56.85,29.57,15.07\H,0,55.86,28.15,14.74\N,0,61.
 5,30.48,11.43\C,0,62.6,31.43,11.38\C,0,63.41,31.43,12.67\O,0,63.59,30.
 34,13.21\H,0,61.61,29.7,10.81\H,0,62.21,32.42,11.15\H,0,63.22,31.08,10
 .55\N,0,63.84,32.59,13.15\C,0,64.38,32.97,14.44\C,0,63.49,32.85,15.66\
 O,0,63.81,33.39,16.71\C,0,65.69,32.21,14.66\C,0,66.6,32.11,13.46\C,0,6
 6.65,31.02,12.57\C,0,67.16,33.31,13.03\C,0,67.19,31.08,11.28\C,0,67.66
 ,33.42,11.73\C,0,67.78,32.29,10.89\O,0,68.47,32.38,9.72\H,0,63.45,33.3
 9,12.67\H,0,64.57,34.04,14.36\H,0,65.36,31.2,14.91\H,0,66.26,32.57,15.
 51\H,0,66.16,30.11,12.9\H,0,66.99,34.21,13.61\H,0,67.19,30.29,10.54\H,
 0,68.19,34.3,11.4\H,0,68.92,33.22,9.62\N,0,62.39,32.11,15.46\C,0,61.35
 ,31.65,16.36\C,0,60.58,32.83,16.94\O,0,59.42,33.02,16.61\C,0,61.93,30.
 71,17.41\C,0,62.8,29.56,16.91\C,0,60.84,30.16,18.33\C,0,63.71,28.79,17
 .86\H,0,62.23,31.86,14.5\H,0,60.65,31.01,15.82\H,0,62.55,31.26,18.11\H
 ,0,63.4,29.94,16.09\H,0,62.11,28.82,16.51\H,0,61.23,29.38,18.98\H,0,60
 .53,30.91,19.06\H,0,60.07,29.69,17.72\H,0,63.06,28.25,18.55\H,0,64.29,
 28.07,17.28\H,0,64.44,29.44,18.33\N,0,61.21,33.59,17.85\C,0,60.65,34.8
 1,18.38\C,0,59.49,34.51,19.32\O,0,58.67,35.38,19.57\C,0,61.69,35.67,19
 .08\O,0,62.66,36.18,18.19\H,0,62.16,33.4,18.12\H,0,60.22,35.35,17.53\H
 ,0,62.16,35.07,19.86\H,0,61.17,36.49,19.58\H,0,62.26,35.95,17.35\N,0,5
 9.28,33.28,19.79\C,0,58.07,32.76,20.41\C,0,56.79,33.09,19.66\O,0,55.77
 ,33.41,20.27\C,0,58.02,33.23,21.86\H,0,59.96,32.56,19.57\H,0,58.1,31.6
 8,20.53\H,0,57.07,32.84,22.23\H,0,58.82,32.75,22.42\H,0,58.05,34.32,21
 .87\N,0,56.83,33.07,18.33\C,0,55.68,33.42,17.52\C,0,55.29,32.27,16.6\O
 ,0,56.09,31.44,16.19\C,0,55.84,34.8,16.89\H,0,57.73,32.91,17.89\H,0,54
 .85,33.53,18.22\H,0,56.6,34.79,16.11\H,0,54.86,35.07,16.48\H,0,56.08,3
 5.48,17.7\N,0,54.04,32.24,16.15\C,0,53.39,31.27,15.29\C,0,53.29,29.88,
 15.89\O,0,53.28,28.87,15.18\C,0,53.71,31.41,13.81\C,0,52.83,30.78,12.7
 3\C,0,53.3,30.81,11.28\O,0,53.51,31.9,10.7\O,0,53.29,29.74,10.65\H,0,5
 3.45,32.94,16.59\H,0,52.33,31.54,15.37\H,0,54.71,31.03,13.58\H,0,53.76
 ,32.48,13.61\H,0,51.88,31.3,12.65\H,0,52.6,29.74,12.94\N,0,53.21,29.87
 ,17.22\C,0,53.31,28.65,18.01\H,0,53.983,28.817,18.851\H,0,52.323,28.37
 6,18.384\H,0,53.7,27.844,17.388\H,0,53.36,30.75,17.67\Ca,0,55.48,29.19
 ,9.32\O,0,55.3,27.95,11.64\H,0,54.56,27.7,12.18\H,0,56.07,27.67,12.14\
 \Version=ES64L-G16RevA.03\State=1-A\HF=-5333.4081839\RMSD=1.542e-09\Di
 pole=-10.1371689,1.3392862,-2.2968203\Quadrupole=4.9482937,-35.1259388
 ,30.1776451,219.2921608,173.3317931,6.8528959\PG=C01 [X(C54H83Ca1N15O2
 3)]\\@


 ONE BIG VICE IN A MAN IS APT TO KEEP OUT MANY SMALLER ONES.

                           -- BRET HARTE
 Job cpu time:       0 days 14 hours 42 minutes 39.2 seconds.
 Elapsed time:       0 days  0 hours 18 minutes 38.8 seconds.
 File lengths (MBytes):  RWF=   1517 Int=      0 D2E=      0 Chk=    171 Scr=      1
 Normal termination of Gaussian 16 at Tue Sep 17 10:26:39 2019.
