 Entering Gaussian System, Link 0=g16
 Initial command:
 /home1/apps/gaussian/16rA.03/g16/l1.exe "/scratch/01990/pengzhi/4350477/Gau-119359.inp" -scrdir="/scratch/01990/pengzhi/4350477/"
 Entering Link 1 = /home1/apps/gaussian/16rA.03/g16/l1.exe PID=    119360.
  
 Copyright (c) 1988,1990,1992,1993,1995,1998,2003,2009,2016,
            Gaussian, Inc.  All Rights Reserved.
  
 This is part of the Gaussian(R) 16 program.  It is based on
 the Gaussian(R) 09 system (copyright 2009, Gaussian, Inc.),
 the Gaussian(R) 03 system (copyright 2003, Gaussian, Inc.),
 the Gaussian(R) 98 system (copyright 1998, Gaussian, Inc.),
 the Gaussian(R) 94 system (copyright 1995, Gaussian, Inc.),
 the Gaussian 92(TM) system (copyright 1992, Gaussian, Inc.),
 the Gaussian 90(TM) system (copyright 1990, Gaussian, Inc.),
 the Gaussian 88(TM) system (copyright 1988, Gaussian, Inc.),
 the Gaussian 86(TM) system (copyright 1986, Carnegie Mellon
 University), and the Gaussian 82(TM) system (copyright 1983,
 Carnegie Mellon University). Gaussian is a federally registered
 trademark of Gaussian, Inc.
  
 This software contains proprietary and confidential information,
 including trade secrets, belonging to Gaussian, Inc.
  
 This software is provided under written license and may be
 used, copied, transmitted, or stored only in accord with that
 written license.
  
 The following legend is applicable only to US Government
 contracts under FAR:
  
                    RESTRICTED RIGHTS LEGEND
  
 Use, reproduction and disclosure by the US Government is
 subject to restrictions as set forth in subparagraphs (a)
 and (c) of the Commercial Computer Software - Restricted
 Rights clause in FAR 52.227-19.
  
 Gaussian, Inc.
 340 Quinnipiac St., Bldg. 40, Wallingford CT 06492
  
  
 ---------------------------------------------------------------
 Warning -- This program may not be used in any manner that
 competes with the business of Gaussian, Inc. or will provide
 assistance to any competitor of Gaussian, Inc.  The licensee
 of this program is prohibited from giving any competitor of
 Gaussian, Inc. access to this program.  By using this program,
 the user acknowledges that Gaussian, Inc. is engaged in the
 business of creating and licensing software in the field of
 computational chemistry and represents and warrants to the
 licensee that it is not a competitor of Gaussian, Inc. and that
 it will not use this program in any manner prohibited above.
 ---------------------------------------------------------------
  

 Cite this work as:
 Gaussian 16, Revision A.03,
 M. J. Frisch, G. W. Trucks, H. B. Schlegel, G. E. Scuseria, 
 M. A. Robb, J. R. Cheeseman, G. Scalmani, V. Barone, 
 G. A. Petersson, H. Nakatsuji, X. Li, M. Caricato, A. V. Marenich, 
 J. Bloino, B. G. Janesko, R. Gomperts, B. Mennucci, H. P. Hratchian, 
 J. V. Ortiz, A. F. Izmaylov, J. L. Sonnenberg, D. Williams-Young, 
 F. Ding, F. Lipparini, F. Egidi, J. Goings, B. Peng, A. Petrone, 
 T. Henderson, D. Ranasinghe, V. G. Zakrzewski, J. Gao, N. Rega, 
 G. Zheng, W. Liang, M. Hada, M. Ehara, K. Toyota, R. Fukuda, 
 J. Hasegawa, M. Ishida, T. Nakajima, Y. Honda, O. Kitao, H. Nakai, 
 T. Vreven, K. Throssell, J. A. Montgomery, Jr., J. E. Peralta, 
 F. Ogliaro, M. J. Bearpark, J. J. Heyd, E. N. Brothers, K. N. Kudin, 
 V. N. Staroverov, T. A. Keith, R. Kobayashi, J. Normand, 
 K. Raghavachari, A. P. Rendell, J. C. Burant, S. S. Iyengar, 
 J. Tomasi, M. Cossi, J. M. Millam, M. Klene, C. Adamo, R. Cammi, 
 J. W. Ochterski, R. L. Martin, K. Morokuma, O. Farkas, 
 J. B. Foresman, and D. J. Fox, Gaussian, Inc., Wallingford CT, 2016.
 
 ******************************************
 Gaussian 16:  ES64L-G16RevA.03 25-Dec-2016
                17-Sep-2019 
 ******************************************
 %chk=Ng-295_loop3_17.0.chk
 %nprocshared=48
 Will use up to   48 processors via shared memory.
 %mem=10GB
 %nosave
 ----------------------------------------------------------------------
 #b3lyp/svp scf=(tight,noincore) Test #IOP(5/87=12) Density=Current Pop
 =(MK,readradii) iop(6/33=2) iop(6/42=6)
 ----------------------------------------------------------------------
 1/30=1,38=1,172=1/1;
 2/12=2,17=6,18=5,40=1/2;
 3/5=18,7=101,11=2,25=1,30=1,74=-5/1,2,3;
 4//1;
 5/5=4,32=2,38=5,87=12/2;
 6/7=2,8=2,9=2,10=2,15=8,20=101,22=-1,28=1,33=2,42=6/1,2;
 99/5=1,9=1/99;
 -----------------
 Ng-295_loop3_17.0
 -----------------
 Symbolic Z-matrix:
 Charge =  0 Multiplicity = 1
 C                     9.749     75.151    69.77 
 C                     8.939     74.181    68.93 
 O                     7.709     74.221    68.86 
 H                     10.661    75.419    69.236 
 H                     9.161     76.049    69.958 
 H                     10.009    74.682    70.719 
 N                     9.569     73.241    68.23 
 C                     8.859     72.171    67.55 
 C                     8.359     71.091    68.5 
 O                     9.029     70.071    68.68 
 C                     9.779     71.691    66.43 
 C                     8.939     71.101    65.31 
 O                     8.479     71.811    64.38 
 O                     8.599     69.901    65.31 
 H                     10.569    73.151    68.34 
 H                     7.959     72.561    67.08 
 H                     10.509    70.971    66.8 
 H                     10.339    72.591    66.17 
 N                     7.089     71.201    68.88 
 C                     6.529     70.311    69.88 
 C                     6.149     68.911    69.41 
 O                     5.839     68.071    70.25 
 C                     5.389     71.001    70.64 
 C                     5.889     72.271    71.31 
 C                     4.869     72.831    72.3 
 C                     5.349     74.101    72.98 
 N                     6.139     73.841    74.2 
 H                     6.549     71.991    68.56 
 H                     7.299     69.991    70.57 
 H                     5.049     70.301    71.4 
 H                     4.559     71.231    69.97 
 H                     6.049     73.041    70.56 
 H                     6.869     72.081    71.74 
 H                     4.629     72.051    73.02 
 H                     3.999     73.121    71.7 
 H                     4.499     74.741    73.21 
 H                     5.959     74.701    72.3 
 H                     5.719     73.261    74.91 
 H                     6.979     73.331    73.97 
 H                     6.339     74.741    74.61 
 N                     6.279     68.641    68.11 
 C                     5.779     67.401    67.54 
 C                     6.989     66.581    67.14 
 O                     6.919     65.371    66.91 
 C                     4.909     67.621    66.3 
 C                     5.579     68.491    65.25 
 O                     6.069     68.061    64.18 
 O                     5.529     69.721    65.44 
 H                     6.539     69.401    67.5 
 H                     5.269     66.761    68.25 
 H                     3.999     68.151    66.57 
 H                     4.619     66.661    65.88 
 N                     8.169     67.201    67.19 
 C                     9.459     66.591    66.88 
 C                     9.659     66.021    65.49 
 O                     10.639    65.311    65.3 
 H                     8.029     68.131    67.56 
 H                     9.519     65.781    67.61 
 H                     10.229    67.351    67.01 
 N                     8.809     66.241    64.49 
 C                     9.119     65.901    63.11 
 C                     9.529     67.181    62.4 
 O                     8.749     68.131    62.36 
 C                     7.929     65.211    62.46 
 C                     7.929     65.311    60.94 
 N                     7.349     66.401    60.43 
 O                     8.469     64.511    60.17 
 H                     8.059     66.921    64.57 
 H                     10.039    65.311    63.11 
 H                     6.989     65.661    62.78 
 H                     7.929     64.221    62.91 
 H                     6.899     67.051    61.06 
 H                     7.389     66.591    59.44 
 N                     10.689    67.271    61.75 
 C                     11.009    68.371    60.86 
 C                     11.289    68.111    59.39 
 O                     11.609    68.991    58.59 
 H                     11.269    66.441    61.77 
 H                     11.969    68.761    61.18 
 H                     10.319    69.211    60.98 
 N                     11.029    66.881    58.95 
 C                     10.829    66.541    57.55 
 C                     9.529     67.181    57.09 
 O                     8.459     66.871    57.61 
 C                     10.919    65.021    57.45 
 C                     11.039    64.401    56.08 
 C                     9.899     63.991    55.38 
 C                     12.299    64.361    55.48 
 C                     10.049    63.401    54.12 
 C                     12.479    63.781    54.21 
 C                     11.329    63.321    53.54 
 O                     11.449    62.811    52.28 
 H                     10.679    66.221    59.62 
 H                     11.629    66.931    56.92 
 H                     10.099    64.481    57.92 
 H                     11.789    64.691    58.02 
 H                     8.879     64.071    55.74 
 H                     13.149    64.831    55.93 
 H                     9.179     63.051    53.57 
 H                     13.469    63.721    53.79 
 H                     12.329    62.781    51.89 
 N                     9.679     68.041    56.08 
 C                     8.699     68.711    55.25 
 C                     7.709     67.791    54.54 
 O                     7.319     66.761    55.08 
 C                     8.029     69.801    56.07 
 C                     9.029     70.881    56.49 
 C                     7.199     69.441    57.3 
 C                     9.439     71.841    55.39 
 H                     10.599    68.221    55.71 
 H                     9.319     69.271    54.55 
 H                     7.299     70.321    55.45 
 H                     9.909     70.311    56.79 
 H                     8.709     71.461    57.36 
 H                     7.799     69.281    58.2 
 H                     6.609     70.321    57.56 
 H                     6.539     68.621    57.03 
 H                     10.269    72.361    55.88 
 H                     9.769     71.341    54.48 
 H                     8.659     72.571    55.19 
 N                     7.259     68.321    53.4 
 C                     6.359     67.601    52.52 
 C                     6.609     67.841    51.04 
 O                     5.989     67.091    50.28 
 C                     4.899     67.801    52.92 
 O                     4.539     69.161    52.76 
 H                     7.629     69.231    53.16 
 H                     6.429     66.521    52.68 
 H                     4.759     67.501    53.96 
 H                     4.229     67.301    52.23 
 H                     4.099     69.291    51.92 
 N                     7.459     68.801    50.7 
 C                     7.849     68.941    49.31 
 C                     6.669     69.051    48.36 
 O                     6.299     68.141    47.63 
 C                     8.879     67.881    48.94 
 H                     7.869     69.451    51.35 
 H                     8.429     69.861    49.18 
 H                     8.469     66.901    49.18 
 H                     9.059     67.921    47.86 
 H                     9.869     67.981    49.37 
 N                     6.069     70.241    48.2 
 C                     6.209     71.441    49. 
 C                     6.339     72.641    48.08 
 O                     5.699     72.681    47.03 
 C                     4.969     71.481    49.9 
 H                     5.309     70.271    47.54 
 H                     7.059     71.381    49.69 
 H                     5.129     70.741    50.68 
 H                     4.999     72.461    50.38 
 H                     4.039     71.271    49.37 
 N                     7.009     73.731    48.45 
 C                     7.729     74.061    49.66 
 C                     9.239     74.181    49.5 
 O                     10.019    73.531    50.19 
 C                     7.149     75.301    50.33 
 C                     7.989     75.841    51.49 
 C                     7.309     77.101    52.02 
 O                     6.699     76.901    53.09 
 O                     7.509     78.201    51.46 
 H                     7.029     74.481    47.78 
 H                     7.629     73.241    50.37 
 H                     6.189     75.031    50.77 
 H                     6.939     76.041    49.55 
 H                     9.049     75.961    51.27 
 H                     7.989     75.141    52.32 
 N                     9.699     75.161    48.71 
 C                     11.089    75.411    48.42 
 H                     11.695    74.596    48.817 
 H                     11.23     75.475    47.341 
 H                     11.394    76.349    48.884 
 H                     9.099     75.801    48.2 
 Ca                    7.        70.17     62.94 
 O                     8.43      71.51     61.18 
 H                     9.37      71.37     61.04 
 H                     8.19      72.17     60.53 
 
 Stoichiometry    C54H83CaN15O23
 Framework group  C1[X(C54H83CaN15O23)]
 Deg. of freedom   522
 Full point group                 C1      NOp   1
 Largest Abelian subgroup         C1      NOp   1
 Largest concise Abelian subgroup C1      NOp   1
                         Standard orientation:                         
 ---------------------------------------------------------------------
 Center     Atomic      Atomic             Coordinates (Angstroms)
 Number     Number       Type             X           Y           Z
 ---------------------------------------------------------------------
      1          6           0      -10.282495    5.234988    3.162005
      2          6           0       -9.483620    4.450382    2.137900
      3          8           0       -9.449559    4.749831    0.942672
      4          1           0       -9.717116    5.297749    4.092129
      5          1           0      -10.472559    6.239234    2.784041
      6          1           0      -11.231202    4.731340    3.347627
      7          7           0       -8.781324    3.390877    2.531258
      8          6           0       -8.141085    2.488986    1.588874
      9          6           0       -9.123814    1.549628    0.902761
     10          8           0       -9.301175    0.412574    1.347002
     11          6           0       -7.002568    1.813067    2.349210
     12          6           0       -5.918269    1.403250    1.367148
     13          8           0       -4.990389    2.185043    1.037848
     14          8           0       -5.948843    0.302832    0.780850
     15          1           0       -8.863053    3.091806    3.492547
     16          1           0       -7.691478    3.056250    0.777046
     17          1           0       -7.362917    0.958392    2.921816
     18          1           0       -6.710719    2.570947    3.078349
     19          7           0       -9.539485    1.930629   -0.302003
     20          6           0      -10.570728    1.190184   -1.004839
     21          6           0      -10.136179   -0.102041   -1.687934
     22          8           0      -10.999229   -0.848352   -2.141218
     23          6           0      -11.352420    2.114277   -1.947342
     24          6           0      -11.985499    3.256072   -1.168038
     25          6           0      -12.995703    4.030044   -2.013351
     26          6           0      -13.639371    5.176187   -1.253255
     27          7           0      -14.839593    4.767070   -0.496822
     28          1           0       -9.222261    2.813893   -0.672562
     29          1           0      -11.242879    0.721195   -0.297971
     30          1           0      -12.134021    1.510308   -2.402886
     31          1           0      -10.703576    2.508266   -2.731226
     32          1           0      -11.218051    3.966753   -0.873155
     33          1           0      -12.389341    2.866844   -0.237009
     34          1           0      -13.735718    3.326262   -2.389474
     35          1           0      -12.416985    4.491877   -2.821308
     36          1           0      -13.883602    5.984376   -1.940411
     37          1           0      -12.931398    5.625957   -0.552555
     38          1           0      -15.571557    4.296824   -1.006721
     39          1           0      -14.593443    4.088035    0.208104
     40          1           0      -15.228057    5.608304   -0.097421
     41          7           0       -8.837681   -0.406931   -1.660636
     42          6           0       -8.304031   -1.518376   -2.430317
     43          6           0       -7.882264   -2.580629   -1.435214
     44          8           0       -7.675114   -3.750512   -1.767422
     45          6           0       -7.086883   -1.131571   -3.274018
     46          6           0       -6.002739   -0.434537   -2.469609
     47          8           0       -4.926127   -0.969806   -2.117054
     48          8           0       -6.173140    0.779947   -2.251682
     49          1           0       -8.207348    0.274202   -1.265620
     50          1           0       -9.039695   -2.028148   -3.040834
     51          1           0       -7.374750   -0.417719   -4.041773
     52          1           0       -6.692125   -2.012434   -3.774364
     53          7           0       -7.886568   -2.224748   -0.149667
     54          6           0       -7.548787   -3.097848    0.971002
     55          6           0       -6.163376   -3.711675    1.000183
     56          8           0       -5.956449   -4.615446    1.800796
     57          1           0       -8.244655   -1.282443   -0.077317
     58          1           0       -8.290386   -3.894521    0.881880
     59          1           0       -7.642851   -2.517307    1.888349
     60          7           0       -5.185491   -3.326631    0.183860
     61          6           0       -3.802881   -3.738958    0.369533
     62          6           0       -3.059278   -2.582579    1.017948
     63          8           0       -3.026299   -1.489126    0.456010
     64          6           0       -3.200420   -4.167331   -0.960218
     65          6           0       -1.679608   -4.085356   -0.988710
     66          7           0       -1.168571   -2.902422   -1.340998
     67          8           0       -0.907643   -4.989680   -0.655891
     68          1           0       -5.276154   -2.502136   -0.402048
     69          1           0       -3.785581   -4.510765    1.143170
     70          1           0       -3.540515   -3.524766   -1.772589
     71          1           0       -3.667038   -5.130056   -1.155227
     72          1           0       -1.800499   -2.165226   -1.622259
     73          1           0       -0.174723   -2.735505   -1.294034
     74          7           0       -2.373626   -2.747595    2.148811
     75          6           0       -1.455875   -1.749864    2.665305
     76          6           0        0.017155   -2.078583    2.835680
     77          8           0        0.841208   -1.294895    3.308512
     78          1           0       -2.390518   -3.681543    2.540163
     79          1           0       -1.740485   -1.569235    3.696067
     80          1           0       -1.582001   -0.781346    2.173203
     81          7           0        0.428189   -3.229854    2.306788
     82          6           0        1.815621   -3.534132    1.993660
     83          6           0        2.247601   -2.637569    0.844413
     84          8           0        1.690798   -2.707978   -0.249394
     85          6           0        1.892319   -5.039550    1.756313
     86          6           0        3.254510   -5.685047    1.697415
     87          6           0        3.913203   -5.850947    0.474181
     88          6           0        3.890948   -5.997803    2.900049
     89          6           0        5.166862   -6.472359    0.454535
     90          6           0        5.155665   -6.615914    2.911498
     91          6           0        5.783225   -6.828238    1.668886
     92          8           0        7.037357   -7.365109    1.636884
     93          1           0       -0.263080   -3.793546    1.847008
     94          1           0        2.475693   -3.329378    2.837093
     95          1           0        1.389000   -5.388289    0.856340
     96          1           0        1.342901   -5.540781    2.554816
     97          1           0        3.524443   -5.552535   -0.493402
     98          1           0        3.474507   -5.714305    3.844563
     99          1           0        5.684697   -6.635388   -0.487361
    100          1           0        5.603838   -6.889037    3.852054
    101          1           0        7.452787   -7.585257    2.477331
    102          7           0        3.276133   -1.839514    1.140096
    103          6           0        4.087925   -0.985393    0.297676
    104          6           0        4.752376   -1.681587   -0.887406
    105          8           0        4.183531   -2.599682   -1.468883
    106          6           0        3.267068    0.230418   -0.099056
    107          6           0        2.895472    1.077831    1.120209
    108          6           0        2.006968    0.067561   -0.945829
    109          6           0        4.023389    1.917481    1.688092
    110          1           0        3.676347   -1.862742    2.064753
    111          1           0        4.815502   -0.577040    0.999017
    112          1           0        3.873860    0.887074   -0.722199
    113          1           0        2.612100    0.337164    1.868816
    114          1           0        2.026357    1.721517    0.958942
    115          1           0        1.122613   -0.206824   -0.364254
    116          1           0        1.744580    1.055389   -1.327206
    117          1           0        2.243197   -0.596408   -1.773017
    118          1           0        3.567229    2.254496    2.624969
    119          1           0        4.934142    1.349431    1.874766
    120          1           0        4.212522    2.794302    1.074322
    121          7           0        5.887361   -1.079979   -1.251932
    122          6           0        6.727800   -1.601606   -2.312294
    123          6           0        8.218457   -1.435482   -2.065632
    124          8           0        8.946782   -2.044615   -2.854935
    125          6           0        6.288024   -1.092124   -3.682924
    126          8           0        6.460415    0.311569   -3.751692
    127          1           0        6.153741   -0.271791   -0.705606
    128          1           0        6.551559   -2.670137   -2.467473
    129          1           0        5.239356   -1.344783   -3.849232
    130          1           0        6.949166   -1.445629   -4.465819
    131          1           0        7.289052    0.523297   -4.181380
    132          7           0        8.599907   -0.681359   -1.043138
    133          6           0       10.003076   -0.641735   -0.677971
    134          6           0       10.919300   -0.293612   -1.838292
    135          8           0       11.622349   -1.111846   -2.416319
    136          6           0       10.385416   -1.899988    0.091455
    137          1           0        7.973567   -0.126504   -0.483732
    138          1           0       10.165937    0.132788    0.079187
    139          1           0       10.116652   -2.768087   -0.508770
    140          1           0       11.470816   -1.910294    0.240450
    141          1           0        9.986817   -2.007963    1.093683
    142          7           0       11.081654    0.994908   -2.177495
    143          6           0       10.306750    2.146063   -1.760404
    144          6           0       11.250539    3.281530   -1.409291
    145          8           0       12.281570    3.445593   -2.060258
    146          6           0        9.371083    2.457680   -2.933699
    147          1           0       11.719175    1.178710   -2.935046
    148          1           0        9.641412    1.914153   -0.920319
    149          1           0        8.583682    1.708699   -2.908683
    150          1           0        8.908969    3.413897   -2.681113
    151          1           0        9.869532    2.444396   -3.903891
    152          7           0       10.919269    4.208244   -0.511872
    153          6           0        9.737021    4.390405    0.300843
    154          6           0        9.943881    4.185485    1.795941
    155          8           0        9.266400    3.391911    2.442671
    156          6           0        9.071310    5.732133    0.018893
    157          6           0        7.946182    6.093507    0.991670
    158          6           0        7.417756    7.474554    0.611705
    159          8           0        6.326833    7.419686    0.008484
    160          8           0        8.002133    8.501174    1.021773
    161          1           0       11.602260    4.929928   -0.355358
    162          1           0        9.010481    3.617716    0.052667
    163          1           0        8.598414    5.676632   -0.961612
    164          1           0        9.857225    6.491727   -0.054961
    165          1           0        8.199624    5.983485    2.045265
    166          1           0        7.104734    5.418092    0.870512
    167          7           0       10.763809    5.037275    2.427029
    168          6           0       11.099241    4.983511    3.828206
    169          1           0       10.706599    4.062606    4.260452
    170          1           0       12.182891    5.004945    3.944223
    171          1           0       10.660579    5.840148    4.339981
    172          1           0       11.266578    5.784733    1.959880
    173         20           0       -3.623204    0.880557   -0.801458
    174          8           0       -1.798860    1.868180    0.821646
    175          1           0       -1.633373    1.530398    1.705568
    176          1           0       -1.145125    2.557316    0.705792
 ---------------------------------------------------------------------
 Rotational constants (GHZ):           0.0237849           0.0061396           0.0053381
 Standard basis: SVP (5D, 7F)
 There are  1809 symmetry adapted cartesian basis functions of A   symmetry.
 There are  1717 symmetry adapted basis functions of A   symmetry.
  1717 basis functions,  2922 primitive gaussians,  1809 cartesian basis functions
   358 alpha electrons      358 beta electrons
       nuclear repulsion energy     18355.0556160966 Hartrees.
 NAtoms=  176 NActive=  176 NUniq=  176 SFac= 1.00D+00 NAtFMM=   60 NAOKFM=T Big=T
 Integral buffers will be    131072 words long.
 Raffenetti 2 integral format.
 Two-electron integral symmetry is turned on.
 One-electron integrals computed using PRISM.
 NBasis=  1717 RedAO= T EigKep=  2.96D-04  NBF=  1717
 NBsUse=  1717 1.00D-06 EigRej= -1.00D+00 NBFU=  1717
 ExpMin= 1.98D-02 ExpMax= 3.51D+04 ExpMxC= 5.28D+03 IAcc=3 IRadAn=         5 AccDes= 0.00D+00
 Harris functional with IExCor=  402 and IRadAn=       5 diagonalized for initial guess.
 HarFok:  IExCor=  402 AccDes= 0.00D+00 IRadAn=         5 IDoV= 1 UseB2=F ITyADJ=14
 ICtDFT=  3500011 ScaDFX=  1.000000  1.000000  1.000000  1.000000
 FoFCou: FMM=F IPFlag=           0 FMFlag=      100000 FMFlg1=        2001
         NFxFlg=           0 DoJE=T BraDBF=F KetDBF=T FulRan=T
         wScrn=  0.000000 ICntrl=       500 IOpCl=  0 I1Cent=   200000004 NGrid=           0
         NMat0=    1 NMatS0=      1 NMatT0=    0 NMatD0=    1 NMtDS0=    0 NMtDT0=    0
 Petite list used in FoFCou.
 Requested convergence on RMS density matrix=1.00D-08 within 128 cycles.
 Requested convergence on MAX density matrix=1.00D-06.
 Requested convergence on             energy=1.00D-06.
 No special actions if energy rises.
 EnCoef did     2 forward-backward iterations
 EnCoef did     2 forward-backward iterations
 EnCoef did     5 forward-backward iterations
 EnCoef did     1 forward-backward iterations
 EnCoef did     2 forward-backward iterations
 EnCoef did    23 forward-backward iterations
 EnCoef did   100 forward-backward iterations
 EnCoef did   100 forward-backward iterations
 EnCoef did   100 forward-backward iterations
 EnCoef did   100 forward-backward iterations
 Rare condition: small coef for last iteration:  0.264D-14
 EnCoef did   100 forward-backward iterations
 EnCoef did   100 forward-backward iterations
 Rare condition: small coef for last iteration:  0.448D-15
 EnCoef did   100 forward-backward iterations
 EnCoef did   100 forward-backward iterations
 Rare condition: small coef for last iteration:  0.974D-16
 Restarting incremental Fock formation.
 EnCoef did   100 forward-backward iterations
 EnCoef did   100 forward-backward iterations
 EnCoef did   100 forward-backward iterations
 EnCoef did   100 forward-backward iterations
 EnCoef did   100 forward-backward iterations
 Rare condition: small coef for last iteration:  0.202D-14
 EnCoef did   100 forward-backward iterations
 EnCoef did    46 forward-backward iterations
 Rare condition: small coef for last iteration: -0.156D-14
 EnCoef did   100 forward-backward iterations
 EnCoef did   100 forward-backward iterations
 Rare condition: small coef for last iteration:  0.114D-14
 EnCoef did   100 forward-backward iterations
 EnCoef did   100 forward-backward iterations
 EnCoef did   100 forward-backward iterations
 EnCoef did   100 forward-backward iterations
 EnCoef did   100 forward-backward iterations
 EnCoef did   100 forward-backward iterations
 Rare condition: small coef for last iteration:  0.435D-15
 EnCoef did   100 forward-backward iterations
 EnCoef did   100 forward-backward iterations
 EnCoef did    79 forward-backward iterations
 Restarting incremental Fock formation.
 Rare condition: small coef for last iteration:  0.000D+00
 Rare condition: small coef for last iteration:  0.000D+00
 EnCoef did   100 forward-backward iterations
 Rare condition: small coef for last iteration:  0.000D+00
 EnCoef did   100 forward-backward iterations
 Rare condition: small coef for last iteration:  0.000D+00
 EnCoef did   100 forward-backward iterations
 EnCoef did   100 forward-backward iterations
 EnCoef did    65 forward-backward iterations
 Rare condition: small coef for last iteration:  0.000D+00
 EnCoef did   100 forward-backward iterations
 Rare condition: small coef for last iteration:  0.000D+00
 EnCoef did   100 forward-backward iterations
 Restarting incremental Fock formation.
 SCF Done:  E(RB3LYP) =  -5333.38225385     A.U. after   66 cycles
            NFock= 66  Conv=0.69D-09     -V/T= 2.0081
 SCF density gives NOpUse=  1 NOpAll=  1.
 Hyperfine terms turned off by default for NAtoms > 100.

 **********************************************************************

            Population analysis using the SCF density.

 **********************************************************************

 Orbital symmetries:
 BldTbl:  Degeneracy threshold= 1.00D-02
       Occupied  (A) (A) (A) (A) (A) (A) (A) (A) (A) (A) (A) (A)
                 (A) (A) (A) (A) (A) (A) (A) (A) (A) (A) (A) (A)
                 (A) (A) (A) (A) (A) (A) (A) (A) (A) (A) (A) (A)
                 (A) (A) (A) (A) (A) (A) (A) (A) (A) (A) (A) (A)
                 (A) (A) (A) (A) (A) (A) (A) (A) (A) (A) (A) (A)
                 (A) (A) (A) (A) (A) (A) (A) (A) (A) (A) (A) (A)
                 (A) (A) (A) (A) (A) (A) (A) (A) (A) (A) (A) (A)
                 (A) (A) (A) (A) (A) (A) (A) (A) (A) (A) (A) (A)
                 (A) (A) (A) (A) (A) (A) (A) (A) (A) (A) (A) (A)
                 (A) (A) (A) (A) (A) (A) (A) (A) (A) (A) (A) (A)
                 (A) (A) (A) (A) (A) (A) (A) (A) (A) (A) (A) (A)
                 (A) (A) (A) (A) (A) (A) (A) (A) (A) (A) (A) (A)
                 (A) (A) (A) (A) (A) (A) (A) (A) (A) (A) (A) (A)
                 (A) (A) (A) (A) (A) (A) (A) (A) (A) (A) (A) (A)
                 (A) (A) (A) (A) (A) (A) (A) (A) (A) (A) (A) (A)
                 (A) (A) (A) (A) (A) (A) (A) (A) (A) (A) (A) (A)
                 (A) (A) (A) (A) (A) (A) (A) (A) (A) (A) (A) (A)
                 (A) (A) (A) (A) (A) (A) (A) (A) (A) (A) (A) (A)
                 (A) (A) (A) (A) (A) (A) (A) (A) (A) (A) (A) (A)
                 (A) (A) (A) (A) (A) (A) (A) (A) (A) (A) (A) (A)
                 (A) (A) (A) (A) (A) (A) (A) (A) (A) (A) (A) (A)
                 (A) (A) (A) (A) (A) (A) (A) (A) (A) (A) (A) (A)
                 (A) (A) (A) (A) (A) (A) (A) (A) (A) (A) (A) (A)
                 (A) (A) (A) (A) (A) (A) (A) (A) (A) (A) (A) (A)
                 (A) (A) (A) (A) (A) (A) (A) (A) (A) (A) (A) (A)
                 (A) (A) (A) (A) (A) (A) (A) (A) (A) (A) (A) (A)
                 (A) (A) (A) (A) (A) (A) (A) (A) (A) (A) (A) (A)
                 (A) (A) (A) (A) (A) (A) (A) (A) (A) (A) (A) (A)
                 (A) (A) (A) (A) (A) (A) (A) (A) (A) (A) (A) (A)
                 (A) (A) (A) (A) (A) (A) (A) (A) (A) (A)
       Virtual   (A) (A) (A) (A) (A) (A) (A) (A) (A) (A) (A) (A)
                 (A) (A) (A) (A) (A) (A) (A) (A) (A) (A) (A) (A)
                 (A) (A) (A) (A) (A) (A) (A) (A) (A) (A) (A) (A)
                 (A) (A) (A) (A) (A) (A) (A) (A) (A) (A) (A) (A)
                 (A) (A) (A) (A) (A) (A) (A) (A) (A) (A) (A) (A)
                 (A) (A) (A) (A) (A) (A) (A) (A) (A) (A) (A) (A)
                 (A) (A) (A) (A) (A) (A) (A) (A) (A) (A) (A) (A)
                 (A) (A) (A) (A) (A) (A) (A) (A) (A) (A) (A) (A)
                 (A) (A) (A) (A) (A) (A) (A) (A) (A) (A) (A) (A)
                 (A) (A) (A) (A) (A) (A) (A) (A) (A) (A) (A) (A)
                 (A) (A) (A) (A) (A) (A) (A) (A) (A) (A) (A) (A)
                 (A) (A) (A) (A) (A) (A) (A) (A) (A) (A) (A) (A)
                 (A) (A) (A) (A) (A) (A) (A) (A) (A) (A) (A) (A)
                 (A) (A) (A) (A) (A) (A) (A) (A) (A) (A) (A) (A)
                 (A) (A) (A) (A) (A) (A) (A) (A) (A) (A) (A) (A)
                 (A) (A) (A) (A) (A) (A) (A) (A) (A) (A) (A) (A)
                 (A) (A) (A) (A) (A) (A) (A) (A) (A) (A) (A) (A)
                 (A) (A) (A) (A) (A) (A) (A) (A) (A) (A) (A) (A)
                 (A) (A) (A) (A) (A) (A) (A) (A) (A) (A) (A) (A)
                 (A) (A) (A) (A) (A) (A) (A) (A) (A) (A) (A) (A)
                 (A) (A) (A) (A) (A) (A) (A) (A) (A) (A) (A) (A)
                 (A) (A) (A) (A) (A) (A) (A) (A) (A) (A) (A) (A)
                 (A) (A) (A) (A) (A) (A) (A) (A) (A) (A) (A) (A)
                 (A) (A) (A) (A) (A) (A) (A) (A) (A) (A) (A) (A)
                 (A) (A) (A) (A) (A) (A) (A) (A) (A) (A) (A) (A)
                 (A) (A) (A) (A) (A) (A) (A) (A) (A) (A) (A) (A)
                 (A) (A) (A) (A) (A) (A) (A) (A) (A) (A) (A) (A)
                 (A) (A) (A) (A) (A) (A) (A) (A) (A) (A) (A) (A)
                 (A) (A) (A) (A) (A) (A) (A) (A) (A) (A) (A) (A)
                 (A) (A) (A) (A) (A) (A) (A) (A) (A) (A) (A) (A)
                 (A) (A) (A) (A) (A) (A) (A) (A) (A) (A) (A) (A)
                 (A) (A) (A) (A) (A) (A) (A) (A) (A) (A) (A) (A)
                 (A) (A) (A) (A) (A) (A) (A) (A) (A) (A) (A) (A)
                 (A) (A) (A) (A) (A) (A) (A) (A) (A) (A) (A) (A)
                 (A) (A) (A) (A) (A) (A) (A) (A) (A) (A) (A) (A)
                 (A) (A) (A) (A) (A) (A) (A) (A) (A) (A) (A) (A)
                 (A) (A) (A) (A) (A) (A) (A) (A) (A) (A) (A) (A)
                 (A) (A) (A) (A) (A) (A) (A) (A) (A) (A) (A) (A)
                 (A) (A) (A) (A) (A) (A) (A) (A) (A) (A) (A) (A)
                 (A) (A) (A) (A) (A) (A) (A) (A) (A) (A) (A) (A)
                 (A) (A) (A) (A) (A) (A) (A) (A) (A) (A) (A) (A)
                 (A) (A) (A) (A) (A) (A) (A) (A) (A) (A) (A) (A)
                 (A) (A) (A) (A) (A) (A) (A) (A) (A) (A) (A) (A)
                 (A) (A) (A) (A) (A) (A) (A) (A) (A) (A) (A) (A)
                 (A) (A) (A) (A) (A) (A) (A) (A) (A) (A) (A) (A)
                 (A) (A) (A) (A) (A) (A) (A) (A) (A) (A) (A) (A)
                 (A) (A) (A) (A) (A) (A) (A) (A) (A) (A) (A) (A)
                 (A) (A) (A) (A) (A) (A) (A) (A) (A) (A) (A) (A)
                 (A) (A) (A) (A) (A) (A) (A) (A) (A) (A) (A) (A)
                 (A) (A) (A) (A) (A) (A) (A) (A) (A) (A) (A) (A)
                 (A) (A) (A) (A) (A) (A) (A) (A) (A) (A) (A) (A)
                 (A) (A) (A) (A) (A) (A) (A) (A) (A) (A) (A) (A)
                 (A) (A) (A) (A) (A) (A) (A) (A) (A) (A) (A) (A)
                 (A) (A) (A) (A) (A) (A) (A) (A) (A) (A) (A) (A)
                 (A) (A) (A) (A) (A) (A) (A) (A) (A) (A) (A) (A)
                 (A) (A) (A) (A) (A) (A) (A) (A) (A) (A) (A) (A)
                 (A) (A) (A) (A) (A) (A) (A) (A) (A) (A) (A) (A)
                 (A) (A) (A) (A) (A) (A) (A) (A) (A) (A) (A) (A)
                 (A) (A) (A) (A) (A) (A) (A) (A) (A) (A) (A) (A)
                 (A) (A) (A) (A) (A) (A) (A) (A) (A) (A) (A) (A)
                 (A) (A) (A) (A) (A) (A) (A) (A) (A) (A) (A) (A)
                 (A) (A) (A) (A) (A) (A) (A) (A) (A) (A) (A) (A)
                 (A) (A) (A) (A) (A) (A) (A) (A) (A) (A) (A) (A)
                 (A) (A) (A) (A) (A) (A) (A) (A) (A) (A) (A) (A)
                 (A) (A) (A) (A) (A) (A) (A) (A) (A) (A) (A) (A)
                 (A) (A) (A) (A) (A) (A) (A) (A) (A) (A) (A) (A)
                 (A) (A) (A) (A) (A) (A) (A) (A) (A) (A) (A) (A)
                 (A) (A) (A) (A) (A) (A) (A) (A) (A) (A) (A) (A)
                 (A) (A) (A) (A) (A) (A) (A) (A) (A) (A) (A) (A)
                 (A) (A) (A) (A) (A) (A) (A) (A) (A) (A) (A) (A)
                 (A) (A) (A) (A) (A) (A) (A) (A) (A) (A) (A) (A)
                 (A) (A) (A) (A) (A) (A) (A) (A) (A) (A) (A) (A)
                 (A) (A) (A) (A) (A) (A) (A) (A) (A) (A) (A) (A)
                 (A) (A) (A) (A) (A) (A) (A) (A) (A) (A) (A) (A)
                 (A) (A) (A) (A) (A) (A) (A) (A) (A) (A) (A) (A)
                 (A) (A) (A) (A) (A) (A) (A) (A) (A) (A) (A) (A)
                 (A) (A) (A) (A) (A) (A) (A) (A) (A) (A) (A) (A)
                 (A) (A) (A) (A) (A) (A) (A) (A) (A) (A) (A) (A)
                 (A) (A) (A) (A) (A) (A) (A) (A) (A) (A) (A) (A)
                 (A) (A) (A) (A) (A) (A) (A) (A) (A) (A) (A) (A)
                 (A) (A) (A) (A) (A) (A) (A) (A) (A) (A) (A) (A)
                 (A) (A) (A) (A) (A) (A) (A) (A) (A) (A) (A) (A)
                 (A) (A) (A) (A) (A) (A) (A) (A) (A) (A) (A) (A)
                 (A) (A) (A) (A) (A) (A) (A) (A) (A) (A) (A) (A)
                 (A) (A) (A) (A) (A) (A) (A) (A) (A) (A) (A) (A)
                 (A) (A) (A) (A) (A) (A) (A) (A) (A) (A) (A) (A)
                 (A) (A) (A) (A) (A) (A) (A) (A) (A) (A) (A) (A)
                 (A) (A) (A) (A) (A) (A) (A) (A) (A) (A) (A) (A)
                 (A) (A) (A) (A) (A) (A) (A) (A) (A) (A) (A) (A)
                 (A) (A) (A) (A) (A) (A) (A) (A) (A) (A) (A) (A)
                 (A) (A) (A) (A) (A) (A) (A) (A) (A) (A) (A) (A)
                 (A) (A) (A) (A) (A) (A) (A) (A) (A) (A) (A) (A)
                 (A) (A) (A) (A) (A) (A) (A) (A) (A) (A) (A) (A)
                 (A) (A) (A) (A) (A) (A) (A) (A) (A) (A) (A) (A)
                 (A) (A) (A) (A) (A) (A) (A) (A) (A) (A) (A) (A)
                 (A) (A) (A) (A) (A) (A) (A) (A) (A) (A) (A) (A)
                 (A) (A) (A) (A) (A) (A) (A) (A) (A) (A) (A) (A)
                 (A) (A) (A) (A) (A) (A) (A) (A) (A) (A) (A) (A)
                 (A) (A) (A) (A) (A) (A) (A) (A) (A) (A) (A) (A)
                 (A) (A) (A) (A) (A) (A) (A) (A) (A) (A) (A) (A)
                 (A) (A) (A) (A) (A) (A) (A) (A) (A) (A) (A) (A)
                 (A) (A) (A) (A) (A) (A) (A) (A) (A) (A) (A) (A)
                 (A) (A) (A) (A) (A) (A) (A) (A) (A) (A) (A) (A)
                 (A) (A) (A) (A) (A) (A) (A) (A) (A) (A) (A) (A)
                 (A) (A) (A) (A) (A) (A) (A) (A) (A) (A) (A) (A)
                 (A) (A) (A) (A) (A) (A) (A) (A) (A) (A) (A) (A)
                 (A) (A) (A) (A) (A) (A) (A) (A) (A) (A) (A) (A)
                 (A) (A) (A) (A) (A) (A) (A) (A) (A) (A) (A) (A)
                 (A) (A) (A) (A) (A) (A) (A) (A) (A) (A) (A) (A)
                 (A) (A) (A) (A) (A) (A) (A) (A) (A) (A) (A) (A)
                 (A) (A) (A) (A) (A) (A) (A) (A) (A) (A) (A) (A)
                 (A) (A) (A) (A) (A) (A) (A) (A) (A) (A) (A) (A)
                 (A) (A) (A) (A) (A) (A) (A) (A) (A) (A) (A) (A)
                 (A) (A) (A)
 The electronic state is 1-A.
 Alpha  occ. eigenvalues -- -145.46414 -19.23013 -19.14977 -19.14506 -19.13442
 Alpha  occ. eigenvalues --  -19.12924 -19.12196 -19.11606 -19.10892 -19.10118
 Alpha  occ. eigenvalues --  -19.09920 -19.09532 -19.08958 -19.08808 -19.08397
 Alpha  occ. eigenvalues --  -19.08094 -19.07717 -19.07300 -19.07199 -19.06997
 Alpha  occ. eigenvalues --  -19.06980 -19.05861 -18.96897 -18.96781 -15.52213
 Alpha  occ. eigenvalues --  -14.57707 -14.40572 -14.39421 -14.39357 -14.36906
 Alpha  occ. eigenvalues --  -14.36810 -14.36736 -14.36435 -14.36378 -14.34526
 Alpha  occ. eigenvalues --  -14.34433 -14.33727 -14.33267 -14.33144 -14.32462
 Alpha  occ. eigenvalues --  -12.65829 -12.65796 -12.65738 -10.35559 -10.32508
 Alpha  occ. eigenvalues --  -10.32399 -10.31200 -10.30675 -10.29628 -10.28836
 Alpha  occ. eigenvalues --  -10.28832 -10.28686 -10.28417 -10.28267 -10.27764
 Alpha  occ. eigenvalues --  -10.27433 -10.27007 -10.26663 -10.26545 -10.26463
 Alpha  occ. eigenvalues --  -10.25987 -10.25891 -10.25721 -10.25624 -10.25469
 Alpha  occ. eigenvalues --  -10.25073 -10.24500 -10.24247 -10.24216 -10.24205
 Alpha  occ. eigenvalues --  -10.24044 -10.23552 -10.22867 -10.22563 -10.22481
 Alpha  occ. eigenvalues --  -10.22476 -10.22259 -10.20581 -10.20175 -10.20168
 Alpha  occ. eigenvalues --  -10.19731 -10.19383 -10.19189 -10.18663 -10.18528
 Alpha  occ. eigenvalues --  -10.18349 -10.18260 -10.18125 -10.18041 -10.17761
 Alpha  occ. eigenvalues --  -10.17756 -10.17729 -10.17539 -10.16580 -10.15964
 Alpha  occ. eigenvalues --  -10.14821 -10.10242  -1.88811  -1.16256  -1.15978
 Alpha  occ. eigenvalues --   -1.15720  -1.13369  -1.08671  -1.07679  -1.06989
 Alpha  occ. eigenvalues --   -1.05778  -1.04786  -1.04128  -1.03796  -1.03522
 Alpha  occ. eigenvalues --   -1.03443  -1.02603  -1.02576  -1.02062  -1.01956
 Alpha  occ. eigenvalues --   -1.01409  -1.01004  -1.00424  -1.00424  -0.99957
 Alpha  occ. eigenvalues --   -0.99323  -0.96496  -0.96177  -0.95755  -0.93947
 Alpha  occ. eigenvalues --   -0.93874  -0.93572  -0.93482  -0.92987  -0.92532
 Alpha  occ. eigenvalues --   -0.91636  -0.91166  -0.90834  -0.90565  -0.89966
 Alpha  occ. eigenvalues --   -0.89507  -0.89447  -0.89279  -0.88962  -0.84280
 Alpha  occ. eigenvalues --   -0.84174  -0.82361  -0.81675  -0.81591  -0.80346
 Alpha  occ. eigenvalues --   -0.79368  -0.78748  -0.77896  -0.77686  -0.76731
 Alpha  occ. eigenvalues --   -0.76410  -0.76092  -0.75586  -0.74756  -0.73906
 Alpha  occ. eigenvalues --   -0.73732  -0.73622  -0.72852  -0.72604  -0.71916
 Alpha  occ. eigenvalues --   -0.71055  -0.70020  -0.69016  -0.68648  -0.68213
 Alpha  occ. eigenvalues --   -0.66570  -0.66331  -0.65726  -0.65654  -0.65206
 Alpha  occ. eigenvalues --   -0.64811  -0.64128  -0.63990  -0.63343  -0.63272
 Alpha  occ. eigenvalues --   -0.62828  -0.62530  -0.62338  -0.61891  -0.61307
 Alpha  occ. eigenvalues --   -0.61145  -0.60524  -0.60231  -0.60017  -0.59846
 Alpha  occ. eigenvalues --   -0.58839  -0.58426  -0.58179  -0.57814  -0.57673
 Alpha  occ. eigenvalues --   -0.57265  -0.57206  -0.56511  -0.56173  -0.56077
 Alpha  occ. eigenvalues --   -0.55792  -0.55251  -0.54858  -0.54382  -0.54319
 Alpha  occ. eigenvalues --   -0.54276  -0.53550  -0.53394  -0.53337  -0.52822
 Alpha  occ. eigenvalues --   -0.52649  -0.52018  -0.51994  -0.51520  -0.51439
 Alpha  occ. eigenvalues --   -0.51371  -0.50938  -0.50764  -0.50358  -0.50024
 Alpha  occ. eigenvalues --   -0.49886  -0.49583  -0.49377  -0.49194  -0.49066
 Alpha  occ. eigenvalues --   -0.48848  -0.48476  -0.48082  -0.47764  -0.47264
 Alpha  occ. eigenvalues --   -0.47041  -0.46922  -0.46820  -0.46686  -0.46526
 Alpha  occ. eigenvalues --   -0.46107  -0.45897  -0.45852  -0.45820  -0.45590
 Alpha  occ. eigenvalues --   -0.45466  -0.45246  -0.44912  -0.44790  -0.44651
 Alpha  occ. eigenvalues --   -0.44366  -0.44341  -0.44196  -0.44094  -0.43929
 Alpha  occ. eigenvalues --   -0.43764  -0.43378  -0.43323  -0.43159  -0.43140
 Alpha  occ. eigenvalues --   -0.43070  -0.42838  -0.42672  -0.42479  -0.42355
 Alpha  occ. eigenvalues --   -0.42208  -0.42165  -0.42126  -0.41862  -0.41834
 Alpha  occ. eigenvalues --   -0.41788  -0.41345  -0.41295  -0.41292  -0.40635
 Alpha  occ. eigenvalues --   -0.40548  -0.40521  -0.40338  -0.40234  -0.40202
 Alpha  occ. eigenvalues --   -0.40177  -0.40038  -0.39957  -0.39838  -0.39637
 Alpha  occ. eigenvalues --   -0.39524  -0.39491  -0.39405  -0.39095  -0.38972
 Alpha  occ. eigenvalues --   -0.38726  -0.38440  -0.38287  -0.38199  -0.38130
 Alpha  occ. eigenvalues --   -0.38017  -0.37898  -0.37710  -0.37420  -0.37308
 Alpha  occ. eigenvalues --   -0.37092  -0.36968  -0.36942  -0.36655  -0.36524
 Alpha  occ. eigenvalues --   -0.36385  -0.36334  -0.36235  -0.35985  -0.35601
 Alpha  occ. eigenvalues --   -0.35571  -0.34819  -0.34620  -0.34402  -0.34392
 Alpha  occ. eigenvalues --   -0.34136  -0.34016  -0.33543  -0.33175  -0.33116
 Alpha  occ. eigenvalues --   -0.32745  -0.32332  -0.32082  -0.31960  -0.31915
 Alpha  occ. eigenvalues --   -0.31684  -0.31273  -0.30897  -0.30466  -0.30115
 Alpha  occ. eigenvalues --   -0.29575  -0.28928  -0.28855  -0.28686  -0.28242
 Alpha  occ. eigenvalues --   -0.28173  -0.27505  -0.27382  -0.27369  -0.27017
 Alpha  occ. eigenvalues --   -0.26785  -0.26637  -0.26548  -0.26412  -0.26253
 Alpha  occ. eigenvalues --   -0.26033  -0.25892  -0.25460  -0.25248  -0.25119
 Alpha  occ. eigenvalues --   -0.24956  -0.24642  -0.24411  -0.24162  -0.24075
 Alpha  occ. eigenvalues --   -0.23796  -0.23632  -0.23273  -0.23250  -0.22723
 Alpha  occ. eigenvalues --   -0.22250  -0.22195  -0.21649  -0.21485  -0.21452
 Alpha  occ. eigenvalues --   -0.14141  -0.13148  -0.11663
 Alpha virt. eigenvalues --   -0.11189  -0.09393  -0.05078  -0.04838  -0.03095
 Alpha virt. eigenvalues --   -0.02975  -0.02522  -0.01979  -0.01769  -0.01050
 Alpha virt. eigenvalues --   -0.00471  -0.00160  -0.00153   0.00276   0.00433
 Alpha virt. eigenvalues --    0.01017   0.01231   0.01505   0.01668   0.01835
 Alpha virt. eigenvalues --    0.01994   0.02170   0.02372   0.02599   0.02977
 Alpha virt. eigenvalues --    0.03035   0.03406   0.03421   0.03675   0.03865
 Alpha virt. eigenvalues --    0.03931   0.04203   0.04478   0.04841   0.04948
 Alpha virt. eigenvalues --    0.05458   0.05541   0.05866   0.05892   0.06316
 Alpha virt. eigenvalues --    0.06539   0.06847   0.07322   0.07459   0.07580
 Alpha virt. eigenvalues --    0.07890   0.07971   0.08515   0.08594   0.08769
 Alpha virt. eigenvalues --    0.09009   0.09137   0.09449   0.09565   0.09713
 Alpha virt. eigenvalues --    0.09746   0.10094   0.10367   0.10468   0.10723
 Alpha virt. eigenvalues --    0.10910   0.11075   0.11163   0.11443   0.11509
 Alpha virt. eigenvalues --    0.11711   0.11831   0.12175   0.12374   0.12537
 Alpha virt. eigenvalues --    0.12662   0.12760   0.12896   0.13061   0.13503
 Alpha virt. eigenvalues --    0.13562   0.13663   0.13867   0.14016   0.14118
 Alpha virt. eigenvalues --    0.14431   0.14526   0.14582   0.14650   0.14979
 Alpha virt. eigenvalues --    0.15034   0.15143   0.15237   0.15337   0.15518
 Alpha virt. eigenvalues --    0.15651   0.15851   0.15990   0.16195   0.16201
 Alpha virt. eigenvalues --    0.16354   0.16399   0.16648   0.16934   0.17020
 Alpha virt. eigenvalues --    0.17175   0.17434   0.17494   0.17740   0.17791
 Alpha virt. eigenvalues --    0.18087   0.18256   0.18400   0.18800   0.19018
 Alpha virt. eigenvalues --    0.19145   0.19282   0.19370   0.19492   0.19792
 Alpha virt. eigenvalues --    0.19894   0.20054   0.20237   0.20354   0.20552
 Alpha virt. eigenvalues --    0.20694   0.20869   0.20964   0.21308   0.21564
 Alpha virt. eigenvalues --    0.21768   0.21865   0.22048   0.22237   0.22391
 Alpha virt. eigenvalues --    0.22711   0.22994   0.23091   0.23255   0.23332
 Alpha virt. eigenvalues --    0.23500   0.23939   0.24230   0.24464   0.25021
 Alpha virt. eigenvalues --    0.25042   0.25159   0.25401   0.25428   0.25773
 Alpha virt. eigenvalues --    0.26237   0.26263   0.26420   0.26552   0.26819
 Alpha virt. eigenvalues --    0.27056   0.27196   0.27676   0.27956   0.28109
 Alpha virt. eigenvalues --    0.28359   0.28922   0.29010   0.29147   0.29495
 Alpha virt. eigenvalues --    0.29681   0.29973   0.30106   0.30375   0.30549
 Alpha virt. eigenvalues --    0.30804   0.30973   0.31289   0.31526   0.31978
 Alpha virt. eigenvalues --    0.32166   0.32329   0.32785   0.32879   0.33433
 Alpha virt. eigenvalues --    0.33621   0.33779   0.34351   0.34491   0.34556
 Alpha virt. eigenvalues --    0.34958   0.35164   0.35400   0.35750   0.36186
 Alpha virt. eigenvalues --    0.36333   0.36366   0.36758   0.37486   0.37840
 Alpha virt. eigenvalues --    0.38341   0.38453   0.38536   0.38923   0.39128
 Alpha virt. eigenvalues --    0.39514   0.40120   0.40386   0.40554   0.40675
 Alpha virt. eigenvalues --    0.41044   0.41175   0.41430   0.41548   0.41822
 Alpha virt. eigenvalues --    0.42152   0.42461   0.42642   0.42669   0.42807
 Alpha virt. eigenvalues --    0.42909   0.43297   0.43345   0.43649   0.43683
 Alpha virt. eigenvalues --    0.44073   0.44259   0.44445   0.44528   0.44786
 Alpha virt. eigenvalues --    0.45054   0.45288   0.45430   0.45652   0.45840
 Alpha virt. eigenvalues --    0.46171   0.46207   0.46503   0.46637   0.46858
 Alpha virt. eigenvalues --    0.47062   0.47231   0.47419   0.47526   0.47944
 Alpha virt. eigenvalues --    0.48044   0.48113   0.48333   0.48909   0.49084
 Alpha virt. eigenvalues --    0.49201   0.49298   0.49511   0.49602   0.49738
 Alpha virt. eigenvalues --    0.49981   0.50291   0.50760   0.50888   0.51021
 Alpha virt. eigenvalues --    0.51151   0.51238   0.51329   0.51456   0.51753
 Alpha virt. eigenvalues --    0.51939   0.52101   0.52237   0.52746   0.52931
 Alpha virt. eigenvalues --    0.53069   0.53308   0.53413   0.53612   0.53646
 Alpha virt. eigenvalues --    0.53785   0.53857   0.54200   0.54372   0.54384
 Alpha virt. eigenvalues --    0.54730   0.54764   0.54930   0.55138   0.55416
 Alpha virt. eigenvalues --    0.55512   0.55596   0.56073   0.56163   0.56414
 Alpha virt. eigenvalues --    0.56564   0.56691   0.56922   0.57033   0.57142
 Alpha virt. eigenvalues --    0.57519   0.57730   0.57818   0.57895   0.58259
 Alpha virt. eigenvalues --    0.58289   0.58456   0.58580   0.58649   0.58730
 Alpha virt. eigenvalues --    0.58906   0.59293   0.59363   0.59456   0.59521
 Alpha virt. eigenvalues --    0.59567   0.59823   0.60003   0.60033   0.60219
 Alpha virt. eigenvalues --    0.60285   0.60574   0.60613   0.60958   0.61108
 Alpha virt. eigenvalues --    0.61183   0.61326   0.61402   0.61445   0.61587
 Alpha virt. eigenvalues --    0.61821   0.62034   0.62150   0.62337   0.62507
 Alpha virt. eigenvalues --    0.62586   0.62695   0.62760   0.62963   0.63054
 Alpha virt. eigenvalues --    0.63090   0.63273   0.63558   0.63590   0.63762
 Alpha virt. eigenvalues --    0.63904   0.63946   0.64021   0.64151   0.64215
 Alpha virt. eigenvalues --    0.64314   0.64482   0.64560   0.64664   0.64852
 Alpha virt. eigenvalues --    0.64878   0.65065   0.65156   0.65247   0.65311
 Alpha virt. eigenvalues --    0.65437   0.65523   0.65635   0.65758   0.65832
 Alpha virt. eigenvalues --    0.65946   0.66014   0.66060   0.66145   0.66273
 Alpha virt. eigenvalues --    0.66463   0.66514   0.66635   0.66700   0.66921
 Alpha virt. eigenvalues --    0.67156   0.67265   0.67324   0.67489   0.67577
 Alpha virt. eigenvalues --    0.67656   0.67733   0.67863   0.67950   0.68079
 Alpha virt. eigenvalues --    0.68255   0.68321   0.68418   0.68548   0.68568
 Alpha virt. eigenvalues --    0.68690   0.68740   0.68880   0.68924   0.69019
 Alpha virt. eigenvalues --    0.69148   0.69362   0.69461   0.69625   0.69747
 Alpha virt. eigenvalues --    0.69890   0.70052   0.70079   0.70205   0.70494
 Alpha virt. eigenvalues --    0.70619   0.70676   0.70838   0.70940   0.71059
 Alpha virt. eigenvalues --    0.71256   0.71493   0.71643   0.71852   0.71951
 Alpha virt. eigenvalues --    0.72064   0.72291   0.72448   0.72608   0.72663
 Alpha virt. eigenvalues --    0.72800   0.73133   0.73303   0.73483   0.73724
 Alpha virt. eigenvalues --    0.73934   0.74122   0.74348   0.74660   0.75008
 Alpha virt. eigenvalues --    0.75221   0.75483   0.75729   0.75927   0.75965
 Alpha virt. eigenvalues --    0.76131   0.76319   0.76464   0.76637   0.76832
 Alpha virt. eigenvalues --    0.76948   0.77173   0.77191   0.77666   0.77777
 Alpha virt. eigenvalues --    0.78056   0.78113   0.78457   0.78678   0.78847
 Alpha virt. eigenvalues --    0.78935   0.79023   0.79202   0.79660   0.79672
 Alpha virt. eigenvalues --    0.80208   0.80474   0.80601   0.80737   0.81385
 Alpha virt. eigenvalues --    0.81428   0.81901   0.82016   0.82239   0.82697
 Alpha virt. eigenvalues --    0.83211   0.83383   0.83417   0.83638   0.84008
 Alpha virt. eigenvalues --    0.84234   0.84652   0.84921   0.85311   0.85484
 Alpha virt. eigenvalues --    0.85735   0.86227   0.86756   0.86900   0.87347
 Alpha virt. eigenvalues --    0.87380   0.87622   0.88212   0.88405   0.88698
 Alpha virt. eigenvalues --    0.89321   0.89569   0.89659   0.89918   0.90377
 Alpha virt. eigenvalues --    0.90555   0.90979   0.91063   0.91248   0.91582
 Alpha virt. eigenvalues --    0.91806   0.92029   0.92051   0.92524   0.92642
 Alpha virt. eigenvalues --    0.93001   0.93238   0.93950   0.94139   0.94460
 Alpha virt. eigenvalues --    0.94782   0.94856   0.95119   0.95403   0.95688
 Alpha virt. eigenvalues --    0.95822   0.95974   0.96274   0.96568   0.96856
 Alpha virt. eigenvalues --    0.96910   0.97054   0.97528   0.97601   0.97992
 Alpha virt. eigenvalues --    0.98670   0.98877   0.99198   0.99379   0.99571
 Alpha virt. eigenvalues --    0.99881   1.00189   1.00647   1.01126   1.01274
 Alpha virt. eigenvalues --    1.01727   1.01989   1.02189   1.02424   1.02932
 Alpha virt. eigenvalues --    1.02974   1.03170   1.03389   1.03786   1.04005
 Alpha virt. eigenvalues --    1.04317   1.04588   1.04829   1.05076   1.05253
 Alpha virt. eigenvalues --    1.05632   1.05883   1.06008   1.06655   1.07213
 Alpha virt. eigenvalues --    1.07438   1.07694   1.07995   1.08296   1.08378
 Alpha virt. eigenvalues --    1.08770   1.09093   1.09274   1.09511   1.09995
 Alpha virt. eigenvalues --    1.10246   1.10402   1.10565   1.10940   1.11330
 Alpha virt. eigenvalues --    1.11449   1.11712   1.11900   1.12014   1.12407
 Alpha virt. eigenvalues --    1.12810   1.13118   1.13460   1.13510   1.13873
 Alpha virt. eigenvalues --    1.14009   1.14502   1.14707   1.14803   1.15237
 Alpha virt. eigenvalues --    1.15342   1.15571   1.16076   1.16387   1.16604
 Alpha virt. eigenvalues --    1.16665   1.17000   1.17290   1.17507   1.17877
 Alpha virt. eigenvalues --    1.18508   1.18931   1.19030   1.19087   1.19498
 Alpha virt. eigenvalues --    1.19804   1.19939   1.20461   1.20537   1.20574
 Alpha virt. eigenvalues --    1.20868   1.21218   1.21296   1.21829   1.22031
 Alpha virt. eigenvalues --    1.22384   1.22632   1.22734   1.23103   1.23360
 Alpha virt. eigenvalues --    1.23682   1.23917   1.24321   1.24526   1.24677
 Alpha virt. eigenvalues --    1.24924   1.25002   1.25346   1.25414   1.25632
 Alpha virt. eigenvalues --    1.25816   1.25914   1.26140   1.26208   1.26282
 Alpha virt. eigenvalues --    1.27092   1.27380   1.27424   1.27826   1.28067
 Alpha virt. eigenvalues --    1.28346   1.28743   1.29115   1.29245   1.29736
 Alpha virt. eigenvalues --    1.29815   1.30134   1.30677   1.30754   1.30853
 Alpha virt. eigenvalues --    1.31174   1.31425   1.31493   1.31723   1.32078
 Alpha virt. eigenvalues --    1.32417   1.33072   1.33409   1.33487   1.34058
 Alpha virt. eigenvalues --    1.34254   1.34362   1.34780   1.34934   1.35408
 Alpha virt. eigenvalues --    1.35443   1.35926   1.36380   1.36582   1.36645
 Alpha virt. eigenvalues --    1.37041   1.37193   1.37352   1.37591   1.37687
 Alpha virt. eigenvalues --    1.38500   1.38526   1.38820   1.39084   1.39573
 Alpha virt. eigenvalues --    1.39643   1.39761   1.40085   1.40356   1.40680
 Alpha virt. eigenvalues --    1.40895   1.41073   1.41403   1.42050   1.42370
 Alpha virt. eigenvalues --    1.42623   1.43621   1.43941   1.44097   1.44471
 Alpha virt. eigenvalues --    1.44744   1.45244   1.45303   1.45732   1.46181
 Alpha virt. eigenvalues --    1.46230   1.46399   1.46960   1.47361   1.47645
 Alpha virt. eigenvalues --    1.47886   1.48371   1.48709   1.48785   1.49234
 Alpha virt. eigenvalues --    1.49377   1.49511   1.49807   1.50040   1.50187
 Alpha virt. eigenvalues --    1.50854   1.50951   1.51262   1.51889   1.52365
 Alpha virt. eigenvalues --    1.52429   1.52566   1.53098   1.53676   1.53997
 Alpha virt. eigenvalues --    1.54142   1.54468   1.54540   1.54623   1.54791
 Alpha virt. eigenvalues --    1.54982   1.55273   1.55506   1.55558   1.55669
 Alpha virt. eigenvalues --    1.56257   1.56339   1.56854   1.57558   1.57674
 Alpha virt. eigenvalues --    1.57961   1.58345   1.58657   1.58997   1.59256
 Alpha virt. eigenvalues --    1.59340   1.60044   1.60239   1.60698   1.60765
 Alpha virt. eigenvalues --    1.61895   1.62122   1.62342   1.62598   1.62816
 Alpha virt. eigenvalues --    1.63217   1.63799   1.63928   1.64248   1.64522
 Alpha virt. eigenvalues --    1.65349   1.65412   1.65471   1.66054   1.66090
 Alpha virt. eigenvalues --    1.66157   1.66297   1.66576   1.66932   1.67134
 Alpha virt. eigenvalues --    1.67644   1.68347   1.68412   1.68762   1.68966
 Alpha virt. eigenvalues --    1.69124   1.70145   1.70603   1.70732   1.71086
 Alpha virt. eigenvalues --    1.71365   1.71395   1.71646   1.71701   1.71848
 Alpha virt. eigenvalues --    1.71920   1.72124   1.72249   1.72476   1.72847
 Alpha virt. eigenvalues --    1.72960   1.73330   1.73409   1.73729   1.73879
 Alpha virt. eigenvalues --    1.73956   1.74433   1.74651   1.74811   1.74824
 Alpha virt. eigenvalues --    1.75022   1.75338   1.75513   1.75700   1.75840
 Alpha virt. eigenvalues --    1.76056   1.76146   1.76256   1.76478   1.76576
 Alpha virt. eigenvalues --    1.77053   1.77135   1.77350   1.77547   1.77631
 Alpha virt. eigenvalues --    1.77801   1.78026   1.78288   1.78374   1.78619
 Alpha virt. eigenvalues --    1.78736   1.78854   1.78982   1.79122   1.79277
 Alpha virt. eigenvalues --    1.79337   1.79596   1.79679   1.79852   1.79974
 Alpha virt. eigenvalues --    1.80224   1.80294   1.80399   1.80583   1.80986
 Alpha virt. eigenvalues --    1.81026   1.81139   1.81288   1.81362   1.81891
 Alpha virt. eigenvalues --    1.82185   1.82319   1.82450   1.82666   1.82686
 Alpha virt. eigenvalues --    1.82922   1.83005   1.83320   1.83387   1.83705
 Alpha virt. eigenvalues --    1.84018   1.84244   1.84460   1.84649   1.84812
 Alpha virt. eigenvalues --    1.84874   1.85039   1.85161   1.85220   1.85400
 Alpha virt. eigenvalues --    1.85746   1.86038   1.86499   1.86569   1.86717
 Alpha virt. eigenvalues --    1.86934   1.87088   1.87270   1.87445   1.87761
 Alpha virt. eigenvalues --    1.87807   1.88002   1.88079   1.88274   1.88460
 Alpha virt. eigenvalues --    1.88636   1.88802   1.89018   1.89117   1.89300
 Alpha virt. eigenvalues --    1.89369   1.89431   1.89727   1.90235   1.90412
 Alpha virt. eigenvalues --    1.90613   1.90755   1.90896   1.91194   1.91246
 Alpha virt. eigenvalues --    1.91276   1.91456   1.91970   1.92121   1.92556
 Alpha virt. eigenvalues --    1.92693   1.92898   1.92953   1.93118   1.93261
 Alpha virt. eigenvalues --    1.93617   1.93900   1.93948   1.94030   1.94131
 Alpha virt. eigenvalues --    1.94334   1.94525   1.94722   1.94999   1.95266
 Alpha virt. eigenvalues --    1.95683   1.96131   1.96247   1.96355   1.96656
 Alpha virt. eigenvalues --    1.96725   1.97065   1.97201   1.97491   1.97599
 Alpha virt. eigenvalues --    1.97811   1.98584   1.98734   1.99531   1.99614
 Alpha virt. eigenvalues --    1.99905   2.00044   2.00255   2.00432   2.00564
 Alpha virt. eigenvalues --    2.00677   2.00748   2.00941   2.01044   2.01150
 Alpha virt. eigenvalues --    2.01594   2.01954   2.02106   2.02439   2.02941
 Alpha virt. eigenvalues --    2.03107   2.03462   2.03772   2.03797   2.03992
 Alpha virt. eigenvalues --    2.04275   2.04547   2.04802   2.05170   2.05462
 Alpha virt. eigenvalues --    2.05565   2.05984   2.06105   2.06221   2.06305
 Alpha virt. eigenvalues --    2.06752   2.07037   2.07113   2.07175   2.07462
 Alpha virt. eigenvalues --    2.07567   2.08161   2.08287   2.08375   2.08650
 Alpha virt. eigenvalues --    2.08928   2.09175   2.09513   2.09937   2.10338
 Alpha virt. eigenvalues --    2.10588   2.10908   2.10993   2.11294   2.11590
 Alpha virt. eigenvalues --    2.11719   2.11839   2.12107   2.12230   2.12509
 Alpha virt. eigenvalues --    2.12826   2.12983   2.13047   2.13865   2.13920
 Alpha virt. eigenvalues --    2.14261   2.14693   2.14940   2.15309   2.15566
 Alpha virt. eigenvalues --    2.16066   2.16366   2.16556   2.16995   2.17191
 Alpha virt. eigenvalues --    2.17424   2.18051   2.18144   2.18243   2.18513
 Alpha virt. eigenvalues --    2.18944   2.18975   2.19465   2.19602   2.20515
 Alpha virt. eigenvalues --    2.21137   2.21305   2.21532   2.22086   2.22216
 Alpha virt. eigenvalues --    2.22492   2.22735   2.23317   2.23702   2.24060
 Alpha virt. eigenvalues --    2.24565   2.25296   2.25658   2.25860   2.26065
 Alpha virt. eigenvalues --    2.26589   2.27115   2.27582   2.27973   2.28602
 Alpha virt. eigenvalues --    2.28835   2.29182   2.29564   2.29632   2.29660
 Alpha virt. eigenvalues --    2.29881   2.30017   2.30769   2.30997   2.31130
 Alpha virt. eigenvalues --    2.31546   2.31584   2.32278   2.32618   2.32871
 Alpha virt. eigenvalues --    2.33060   2.33103   2.33187   2.33474   2.33874
 Alpha virt. eigenvalues --    2.34121   2.34490   2.34811   2.35324   2.35514
 Alpha virt. eigenvalues --    2.35863   2.36091   2.36198   2.36345   2.36898
 Alpha virt. eigenvalues --    2.37068   2.37382   2.38017   2.38198   2.38916
 Alpha virt. eigenvalues --    2.39284   2.39425   2.39831   2.40056   2.40702
 Alpha virt. eigenvalues --    2.40826   2.41060   2.41535   2.41608   2.41762
 Alpha virt. eigenvalues --    2.42097   2.42950   2.43261   2.43560   2.43868
 Alpha virt. eigenvalues --    2.44202   2.44404   2.44774   2.45063   2.45494
 Alpha virt. eigenvalues --    2.45618   2.46810   2.46865   2.47052   2.47387
 Alpha virt. eigenvalues --    2.47779   2.48168   2.48266   2.48556   2.48860
 Alpha virt. eigenvalues --    2.48978   2.49297   2.49592   2.50161   2.50529
 Alpha virt. eigenvalues --    2.51504   2.51533   2.51768   2.52358   2.52660
 Alpha virt. eigenvalues --    2.52814   2.53310   2.53447   2.53630   2.54018
 Alpha virt. eigenvalues --    2.54329   2.54506   2.55098   2.55196   2.55669
 Alpha virt. eigenvalues --    2.56050   2.56384   2.57186   2.57205   2.57369
 Alpha virt. eigenvalues --    2.57909   2.57964   2.58069   2.58392   2.58781
 Alpha virt. eigenvalues --    2.58991   2.59350   2.59808   2.60823   2.61052
 Alpha virt. eigenvalues --    2.61426   2.61596   2.61757   2.61803   2.61859
 Alpha virt. eigenvalues --    2.62282   2.62313   2.62554   2.62835   2.63055
 Alpha virt. eigenvalues --    2.63097   2.63719   2.63895   2.64218   2.64336
 Alpha virt. eigenvalues --    2.64718   2.66014   2.66367   2.66513   2.66617
 Alpha virt. eigenvalues --    2.66893   2.67170   2.67553   2.67714   2.67991
 Alpha virt. eigenvalues --    2.68070   2.69096   2.69239   2.69543   2.69665
 Alpha virt. eigenvalues --    2.69689   2.69913   2.70177   2.70324   2.70538
 Alpha virt. eigenvalues --    2.70913   2.71052   2.71249   2.71465   2.71853
 Alpha virt. eigenvalues --    2.72001   2.72344   2.72889   2.73266   2.73624
 Alpha virt. eigenvalues --    2.74871   2.74922   2.75098   2.75509   2.75613
 Alpha virt. eigenvalues --    2.75799   2.75988   2.76426   2.76454   2.76914
 Alpha virt. eigenvalues --    2.77047   2.77099   2.77428   2.77514   2.78291
 Alpha virt. eigenvalues --    2.78354   2.78369   2.78734   2.78852   2.79094
 Alpha virt. eigenvalues --    2.79407   2.79530   2.79806   2.80164   2.80365
 Alpha virt. eigenvalues --    2.80528   2.80714   2.80913   2.81074   2.81204
 Alpha virt. eigenvalues --    2.81326   2.81818   2.81902   2.82387   2.83147
 Alpha virt. eigenvalues --    2.83285   2.83742   2.83823   2.84606   2.84794
 Alpha virt. eigenvalues --    2.84920   2.85100   2.85456   2.85490   2.85736
 Alpha virt. eigenvalues --    2.86489   2.86677   2.87007   2.87150   2.87422
 Alpha virt. eigenvalues --    2.87696   2.88090   2.88097   2.88893   2.89056
 Alpha virt. eigenvalues --    2.89099   2.89542   2.89758   2.90257   2.90371
 Alpha virt. eigenvalues --    2.91109   2.91525   2.91864   2.92224   2.92376
 Alpha virt. eigenvalues --    2.92481   2.92661   2.92877   2.93579   2.93742
 Alpha virt. eigenvalues --    2.93768   2.93996   2.94310   2.94449   2.95002
 Alpha virt. eigenvalues --    2.95169   2.95325   2.95672   2.95782   2.95976
 Alpha virt. eigenvalues --    2.96305   2.96528   2.97307   2.97763   2.98276
 Alpha virt. eigenvalues --    2.98483   2.98670   2.99178   2.99450   2.99618
 Alpha virt. eigenvalues --    3.00501   3.00783   3.00992   3.01464   3.02146
 Alpha virt. eigenvalues --    3.02225   3.02580   3.03327   3.03620   3.03881
 Alpha virt. eigenvalues --    3.04104   3.04313   3.04530   3.05294   3.05469
 Alpha virt. eigenvalues --    3.06422   3.06702   3.06917   3.07579   3.07656
 Alpha virt. eigenvalues --    3.08015   3.08596   3.08966   3.09138   3.09346
 Alpha virt. eigenvalues --    3.09685   3.10472   3.10860   3.11341   3.12354
 Alpha virt. eigenvalues --    3.12562   3.12582   3.12743   3.13229   3.13430
 Alpha virt. eigenvalues --    3.13438   3.13812   3.14167   3.14325   3.15007
 Alpha virt. eigenvalues --    3.15157   3.15450   3.15591   3.15790   3.16136
 Alpha virt. eigenvalues --    3.16753   3.17022   3.17826   3.18034   3.18430
 Alpha virt. eigenvalues --    3.18643   3.19283   3.19368   3.19677   3.19681
 Alpha virt. eigenvalues --    3.20113   3.20180   3.20516   3.20834   3.21183
 Alpha virt. eigenvalues --    3.21868   3.22597   3.23596   3.24159   3.25127
 Alpha virt. eigenvalues --    3.25772   3.27495   3.28569   3.30102   3.32083
 Alpha virt. eigenvalues --    3.32504   3.33633   3.34020   3.34284   3.34792
 Alpha virt. eigenvalues --    3.35637   3.37599   3.39098   3.39377   3.39986
 Alpha virt. eigenvalues --    3.40580   3.42194   3.42947   3.46342   3.47303
 Alpha virt. eigenvalues --    3.49957   3.51512   3.52074   3.52489   3.54430
 Alpha virt. eigenvalues --    3.54926   3.55429   3.56530   3.56955   3.57082
 Alpha virt. eigenvalues --    3.57168   3.58356   3.58392   3.59010   3.61128
 Alpha virt. eigenvalues --    3.62549   3.65152   3.65375   3.66136   3.66167
 Alpha virt. eigenvalues --    3.66325   3.66993   3.67119   3.68693   3.68766
 Alpha virt. eigenvalues --    3.69273   3.69750   3.70157   3.70440   3.70470
 Alpha virt. eigenvalues --    3.70706   3.70914   3.72175   3.72987   3.73261
 Alpha virt. eigenvalues --    3.75644   3.80037   3.80243   3.82242
          Condensed to atoms (all electrons):
 Mulliken charges:
               1
     1  C    0.056956
     2  C    0.023708
     3  O   -0.315609
     4  H    0.034211
     5  H    0.031969
     6  H    0.028248
     7  N   -0.117616
     8  C    0.054094
     9  C    0.080083
    10  O   -0.269364
    11  C    0.177915
    12  C    0.074185
    13  O   -0.465273
    14  O   -0.385052
    15  H    0.120349
    16  H    0.024639
    17  H    0.010987
    18  H   -0.017021
    19  N   -0.139616
    20  C    0.129210
    21  C    0.055777
    22  O   -0.279015
    23  C    0.043724
    24  C   -0.016642
    25  C   -0.010453
    26  C    0.065198
    27  N    0.138431
    28  H    0.145195
    29  H    0.016495
    30  H    0.019664
    31  H    0.013123
    32  H    0.024578
    33  H   -0.024954
    34  H    0.019319
    35  H    0.044756
    36  H    0.057483
    37  H    0.063181
    38  H    0.121999
    39  H    0.121880
    40  H    0.116988
    41  N   -0.152559
    42  C    0.100081
    43  C   -0.007457
    44  O   -0.284472
    45  C    0.178977
    46  C    0.093017
    47  O   -0.446084
    48  O   -0.406867
    49  H    0.145036
    50  H    0.033633
    51  H    0.005049
    52  H    0.018433
    53  N   -0.158022
    54  C    0.267423
    55  C    0.028874
    56  O   -0.304098
    57  H    0.125762
    58  H    0.036550
    59  H    0.037267
    60  N   -0.126534
    61  C    0.123598
    62  C    0.082570
    63  O   -0.381903
    64  C    0.146438
    65  C   -0.015711
    66  N   -0.061401
    67  O   -0.264514
    68  H    0.157229
    69  H    0.001937
    70  H    0.014374
    71  H    0.039261
    72  H    0.095037
    73  H    0.144951
    74  N   -0.131686
    75  C    0.224699
    76  C    0.023537
    77  O   -0.285950
    78  H    0.144232
    79  H    0.030812
    80  H    0.011471
    81  N   -0.131906
    82  C    0.172465
    83  C    0.113809
    84  O   -0.273213
    85  C    0.115632
    86  C   -0.046109
    87  C    0.003347
    88  C   -0.017649
    89  C   -0.026193
    90  C   -0.042638
    91  C    0.180569
    92  O   -0.212959
    93  H    0.120309
    94  H   -0.021152
    95  H    0.032105
    96  H   -0.011946
    97  H    0.005313
    98  H   -0.039699
    99  H   -0.015070
   100  H   -0.047115
   101  H    0.175724
   102  N   -0.113537
   103  C    0.103842
   104  C    0.123325
   105  O   -0.241722
   106  C   -0.089154
   107  C   -0.008460
   108  C    0.103596
   109  C    0.026855
   110  H    0.130576
   111  H   -0.034636
   112  H   -0.015381
   113  H   -0.001492
   114  H   -0.039866
   115  H   -0.021322
   116  H   -0.026916
   117  H    0.027457
   118  H    0.014384
   119  H    0.006811
   120  H    0.034620
   121  N   -0.142544
   122  C    0.124993
   123  C    0.065118
   124  O   -0.256842
   125  C    0.227330
   126  O   -0.341511
   127  H    0.123005
   128  H    0.033704
   129  H    0.020234
   130  H    0.016032
   131  H    0.179351
   132  N   -0.130448
   133  C   -0.014310
   134  C    0.077645
   135  O   -0.239554
   136  C    0.079446
   137  H    0.116255
   138  H    0.032511
   139  H    0.037438
   140  H    0.016695
   141  H   -0.003328
   142  N   -0.104898
   143  C   -0.008181
   144  C    0.085925
   145  O   -0.280859
   146  C    0.081808
   147  H    0.128406
   148  H    0.001137
   149  H   -0.023392
   150  H    0.018597
   151  H    0.027379
   152  N   -0.074055
   153  C    0.109400
   154  C    0.067362
   155  O   -0.279196
   156  C    0.003556
   157  C    0.077513
   158  C    0.059229
   159  O   -0.362032
   160  O   -0.363549
   161  H    0.111824
   162  H   -0.016418
   163  H    0.006701
   164  H   -0.012313
   165  H   -0.010918
   166  H   -0.042501
   167  N   -0.165904
   168  C    0.115951
   169  H    0.037416
   170  H    0.012154
   171  H    0.033075
   172  H    0.116826
   173  Ca   1.358484
   174  O   -0.310082
   175  H    0.210919
   176  H    0.200094
 Sum of Mulliken charges =  -0.00000
 Mulliken charges with hydrogens summed into heavy atoms:
               1
     1  C    0.151384
     2  C    0.023708
     3  O   -0.315609
     7  N    0.002732
     8  C    0.078733
     9  C    0.080083
    10  O   -0.269364
    11  C    0.171880
    12  C    0.074185
    13  O   -0.465273
    14  O   -0.385052
    19  N    0.005579
    20  C    0.145705
    21  C    0.055777
    22  O   -0.279015
    23  C    0.076511
    24  C   -0.017018
    25  C    0.053622
    26  C    0.185863
    27  N    0.499298
    41  N   -0.007523
    42  C    0.133714
    43  C   -0.007457
    44  O   -0.284472
    45  C    0.202459
    46  C    0.093017
    47  O   -0.446084
    48  O   -0.406867
    53  N   -0.032259
    54  C    0.341240
    55  C    0.028874
    56  O   -0.304098
    60  N    0.030695
    61  C    0.125535
    62  C    0.082570
    63  O   -0.381903
    64  C    0.200074
    65  C   -0.015711
    66  N    0.178587
    67  O   -0.264514
    74  N    0.012546
    75  C    0.266982
    76  C    0.023537
    77  O   -0.285950
    81  N   -0.011597
    82  C    0.151313
    83  C    0.113809
    84  O   -0.273213
    85  C    0.135791
    86  C   -0.046109
    87  C    0.008660
    88  C   -0.057347
    89  C   -0.041263
    90  C   -0.089753
    91  C    0.180569
    92  O   -0.037235
   102  N    0.017040
   103  C    0.069206
   104  C    0.123325
   105  O   -0.241722
   106  C   -0.104535
   107  C   -0.049818
   108  C    0.082814
   109  C    0.082669
   121  N   -0.019539
   122  C    0.158697
   123  C    0.065118
   124  O   -0.256842
   125  C    0.263597
   126  O   -0.162160
   132  N   -0.014193
   133  C    0.018201
   134  C    0.077645
   135  O   -0.239554
   136  C    0.130251
   142  N    0.023508
   143  C   -0.007045
   144  C    0.085925
   145  O   -0.280859
   146  C    0.104392
   152  N    0.037769
   153  C    0.092982
   154  C    0.067362
   155  O   -0.279196
   156  C   -0.002057
   157  C    0.024095
   158  C    0.059229
   159  O   -0.362032
   160  O   -0.363549
   167  N   -0.049079
   168  C    0.198595
   173  Ca   1.358484
   174  O    0.100931
 DipInt: DoE/N= T F RetVal/Mat= T F Init=T NMatP=  1 IDeriv=0 Min/MaxMlt=  0  4
 Entering OneElI...
 OneElI was handed  1333951383 working-precision words.
 Multipole integrals L=0 to 4 MinM= 0 MaxM= 0.
 Requested accuracy = 0.1000D-12
 PrtBox:  NBox=     1 Levels=  1 BoxLen=   98.75 SMaxX=       52.63
          Shift=           29.425978           14.334058            8.439175
 Box      1 Number                   0 centers from      1 to    809:
 ShPair: Thresh= 1.00D-13 NBox=     1 BxSize= 9.87D+01 RnKept= 3.21D+01
         NSMCal=               327645 NSMKep=              117069
 PrmmSu-InSpLW:  IPartL=    0 NPrtUS=    1 NPrtUL=    1 DoSpLW=F IThBeg=    0 IThEnd=    0 NThAct=    1.
 PrsmSu:  NPrtUS=   1 ThrOK=F IAlg=1 NPAlg=1 LenDen=           0 ISkipM=0 DoSpLW=F IThBeg=    0 IThEnd=    0.
 Prism:   IPart=     0 DynPar=F LinDyn=F Incr=         512.
 PRISM was handed  1325491899 working-precision words and117069 shell-pairs
 IPart=  0 NShTot=      117069 NBatch=         282 AvBLen=       415.1
 PrsmSu-ThDecC:  IPartSL=    0    0 NPrtUSL=    1    1 IThBeg=    0 IThEnd=    0 CPU=   -1 GPU=   -1 NThAct=    1.
 PrSmSu:  NxtVal=            513.
 Electronic moments (au):
       -716.00000000        -24.17855138          3.34813190          2.59951136
    -149299.42542379     -32521.31374685      -9098.24258434       -321.30337301
         43.82048834        -34.65937579     146498.80642148     -31770.08159177
       -343.66334172    -117990.79586501    -467108.46744718     109408.49883565
     -18129.39807219         64.59226061     -48881.84701208         -0.68690186
  -54045334.43949283   -3682428.72355384    -263016.50007617    1562609.24829336
    -285670.95863094    -383121.77473401      80866.72944264      21825.42584959
     -23214.75419066   -7224572.77453915   -2018709.56989983    -371681.07972254
    -389570.24407586    -434828.59380210      11922.69835324
 Electronic spatial extent (au):  <R**2>=         190918.9818
 DipInt: DoE/N= F T RetVal/Mat= T F Init=T NMatP=  1 IDeriv=0 Min/MaxMlt=  0  4
 Nuclear    moments (au):
        716.00000000          0.00000000         -0.00000000         -0.00000000
     149175.76531489      31990.08881881       8697.36222861         -0.00000000
          0.00000000          0.00000000    -163349.64088729      30359.65028335
        416.30199847     114780.13422643     471942.91565812    -108413.17319644
      17831.44350023         19.49097285      49001.31554634       -105.41302841
   53859218.60337204    3532949.46519538     233212.51393378   -1723885.55171022
     318797.36925007     333283.16543113     -85089.14174669     -22592.41585458
      23293.18873577    7139881.99315556    1929392.19060806     349559.98487369
     382462.39241385     437955.33880382     -15265.94812691
 Total      moments (au):
         -0.00000000        -24.17855138          3.34813190          2.59951136
       -123.66010890       -531.22492804       -400.88035573       -321.30337301
         43.82048834        -34.65937579     -16850.83446581      -1410.43130842
         72.63865675      -3210.66163858       4834.44821094        995.32563921
       -297.95457196         84.08323346        119.46853425       -106.09993027
    -186115.83612078    -149479.25835846     -29803.98614239    -161276.30341686
      33126.41061913     -49838.60930287      -4222.41230404       -766.99000499
         78.43454510     -84690.78138360     -89317.37929178     -22121.09484885
      -7107.85166201       3126.74500172      -3343.24977367
 Traceless Quadrup. (au):
        228.26168865       -179.30313048        -48.95855818       -321.30337301
         43.82048834        -34.65937579
 Charge=             -0.0000 electrons
 Dipole moment (field-independent basis, Debye):
    X=            -61.4557    Y=              8.5101    Z=              6.6073  Tot=             62.3930
 Quadrupole moment (field-independent basis, Debye-Ang):
   XX=           -166.3271   YY=           -714.5157   ZZ=           -539.1978
   XY=           -432.1640   XZ=             58.9401   YZ=            -46.6180
 Traceless Quadrupole moment (field-independent basis, Debye-Ang):
   XX=            307.0198   YY=           -241.1689   ZZ=            -65.8509
   XY=           -432.1640   XZ=             58.9401   YZ=            -46.6180
 Octapole moment (field-independent basis, Debye-Ang**2):
  XXX=         -11993.7748  YYY=          -1003.8907  ZZZ=             51.7014  XYY=          -2285.2253
  XXY=           3440.9740  XXZ=            708.4344  XZZ=           -212.0726  YZZ=             59.8472
  YYZ=             85.0331  XYZ=            -75.5178
 Hexadecapole moment (field-independent basis, Debye-Ang**3):
 XXXX=         -70100.1484 YYYY=         -56301.0565 ZZZZ=         -11225.6103 XXXY=         -60744.3893
 XXXZ=          12476.9947 YYYX=         -18771.6101 YYYZ=          -1590.3629 ZZZX=           -288.8852
 ZZZY=             29.5422 XXYY=         -31898.6093 XXZZ=         -33641.2080 YYZZ=          -8331.8651
 XXYZ=          -2677.1578 YYXZ=           1177.6821 ZZXY=          -1259.2282
 N-N= 1.835505561610D+04 E-N=-4.918400916843D+04  KE= 5.290574201949D+03
 Leave Link  601 at Wed Sep 18 00:02:59 2019, MaxMem=  1342177280 cpu:              44.9 elap:               1.1
 FitSet:  NAtFit=   176 NAtPot=   176 NAtFrz=     0 MDM=   180 TotChg=   0.00000
 Merz-Kollman atomic radii used.
 Read replacement radii for each type of atom:
 Rad(20) =   1.700000000000D+00
 Atom Element Radius
    1     6    1.50
    2     6    1.50
    3     8    1.40
    4     1    1.20
    5     1    1.20
    6     1    1.20
    7     7    1.50
    8     6    1.50
    9     6    1.50
   10     8    1.40
   11     6    1.50
   12     6    1.50
   13     8    1.40
   14     8    1.40
   15     1    1.20
   16     1    1.20
   17     1    1.20
   18     1    1.20
   19     7    1.50
   20     6    1.50
   21     6    1.50
   22     8    1.40
   23     6    1.50
   24     6    1.50
   25     6    1.50
   26     6    1.50
   27     7    1.50
   28     1    1.20
   29     1    1.20
   30     1    1.20
   31     1    1.20
   32     1    1.20
[...]
 **** Fit      -0.008037
 **** Fit      -0.007593
 **** Fit      -0.007260
 **** Fit      -0.007063
 **** Fit      -0.007047
 **** Fit      -0.007223
 **** Fit      -0.007597
 **** Fit      -0.008170
 **** Fit      -0.008933
 **** Fit      -0.011248
 **** Fit      -0.010330
 **** Fit      -0.009500
 **** Fit      -0.008761
 **** Fit      -0.008129
 **** Fit      -0.007621
 **** Fit      -0.007259
 **** Fit      -0.006934
 **** Fit      -0.006770
 **** Fit      -0.006778
 **** Fit      -0.006963
 **** Fit      -0.007329
 **** Fit      -0.007875
 **** Fit      -0.011672
 **** Fit      -0.010709
 **** Fit      -0.009833
 **** Fit      -0.009036
 **** Fit      -0.008329
 **** Fit      -0.007730
 **** Fit      -0.007255
 **** Fit      -0.006744
 **** Fit      -0.006377
 **** Fit      -0.006159
 **** Fit      -0.006091
 **** Fit      -0.006169
 **** Fit      -0.006387
 **** Fit      -0.012446
 **** Fit      -0.011385
 **** Fit      -0.010407
 **** Fit      -0.009492
 **** Fit      -0.008649
 **** Fit      -0.007896
 **** Fit      -0.007156
 **** Fit      -0.006372
 **** Fit      -0.005694
 **** Fit      -0.005115
 **** Fit      -0.004613
 **** Fit      -0.004151
 **** Fit      -0.012229
 **** Fit      -0.011116
 **** Fit      -0.010043
 **** Fit      -0.009011
 **** Fit      -0.008041
 **** Fit      -0.006816
 **** Fit      -0.005648
 **** Fit      -0.004503
 **** Fit      -0.003337
 **** Fit      -0.002065
 **** Fit      -0.011775
 **** Fit      -0.010521
 **** Fit      -0.009265
 **** Fit      -0.008024
 **** Fit      -0.006010
 **** Fit      -0.004182
 **** Fit      -0.002192
 **** Fit       0.000134
 **** Fit      -0.011093
 **** Fit      -0.009455
 **** Fit      -0.007760
 **** Fit      -0.014343
 **** Fit      -0.013091
 **** Fit      -0.014139
 **** Fit      -0.015463
 **** Fit      -0.015815
 **** Fit      -0.012858
 **** Fit      -0.014145
 **** Fit      -0.015581
 **** Fit      -0.016819
 **** Fit      -0.017537
 **** Fit      -0.017568
 **** Fit      -0.016857
 **** Fit      -0.012974
 **** Fit      -0.014343
 **** Fit      -0.015834
 **** Fit      -0.017290
 **** Fit      -0.018517
 **** Fit      -0.019355
 **** Fit      -0.019734
 **** Fit      -0.019664
 **** Fit      -0.019131
 **** Fit      -0.012082
 **** Fit      -0.013444
 **** Fit      -0.014979
 **** Fit      -0.016633
 **** Fit      -0.018296
 **** Fit      -0.019814
 **** Fit      -0.021028
 **** Fit      -0.021836
 **** Fit      -0.022226
 **** Fit      -0.022260
 **** Fit      -0.021994
 **** Fit      -0.021381
 **** Fit      -0.012719
 **** Fit      -0.014343
 **** Fit      -0.016143
 **** Fit      -0.018073
 **** Fit      -0.020027
 **** Fit      -0.021850
 **** Fit      -0.023373
 **** Fit      -0.024462
 **** Fit      -0.025077
 **** Fit      -0.025286
 **** Fit      -0.025221
 **** Fit      -0.024985
 **** Fit      -0.013588
 **** Fit      -0.015491
 **** Fit      -0.017592
 **** Fit      -0.019844
 **** Fit      -0.022142
 **** Fit      -0.024328
 **** Fit      -0.026216
 **** Fit      -0.027639
 **** Fit      -0.028510
 **** Fit      -0.028864
 **** Fit      -0.028849
 **** Fit      -0.028665
 **** Fit      -0.028473
 **** Fit      -0.013086
 **** Fit      -0.015269
 **** Fit      -0.017713
 **** Fit      -0.020400
 **** Fit      -0.023246
 **** Fit      -0.026096
 **** Fit      -0.028729
 **** Fit      -0.030894
 **** Fit      -0.032386
 **** Fit      -0.033127
 **** Fit      -0.033221
 **** Fit      -0.032929
 **** Fit      -0.032576
 **** Fit      -0.032434
 **** Fit      -0.014696
 **** Fit      -0.017487
 **** Fit      -0.020612
 **** Fit      -0.024018
 **** Fit      -0.027574
 **** Fit      -0.031059
 **** Fit      -0.034171
 **** Fit      -0.036579
 **** Fit      -0.038031
 **** Fit      -0.038479
 **** Fit      -0.038136
 **** Fit      -0.037418
 **** Fit      -0.036815
 **** Fit      -0.036742
 **** Fit      -0.017271
 **** Fit      -0.021010
 **** Fit      -0.025152
 **** Fit      -0.029580
 **** Fit      -0.034064
 **** Fit      -0.038240
 **** Fit      -0.041641
 **** Fit      -0.043822
 **** Fit      -0.044565
 **** Fit      -0.044027
 **** Fit      -0.042736
 **** Fit      -0.017740
 **** Fit      -0.022609
 **** Fit      -0.028030
 **** Fit      -0.033842
 **** Fit      -0.039700
 **** Fit      -0.045020
 **** Fit      -0.049031
 **** Fit      -0.051038
 **** Fit      -0.025285
 **** Fit      -0.032585
 **** Fit      -0.040282
 **** Fit      -0.047714
 **** Fit      -0.053769
 **** Fit      -0.001986
 **** Fit      -0.004427
 **** Fit      -0.007735
 **** Fit      -0.012072
 **** Fit      -0.017598
 **** Fit      -0.024433
 **** Fit      -0.032555
 **** Fit       0.000078
 **** Fit      -0.000620
 **** Fit      -0.002021
 **** Fit      -0.004203
 **** Fit      -0.007283
 **** Fit      -0.011415
 **** Fit      -0.016792
 **** Fit      -0.023631
 **** Fit      -0.032123
 **** Fit      -0.042289
 **** Fit      -0.000637
 **** Fit      -0.000425
 **** Fit      -0.000929
 **** Fit      -0.002181
 **** Fit      -0.004250
 **** Fit      -0.007243
 **** Fit      -0.011316
 **** Fit      -0.016676
 **** Fit      -0.023588
 **** Fit      -0.032358
 **** Fit      -0.043237
 **** Fit      -0.000814
 **** Fit      -0.000574
 **** Fit      -0.001112
 **** Fit      -0.002471
 **** Fit      -0.004732
 **** Fit      -0.008019
 **** Fit      -0.012512
 **** Fit      -0.018462
 **** Fit      -0.026194
 **** Fit      -0.036094
 **** Fit      -0.048464
 **** Fit      -0.000215
 **** Fit      -0.000176
 **** Fit      -0.000970
 **** Fit      -0.002657
 **** Fit      -0.005336
 **** Fit      -0.009158
 **** Fit      -0.014334
 **** Fit      -0.021146
 **** Fit      -0.029934
 **** Fit      -0.001052
 **** Fit      -0.000180
 **** Fit      -0.002387
 **** Fit      -0.005579
 **** Fit      -0.009920
 **** Fit      -0.015606
 **** Fit      -0.002046
 **** Fit      -0.006383
 **** Fit       0.047662
 **** Fit       0.039353
 **** Fit       0.030902
 **** Fit       0.054662
 **** Fit       0.047800
 **** Fit       0.040829
 **** Fit       0.033598
 **** Fit       0.068781
 **** Fit       0.063101
 **** Fit       0.057362
 **** Fit       0.051466
 **** Fit       0.045301
 **** Fit       0.038825
 **** Fit       0.032100
 **** Fit       0.025300
 **** Fit       0.076008
 **** Fit       0.072723
 **** Fit       0.068692
 **** Fit       0.064201
 **** Fit       0.059348
 **** Fit       0.054123
 **** Fit       0.048486
 **** Fit       0.042418
 **** Fit       0.035925
 **** Fit       0.029024
 **** Fit       0.021658
 **** Fit       0.070277
 **** Fit       0.073213
 **** Fit       0.075283
 **** Fit       0.076157
 **** Fit       0.075705
 **** Fit       0.074034
 **** Fit       0.071388
 **** Fit       0.068004
 **** Fit       0.064031
 **** Fit       0.059523
 **** Fit       0.054467
 **** Fit       0.048822
 **** Fit       0.042522
 **** Fit       0.035455
 **** Fit       0.027391
 **** Fit       0.065675
 **** Fit       0.068294
 **** Fit       0.070871
 **** Fit       0.073001
 **** Fit       0.074378
 **** Fit       0.074810
 **** Fit       0.074227
 **** Fit       0.072681
 **** Fit       0.070287
 **** Fit       0.067156
 **** Fit       0.063348
 **** Fit       0.058868
 **** Fit       0.053666
 **** Fit       0.047641
 **** Fit       0.040609
 **** Fit       0.032244
 **** Fit       0.062135
 **** Fit       0.063477
 **** Fit       0.066799
 **** Fit       0.069088
 **** Fit       0.071182
 **** Fit       0.072757
 **** Fit       0.073576
 **** Fit       0.073505
 **** Fit       0.072501
 **** Fit       0.070590
 **** Fit       0.067822
 **** Fit       0.064221
 **** Fit       0.059764
 **** Fit       0.054362
 **** Fit       0.047836
 **** Fit       0.039868
 **** Fit       0.029901
 **** Fit       0.063051
 **** Fit       0.064679
 **** Fit       0.066905
 **** Fit       0.069038
 **** Fit       0.070798
 **** Fit       0.071939
 **** Fit       0.072281
 **** Fit       0.071715
 **** Fit       0.070200
 **** Fit       0.067723
 **** Fit       0.064266
 **** Fit       0.059767
 **** Fit       0.054083
 **** Fit       0.046956
 **** Fit       0.037929
 **** Fit       0.062453
 **** Fit       0.064651
 **** Fit       0.065966
 **** Fit       0.068074
 **** Fit       0.069595
 **** Fit       0.070354
 **** Fit       0.070209
 **** Fit       0.069067
 **** Fit       0.066862
 **** Fit       0.063533
 **** Fit       0.058974
 **** Fit       0.052997
 **** Fit       0.045277
 **** Fit       0.035280
 **** Fit       0.056866
 **** Fit       0.060450
 **** Fit       0.063415
 **** Fit       0.063989
 **** Fit       0.066203
 **** Fit       0.067512
 **** Fit       0.067788
 **** Fit       0.066904
 **** Fit       0.064751
 **** Fit       0.061215
 **** Fit       0.056132
 **** Fit       0.049244
 **** Fit       0.040144
 **** Fit       0.044018
 **** Fit       0.051537
 **** Fit       0.056917
 **** Fit       0.060931
 **** Fit       0.060986
 **** Fit       0.063318
 **** Fit       0.064312
 **** Fit       0.063868
 **** Fit       0.061851
 **** Fit       0.058107
 **** Fit       0.052439
 **** Fit       0.044583
 **** Fit       0.044782
 **** Fit       0.052075
 **** Fit       0.057312
 **** Fit       0.056967
 **** Fit       0.059397
 **** Fit       0.059649
 **** Fit       0.057596
 **** Fit       0.053058
 **** Fit       0.045877
 **** Fit       0.036121
 **** Fit       0.045280
 **** Fit       0.052339
 **** Fit       0.051937
 **** Fit       0.054106
 **** Fit       0.052381
 **** Fit       0.046719
 **** Fit       0.037728
 **** Fit       0.036917
 **** Fit       0.046036
 **** Fit       0.045903
 **** Fit       0.046154
 **** Fit       0.038715
 **** Fit       0.038170
 **** Fit       0.038859
 **** Fit       0.028900
 **** Fit       0.023674
 **** Fit       0.018670
 **** Fit       0.037816
 **** Fit       0.033435
 **** Fit       0.028277
 **** Fit       0.022399
 **** Fit       0.015837
 **** Fit       0.032953
 **** Fit       0.027409
 **** Fit       0.020961
 **** Fit       0.013356
 **** Fit       0.027710
 **** Fit       0.021038
 **** Fit       0.013009
 **** Fit       0.027417
 **** Fit       0.020369
 **** Fit       0.011731
 **** Fit       0.024277
 **** Fit       0.016001
 **** Fit       0.029462
 **** Fit       0.022136
 **** Fit       0.033886
 **** Fit       0.027478
 **** Fit       0.038248
 **** Fit       0.033119
 **** Fit       0.045027
 **** Fit       0.042328
 **** Fit       0.054909
 **** Fit       0.064143
 **** Fit       0.074948
 **** Fit       0.034876
 **** Fit       0.033606
 **** Fit       0.034387
 **** Fit       0.034368
 **** Fit       0.034936
 **** Fit       0.036069
 **** Fit       0.034612
 **** Fit       0.031392
 **** Fit       0.033435
 **** Fit       0.034544
 **** Fit       0.034221
 **** Fit       0.033136
 **** Fit       0.032597
 **** Fit       0.033622
 **** Fit       0.035939
 **** Fit       0.030633
 **** Fit       0.028708
 **** Fit       0.032101
 **** Fit       0.034435
 **** Fit       0.035329
 **** Fit       0.034820
 **** Fit       0.033233
 **** Fit       0.031185
 **** Fit       0.029565
 **** Fit       0.029288
 **** Fit       0.030774
 **** Fit       0.033654
 **** Fit       0.025664
 **** Fit       0.026260
 **** Fit       0.031078
 **** Fit       0.034478
 **** Fit       0.036371
 **** Fit       0.036789
 **** Fit       0.035814
 **** Fit       0.033649
 **** Fit       0.030669
 **** Fit       0.027453
 **** Fit       0.024819
 **** Fit       0.023736
 **** Fit       0.024824
 **** Fit       0.027806
 **** Fit       0.031869
 **** Fit       0.024840
 **** Fit       0.030892
 **** Fit       0.035221
 **** Fit       0.037960
 **** Fit       0.039186
 **** Fit       0.038894
 **** Fit       0.037115
 **** Fit       0.034012
 **** Fit       0.029877
 **** Fit       0.025125
 **** Fit       0.020380
 **** Fit       0.016675
 **** Fit       0.021565
 **** Fit       0.026808
 **** Fit       0.024997
 **** Fit       0.031711
 **** Fit       0.036756
 **** Fit       0.040300
 **** Fit       0.042418
 **** Fit       0.042786
 **** Fit       0.041477
 **** Fit       0.040495
 **** Fit       0.039557
 **** Fit       0.041167
 **** Fit       0.040230
 **** Fit       0.039426
 **** Fit       0.038762
 **** Fit       0.038175
 **** Fit       0.037449
 **** Fit       0.036273
 **** Fit       0.037835
 **** Fit       0.037325
 **** Fit       0.036963
 **** Fit       0.036631
 **** Fit       0.036074
 **** Fit       0.034963
 **** Fit       0.032929
 **** Fit       0.036311
 **** Fit       0.036014
 **** Fit       0.035907
 **** Fit       0.035811
 **** Fit       0.035463
 **** Fit       0.034553
 **** Fit       0.032731
 **** Fit       0.035699
 **** Fit       0.035389
 **** Fit       0.035410
 **** Fit       0.035577
 **** Fit       0.035640
 **** Fit       0.035304
 **** Fit       0.034244
 **** Fit       0.032079
 **** Fit       0.035239
 **** Fit       0.035327
 **** Fit       0.035678
 **** Fit       0.036068
 **** Fit       0.036240
 **** Fit       0.035920
 **** Fit       0.034804
 **** Fit       0.032527
 **** Fit       0.035636
 **** Fit       0.035818
 **** Fit       0.036322
 **** Fit       0.036951
 **** Fit       0.037477
 **** Fit       0.037661
 **** Fit       0.037262
 **** Fit       0.036011
 **** Fit       0.033573
 **** Fit       0.036766
 **** Fit       0.036702
 **** Fit       0.037100
 **** Fit       0.037833
 **** Fit       0.038707
 **** Fit       0.039508
 **** Fit       0.040025
 **** Fit       0.040061
 **** Fit       0.039431
 **** Fit       0.038359
 **** Fit       0.038610
 **** Fit       0.039302
 **** Fit       0.040326
 **** Fit       0.041503
 **** Fit       0.042651
 **** Fit       0.043626
 **** Fit       0.044351
 **** Fit       0.044862
 **** Fit       0.040756
 **** Fit       0.040879
 **** Fit       0.041433
 **** Fit       0.042431
 **** Fit       0.043787
 **** Fit       0.045375
 **** Fit       0.047110
 **** Fit       0.049013
 **** Fit       0.051301
 **** Fit       0.044062
 **** Fit       0.044544
 **** Fit       0.045592
 **** Fit       0.047199
 **** Fit       0.049320
 **** Fit       0.051976
 **** Fit       0.055410
 **** Fit       0.060295
 **** Fit       0.048631
 **** Fit       0.049584
 **** Fit       0.051374
 **** Fit       0.054064
 **** Fit       0.057856
 **** Fit       0.063336
 **** Fit       0.054373
 **** Fit       0.054949
 **** Fit       0.056991
 **** Fit       0.060708
 **** Fit       0.066692
 **** Fit       0.063725
 **** Fit       0.062441
 **** Fit       0.064769
 **** Fit       0.071051
 **** Fit       0.075182
 -----------------------------------------------------------------
 Leave Link  602 at Wed Sep 18 00:03:01 2019, MaxMem=  1342177280 cpu:             116.4 elap:               2.5

 Test job not archived.
 1\1\GINC-C502-042\SP\RB3LYP\SVP\C54H83Ca1N15O23\PENGZHI\18-Sep-2019\0\
 \#b3lyp/svp scf=(tight,noincore) Test #IOP(5/87=12) Density=Current Po
 p=(MK,readradii) iop(6/33=2) iop(6/42=6)\\Ng-295_loop3_17.0\\0,1\C,0,9
 .749,75.151,69.77\C,0,8.939,74.181,68.93\O,0,7.709,74.221,68.86\H,0,10
 .661,75.419,69.236\H,0,9.161,76.049,69.958\H,0,10.009,74.682,70.719\N,
 0,9.569,73.241,68.23\C,0,8.859,72.171,67.55\C,0,8.359,71.091,68.5\O,0,
 9.029,70.071,68.68\C,0,9.779,71.691,66.43\C,0,8.939,71.101,65.31\O,0,8
 .479,71.811,64.38\O,0,8.599,69.901,65.31\H,0,10.569,73.151,68.34\H,0,7
 .959,72.561,67.08\H,0,10.509,70.971,66.8\H,0,10.339,72.591,66.17\N,0,7
 .089,71.201,68.88\C,0,6.529,70.311,69.88\C,0,6.149,68.911,69.41\O,0,5.
 839,68.071,70.25\C,0,5.389,71.001,70.64\C,0,5.889,72.271,71.31\C,0,4.8
 69,72.831,72.3\C,0,5.349,74.101,72.98\N,0,6.139,73.841,74.2\H,0,6.549,
 71.991,68.56\H,0,7.299,69.991,70.57\H,0,5.049,70.301,71.4\H,0,4.559,71
 .231,69.97\H,0,6.049,73.041,70.56\H,0,6.869,72.081,71.74\H,0,4.629,72.
 051,73.02\H,0,3.999,73.121,71.7\H,0,4.499,74.741,73.21\H,0,5.959,74.70
 1,72.3\H,0,5.719,73.261,74.91\H,0,6.979,73.331,73.97\H,0,6.339,74.741,
 74.61\N,0,6.279,68.641,68.11\C,0,5.779,67.401,67.54\C,0,6.989,66.581,6
 7.14\O,0,6.919,65.371,66.91\C,0,4.909,67.621,66.3\C,0,5.579,68.491,65.
 25\O,0,6.069,68.061,64.18\O,0,5.529,69.721,65.44\H,0,6.539,69.401,67.5
 \H,0,5.269,66.761,68.25\H,0,3.999,68.151,66.57\H,0,4.619,66.661,65.88\
 N,0,8.169,67.201,67.19\C,0,9.459,66.591,66.88\C,0,9.659,66.021,65.49\O
 ,0,10.639,65.311,65.3\H,0,8.029,68.131,67.56\H,0,9.519,65.781,67.61\H,
 0,10.229,67.351,67.01\N,0,8.809,66.241,64.49\C,0,9.119,65.901,63.11\C,
 0,9.529,67.181,62.4\O,0,8.749,68.131,62.36\C,0,7.929,65.211,62.46\C,0,
 7.929,65.311,60.94\N,0,7.349,66.401,60.43\O,0,8.469,64.511,60.17\H,0,8
 .059,66.921,64.57\H,0,10.039,65.311,63.11\H,0,6.989,65.661,62.78\H,0,7
 .929,64.221,62.91\H,0,6.899,67.051,61.06\H,0,7.389,66.591,59.44\N,0,10
 .689,67.271,61.75\C,0,11.009,68.371,60.86\C,0,11.289,68.111,59.39\O,0,
 11.609,68.991,58.59\H,0,11.269,66.441,61.77\H,0,11.969,68.761,61.18\H,
 0,10.319,69.211,60.98\N,0,11.029,66.881,58.95\C,0,10.829,66.541,57.55\
 C,0,9.529,67.181,57.09\O,0,8.459,66.871,57.61\C,0,10.919,65.021,57.45\
 C,0,11.039,64.401,56.08\C,0,9.899,63.991,55.38\C,0,12.299,64.361,55.48
 \C,0,10.049,63.401,54.12\C,0,12.479,63.781,54.21\C,0,11.329,63.321,53.
 54\O,0,11.449,62.811,52.28\H,0,10.679,66.221,59.62\H,0,11.629,66.931,5
 6.92\H,0,10.099,64.481,57.92\H,0,11.789,64.691,58.02\H,0,8.879,64.071,
 55.74\H,0,13.149,64.831,55.93\H,0,9.179,63.051,53.57\H,0,13.469,63.721
 ,53.79\H,0,12.329,62.781,51.89\N,0,9.679,68.041,56.08\C,0,8.699,68.711
 ,55.25\C,0,7.709,67.791,54.54\O,0,7.319,66.761,55.08\C,0,8.029,69.801,
 56.07\C,0,9.029,70.881,56.49\C,0,7.199,69.441,57.3\C,0,9.439,71.841,55
 .39\H,0,10.599,68.221,55.71\H,0,9.319,69.271,54.55\H,0,7.299,70.321,55
 .45\H,0,9.909,70.311,56.79\H,0,8.709,71.461,57.36\H,0,7.799,69.281,58.
 2\H,0,6.609,70.321,57.56\H,0,6.539,68.621,57.03\H,0,10.269,72.361,55.8
 8\H,0,9.769,71.341,54.48\H,0,8.659,72.571,55.19\N,0,7.259,68.321,53.4\
 C,0,6.359,67.601,52.52\C,0,6.609,67.841,51.04\O,0,5.989,67.091,50.28\C
 ,0,4.899,67.801,52.92\O,0,4.539,69.161,52.76\H,0,7.629,69.231,53.16\H,
 0,6.429,66.521,52.68\H,0,4.759,67.501,53.96\H,0,4.229,67.301,52.23\H,0
 ,4.099,69.291,51.92\N,0,7.459,68.801,50.7\C,0,7.849,68.941,49.31\C,0,6
 .669,69.051,48.36\O,0,6.299,68.141,47.63\C,0,8.879,67.881,48.94\H,0,7.
 869,69.451,51.35\H,0,8.429,69.861,49.18\H,0,8.469,66.901,49.18\H,0,9.0
 59,67.921,47.86\H,0,9.869,67.981,49.37\N,0,6.069,70.241,48.2\C,0,6.209
 ,71.441,49.\C,0,6.339,72.641,48.08\O,0,5.699,72.681,47.03\C,0,4.969,71
 .481,49.9\H,0,5.309,70.271,47.54\H,0,7.059,71.381,49.69\H,0,5.129,70.7
 41,50.68\H,0,4.999,72.461,50.38\H,0,4.039,71.271,49.37\N,0,7.009,73.73
 1,48.45\C,0,7.729,74.061,49.66\C,0,9.239,74.181,49.5\O,0,10.019,73.531
 ,50.19\C,0,7.149,75.301,50.33\C,0,7.989,75.841,51.49\C,0,7.309,77.101,
 52.02\O,0,6.699,76.901,53.09\O,0,7.509,78.201,51.46\H,0,7.029,74.481,4
 7.78\H,0,7.629,73.241,50.37\H,0,6.189,75.031,50.77\H,0,6.939,76.041,49
 .55\H,0,9.049,75.961,51.27\H,0,7.989,75.141,52.32\N,0,9.699,75.161,48.
 71\C,0,11.089,75.411,48.42\H,0,11.695,74.596,48.817\H,0,11.23,75.475,4
 7.341\H,0,11.394,76.349,48.884\H,0,9.099,75.801,48.2\Ca,0,7.,70.17,62.
 94\O,0,8.43,71.51,61.18\H,0,9.37,71.37,61.04\H,0,8.19,72.17,60.53\\Ver
 sion=ES64L-G16RevA.03\State=1-A\HF=-5333.3822539\RMSD=6.907e-10\Dipole
 =1.1093199,3.4100129,24.2839662\Quadrupole=-33.6116069,-198.0752792,23
 1.6868861,-11.5142168,-119.0585062,297.2434203\PG=C01 [X(C54H83Ca1N15O
 23)]\\@


 OLD HORSE! OLD HORSE! WHAT BROUGHT YOU HERE?
 FROM SACARAP' TO PORTLAND PIER
 I'VE CARTED STONE THIS MANY A YEAR;
 TILL, KILLED BY BLOWS AND SORE ABUSE,
 THEY SALTED ME DOWN FOR SAILORS' USE.
 THE SAILORS THEY DO ME DESPISE;
 THEY TURN ME OVER AND DAMN MY EYES;
 CUT OFF MY MEAT, AND SCRAPE MY BONES,
 AND PITCH ME OVER TO DAVY JONES.

    SAILORS' COMPLAINT ABOUT THE BEEF
    SERVED ON SHIPBOARD, CIRCA 1835.
 Job cpu time:       0 days 18 hours 49 minutes 30.9 seconds.
 Elapsed time:       0 days  0 hours 23 minutes 51.6 seconds.
 File lengths (MBytes):  RWF=   1517 Int=      0 D2E=      0 Chk=    171 Scr=      1
 Normal termination of Gaussian 16 at Wed Sep 18 00:03:03 2019.
