 Entering Gaussian System, Link 0=g16
 Initial command:
 /home1/apps/gaussian/16rA.03/g16/l1.exe "/scratch/01990/pengzhi/4353692/Gau-174511.inp" -scrdir="/scratch/01990/pengzhi/4353692/"
 Entering Link 1 = /home1/apps/gaussian/16rA.03/g16/l1.exe PID=    174512.
  
 Copyright (c) 1988,1990,1992,1993,1995,1998,2003,2009,2016,
            Gaussian, Inc.  All Rights Reserved.
  
 This is part of the Gaussian(R) 16 program.  It is based on
 the Gaussian(R) 09 system (copyright 2009, Gaussian, Inc.),
 the Gaussian(R) 03 system (copyright 2003, Gaussian, Inc.),
 the Gaussian(R) 98 system (copyright 1998, Gaussian, Inc.),
 the Gaussian(R) 94 system (copyright 1995, Gaussian, Inc.),
 the Gaussian 92(TM) system (copyright 1992, Gaussian, Inc.),
 the Gaussian 90(TM) system (copyright 1990, Gaussian, Inc.),
 the Gaussian 88(TM) system (copyright 1988, Gaussian, Inc.),
 the Gaussian 86(TM) system (copyright 1986, Carnegie Mellon
 University), and the Gaussian 82(TM) system (copyright 1983,
 Carnegie Mellon University). Gaussian is a federally registered
 trademark of Gaussian, Inc.
  
 This software contains proprietary and confidential information,
 including trade secrets, belonging to Gaussian, Inc.
  
 This software is provided under written license and may be
 used, copied, transmitted, or stored only in accord with that
 written license.
  
 The following legend is applicable only to US Government
 contracts under FAR:
  
                    RESTRICTED RIGHTS LEGEND
  
 Use, reproduction and disclosure by the US Government is
 subject to restrictions as set forth in subparagraphs (a)
 and (c) of the Commercial Computer Software - Restricted
 Rights clause in FAR 52.227-19.
  
 Gaussian, Inc.
 340 Quinnipiac St., Bldg. 40, Wallingford CT 06492
  
  
 ---------------------------------------------------------------
 Warning -- This program may not be used in any manner that
 competes with the business of Gaussian, Inc. or will provide
 assistance to any competitor of Gaussian, Inc.  The licensee
 of this program is prohibited from giving any competitor of
 Gaussian, Inc. access to this program.  By using this program,
 the user acknowledges that Gaussian, Inc. is engaged in the
 business of creating and licensing software in the field of
 computational chemistry and represents and warrants to the
 licensee that it is not a competitor of Gaussian, Inc. and that
 it will not use this program in any manner prohibited above.
 ---------------------------------------------------------------
  

 Cite this work as:
 Gaussian 16, Revision A.03,
 M. J. Frisch, G. W. Trucks, H. B. Schlegel, G. E. Scuseria, 
 M. A. Robb, J. R. Cheeseman, G. Scalmani, V. Barone, 
 G. A. Petersson, H. Nakatsuji, X. Li, M. Caricato, A. V. Marenich, 
 J. Bloino, B. G. Janesko, R. Gomperts, B. Mennucci, H. P. Hratchian, 
 J. V. Ortiz, A. F. Izmaylov, J. L. Sonnenberg, D. Williams-Young, 
 F. Ding, F. Lipparini, F. Egidi, J. Goings, B. Peng, A. Petrone, 
 T. Henderson, D. Ranasinghe, V. G. Zakrzewski, J. Gao, N. Rega, 
 G. Zheng, W. Liang, M. Hada, M. Ehara, K. Toyota, R. Fukuda, 
 J. Hasegawa, M. Ishida, T. Nakajima, Y. Honda, O. Kitao, H. Nakai, 
 T. Vreven, K. Throssell, J. A. Montgomery, Jr., J. E. Peralta, 
 F. Ogliaro, M. J. Bearpark, J. J. Heyd, E. N. Brothers, K. N. Kudin, 
 V. N. Staroverov, T. A. Keith, R. Kobayashi, J. Normand, 
 K. Raghavachari, A. P. Rendell, J. C. Burant, S. S. Iyengar, 
 J. Tomasi, M. Cossi, J. M. Millam, M. Klene, C. Adamo, R. Cammi, 
 J. W. Ochterski, R. L. Martin, K. Morokuma, O. Farkas, 
 J. B. Foresman, and D. J. Fox, Gaussian, Inc., Wallingford CT, 2016.
 
 ******************************************
 Gaussian 16:  ES64L-G16RevA.03 25-Dec-2016
                18-Sep-2019 
 ******************************************
 %chk=Ng-295_loop3_36.0.chk
 %nprocshared=48
 Will use up to   48 processors via shared memory.
 %mem=10GB
 %nosave
 ----------------------------------------------------------------------
 #b3lyp/svp scf=(tight,noincore) Test #IOP(5/87=12) Density=Current Pop
 =(MK,readradii) iop(6/33=2) iop(6/42=6)
 ----------------------------------------------------------------------
 1/30=1,38=1,172=1/1;
 2/12=2,17=6,18=5,40=1/2;
 3/5=18,7=101,11=2,25=1,30=1,74=-5/1,2,3;
 4//1;
 5/5=4,32=2,38=5,87=12/2;
 6/7=2,8=2,9=2,10=2,15=8,20=101,22=-1,28=1,33=2,42=6/1,2;
 99/5=1,9=1/99;
 -----------------
 Ng-295_loop3_36.0
 -----------------
 Symbolic Z-matrix:
 Charge =  0 Multiplicity = 1
 C                     98.97     73.294    73.58 
 C                     98.04     73.174    72.39 
 O                     97.35     74.104    72. 
 H                     99.85     73.871    73.296 
 H                     98.453    73.799    74.396 
 H                     99.277    72.299    73.904 
 N                     98.       72.014    71.73 
 C                     97.28     71.784    70.49 
 C                     95.76     71.814    70.66 
 O                     95.29     71.174    71.59 
 C                     97.82     70.554    69.78 
 C                     97.24     70.244    68.41 
 O                     97.97     69.734    67.52 
 O                     96.03     70.454    68.18 
 H                     98.57     71.234    72.02 
 H                     97.57     72.634    69.88 
 H                     97.72     69.654    70.39 
 H                     98.88     70.744    69.59 
 N                     94.98     72.554    69.87 
 C                     93.56     72.814    70.02 
 C                     92.68     71.644    69.61 
 O                     91.48     71.764    69.86 
 C                     93.29     74.064    69.18 
 C                     93.67     75.464    69.66 
 C                     92.91     75.744    70.94 
 C                     93.14     77.164    71.46 
 N                     94.52     77.434    71.91 
 H                     95.48     72.984    69.11 
 H                     93.35     73.014    71.07 
 H                     92.24     74.094    68.88 
 H                     93.68     73.784    68.2 
 H                     93.35     76.264    68.99 
 H                     94.74     75.504    69.89 
 H                     93.32     75.044    71.67 
 H                     91.84     75.534    70.91 
 H                     92.42     77.354    72.26 
 H                     92.89     77.934    70.74 
 H                     94.49     78.364    72.32 
 H                     94.73     76.844    72.7 
 H                     95.2      77.464    71.17 
 N                     93.23     70.604    68.98 
 C                     92.56     69.324    68.98 
 C                     93.42     68.124    69.32 
 O                     92.82     67.104    69.67 
 C                     91.81     69.004    67.69 
 C                     92.58     69.474    66.47 
 O                     91.99     70.174    65.61 
 O                     93.8      69.264    66.27 
 H                     94.21     70.664    68.73 
 H                     91.82     69.354    69.78 
 H                     90.81     69.424    67.82 
 H                     91.64     67.934    67.54 
 N                     94.74     68.164    69.13 
 C                     95.65     67.034    69.18 
 C                     95.56     66.074    68.01 
 O                     96.21     65.034    68.06 
 H                     95.17     69.034    68.84 
 H                     95.29     66.564    70.09 
 H                     96.67     67.424    69.13 
 N                     94.77     66.444    66.99 
 C                     94.87     65.864    65.67 
 C                     96.16     66.264    64.95 
 O                     96.59     67.404    65.01 
 C                     93.62     66.064    64.83 
 C                     93.8      66.134    63.32 
 N                     94.02     67.294    62.69 
 O                     93.9      65.084    62.69 
 H                     94.2      67.274    67.09 
 H                     94.83     64.804    65.9 
 H                     93.14     67.004    65.13 
 H                     92.98     65.194    64.97 
 H                     94.1      68.184    63.16 
 H                     94.19     67.204    61.7 
 N                     96.75     65.244    64.32 
 C                     97.82     65.444    63.37 
 C                     97.71     64.424    62.24 
 O                     98.75     63.994    61.75 
 H                     96.31     64.334    64.4 
 H                     98.77     65.254    63.86 
 H                     97.65     66.414    62.9 
 N                     96.48     64.094    61.84 
 C                     96.16     63.234    60.72 
 C                     96.02     64.014    59.41 
 O                     95.04     64.724    59.21 
 C                     94.88     62.434    60.94 
 C                     94.56     61.424    59.86 
 C                     93.45     61.514    59.01 
 C                     95.34     60.274    59.74 
 C                     93.2      60.574    58.01 
 C                     95.04     59.204    58.88 
 C                     93.97     59.394    57.99 
 O                     93.74     58.374    57.11 
 H                     95.65     64.494    62.24 
 H                     96.99     62.554    60.55 
 H                     94.07     63.164    60.91 
 H                     94.76     61.994    61.93 
 H                     92.78     62.354    59.09 
 H                     96.06     60.114    60.53 
 H                     92.3      60.584    57.41 
 H                     95.71     58.354    58.91 
 H                     94.49     57.764    57.06 
 N                     97.07     63.894    58.59 
 C                     97.33     64.704    57.42 
 C                     96.28     64.394    56.37 
 O                     95.36     63.634    56.66 
 C                     97.5      66.174    57.81 
 C                     98.12     67.094    56.77 
 C                     98.38     66.264    59.06 
 C                     97.9      68.594    56.94 
 H                     97.78     63.214    58.84 
 H                     98.28     64.334    57.05 
 H                     96.56     66.694    58.02 
 H                     97.85     66.814    55.75 
 H                     99.2      66.904    56.78 
 H                     99.2      65.554    59. 
 H                     98.87     67.224    59.18 
 H                     97.68     66.024    59.86 
 H                     97.08     68.904    56.3 
 H                     97.64     68.874    57.96 
 H                     98.8      69.154    56.67 
 N                     96.5      64.844    55.13 
 C                     95.53     64.714    54.06 
 C                     95.99     64.014    52.79 
 O                     95.15     63.764    51.93 
 C                     94.96     66.084    53.7 
 O                     96.07     66.834    53.26 
 H                     97.4      65.284    55.06 
 H                     94.61     64.204    54.33 
 H                     94.48     66.494    54.59 
 H                     94.33     66.044    52.81 
 H                     95.78     67.744    53.25 
 N                     97.31     63.824    52.7 
 C                     98.11     63.384    51.58 
 C                     97.54     63.734    50.22 
 O                     97.07     62.924    49.42 
 C                     98.14     61.874    51.79 
 H                     97.82     64.234    53.46 
 H                     99.09     63.864    51.67 
 H                     98.79     61.484    51. 
 H                     98.57     61.534    52.74 
 H                     97.18     61.424    51.54 
 N                     97.58     64.994    49.75 
 C                     98.16     66.144    50.41 
 C                     99.57     66.364    49.9 
 O                     99.78     66.294    48.69 
 C                     97.21     67.334    50.29 
 H                     97.05     65.104    48.9 
 H                     98.25     65.914    51.47 
 H                     97.54     68.174    50.9 
 H                     97.21     67.654    49.25 
 H                     96.18     67.064    50.54 
 N                     100.58    66.684    50.71 
 C                     100.61    66.894    52.14 
 C                     101.9     66.314    52.71 
 O                     101.86    65.814    53.83 
 C                     100.58    68.384    52.45 
 C                     100.19    68.644    53.91 
 C                     100.23    70.134    54.22 
 O                     99.58     70.884    53.46 
 O                     100.71    70.514    55.31 
 H                     101.44    66.734    50.17 
 H                     99.71     66.524    52.64 
 H                     99.88     68.904    51.79 
 H                     101.56    68.814    52.27 
 H                     100.88    68.084    54.54 
 H                     99.24     68.174    54.13 
 N                     102.98    66.264    51.93 
 C                     104.26    65.734    52.37 
 H                     104.983   66.546    52.443 
 H                     104.143   65.264    53.346 
 H                     104.615   64.996    51.651 
 H                     102.96    66.804    51.08 
 Ca                    96.18     70.3      65.55 
 O                     98.04     72.11     65.97 
 H                     98.07     72.59     66.8 
 H                     98.88     72.3      65.56 
 
 Stoichiometry    C54H83CaN15O23
 Framework group  C1[X(C54H83CaN15O23)]
 Deg. of freedom   522
 Full point group                 C1      NOp   1
 Largest Abelian subgroup         C1      NOp   1
 Largest concise Abelian subgroup C1      NOp   1
                         Standard orientation:                         
 ---------------------------------------------------------------------
 Center     Atomic      Atomic             Coordinates (Angstroms)
 Number     Number       Type             X           Y           Z
 ---------------------------------------------------------------------
      1          6           0       12.776871   -3.220440    3.796068
      2          6           0       11.806792   -2.964303    2.660842
      3          8           0       11.909257   -3.512797    1.573756
      4          1           0       12.573819   -4.198017    4.233217
      5          1           0       13.797514   -3.198914    3.413976
      6          1           0       12.657155   -2.449702    4.558224
      7          7           0       10.787347   -2.128605    2.873306
      8          6           0        9.694817   -1.892621    1.946166
      9          6           0       10.126397   -1.147794    0.681582
     10          8           0       10.825918   -0.155781    0.829835
     11          6           0        8.502957   -1.288144    2.669130
     12          6           0        7.237937   -1.083598    1.852255
     13          8           0        6.110625   -1.221088    2.395729
     14          8           0        7.315121   -0.736833    0.654384
     15          1           0       10.668993   -1.673468    3.765631
     16          1           0        9.395939   -2.897178    1.662902
     17          1           0        8.750475   -0.332512    3.135610
     18          1           0        8.213483   -2.002814    3.444534
     19          7           0        9.809422   -1.590735   -0.536380
     20          6           0       10.289069   -1.092602   -1.812429
     21          6           0        9.641197    0.215248   -2.238092
     22          8           0       10.122934    0.750376   -3.237326
     23          6           0       10.023225   -2.222113   -2.809692
     24          6           0       10.906153   -3.467070   -2.882621
     25          6           0       12.311653   -3.026025   -3.235395
     26          6           0       13.264624   -4.206168   -3.432392
     27          7           0       13.533934   -4.985267   -2.207534
     28          1           0        9.183660   -2.378571   -0.521013
     29          1           0       11.359084   -0.903954   -1.734453
     30          1           0        9.942879   -1.817417   -3.821209
     31          1           0        8.956696   -2.412500   -2.678659
     32          1           0       10.640573   -4.151753   -3.690071
     33          1           0       10.944482   -3.957463   -1.904129
     34          1           0       12.652857   -2.454113   -2.370816
     35          1           0       12.394334   -2.343462   -4.082255
     36          1           0       14.191263   -3.825725   -3.869545
     37          1           0       12.930164   -4.911334   -4.183843
     38          1           0       14.253090   -5.654628   -2.469585
     39          1           0       14.004992   -4.395551   -1.539223
     40          1           0       12.749321   -5.517322   -1.872572
     41          7           0        8.590005    0.674324   -1.556003
     42          6           0        8.240477    2.074426   -1.625603
     43          6           0        7.964240    2.756809   -0.301501
     44          8           0        8.017408    3.989721   -0.301222
     45          6           0        7.074648    2.388436   -2.559006
     46          6           0        5.995570    1.325059   -2.475215
     47          8           0        5.566844    0.807659   -3.536436
     48          8           0        5.523290    0.868427   -1.407068
     49          1           0        8.212231    0.092920   -0.817250
     50          1           0        9.112305    2.599326   -2.016623
     51          1           0        7.521038    2.545495   -3.543571
     52          1           0        6.577207    3.335205   -2.329923
     53          7           0        7.574757    2.043954    0.756914
     54          6           0        7.050020    2.572501    2.003024
     55          6           0        5.645639    3.138956    1.929252
     56          8           0        5.199048    3.716263    2.916102
     57          1           0        7.551472    1.033628    0.689092
     58          1           0        7.774002    3.363603    2.172163
     59          1           0        6.968466    1.742628    2.709890
     60          7           0        4.985193    2.956491    0.775164
     61          6           0        3.548916    3.074906    0.666141
     62          6           0        2.811012    1.943466    1.385751
     63          8           0        3.206278    0.791074    1.323641
     64          6           0        3.071424    3.300214   -0.758408
     65          6           0        1.684228    2.785949   -1.117043
     66          7           0        1.492221    1.548749   -1.589662
     67          8           0        0.707888    3.469150   -0.818053
     68          1           0        5.478526    2.554508   -0.011494
     69          1           0        3.380055    4.043791    1.125323
     70          1           0        3.772094    2.811241   -1.446860
     71          1           0        2.994124    4.374545   -0.919465
     72          1           0        2.232500    0.875041   -1.721964
     73          1           0        0.524150    1.301212   -1.726285
     74          7           0        1.760131    2.366510    2.094329
     75          6           0        0.777330    1.452904    2.629893
     76          6           0       -0.608834    2.089296    2.575536
     77          8           0       -1.395162    1.833524    3.482657
     78          1           0        1.578483    3.364030    2.101829
     79          1           0        0.990626    1.277439    3.679853
     80          1           0        0.730484    0.601896    1.948505
     81          7           0       -0.880433    2.859290    1.519533
     82          6           0       -2.162519    3.463915    1.224431
     83          6           0       -3.052237    2.553422    0.373839
     84          8           0       -2.805542    2.375807   -0.814476
     85          6           0       -2.029494    4.805556    0.510916
     86          6           0       -3.329645    5.546395    0.288059
     87          6           0       -3.880786    5.794877   -0.975745
     88          6           0       -3.994504    6.112572    1.375582
     89          6           0       -5.094459    6.462706   -1.140368
     90          6           0       -5.118756    6.948159    1.264449
     91          6           0       -5.677028    7.083400   -0.017402
     92          8           0       -6.813568    7.838401   -0.094552
     93          1           0       -0.223996    3.017700    0.775962
     94          1           0       -2.710583    3.597729    2.152827
     95          1           0       -1.649654    4.571138   -0.484408
     96          1           0       -1.263263    5.475881    0.900345
     97          1           0       -3.384661    5.427509   -1.858809
     98          1           0       -3.455726    6.095371    2.312344
     99          1           0       -5.482689    6.739054   -2.111455
    100          1           0       -5.517900    7.350835    2.186857
    101          1           0       -7.212398    7.980879    0.775927
    102          7           0       -4.029228    1.950909    1.060692
    103          6           0       -4.849720    0.857609    0.587313
    104          6           0       -5.740030    1.365632   -0.530882
    105          8           0       -5.591192    2.518105   -0.928066
    106          6           0       -3.986984   -0.367688    0.277096
    107          6           0       -4.711270   -1.694502    0.111640
    108          6           0       -2.964228   -0.559910    1.400493
    109          6           0       -3.970824   -2.811909   -0.616674
    110          1           0       -4.172156    2.244872    2.020982
    111          1           0       -5.488714    0.623722    1.431874
    112          1           0       -3.441441   -0.304133   -0.669711
    113          1           0       -5.699264   -1.578309   -0.337880
    114          1           0       -4.959741   -2.049572    1.119006
    115          1           0       -3.420854   -0.369135    2.367549
    116          1           0       -2.590129   -1.574672    1.480544
    117          1           0       -2.197758    0.173409    1.150757
    118          1           0       -4.300287   -2.836561   -1.650573
    119          1           0       -2.890381   -2.674060   -0.623023
    120          1           0       -4.170753   -3.781321   -0.151089
    121          7           0       -6.748753    0.577856   -0.918678
    122          6           0       -7.605727    0.890918   -2.045749
    123          6           0       -9.102786    0.950146   -1.781540
    124          8           0       -9.834058    1.353364   -2.681738
    125          6           0       -7.336426   -0.078654   -3.194142
    126          8           0       -7.659266   -1.350423   -2.677829
    127          1           0       -6.809452   -0.241532   -0.341254
    128          1           0       -7.384091    1.827770   -2.548329
    129          1           0       -6.289160    0.023299   -3.482999
    130          1           0       -8.055255    0.039559   -4.006492
    131          1           0       -7.286248   -1.980931   -3.290705
    132          7           0       -9.484597    0.455602   -0.599912
    133          6           0      -10.809011    0.169351   -0.097926
    134          6           0      -11.826141   -0.184788   -1.164242
    135          8           0      -12.771117    0.527783   -1.505216
    136          6           0      -11.172345    1.479116    0.593163
    137          1           0       -8.728939    0.051257   -0.079061
    138          1           0      -10.722726   -0.683003    0.583944
    139          1           0      -12.150501    1.303255    1.052493
    140          1           0      -10.502206    1.791744    1.403210
    141          1           0      -11.397551    2.257498   -0.134851
    142          7           0      -11.803951   -1.380906   -1.779800
    143          6           0      -10.882344   -2.467011   -1.523836
    144          6           0      -11.514665   -3.452927   -0.562203
    145          8           0      -12.683674   -3.790254   -0.743109
    146          6           0      -10.392801   -3.044065   -2.850620
    147          1           0      -12.448976   -1.427291   -2.552646
    148          1           0      -10.012192   -2.057255   -1.014390
    149          1           0       -9.586280   -3.761248   -2.703061
    150          1           0      -11.227563   -3.567937   -3.311848
    151          1           0      -10.082824   -2.261679   -3.549252
    152          7           0      -10.833278   -4.008853    0.440423
    153          6           0       -9.453871   -3.850816    0.843113
    154          6           0       -9.368806   -3.840959    2.365632
    155          8           0       -8.519472   -3.126638    2.889442
    156          6           0       -8.622143   -5.016655    0.327218
    157          6           0       -7.123812   -4.692117    0.358512
    158          6           0       -6.304294   -5.891509   -0.097173
    159          8           0       -6.612859   -6.397861   -1.197626
    160          8           0       -5.252460   -6.175549    0.515906
    161          1           0      -11.459048   -4.595173    0.986629
    162          1           0       -8.974314   -2.985359    0.376305
    163          1           0       -8.914314   -5.280730   -0.693027
    164          1           0       -8.801065   -5.892839    0.942025
    165          1           0       -6.871914   -4.396863    1.376340
    166          1           0       -6.928106   -3.786821   -0.201790
    167          7           0      -10.288933   -4.507083    3.063447
    168          6           0      -10.302825   -4.566347    4.515754
    169          1           0      -10.066291   -5.579522    4.839681
    170          1           0       -9.560856   -3.875593    4.915135
    171          1           0      -11.291376   -4.290116    4.881941
    172          1           0      -10.866238   -5.160386    2.559051
    173         20           0        4.826996   -1.321584   -0.001677
    174          8           0        5.546271   -3.636207    1.016786
    175          1           0        6.475196   -3.852376    1.119584
    176          1           0        5.093922   -4.299184    1.532191
 ---------------------------------------------------------------------
 Rotational constants (GHZ):           0.0270822           0.0057050           0.0051715
 Standard basis: SVP (5D, 7F)
 There are  1809 symmetry adapted cartesian basis functions of A   symmetry.
 There are  1717 symmetry adapted basis functions of A   symmetry.
  1717 basis functions,  2922 primitive gaussians,  1809 cartesian basis functions
   358 alpha electrons      358 beta electrons
       nuclear repulsion energy     18372.9601918797 Hartrees.
 NAtoms=  176 NActive=  176 NUniq=  176 SFac= 1.00D+00 NAtFMM=   60 NAOKFM=T Big=T
 Integral buffers will be    131072 words long.
 Raffenetti 2 integral format.
 Two-electron integral symmetry is turned on.
 One-electron integrals computed using PRISM.
 NBasis=  1717 RedAO= T EigKep=  3.10D-04  NBF=  1717
 NBsUse=  1717 1.00D-06 EigRej= -1.00D+00 NBFU=  1717
 ExpMin= 1.98D-02 ExpMax= 3.51D+04 ExpMxC= 5.28D+03 IAcc=3 IRadAn=         5 AccDes= 0.00D+00
 Harris functional with IExCor=  402 and IRadAn=       5 diagonalized for initial guess.
 HarFok:  IExCor=  402 AccDes= 0.00D+00 IRadAn=         5 IDoV= 1 UseB2=F ITyADJ=14
 ICtDFT=  3500011 ScaDFX=  1.000000  1.000000  1.000000  1.000000
 FoFCou: FMM=F IPFlag=           0 FMFlag=      100000 FMFlg1=        2001
         NFxFlg=           0 DoJE=T BraDBF=F KetDBF=T FulRan=T
         wScrn=  0.000000 ICntrl=       500 IOpCl=  0 I1Cent=   200000004 NGrid=           0
         NMat0=    1 NMatS0=      1 NMatT0=    0 NMatD0=    1 NMtDS0=    0 NMtDT0=    0
 Petite list used in FoFCou.
 Requested convergence on RMS density matrix=1.00D-08 within 128 cycles.
 Requested convergence on MAX density matrix=1.00D-06.
 Requested convergence on             energy=1.00D-06.
 No special actions if energy rises.
 EnCoef did     4 forward-backward iterations
 EnCoef did     4 forward-backward iterations
 EnCoef did     7 forward-backward iterations
 EnCoef did     6 forward-backward iterations
 EnCoef did    55 forward-backward iterations
 Rare condition: small coef for last iteration: -0.666D-15
 EnCoef did   100 forward-backward iterations
 EnCoef did    57 forward-backward iterations
 Rare condition: small coef for last iteration:  0.111D-15
 EnCoef did   100 forward-backward iterations
 EnCoef did   100 forward-backward iterations
 EnCoef did    88 forward-backward iterations
 Rare condition: small coef for last iteration: -0.176D-14
 EnCoef did   100 forward-backward iterations
 Restarting incremental Fock formation.
 EnCoef did   100 forward-backward iterations
 EnCoef did   100 forward-backward iterations
 Rare condition: small coef for last iteration:  0.402D-14
 EnCoef did   100 forward-backward iterations
 EnCoef did   100 forward-backward iterations
 EnCoef did   100 forward-backward iterations
 Rare condition: small coef for last iteration:  0.991D-15
 EnCoef did   100 forward-backward iterations
 EnCoef did   100 forward-backward iterations
 EnCoef did   100 forward-backward iterations
 Rare condition: small coef for last iteration:  0.105D-14
 EnCoef did   100 forward-backward iterations
 EnCoef did   100 forward-backward iterations
 EnCoef did   100 forward-backward iterations
 Rare condition: small coef for last iteration:  0.123D-14
 EnCoef did   100 forward-backward iterations
 EnCoef did   100 forward-backward iterations
 EnCoef did   100 forward-backward iterations
 Rare condition: small coef for last iteration:  0.510D-14
 EnCoef did   100 forward-backward iterations
 EnCoef did   100 forward-backward iterations
 EnCoef did   100 forward-backward iterations
 Rare condition: small coef for last iteration:  0.152D-14
 EnCoef did   100 forward-backward iterations
 EnCoef did   100 forward-backward iterations
 EnCoef did   100 forward-backward iterations
 Restarting incremental Fock formation.
 EnCoef did   100 forward-backward iterations
 Rare condition: small coef for last iteration:  0.129D-14
 EnCoef did   100 forward-backward iterations
 EnCoef did   100 forward-backward iterations
 EnCoef did   100 forward-backward iterations
 EnCoef did    23 forward-backward iterations
 EnCoef did    49 forward-backward iterations
 EnCoef did   100 forward-backward iterations
 EnCoef did   100 forward-backward iterations
 Rare condition: small coef for last iteration:  0.267D-15
 EnCoef did   100 forward-backward iterations
 Rare condition: small coef for last iteration:  0.000D+00
 EnCoef did   100 forward-backward iterations
 EnCoef did     5 forward-backward iterations
 EnCoef did   100 forward-backward iterations
 EnCoef did   100 forward-backward iterations
 EnCoef did   100 forward-backward iterations
 Rare condition: small coef for last iteration:  0.375D-15
 EnCoef did    27 forward-backward iterations
 Rare condition: small coef for last iteration:  0.000D+00
 EnCoef did    42 forward-backward iterations
 Rare condition: small coef for last iteration:  0.000D+00
 EnCoef did   100 forward-backward iterations
 Rare condition: small coef for last iteration:  0.000D+00
 EnCoef did   100 forward-backward iterations
 Rare condition: small coef for last iteration:  0.000D+00
 EnCoef did   100 forward-backward iterations
 EnCoef did   100 forward-backward iterations
 Rare condition: small coef for last iteration: -0.184D-15
 Restarting incremental Fock formation.
 EnCoef did   100 forward-backward iterations
 EnCoef did   100 forward-backward iterations
 Rare condition: small coef for last iteration: -0.411D-15
 EnCoef did   100 forward-backward iterations
 Rare condition: small coef for last iteration:  0.101D-15
 EnCoef did     8 forward-backward iterations
 Rare condition: small coef for last iteration: -0.444D-15
 EnCoef did    50 forward-backward iterations
 EnCoef did    76 forward-backward iterations
 EnCoef did   100 forward-backward iterations
 EnCoef did    50 forward-backward iterations
 Rare condition: small coef for last iteration:  0.666D-15
 EnCoef did   100 forward-backward iterations
 EnCoef did   100 forward-backward iterations
 EnCoef did   100 forward-backward iterations
 EnCoef did   100 forward-backward iterations
 EnCoef did   100 forward-backward iterations
 EnCoef did     9 forward-backward iterations
 Restarting incremental Fock formation.
 SCF Done:  E(RB3LYP) =  -5333.32521668     A.U. after   86 cycles
            NFock= 86  Conv=0.13D-08     -V/T= 2.0081
 SCF density gives NOpUse=  1 NOpAll=  1.
 Hyperfine terms turned off by default for NAtoms > 100.

 **********************************************************************

            Population analysis using the SCF density.

 **********************************************************************

 Orbital symmetries:
 BldTbl:  Degeneracy threshold= 1.00D-02
       Occupied  (A) (A) (A) (A) (A) (A) (A) (A) (A) (A) (A) (A)
                 (A) (A) (A) (A) (A) (A) (A) (A) (A) (A) (A) (A)
                 (A) (A) (A) (A) (A) (A) (A) (A) (A) (A) (A) (A)
                 (A) (A) (A) (A) (A) (A) (A) (A) (A) (A) (A) (A)
                 (A) (A) (A) (A) (A) (A) (A) (A) (A) (A) (A) (A)
                 (A) (A) (A) (A) (A) (A) (A) (A) (A) (A) (A) (A)
                 (A) (A) (A) (A) (A) (A) (A) (A) (A) (A) (A) (A)
                 (A) (A) (A) (A) (A) (A) (A) (A) (A) (A) (A) (A)
                 (A) (A) (A) (A) (A) (A) (A) (A) (A) (A) (A) (A)
                 (A) (A) (A) (A) (A) (A) (A) (A) (A) (A) (A) (A)
                 (A) (A) (A) (A) (A) (A) (A) (A) (A) (A) (A) (A)
                 (A) (A) (A) (A) (A) (A) (A) (A) (A) (A) (A) (A)
                 (A) (A) (A) (A) (A) (A) (A) (A) (A) (A) (A) (A)
                 (A) (A) (A) (A) (A) (A) (A) (A) (A) (A) (A) (A)
                 (A) (A) (A) (A) (A) (A) (A) (A) (A) (A) (A) (A)
                 (A) (A) (A) (A) (A) (A) (A) (A) (A) (A) (A) (A)
                 (A) (A) (A) (A) (A) (A) (A) (A) (A) (A) (A) (A)
                 (A) (A) (A) (A) (A) (A) (A) (A) (A) (A) (A) (A)
                 (A) (A) (A) (A) (A) (A) (A) (A) (A) (A) (A) (A)
                 (A) (A) (A) (A) (A) (A) (A) (A) (A) (A) (A) (A)
                 (A) (A) (A) (A) (A) (A) (A) (A) (A) (A) (A) (A)
                 (A) (A) (A) (A) (A) (A) (A) (A) (A) (A) (A) (A)
                 (A) (A) (A) (A) (A) (A) (A) (A) (A) (A) (A) (A)
                 (A) (A) (A) (A) (A) (A) (A) (A) (A) (A) (A) (A)
                 (A) (A) (A) (A) (A) (A) (A) (A) (A) (A) (A) (A)
                 (A) (A) (A) (A) (A) (A) (A) (A) (A) (A) (A) (A)
                 (A) (A) (A) (A) (A) (A) (A) (A) (A) (A) (A) (A)
                 (A) (A) (A) (A) (A) (A) (A) (A) (A) (A) (A) (A)
                 (A) (A) (A) (A) (A) (A) (A) (A) (A) (A) (A) (A)
                 (A) (A) (A) (A) (A) (A) (A) (A) (A) (A)
       Virtual   (A) (A) (A) (A) (A) (A) (A) (A) (A) (A) (A) (A)
                 (A) (A) (A) (A) (A) (A) (A) (A) (A) (A) (A) (A)
                 (A) (A) (A) (A) (A) (A) (A) (A) (A) (A) (A) (A)
                 (A) (A) (A) (A) (A) (A) (A) (A) (A) (A) (A) (A)
                 (A) (A) (A) (A) (A) (A) (A) (A) (A) (A) (A) (A)
                 (A) (A) (A) (A) (A) (A) (A) (A) (A) (A) (A) (A)
                 (A) (A) (A) (A) (A) (A) (A) (A) (A) (A) (A) (A)
                 (A) (A) (A) (A) (A) (A) (A) (A) (A) (A) (A) (A)
                 (A) (A) (A) (A) (A) (A) (A) (A) (A) (A) (A) (A)
                 (A) (A) (A) (A) (A) (A) (A) (A) (A) (A) (A) (A)
                 (A) (A) (A) (A) (A) (A) (A) (A) (A) (A) (A) (A)
                 (A) (A) (A) (A) (A) (A) (A) (A) (A) (A) (A) (A)
                 (A) (A) (A) (A) (A) (A) (A) (A) (A) (A) (A) (A)
                 (A) (A) (A) (A) (A) (A) (A) (A) (A) (A) (A) (A)
                 (A) (A) (A) (A) (A) (A) (A) (A) (A) (A) (A) (A)
                 (A) (A) (A) (A) (A) (A) (A) (A) (A) (A) (A) (A)
                 (A) (A) (A) (A) (A) (A) (A) (A) (A) (A) (A) (A)
                 (A) (A) (A) (A) (A) (A) (A) (A) (A) (A) (A) (A)
                 (A) (A) (A) (A) (A) (A) (A) (A) (A) (A) (A) (A)
                 (A) (A) (A) (A) (A) (A) (A) (A) (A) (A) (A) (A)
                 (A) (A) (A) (A) (A) (A) (A) (A) (A) (A) (A) (A)
                 (A) (A) (A) (A) (A) (A) (A) (A) (A) (A) (A) (A)
                 (A) (A) (A) (A) (A) (A) (A) (A) (A) (A) (A) (A)
                 (A) (A) (A) (A) (A) (A) (A) (A) (A) (A) (A) (A)
                 (A) (A) (A) (A) (A) (A) (A) (A) (A) (A) (A) (A)
                 (A) (A) (A) (A) (A) (A) (A) (A) (A) (A) (A) (A)
                 (A) (A) (A) (A) (A) (A) (A) (A) (A) (A) (A) (A)
                 (A) (A) (A) (A) (A) (A) (A) (A) (A) (A) (A) (A)
                 (A) (A) (A) (A) (A) (A) (A) (A) (A) (A) (A) (A)
                 (A) (A) (A) (A) (A) (A) (A) (A) (A) (A) (A) (A)
                 (A) (A) (A) (A) (A) (A) (A) (A) (A) (A) (A) (A)
                 (A) (A) (A) (A) (A) (A) (A) (A) (A) (A) (A) (A)
                 (A) (A) (A) (A) (A) (A) (A) (A) (A) (A) (A) (A)
                 (A) (A) (A) (A) (A) (A) (A) (A) (A) (A) (A) (A)
                 (A) (A) (A) (A) (A) (A) (A) (A) (A) (A) (A) (A)
                 (A) (A) (A) (A) (A) (A) (A) (A) (A) (A) (A) (A)
                 (A) (A) (A) (A) (A) (A) (A) (A) (A) (A) (A) (A)
                 (A) (A) (A) (A) (A) (A) (A) (A) (A) (A) (A) (A)
                 (A) (A) (A) (A) (A) (A) (A) (A) (A) (A) (A) (A)
                 (A) (A) (A) (A) (A) (A) (A) (A) (A) (A) (A) (A)
                 (A) (A) (A) (A) (A) (A) (A) (A) (A) (A) (A) (A)
                 (A) (A) (A) (A) (A) (A) (A) (A) (A) (A) (A) (A)
                 (A) (A) (A) (A) (A) (A) (A) (A) (A) (A) (A) (A)
                 (A) (A) (A) (A) (A) (A) (A) (A) (A) (A) (A) (A)
                 (A) (A) (A) (A) (A) (A) (A) (A) (A) (A) (A) (A)
                 (A) (A) (A) (A) (A) (A) (A) (A) (A) (A) (A) (A)
                 (A) (A) (A) (A) (A) (A) (A) (A) (A) (A) (A) (A)
                 (A) (A) (A) (A) (A) (A) (A) (A) (A) (A) (A) (A)
                 (A) (A) (A) (A) (A) (A) (A) (A) (A) (A) (A) (A)
                 (A) (A) (A) (A) (A) (A) (A) (A) (A) (A) (A) (A)
                 (A) (A) (A) (A) (A) (A) (A) (A) (A) (A) (A) (A)
                 (A) (A) (A) (A) (A) (A) (A) (A) (A) (A) (A) (A)
                 (A) (A) (A) (A) (A) (A) (A) (A) (A) (A) (A) (A)
                 (A) (A) (A) (A) (A) (A) (A) (A) (A) (A) (A) (A)
                 (A) (A) (A) (A) (A) (A) (A) (A) (A) (A) (A) (A)
                 (A) (A) (A) (A) (A) (A) (A) (A) (A) (A) (A) (A)
                 (A) (A) (A) (A) (A) (A) (A) (A) (A) (A) (A) (A)
                 (A) (A) (A) (A) (A) (A) (A) (A) (A) (A) (A) (A)
                 (A) (A) (A) (A) (A) (A) (A) (A) (A) (A) (A) (A)
                 (A) (A) (A) (A) (A) (A) (A) (A) (A) (A) (A) (A)
                 (A) (A) (A) (A) (A) (A) (A) (A) (A) (A) (A) (A)
                 (A) (A) (A) (A) (A) (A) (A) (A) (A) (A) (A) (A)
                 (A) (A) (A) (A) (A) (A) (A) (A) (A) (A) (A) (A)
                 (A) (A) (A) (A) (A) (A) (A) (A) (A) (A) (A) (A)
                 (A) (A) (A) (A) (A) (A) (A) (A) (A) (A) (A) (A)
                 (A) (A) (A) (A) (A) (A) (A) (A) (A) (A) (A) (A)
                 (A) (A) (A) (A) (A) (A) (A) (A) (A) (A) (A) (A)
                 (A) (A) (A) (A) (A) (A) (A) (A) (A) (A) (A) (A)
                 (A) (A) (A) (A) (A) (A) (A) (A) (A) (A) (A) (A)
                 (A) (A) (A) (A) (A) (A) (A) (A) (A) (A) (A) (A)
                 (A) (A) (A) (A) (A) (A) (A) (A) (A) (A) (A) (A)
                 (A) (A) (A) (A) (A) (A) (A) (A) (A) (A) (A) (A)
                 (A) (A) (A) (A) (A) (A) (A) (A) (A) (A) (A) (A)
                 (A) (A) (A) (A) (A) (A) (A) (A) (A) (A) (A) (A)
                 (A) (A) (A) (A) (A) (A) (A) (A) (A) (A) (A) (A)
                 (A) (A) (A) (A) (A) (A) (A) (A) (A) (A) (A) (A)
                 (A) (A) (A) (A) (A) (A) (A) (A) (A) (A) (A) (A)
                 (A) (A) (A) (A) (A) (A) (A) (A) (A) (A) (A) (A)
                 (A) (A) (A) (A) (A) (A) (A) (A) (A) (A) (A) (A)
                 (A) (A) (A) (A) (A) (A) (A) (A) (A) (A) (A) (A)
                 (A) (A) (A) (A) (A) (A) (A) (A) (A) (A) (A) (A)
                 (A) (A) (A) (A) (A) (A) (A) (A) (A) (A) (A) (A)
                 (A) (A) (A) (A) (A) (A) (A) (A) (A) (A) (A) (A)
                 (A) (A) (A) (A) (A) (A) (A) (A) (A) (A) (A) (A)
                 (A) (A) (A) (A) (A) (A) (A) (A) (A) (A) (A) (A)
                 (A) (A) (A) (A) (A) (A) (A) (A) (A) (A) (A) (A)
                 (A) (A) (A) (A) (A) (A) (A) (A) (A) (A) (A) (A)
                 (A) (A) (A) (A) (A) (A) (A) (A) (A) (A) (A) (A)
                 (A) (A) (A) (A) (A) (A) (A) (A) (A) (A) (A) (A)
                 (A) (A) (A) (A) (A) (A) (A) (A) (A) (A) (A) (A)
                 (A) (A) (A) (A) (A) (A) (A) (A) (A) (A) (A) (A)
                 (A) (A) (A) (A) (A) (A) (A) (A) (A) (A) (A) (A)
                 (A) (A) (A) (A) (A) (A) (A) (A) (A) (A) (A) (A)
                 (A) (A) (A) (A) (A) (A) (A) (A) (A) (A) (A) (A)
                 (A) (A) (A) (A) (A) (A) (A) (A) (A) (A) (A) (A)
                 (A) (A) (A) (A) (A) (A) (A) (A) (A) (A) (A) (A)
                 (A) (A) (A) (A) (A) (A) (A) (A) (A) (A) (A) (A)
                 (A) (A) (A) (A) (A) (A) (A) (A) (A) (A) (A) (A)
                 (A) (A) (A) (A) (A) (A) (A) (A) (A) (A) (A) (A)
                 (A) (A) (A) (A) (A) (A) (A) (A) (A) (A) (A) (A)
                 (A) (A) (A) (A) (A) (A) (A) (A) (A) (A) (A) (A)
                 (A) (A) (A) (A) (A) (A) (A) (A) (A) (A) (A) (A)
                 (A) (A) (A) (A) (A) (A) (A) (A) (A) (A) (A) (A)
                 (A) (A) (A) (A) (A) (A) (A) (A) (A) (A) (A) (A)
                 (A) (A) (A) (A) (A) (A) (A) (A) (A) (A) (A) (A)
                 (A) (A) (A) (A) (A) (A) (A) (A) (A) (A) (A) (A)
                 (A) (A) (A) (A) (A) (A) (A) (A) (A) (A) (A) (A)
                 (A) (A) (A) (A) (A) (A) (A) (A) (A) (A) (A) (A)
                 (A) (A) (A) (A) (A) (A) (A) (A) (A) (A) (A) (A)
                 (A) (A) (A) (A) (A) (A) (A) (A) (A) (A) (A) (A)
                 (A) (A) (A) (A) (A) (A) (A) (A) (A) (A) (A) (A)
                 (A) (A) (A) (A) (A) (A) (A) (A) (A) (A) (A) (A)
                 (A) (A) (A) (A) (A) (A) (A) (A) (A) (A) (A) (A)
                 (A) (A) (A)
 The electronic state is 1-A.
 Alpha  occ. eigenvalues -- -145.49046 -19.24629 -19.14901 -19.14458 -19.14310
 Alpha  occ. eigenvalues --  -19.13298 -19.13155 -19.12637 -19.12122 -19.11059
 Alpha  occ. eigenvalues --  -19.10791 -19.09027 -19.08927 -19.08238 -19.08100
 Alpha  occ. eigenvalues --  -19.07184 -19.06940 -19.06842 -19.06678 -19.05779
 Alpha  occ. eigenvalues --  -19.05130 -19.03818 -18.99172 -18.98852 -15.54890
 Alpha  occ. eigenvalues --  -14.60409 -14.40446 -14.39417 -14.38095 -14.37186
 Alpha  occ. eigenvalues --  -14.36016 -14.34631 -14.34496 -14.34431 -14.34203
 Alpha  occ. eigenvalues --  -14.34015 -14.33601 -14.33180 -14.33128 -14.31046
 Alpha  occ. eigenvalues --  -12.68498 -12.68463 -12.68427 -10.37330 -10.33457
 Alpha  occ. eigenvalues --  -10.33195 -10.31727 -10.31350 -10.30486 -10.29673
 Alpha  occ. eigenvalues --  -10.29670 -10.28542 -10.28210 -10.28047 -10.27812
 Alpha  occ. eigenvalues --  -10.27711 -10.27185 -10.26166 -10.25856 -10.25692
 Alpha  occ. eigenvalues --  -10.25399 -10.25343 -10.25308 -10.24949 -10.24745
 Alpha  occ. eigenvalues --  -10.24660 -10.24391 -10.24288 -10.23673 -10.22568
 Alpha  occ. eigenvalues --  -10.22512 -10.22482 -10.21832 -10.21689 -10.21613
 Alpha  occ. eigenvalues --  -10.21184 -10.21066 -10.20908 -10.20880 -10.20845
 Alpha  occ. eigenvalues --  -10.20556 -10.17790 -10.17508 -10.16885 -10.16448
 Alpha  occ. eigenvalues --  -10.16335 -10.16240 -10.16197 -10.16147 -10.15954
 Alpha  occ. eigenvalues --  -10.15942 -10.15352 -10.15291 -10.15080 -10.14209
 Alpha  occ. eigenvalues --  -10.14015 -10.11322  -1.91462  -1.18922  -1.18757
 Alpha  occ. eigenvalues --   -1.18423  -1.15743  -1.10656  -1.09277  -1.08057
 Alpha  occ. eigenvalues --   -1.06666  -1.06228  -1.04379  -1.03684  -1.02066
 Alpha  occ. eigenvalues --   -1.01957  -1.01846  -1.01365  -1.01202  -1.00873
 Alpha  occ. eigenvalues --   -1.00721  -1.00500  -0.99869  -0.99508  -0.98996
 Alpha  occ. eigenvalues --   -0.98415  -0.98322  -0.97047  -0.96482  -0.95218
 Alpha  occ. eigenvalues --   -0.93121  -0.92959  -0.92488  -0.91597  -0.91543
 Alpha  occ. eigenvalues --   -0.91533  -0.91190  -0.91065  -0.90695  -0.90274
 Alpha  occ. eigenvalues --   -0.89900  -0.89284  -0.89107  -0.87738  -0.85313
 Alpha  occ. eigenvalues --   -0.83572  -0.83206  -0.82217  -0.80220  -0.79899
 Alpha  occ. eigenvalues --   -0.79493  -0.78045  -0.77362  -0.76953  -0.76368
 Alpha  occ. eigenvalues --   -0.76216  -0.75788  -0.74443  -0.74414  -0.73908
 Alpha  occ. eigenvalues --   -0.73242  -0.72998  -0.71908  -0.71810  -0.71486
 Alpha  occ. eigenvalues --   -0.70895  -0.70378  -0.69689  -0.68286  -0.67785
 Alpha  occ. eigenvalues --   -0.67471  -0.65939  -0.65801  -0.65051  -0.64094
 Alpha  occ. eigenvalues --   -0.63941  -0.63876  -0.63489  -0.63196  -0.62859
 Alpha  occ. eigenvalues --   -0.62040  -0.61925  -0.61220  -0.60788  -0.60484
 Alpha  occ. eigenvalues --   -0.59738  -0.59562  -0.59027  -0.58673  -0.58507
 Alpha  occ. eigenvalues --   -0.58434  -0.57899  -0.57869  -0.57717  -0.57057
 Alpha  occ. eigenvalues --   -0.56934  -0.56772  -0.56693  -0.56141  -0.56009
 Alpha  occ. eigenvalues --   -0.55894  -0.55520  -0.55206  -0.54944  -0.54523
 Alpha  occ. eigenvalues --   -0.54110  -0.53370  -0.53207  -0.52682  -0.52292
 Alpha  occ. eigenvalues --   -0.52145  -0.52087  -0.52031  -0.51902  -0.51719
 Alpha  occ. eigenvalues --   -0.51224  -0.50888  -0.50762  -0.50290  -0.49936
 Alpha  occ. eigenvalues --   -0.49596  -0.49277  -0.49216  -0.49013  -0.48696
 Alpha  occ. eigenvalues --   -0.48626  -0.48328  -0.48161  -0.48138  -0.47696
 Alpha  occ. eigenvalues --   -0.47372  -0.47132  -0.46953  -0.46324  -0.46277
 Alpha  occ. eigenvalues --   -0.46074  -0.45804  -0.45662  -0.45503  -0.45390
 Alpha  occ. eigenvalues --   -0.45322  -0.45099  -0.44992  -0.44952  -0.44713
 Alpha  occ. eigenvalues --   -0.44627  -0.44614  -0.44249  -0.44172  -0.44103
 Alpha  occ. eigenvalues --   -0.43903  -0.43667  -0.43344  -0.43033  -0.42761
 Alpha  occ. eigenvalues --   -0.42676  -0.42583  -0.42164  -0.41918  -0.41881
 Alpha  occ. eigenvalues --   -0.41769  -0.41729  -0.41566  -0.41256  -0.41212
 Alpha  occ. eigenvalues --   -0.41113  -0.41034  -0.40904  -0.40519  -0.40500
 Alpha  occ. eigenvalues --   -0.40367  -0.40345  -0.39922  -0.39768  -0.39737
 Alpha  occ. eigenvalues --   -0.39569  -0.39205  -0.39025  -0.38867  -0.38734
 Alpha  occ. eigenvalues --   -0.38597  -0.38489  -0.38341  -0.38228  -0.37945
 Alpha  occ. eigenvalues --   -0.37929  -0.37840  -0.37803  -0.37711  -0.37643
 Alpha  occ. eigenvalues --   -0.37266  -0.36896  -0.36444  -0.36361  -0.36241
 Alpha  occ. eigenvalues --   -0.35793  -0.35655  -0.35473  -0.35367  -0.35263
 Alpha  occ. eigenvalues --   -0.35087  -0.34710  -0.34541  -0.34530  -0.34324
 Alpha  occ. eigenvalues --   -0.34306  -0.34071  -0.34018  -0.33757  -0.33478
 Alpha  occ. eigenvalues --   -0.33167  -0.33146  -0.32478  -0.32169  -0.32024
 Alpha  occ. eigenvalues --   -0.31962  -0.31784  -0.31714  -0.31516  -0.31485
 Alpha  occ. eigenvalues --   -0.30920  -0.30538  -0.30388  -0.30299  -0.30122
 Alpha  occ. eigenvalues --   -0.29954  -0.29573  -0.29216  -0.29018  -0.28806
 Alpha  occ. eigenvalues --   -0.28661  -0.28373  -0.27736  -0.27653  -0.27190
 Alpha  occ. eigenvalues --   -0.26965  -0.26563  -0.26478  -0.26376  -0.25755
 Alpha  occ. eigenvalues --   -0.25448  -0.25193  -0.24745  -0.24717  -0.24046
 Alpha  occ. eigenvalues --   -0.23968  -0.23836  -0.23821  -0.23462  -0.23216
 Alpha  occ. eigenvalues --   -0.22866  -0.22706  -0.22632  -0.21945  -0.21331
 Alpha  occ. eigenvalues --   -0.21117  -0.21024  -0.20656  -0.19683  -0.19394
 Alpha  occ. eigenvalues --   -0.16049  -0.15455  -0.13153
 Alpha virt. eigenvalues --   -0.12530  -0.12186  -0.06802  -0.06022  -0.05768
 Alpha virt. eigenvalues --   -0.03303  -0.03144  -0.02182  -0.01640  -0.01419
 Alpha virt. eigenvalues --   -0.01000  -0.00977  -0.00317   0.00275   0.00446
 Alpha virt. eigenvalues --    0.00804   0.01037   0.01155   0.01297   0.01952
 Alpha virt. eigenvalues --    0.02117   0.02238   0.02390   0.02707   0.02878
 Alpha virt. eigenvalues --    0.03218   0.03852   0.03942   0.03999   0.04385
 Alpha virt. eigenvalues --    0.04426   0.04568   0.04847   0.04936   0.05038
 Alpha virt. eigenvalues --    0.05441   0.05739   0.05951   0.06030   0.06218
 Alpha virt. eigenvalues --    0.06377   0.06804   0.06934   0.07100   0.07232
 Alpha virt. eigenvalues --    0.07590   0.08019   0.08671   0.08925   0.09054
 Alpha virt. eigenvalues --    0.09266   0.09313   0.09453   0.09613   0.09664
 Alpha virt. eigenvalues --    0.09997   0.10255   0.10310   0.10414   0.10553
 Alpha virt. eigenvalues --    0.10988   0.11168   0.11635   0.11815   0.11862
 Alpha virt. eigenvalues --    0.11991   0.12255   0.12362   0.12718   0.12842
 Alpha virt. eigenvalues --    0.13047   0.13062   0.13391   0.13570   0.13753
 Alpha virt. eigenvalues --    0.13905   0.14018   0.14260   0.14361   0.14513
 Alpha virt. eigenvalues --    0.14876   0.15019   0.15246   0.15342   0.15448
 Alpha virt. eigenvalues --    0.15590   0.15720   0.15858   0.15899   0.16066
 Alpha virt. eigenvalues --    0.16176   0.16334   0.16704   0.16757   0.16946
 Alpha virt. eigenvalues --    0.17064   0.17202   0.17273   0.17541   0.17623
 Alpha virt. eigenvalues --    0.17833   0.17914   0.18254   0.18377   0.18414
 Alpha virt. eigenvalues --    0.18584   0.18724   0.19279   0.19471   0.19662
 Alpha virt. eigenvalues --    0.19827   0.19885   0.20280   0.20444   0.20574
 Alpha virt. eigenvalues --    0.20713   0.20929   0.21123   0.21254   0.21398
 Alpha virt. eigenvalues --    0.21833   0.21839   0.22276   0.22556   0.22575
 Alpha virt. eigenvalues --    0.22801   0.23062   0.23329   0.23539   0.23909
 Alpha virt. eigenvalues --    0.23950   0.24229   0.24415   0.24506   0.24778
 Alpha virt. eigenvalues --    0.25251   0.25635   0.25767   0.26009   0.26141
 Alpha virt. eigenvalues --    0.26355   0.26641   0.26696   0.26994   0.27189
 Alpha virt. eigenvalues --    0.27244   0.27274   0.27442   0.27522   0.27963
 Alpha virt. eigenvalues --    0.28268   0.28395   0.28584   0.28894   0.29594
 Alpha virt. eigenvalues --    0.29680   0.29981   0.30079   0.30166   0.30430
 Alpha virt. eigenvalues --    0.30521   0.30921   0.31293   0.31522   0.31682
 Alpha virt. eigenvalues --    0.31835   0.31960   0.32392   0.32779   0.32945
 Alpha virt. eigenvalues --    0.33116   0.33514   0.33654   0.33974   0.34357
 Alpha virt. eigenvalues --    0.34515   0.34873   0.35033   0.35095   0.35408
 Alpha virt. eigenvalues --    0.36054   0.36103   0.36221   0.36579   0.37098
 Alpha virt. eigenvalues --    0.37423   0.37673   0.37753   0.37959   0.38198
 Alpha virt. eigenvalues --    0.38493   0.39042   0.40001   0.40097   0.40233
 Alpha virt. eigenvalues --    0.40639   0.40847   0.41183   0.41527   0.41722
 Alpha virt. eigenvalues --    0.41925   0.42079   0.42184   0.42281   0.42399
 Alpha virt. eigenvalues --    0.42698   0.43119   0.43289   0.43616   0.43751
 Alpha virt. eigenvalues --    0.43866   0.44020   0.44220   0.44639   0.44742
 Alpha virt. eigenvalues --    0.44928   0.45216   0.45289   0.45402   0.45517
 Alpha virt. eigenvalues --    0.45681   0.45797   0.46019   0.46119   0.46228
 Alpha virt. eigenvalues --    0.46327   0.46790   0.47138   0.47367   0.47471
 Alpha virt. eigenvalues --    0.47649   0.47697   0.48101   0.48191   0.48401
 Alpha virt. eigenvalues --    0.48456   0.48710   0.48897   0.48955   0.49317
 Alpha virt. eigenvalues --    0.49448   0.49847   0.50004   0.50257   0.50437
 Alpha virt. eigenvalues --    0.50573   0.50659   0.50744   0.51177   0.51280
 Alpha virt. eigenvalues --    0.51381   0.51610   0.51791   0.51959   0.52215
 Alpha virt. eigenvalues --    0.52229   0.52322   0.52462   0.52671   0.52958
 Alpha virt. eigenvalues --    0.53315   0.53427   0.53522   0.53626   0.53911
 Alpha virt. eigenvalues --    0.54503   0.54541   0.54637   0.54868   0.54999
 Alpha virt. eigenvalues --    0.55143   0.55366   0.55456   0.55657   0.55795
 Alpha virt. eigenvalues --    0.55920   0.56036   0.56363   0.56490   0.56669
 Alpha virt. eigenvalues --    0.56922   0.57025   0.57203   0.57390   0.57679
 Alpha virt. eigenvalues --    0.57910   0.57982   0.58246   0.58375   0.58486
 Alpha virt. eigenvalues --    0.58938   0.59083   0.59141   0.59432   0.59515
 Alpha virt. eigenvalues --    0.59688   0.59951   0.60063   0.60124   0.60260
 Alpha virt. eigenvalues --    0.60416   0.60617   0.60720   0.60871   0.60958
 Alpha virt. eigenvalues --    0.61016   0.61163   0.61244   0.61398   0.61448
 Alpha virt. eigenvalues --    0.61649   0.61787   0.61942   0.62017   0.62107
 Alpha virt. eigenvalues --    0.62269   0.62447   0.62557   0.62665   0.62728
 Alpha virt. eigenvalues --    0.62845   0.63009   0.63359   0.63409   0.63578
 Alpha virt. eigenvalues --    0.63587   0.63773   0.64086   0.64126   0.64246
 Alpha virt. eigenvalues --    0.64454   0.64505   0.64530   0.64707   0.64720
 Alpha virt. eigenvalues --    0.64829   0.64974   0.65093   0.65296   0.65355
 Alpha virt. eigenvalues --    0.65456   0.65538   0.65690   0.65826   0.65891
 Alpha virt. eigenvalues --    0.65947   0.66216   0.66531   0.66552   0.66793
 Alpha virt. eigenvalues --    0.66895   0.67039   0.67098   0.67165   0.67342
 Alpha virt. eigenvalues --    0.67391   0.67518   0.67560   0.67808   0.67898
 Alpha virt. eigenvalues --    0.68129   0.68180   0.68224   0.68475   0.68504
 Alpha virt. eigenvalues --    0.68551   0.68672   0.68894   0.69042   0.69153
 Alpha virt. eigenvalues --    0.69265   0.69388   0.69436   0.69560   0.69692
 Alpha virt. eigenvalues --    0.69928   0.70002   0.70153   0.70375   0.70419
 Alpha virt. eigenvalues --    0.70453   0.70586   0.70825   0.70953   0.71173
 Alpha virt. eigenvalues --    0.71378   0.71517   0.71572   0.71667   0.71680
 Alpha virt. eigenvalues --    0.71893   0.71958   0.72084   0.72385   0.72408
 Alpha virt. eigenvalues --    0.72676   0.72707   0.72843   0.73240   0.73295
 Alpha virt. eigenvalues --    0.73446   0.73589   0.73698   0.73925   0.74059
 Alpha virt. eigenvalues --    0.74159   0.74431   0.74497   0.74649   0.74894
 Alpha virt. eigenvalues --    0.75129   0.75259   0.75576   0.75619   0.75811
 Alpha virt. eigenvalues --    0.75959   0.76186   0.76316   0.76796   0.77026
 Alpha virt. eigenvalues --    0.77534   0.77929   0.77984   0.78207   0.78576
 Alpha virt. eigenvalues --    0.78868   0.78903   0.78999   0.79166   0.79610
 Alpha virt. eigenvalues --    0.79755   0.79946   0.80046   0.80143   0.80376
 Alpha virt. eigenvalues --    0.80573   0.81011   0.81197   0.81440   0.81639
 Alpha virt. eigenvalues --    0.81914   0.82156   0.82396   0.82866   0.83038
 Alpha virt. eigenvalues --    0.83167   0.83243   0.83816   0.83942   0.84248
 Alpha virt. eigenvalues --    0.84287   0.84667   0.84944   0.85163   0.85229
 Alpha virt. eigenvalues --    0.85439   0.85863   0.85958   0.86643   0.87082
 Alpha virt. eigenvalues --    0.87280   0.87550   0.87654   0.87909   0.88398
 Alpha virt. eigenvalues --    0.88467   0.88599   0.88721   0.89423   0.89476
 Alpha virt. eigenvalues --    0.89854   0.90113   0.90444   0.90693   0.91038
 Alpha virt. eigenvalues --    0.91225   0.91490   0.92069   0.92343   0.92673
 Alpha virt. eigenvalues --    0.92726   0.93017   0.93069   0.93321   0.93385
 Alpha virt. eigenvalues --    0.93530   0.93811   0.94195   0.94455   0.94903
 Alpha virt. eigenvalues --    0.95137   0.95238   0.95991   0.96031   0.96429
 Alpha virt. eigenvalues --    0.96600   0.96882   0.97505   0.97709   0.97883
 Alpha virt. eigenvalues --    0.98350   0.98512   0.98851   0.99180   0.99267
 Alpha virt. eigenvalues --    0.99861   0.99926   1.00278   1.00353   1.00510
 Alpha virt. eigenvalues --    1.00847   1.01116   1.01205   1.01478   1.01587
 Alpha virt. eigenvalues --    1.02041   1.02179   1.02377   1.02484   1.02801
 Alpha virt. eigenvalues --    1.03145   1.03161   1.03507   1.03582   1.04091
 Alpha virt. eigenvalues --    1.04302   1.04498   1.04993   1.05731   1.05873
 Alpha virt. eigenvalues --    1.06369   1.06519   1.06901   1.07326   1.07545
 Alpha virt. eigenvalues --    1.07903   1.08331   1.08547   1.08735   1.08778
 Alpha virt. eigenvalues --    1.08894   1.09133   1.09230   1.09667   1.09803
 Alpha virt. eigenvalues --    1.10270   1.10395   1.10989   1.11337   1.11589
 Alpha virt. eigenvalues --    1.11658   1.12093   1.12451   1.12674   1.12824
 Alpha virt. eigenvalues --    1.13014   1.13311   1.13452   1.13553   1.14098
 Alpha virt. eigenvalues --    1.14454   1.14683   1.14776   1.15032   1.15277
 Alpha virt. eigenvalues --    1.15617   1.15766   1.16019   1.16465   1.16758
 Alpha virt. eigenvalues --    1.16944   1.16989   1.17077   1.17821   1.17937
 Alpha virt. eigenvalues --    1.18083   1.18439   1.18674   1.18930   1.19241
 Alpha virt. eigenvalues --    1.19736   1.20035   1.20103   1.20447   1.20966
 Alpha virt. eigenvalues --    1.20993   1.21477   1.21538   1.21675   1.22238
 Alpha virt. eigenvalues --    1.22308   1.22450   1.22793   1.22942   1.23475
 Alpha virt. eigenvalues --    1.23698   1.23942   1.24153   1.24372   1.24800
 Alpha virt. eigenvalues --    1.25306   1.25551   1.25813   1.25886   1.26046
 Alpha virt. eigenvalues --    1.26188   1.26501   1.26649   1.26895   1.27576
 Alpha virt. eigenvalues --    1.27717   1.27745   1.28628   1.28962   1.29056
 Alpha virt. eigenvalues --    1.29336   1.29571   1.29842   1.30213   1.30419
 Alpha virt. eigenvalues --    1.30807   1.31463   1.31552   1.32340   1.32452
 Alpha virt. eigenvalues --    1.32552   1.32789   1.33097   1.33270   1.33545
 Alpha virt. eigenvalues --    1.33728   1.33942   1.34264   1.34452   1.34833
 Alpha virt. eigenvalues --    1.35125   1.35306   1.35433   1.35892   1.36558
 Alpha virt. eigenvalues --    1.36712   1.36999   1.37274   1.37509   1.37866
 Alpha virt. eigenvalues --    1.38335   1.39211   1.39360   1.39390   1.40126
 Alpha virt. eigenvalues --    1.40456   1.40611   1.40735   1.40854   1.41041
 Alpha virt. eigenvalues --    1.41841   1.41894   1.42261   1.42499   1.43127
 Alpha virt. eigenvalues --    1.43184   1.43276   1.43785   1.44155   1.44253
 Alpha virt. eigenvalues --    1.44717   1.45011   1.45176   1.45467   1.45845
 Alpha virt. eigenvalues --    1.46122   1.46299   1.46348   1.46771   1.46988
 Alpha virt. eigenvalues --    1.47178   1.47547   1.47764   1.48130   1.48380
 Alpha virt. eigenvalues --    1.48504   1.48704   1.49284   1.49685   1.49910
 Alpha virt. eigenvalues --    1.50083   1.50726   1.51082   1.51331   1.51376
 Alpha virt. eigenvalues --    1.51600   1.51695   1.51975   1.52437   1.52921
 Alpha virt. eigenvalues --    1.53015   1.53250   1.53629   1.53818   1.53971
 Alpha virt. eigenvalues --    1.54418   1.54810   1.55151   1.55370   1.55828
 Alpha virt. eigenvalues --    1.56014   1.56081   1.56632   1.56985   1.57109
 Alpha virt. eigenvalues --    1.57137   1.57578   1.57633   1.58113   1.58260
 Alpha virt. eigenvalues --    1.58364   1.58886   1.59299   1.59325   1.59977
 Alpha virt. eigenvalues --    1.60053   1.60288   1.60477   1.61008   1.61450
 Alpha virt. eigenvalues --    1.61896   1.62300   1.62434   1.62516   1.62758
 Alpha virt. eigenvalues --    1.62829   1.62936   1.63481   1.64253   1.64730
 Alpha virt. eigenvalues --    1.65056   1.65680   1.66206   1.66538   1.66783
 Alpha virt. eigenvalues --    1.67302   1.67511   1.67880   1.67967   1.68112
 Alpha virt. eigenvalues --    1.68347   1.68562   1.68709   1.69261   1.69475
 Alpha virt. eigenvalues --    1.69617   1.69777   1.69929   1.70244   1.70368
 Alpha virt. eigenvalues --    1.70678   1.71039   1.71539   1.71602   1.71606
 Alpha virt. eigenvalues --    1.72056   1.72098   1.72153   1.72443   1.72853
 Alpha virt. eigenvalues --    1.72986   1.73512   1.73935   1.74225   1.74282
 Alpha virt. eigenvalues --    1.74644   1.74682   1.74747   1.74988   1.75084
 Alpha virt. eigenvalues --    1.75345   1.75562   1.76015   1.76289   1.76489
 Alpha virt. eigenvalues --    1.76568   1.76851   1.76913   1.76969   1.77282
 Alpha virt. eigenvalues --    1.77547   1.77867   1.78139   1.78340   1.78513
 Alpha virt. eigenvalues --    1.78634   1.78690   1.78913   1.78978   1.79155
 Alpha virt. eigenvalues --    1.79207   1.79554   1.79577   1.79608   1.79744
 Alpha virt. eigenvalues --    1.80062   1.80165   1.80255   1.80535   1.80945
 Alpha virt. eigenvalues --    1.80992   1.81126   1.81282   1.81456   1.81683
 Alpha virt. eigenvalues --    1.81837   1.81921   1.82184   1.82304   1.82479
 Alpha virt. eigenvalues --    1.82695   1.82773   1.82928   1.83206   1.83375
 Alpha virt. eigenvalues --    1.83517   1.83606   1.83958   1.84047   1.84510
 Alpha virt. eigenvalues --    1.84635   1.84826   1.84917   1.85207   1.85374
 Alpha virt. eigenvalues --    1.85625   1.85852   1.86158   1.86201   1.86334
 Alpha virt. eigenvalues --    1.86518   1.86822   1.86883   1.86952   1.87141
 Alpha virt. eigenvalues --    1.87227   1.87351   1.87857   1.87986   1.88096
 Alpha virt. eigenvalues --    1.88292   1.88491   1.88747   1.89088   1.89169
 Alpha virt. eigenvalues --    1.89467   1.89828   1.89948   1.90063   1.90457
 Alpha virt. eigenvalues --    1.90589   1.90630   1.90933   1.91119   1.91475
 Alpha virt. eigenvalues --    1.91633   1.92089   1.92164   1.92300   1.92401
 Alpha virt. eigenvalues --    1.92780   1.92838   1.93070   1.93193   1.93562
 Alpha virt. eigenvalues --    1.93663   1.94186   1.94309   1.94482   1.94551
 Alpha virt. eigenvalues --    1.94632   1.94727   1.94999   1.95053   1.95563
 Alpha virt. eigenvalues --    1.95619   1.95725   1.95814   1.96087   1.96173
 Alpha virt. eigenvalues --    1.96527   1.96720   1.97274   1.97694   1.97787
 Alpha virt. eigenvalues --    1.98127   1.98322   1.98844   1.98998   1.99344
 Alpha virt. eigenvalues --    1.99727   1.99902   2.00048   2.00213   2.00242
 Alpha virt. eigenvalues --    2.00460   2.00743   2.01014   2.01543   2.01685
 Alpha virt. eigenvalues --    2.01779   2.01913   2.02296   2.02553   2.02705
 Alpha virt. eigenvalues --    2.02747   2.03023   2.03533   2.03723   2.03856
 Alpha virt. eigenvalues --    2.04046   2.04493   2.04682   2.04959   2.05171
 Alpha virt. eigenvalues --    2.05500   2.05684   2.06043   2.06246   2.06305
 Alpha virt. eigenvalues --    2.06552   2.07056   2.07150   2.07421   2.07828
 Alpha virt. eigenvalues --    2.08163   2.08355   2.08652   2.08873   2.09227
 Alpha virt. eigenvalues --    2.09489   2.09548   2.09851   2.10196   2.10619
 Alpha virt. eigenvalues --    2.10801   2.10947   2.11366   2.11482   2.11606
 Alpha virt. eigenvalues --    2.11809   2.11968   2.12644   2.12745   2.12793
 Alpha virt. eigenvalues --    2.13040   2.13167   2.13632   2.13881   2.14093
 Alpha virt. eigenvalues --    2.14517   2.14651   2.14803   2.14877   2.15122
 Alpha virt. eigenvalues --    2.15214   2.15734   2.15811   2.16282   2.16549
 Alpha virt. eigenvalues --    2.16825   2.16990   2.17214   2.17742   2.18136
 Alpha virt. eigenvalues --    2.18346   2.18641   2.18927   2.18954   2.19187
 Alpha virt. eigenvalues --    2.19634   2.19725   2.20345   2.20824   2.20907
 Alpha virt. eigenvalues --    2.20988   2.21847   2.22635   2.22882   2.23025
 Alpha virt. eigenvalues --    2.23344   2.23705   2.23801   2.24103   2.24513
 Alpha virt. eigenvalues --    2.25087   2.25765   2.25888   2.26149   2.26740
 Alpha virt. eigenvalues --    2.27104   2.27223   2.27874   2.28215   2.28783
 Alpha virt. eigenvalues --    2.28980   2.29221   2.29387   2.29545   2.29966
 Alpha virt. eigenvalues --    2.30026   2.30245   2.30571   2.31442   2.31555
 Alpha virt. eigenvalues --    2.31810   2.32024   2.32169   2.32728   2.33041
 Alpha virt. eigenvalues --    2.33100   2.33369   2.33678   2.33933   2.34571
 Alpha virt. eigenvalues --    2.34652   2.34966   2.35120   2.35317   2.35483
 Alpha virt. eigenvalues --    2.35919   2.36149   2.36687   2.37094   2.37227
 Alpha virt. eigenvalues --    2.37386   2.37875   2.38139   2.38659   2.38887
 Alpha virt. eigenvalues --    2.39053   2.39467   2.39947   2.40239   2.40291
 Alpha virt. eigenvalues --    2.41016   2.41331   2.41549   2.42092   2.42455
 Alpha virt. eigenvalues --    2.42635   2.42731   2.43527   2.43879   2.44034
 Alpha virt. eigenvalues --    2.44531   2.44977   2.45912   2.46106   2.46451
 Alpha virt. eigenvalues --    2.46693   2.47013   2.47455   2.47554   2.48333
 Alpha virt. eigenvalues --    2.48381   2.49035   2.49220   2.49410   2.49689
 Alpha virt. eigenvalues --    2.50061   2.50161   2.50395   2.50602   2.51254
 Alpha virt. eigenvalues --    2.51580   2.52075   2.52197   2.52681   2.52702
 Alpha virt. eigenvalues --    2.52926   2.53201   2.53608   2.53851   2.54100
 Alpha virt. eigenvalues --    2.54863   2.55363   2.55748   2.55944   2.56604
 Alpha virt. eigenvalues --    2.56727   2.57106   2.57548   2.57991   2.58116
 Alpha virt. eigenvalues --    2.58306   2.58515   2.58960   2.59672   2.59853
 Alpha virt. eigenvalues --    2.59958   2.60573   2.60754   2.60853   2.61013
 Alpha virt. eigenvalues --    2.61111   2.61396   2.61442   2.62258   2.62791
 Alpha virt. eigenvalues --    2.62996   2.63203   2.63254   2.63423   2.64021
 Alpha virt. eigenvalues --    2.64158   2.64243   2.64490   2.65388   2.65743
 Alpha virt. eigenvalues --    2.65839   2.65951   2.66132   2.66589   2.66928
 Alpha virt. eigenvalues --    2.67060   2.67717   2.68018   2.68195   2.68254
 Alpha virt. eigenvalues --    2.68739   2.68998   2.69673   2.69946   2.70303
 Alpha virt. eigenvalues --    2.70335   2.70543   2.70659   2.70743   2.71645
 Alpha virt. eigenvalues --    2.72627   2.72736   2.72898   2.73095   2.73356
 Alpha virt. eigenvalues --    2.73578   2.73809   2.74329   2.74344   2.74501
 Alpha virt. eigenvalues --    2.74713   2.74876   2.75034   2.75075   2.75427
 Alpha virt. eigenvalues --    2.76113   2.76847   2.76931   2.77244   2.77464
 Alpha virt. eigenvalues --    2.77923   2.77983   2.78294   2.78562   2.78670
 Alpha virt. eigenvalues --    2.78837   2.79241   2.79366   2.79380   2.79832
 Alpha virt. eigenvalues --    2.79962   2.80434   2.80761   2.81055   2.81157
 Alpha virt. eigenvalues --    2.81321   2.81693   2.81753   2.82027   2.82077
 Alpha virt. eigenvalues --    2.82459   2.82761   2.83490   2.83784   2.83813
 Alpha virt. eigenvalues --    2.83859   2.84101   2.84240   2.84805   2.84933
 Alpha virt. eigenvalues --    2.85470   2.85496   2.85761   2.86085   2.86110
 Alpha virt. eigenvalues --    2.86292   2.86844   2.87181   2.87326   2.87642
 Alpha virt. eigenvalues --    2.88022   2.88155   2.88344   2.88621   2.89118
 Alpha virt. eigenvalues --    2.89326   2.89898   2.89997   2.90724   2.90879
 Alpha virt. eigenvalues --    2.91748   2.91950   2.92651   2.92874   2.92952
 Alpha virt. eigenvalues --    2.93242   2.93362   2.93684   2.93787   2.94214
 Alpha virt. eigenvalues --    2.94479   2.94857   2.95443   2.95532   2.95646
 Alpha virt. eigenvalues --    2.96572   2.97102   2.97438   2.97463   2.97595
 Alpha virt. eigenvalues --    2.97897   2.98058   2.98263   2.98622   2.98865
 Alpha virt. eigenvalues --    2.99255   2.99847   3.00354   3.00570   3.00835
 Alpha virt. eigenvalues --    3.00905   3.01377   3.01693   3.02315   3.02411
 Alpha virt. eigenvalues --    3.02722   3.02990   3.03086   3.03287   3.03331
 Alpha virt. eigenvalues --    3.04049   3.04129   3.04858   3.05560   3.06201
 Alpha virt. eigenvalues --    3.06375   3.07288   3.07305   3.08041   3.08497
 Alpha virt. eigenvalues --    3.08910   3.09096   3.09234   3.09952   3.10071
 Alpha virt. eigenvalues --    3.10321   3.10554   3.11842   3.12211   3.12639
 Alpha virt. eigenvalues --    3.13279   3.13535   3.13667   3.14722   3.15222
 Alpha virt. eigenvalues --    3.15355   3.15558   3.16672   3.16724   3.17077
 Alpha virt. eigenvalues --    3.17217   3.17437   3.17628   3.17774   3.18130
 Alpha virt. eigenvalues --    3.18224   3.18659   3.18862   3.19445   3.19940
 Alpha virt. eigenvalues --    3.20069   3.20303   3.20685   3.20798   3.20838
 Alpha virt. eigenvalues --    3.21128   3.21702   3.21983   3.22490   3.22658
 Alpha virt. eigenvalues --    3.23138   3.23694   3.23763   3.23945   3.25574
 Alpha virt. eigenvalues --    3.25854   3.27307   3.29309   3.30371   3.30453
 Alpha virt. eigenvalues --    3.31541   3.32315   3.33281   3.36290   3.36396
 Alpha virt. eigenvalues --    3.36501   3.38057   3.38960   3.39213   3.39729
 Alpha virt. eigenvalues --    3.40818   3.41150   3.42198   3.45236   3.49096
 Alpha virt. eigenvalues --    3.51303   3.52211   3.52326   3.53253   3.54243
 Alpha virt. eigenvalues --    3.54828   3.56192   3.56515   3.57349   3.57600
 Alpha virt. eigenvalues --    3.57959   3.57996   3.58794   3.59719   3.60052
 Alpha virt. eigenvalues --    3.61578   3.62321   3.64448   3.64624   3.65985
 Alpha virt. eigenvalues --    3.66798   3.67092   3.68173   3.68593   3.69631
 Alpha virt. eigenvalues --    3.69863   3.69958   3.69997   3.70384   3.70662
 Alpha virt. eigenvalues --    3.71146   3.71288   3.72297   3.72385   3.73052
 Alpha virt. eigenvalues --    3.75021   3.78148   3.80823   3.82732
          Condensed to atoms (all electrons):
 Mulliken charges:
               1
     1  C    0.068049
     2  C    0.024508
     3  O   -0.332156
     4  H    0.047477
     5  H    0.035419
     6  H    0.017057
     7  N   -0.096199
     8  C    0.103532
     9  C    0.071075
    10  O   -0.265332
    11  C    0.098166
    12  C    0.044807
    13  O   -0.368640
    14  O   -0.445158
    15  H    0.122475
    16  H   -0.054604
    17  H    0.048276
    18  H    0.019910
    19  N   -0.119055
    20  C    0.124396
    21  C    0.078673
    22  O   -0.288249
    23  C    0.009714
    24  C    0.073238
    25  C   -0.052514
    26  C    0.021027
    27  N    0.096182
    28  H    0.094568
    29  H    0.020865
    30  H    0.032136
    31  H   -0.010688
    32  H    0.013610
    33  H   -0.016066
    34  H    0.036697
    35  H    0.067801
    36  H    0.072460
    37  H    0.055453
    38  H    0.167533
    39  H    0.189336
    40  H    0.186491
    41  N   -0.127059
    42  C    0.110230
    43  C    0.039268
    44  O   -0.285917
    45  C    0.125704
    46  C    0.058701
    47  O   -0.347373
    48  O   -0.482506
    49  H    0.142633
    50  H    0.025695
    51  H    0.011315
    52  H    0.015627
    53  N   -0.195884
    54  C    0.222956
    55  C    0.028129
    56  O   -0.283963
    57  H    0.125858
    58  H    0.041558
    59  H    0.040140
    60  N   -0.147281
    61  C    0.094947
    62  C    0.118208
    63  O   -0.339791
    64  C    0.130983
    65  C   -0.024026
    66  N   -0.044473
    67  O   -0.277756
    68  H    0.143624
    69  H    0.008143
    70  H    0.030742
    71  H    0.036134
    72  H    0.118275
    73  H    0.147082
    74  N   -0.164201
    75  C    0.282950
    76  C   -0.023715
    77  O   -0.270468
    78  H    0.144669
    79  H    0.037757
    80  H    0.025495
    81  N   -0.141537
    82  C    0.129736
    83  C    0.086879
    84  O   -0.271644
    85  C    0.160776
    86  C   -0.051378
    87  C    0.023926
    88  C   -0.032243
    89  C    0.014956
    90  C   -0.045343
    91  C    0.156596
    92  O   -0.216002
    93  H    0.129614
    94  H   -0.027283
    95  H    0.008187
    96  H   -0.010814
    97  H   -0.022309
    98  H   -0.035666
    99  H   -0.021604
   100  H   -0.044694
   101  H    0.176466
   102  N   -0.120227
   103  C    0.125277
   104  C    0.061126
   105  O   -0.237282
   106  C   -0.082544
   107  C   -0.046979
   108  C    0.087755
   109  C    0.037774
   110  H    0.128292
   111  H   -0.002819
   112  H   -0.009569
   113  H   -0.022499
   114  H    0.001468
   115  H   -0.000519
   116  H    0.000759
   117  H    0.013218
   118  H   -0.003512
   119  H   -0.023253
   120  H    0.052763
   121  N   -0.147374
   122  C    0.116253
   123  C    0.082693
   124  O   -0.266769
   125  C    0.208976
   126  O   -0.312661
   127  H    0.142764
   128  H    0.037841
   129  H    0.009825
   130  H    0.014308
   131  H    0.170263
   132  N   -0.123789
   133  C    0.024232
   134  C    0.067785
   135  O   -0.260859
   136  C    0.105677
   137  H    0.103552
   138  H    0.018997
   139  H   -0.005990
   140  H   -0.000981
   141  H    0.042733
   142  N   -0.098879
   143  C    0.047714
   144  C    0.055900
   145  O   -0.288242
   146  C    0.065595
   147  H    0.125096
   148  H   -0.022862
   149  H    0.026167
   150  H    0.008314
   151  H    0.022898
   152  N   -0.090422
   153  C    0.076681
   154  C    0.071337
   155  O   -0.272497
   156  C    0.047987
   157  C    0.029729
   158  C    0.082420
   159  O   -0.344046
   160  O   -0.329364
   161  H    0.103841
   162  H   -0.003111
   163  H    0.010259
   164  H   -0.028829
   165  H   -0.014254
   166  H   -0.017005
   167  N   -0.157423
   168  C    0.123220
   169  H    0.025470
   170  H    0.050504
   171  H    0.021969
   172  H    0.110781
   173  Ca   1.246471
   174  O   -0.300700
   175  H    0.184192
   176  H    0.193082
 Sum of Mulliken charges =  -0.00000
 Mulliken charges with hydrogens summed into heavy atoms:
               1
     1  C    0.168002
     2  C    0.024508
     3  O   -0.332156
     7  N    0.026276
     8  C    0.048928
     9  C    0.071075
    10  O   -0.265332
    11  C    0.166352
    12  C    0.044807
    13  O   -0.368640
    14  O   -0.445158
    19  N   -0.024487
    20  C    0.145261
    21  C    0.078673
    22  O   -0.288249
    23  C    0.031162
    24  C    0.070782
    25  C    0.051983
    26  C    0.148940
    27  N    0.639542
    41  N    0.015573
    42  C    0.135925
    43  C    0.039268
    44  O   -0.285917
    45  C    0.152646
    46  C    0.058701
    47  O   -0.347373
    48  O   -0.482506
    53  N   -0.070026
    54  C    0.304654
    55  C    0.028129
    56  O   -0.283963
    60  N   -0.003657
    61  C    0.103090
    62  C    0.118208
    63  O   -0.339791
    64  C    0.197858
    65  C   -0.024026
    66  N    0.220884
    67  O   -0.277756
    74  N   -0.019531
    75  C    0.346201
    76  C   -0.023715
    77  O   -0.270468
    81  N   -0.011923
    82  C    0.102453
    83  C    0.086879
    84  O   -0.271644
    85  C    0.158149
    86  C   -0.051378
    87  C    0.001618
    88  C   -0.067908
    89  C   -0.006649
    90  C   -0.090037
    91  C    0.156596
    92  O   -0.039536
   102  N    0.008066
   103  C    0.122457
   104  C    0.061126
   105  O   -0.237282
   106  C   -0.092113
   107  C   -0.068009
   108  C    0.101213
   109  C    0.063771
   121  N   -0.004609
   122  C    0.154093
   123  C    0.082693
   124  O   -0.266769
   125  C    0.233108
   126  O   -0.142399
   132  N   -0.020237
   133  C    0.043229
   134  C    0.067785
   135  O   -0.260859
   136  C    0.141440
   142  N    0.026217
   143  C    0.024852
   144  C    0.055900
   145  O   -0.288242
   146  C    0.122975
   152  N    0.013419
   153  C    0.073570
   154  C    0.071337
   155  O   -0.272497
   156  C    0.029418
   157  C   -0.001530
   158  C    0.082420
   159  O   -0.344046
   160  O   -0.329364
   167  N   -0.046642
   168  C    0.221163
   173  Ca   1.246471
   174  O    0.076573
 DipInt: DoE/N= T F RetVal/Mat= T F Init=T NMatP=  1 IDeriv=0 Min/MaxMlt=  0  4
 Entering OneElI...
 OneElI was handed  1333951383 working-precision words.
 Multipole integrals L=0 to 4 MinM= 0 MaxM= 0.
 Requested accuracy = 0.1000D-12
 PrtBox:  NBox=     1 Levels=  1 BoxLen=   98.75 SMaxX=       51.07
          Shift=           24.133913           12.090204            7.906317
 Box      1 Number                   0 centers from      1 to    809:
 ShPair: Thresh= 1.00D-13 NBox=     1 BxSize= 9.87D+01 RnKept= 3.36D+01
         NSMCal=               327645 NSMKep=              117795
 PrmmSu-InSpLW:  IPartL=    0 NPrtUS=    1 NPrtUL=    1 DoSpLW=F IThBeg=    0 IThEnd=    0 NThAct=    1.
 PrsmSu:  NPrtUS=   1 ThrOK=F IAlg=1 NPAlg=1 LenDen=           0 ISkipM=0 DoSpLW=F IThBeg=    0 IThEnd=    0.
 Prism:   IPart=     0 DynPar=F LinDyn=F Incr=         512.
 PRISM was handed  1325441887 working-precision words and117795 shell-pairs
 IPart=  0 NShTot=      117795 NBatch=         284 AvBLen=       414.8
 PrsmSu-ThDecC:  IPartSL=    0    0 NPrtUSL=    1    1 IThBeg=    0 IThEnd=    0 CPU=   -1 GPU=   -1 NThAct=    1.
 PrSmSu:  NxtVal=            513.
 Electronic moments (au):
       -716.00000000         26.52876910         -9.28857909          0.89181061
    -160331.80274144     -27004.78840294      -9769.12183909       -297.13096328
       -102.64739228         30.81553416    -137302.91248272     -27586.49490585
      -2995.08102426     106375.58092774     410903.32614241      90309.72588369
     -31156.87030536      16214.80333425     -10705.70292923     -26299.76057718
  -59234843.49472991   -2595236.90285601    -329232.46616547    1437317.71078148
     296669.54500601     294718.80430936     -30935.42691346     138497.24867912
      34961.30313538   -5643246.94343275   -2807926.29920690    -309654.91018102
      93587.89759783     283020.69265333      52840.44676576
 Electronic spatial extent (au):  <R**2>=         197105.7130
 DipInt: DoE/N= F T RetVal/Mat= T F Init=T NMatP=  1 IDeriv=0 Min/MaxMlt=  0  4
 Nuclear    moments (au):
        716.00000000          0.00000000         -0.00000000         -0.00000000
     160178.71379675      26577.03698197       9359.96761376          0.00000000
         -0.00000000         -0.00000000     153484.53472550      27454.71238554
       3008.61976480    -103739.71070846    -416705.03834292     -90700.70863553
      31579.54562897     -16641.68064965      10746.07206052      27130.29463446
   58896034.54079226    2494802.64401743     296290.66912501   -1579739.92448376
    -370127.60660286    -326325.13418634      32707.19236456    -137523.64218449
     -34854.70225575    5573195.02847053    2727959.32292736     291112.42545307
     -74024.23020017    -297377.58353694     -58547.16434930
 Total      moments (au):
         -0.00000000         26.52876910         -9.28857909          0.89181061
       -153.08894470       -427.75142097       -409.15422533       -297.13096328
       -102.64739228         30.81553416      16181.62224278       -131.78252031
         13.53874053       2635.87021928      -5801.71220050       -390.98275185
        422.67532361       -426.87731539         40.36913129        830.53405729
    -338808.95393765    -100434.25883858     -32941.79704046    -142422.21370228
     -73458.06159685     -31606.32987698       1771.76545110        973.60649464
        106.60087963     -70051.91496222     -79966.97627954     -18542.48472795
      19563.66739766     -14356.89088362      -5706.71758354
 Traceless Quadrup. (au):
        176.90925230        -97.75322397        -79.15602833       -297.13096328
       -102.64739228         30.81553416
 Charge=             -0.0000 electrons
 Dipole moment (field-independent basis, Debye):
    X=             67.4294    Y=            -23.6092    Z=              2.2668  Tot=             71.4791
 Quadrupole moment (field-independent basis, Debye-Ang):
   XX=           -205.9099   YY=           -575.3403   ZZ=           -550.3264
   XY=           -399.6513   XZ=           -138.0643   YZ=             41.4479
 Traceless Quadrupole moment (field-independent basis, Debye-Ang):
   XX=            237.9490   YY=           -131.4814   ZZ=           -106.4676
   XY=           -399.6513   XZ=           -138.0643   YZ=             41.4479
[...]
 **** Fit      -0.007401
 **** Fit      -0.006632
 **** Fit      -0.005915
 **** Fit      -0.005267
 **** Fit      -0.004699
 **** Fit      -0.004221
 **** Fit      -0.003834
 **** Fit      -0.003526
 **** Fit      -0.003263
 **** Fit      -0.011000
 **** Fit      -0.010151
 **** Fit      -0.009289
 **** Fit      -0.008450
 **** Fit      -0.007644
 **** Fit      -0.006875
 **** Fit      -0.006146
 **** Fit      -0.005465
 **** Fit      -0.004843
 **** Fit      -0.004287
 **** Fit      -0.003805
 **** Fit      -0.003394
 **** Fit      -0.003040
 **** Fit      -0.011816
 **** Fit      -0.010828
 **** Fit      -0.009903
 **** Fit      -0.009027
 **** Fit      -0.008185
 **** Fit      -0.007366
 **** Fit      -0.006569
 **** Fit      -0.005798
 **** Fit      -0.005063
 **** Fit      -0.004375
 **** Fit      -0.003744
 **** Fit      -0.003178
 **** Fit      -0.002672
 **** Fit      -0.012532
 **** Fit      -0.011507
 **** Fit      -0.010579
 **** Fit      -0.009701
 **** Fit      -0.008838
 **** Fit      -0.007973
 **** Fit      -0.007100
 **** Fit      -0.006222
 **** Fit      -0.005348
 **** Fit      -0.004493
 **** Fit      -0.003671
 **** Fit      -0.002894
 **** Fit      -0.002172
 **** Fit      -0.014017
 **** Fit      -0.012883
 **** Fit      -0.011912
 **** Fit      -0.011013
 **** Fit      -0.010123
 **** Fit      -0.009205
 **** Fit      -0.008241
 **** Fit      -0.007226
 **** Fit      -0.006169
 **** Fit      -0.005083
 **** Fit      -0.003984
 **** Fit      -0.002892
 **** Fit      -0.001828
 **** Fit      -0.013614
 **** Fit      -0.012645
 **** Fit      -0.011713
 **** Fit      -0.010734
 **** Fit      -0.009661
 **** Fit      -0.008475
 **** Fit      -0.007174
 **** Fit      -0.005770
 **** Fit      -0.004283
 **** Fit      -0.002736
 **** Fit      -0.001159
 **** Fit      -0.013986
 **** Fit      -0.012986
 **** Fit      -0.011900
 **** Fit      -0.010645
 **** Fit      -0.009177
 **** Fit      -0.007487
 **** Fit      -0.005581
 **** Fit      -0.003482
 **** Fit      -0.001221
 **** Fit       0.001165
 **** Fit      -0.014224
 **** Fit      -0.012974
 **** Fit      -0.011462
 **** Fit      -0.009607
 **** Fit      -0.007372
 **** Fit      -0.004753
 **** Fit      -0.001760
 **** Fit       0.003577
 **** Fit       0.004435
 **** Fit       0.004869
 **** Fit       0.004854
 **** Fit       0.004372
 **** Fit       0.003418
 **** Fit       0.001992
 **** Fit       0.000744
 **** Fit       0.002212
 **** Fit       0.003267
 **** Fit       0.003871
 **** Fit       0.003996
 **** Fit       0.003626
 **** Fit       0.002750
 **** Fit       0.001365
 **** Fit      -0.000526
 **** Fit      -0.002907
 **** Fit      -0.001799
 **** Fit       0.000031
 **** Fit       0.001470
 **** Fit       0.002449
 **** Fit       0.002928
 **** Fit       0.002883
 **** Fit       0.002303
 **** Fit       0.001185
 **** Fit      -0.000468
 **** Fit      -0.002637
 **** Fit      -0.005276
 **** Fit       0.000816
 **** Fit       0.001604
 **** Fit       0.001791
 **** Fit       0.001366
 **** Fit       0.000330
 **** Fit      -0.001308
 **** Fit      -0.003516
 **** Fit      -0.006221
 **** Fit       0.000434
 **** Fit       0.000446
 **** Fit      -0.000254
 **** Fit      -0.001653
 **** Fit      -0.003717
 **** Fit      -0.006365
 **** Fit      -0.002129
 **** Fit      -0.003954
 **** Fit      -0.006451
 **** Fit      -0.007856
 **** Fit       0.024649
 **** Fit       0.030726
 **** Fit       0.033329
 **** Fit       0.039563
 **** Fit       0.044580
 **** Fit       0.033239
 **** Fit       0.040638
 **** Fit       0.046697
 **** Fit       0.052243
 **** Fit       0.036682
 **** Fit       0.043960
 **** Fit       0.049987
 **** Fit       0.055631
 **** Fit       0.040066
 **** Fit       0.046714
 **** Fit       0.052278
 **** Fit       0.057492
 **** Fit       0.063092
 **** Fit       0.043528
 **** Fit       0.049200
 **** Fit       0.054041
 **** Fit       0.058575
 **** Fit       0.063302
 **** Fit       0.068895
 **** Fit       0.047161
 **** Fit       0.051888
 **** Fit       0.056028
 **** Fit       0.059953
 **** Fit       0.064009
 **** Fit       0.068632
 **** Fit       0.050494
 **** Fit       0.054282
 **** Fit       0.057681
 **** Fit       0.060944
 **** Fit       0.064291
 **** Fit       0.067958
 **** Fit       0.072264
 **** Fit       0.051941
 **** Fit       0.055114
 **** Fit       0.057925
 **** Fit       0.060601
 **** Fit       0.063294
 **** Fit       0.066122
 **** Fit       0.069190
 **** Fit       0.072604
 **** Fit       0.053998
 **** Fit       0.056430
 **** Fit       0.058566
 **** Fit       0.060625
 **** Fit       0.062723
 **** Fit       0.064920
 **** Fit       0.067236
 **** Fit       0.069654
 **** Fit       0.072099
 **** Fit       0.058420
 **** Fit       0.059753
 **** Fit       0.061177
 **** Fit       0.062752
 **** Fit       0.064488
 **** Fit       0.066357
 **** Fit       0.068287
 **** Fit       0.070154
 **** Fit       0.071742
 **** Fit       0.061302
 **** Fit       0.061900
 **** Fit       0.062880
 **** Fit       0.064156
 **** Fit       0.065642
 **** Fit       0.067236
 **** Fit       0.068803
 **** Fit       0.070158
 **** Fit       0.071060
 **** Fit       0.062792
 **** Fit       0.062765
 **** Fit       0.063378
 **** Fit       0.064413
 **** Fit       0.065710
 **** Fit       0.067122
 **** Fit       0.068494
 **** Fit       0.069652
 **** Fit       0.070426
 **** Fit       0.070706
 **** Fit       0.063152
 **** Fit       0.062780
 **** Fit       0.063217
 **** Fit       0.064146
 **** Fit       0.065357
 **** Fit       0.066687
 **** Fit       0.067986
 **** Fit       0.069124
 **** Fit       0.070015
 **** Fit       0.070683
 **** Fit       0.071330
 **** Fit       0.087003
 **** Fit       0.061998
 **** Fit       0.061759
 **** Fit       0.062364
 **** Fit       0.063447
 **** Fit       0.064777
 **** Fit       0.066187
 **** Fit       0.067545
 **** Fit       0.068775
 **** Fit       0.069889
 **** Fit       0.071022
 **** Fit       0.072415
 **** Fit       0.074285
 **** Fit       0.076624
 **** Fit       0.079085
 **** Fit       0.081090
 **** Fit       0.059225
 **** Fit       0.059611
 **** Fit       0.060660
 **** Fit       0.062059
 **** Fit       0.063608
 **** Fit       0.065168
 **** Fit       0.066651
 **** Fit       0.068045
 **** Fit       0.069414
 **** Fit       0.070871
 **** Fit       0.072472
 **** Fit       0.074084
 **** Fit       0.075338
 **** Fit       0.075731
 **** Fit       0.054897
 **** Fit       0.056331
 **** Fit       0.058049
 **** Fit       0.059879
 **** Fit       0.061692
 **** Fit       0.063402
 **** Fit       0.064967
 **** Fit       0.066389
 **** Fit       0.067679
 **** Fit       0.068765
 **** Fit       0.069412
 **** Fit       0.069197
 **** Fit       0.067584
 **** Fit       0.047718
 **** Fit       0.050721
 **** Fit       0.053422
 **** Fit       0.055877
 **** Fit       0.058063
 **** Fit       0.059934
 **** Fit       0.061445
 **** Fit       0.062525
 **** Fit       0.063008
 **** Fit       0.062549
 **** Fit       0.060597
 **** Fit       0.056420
 **** Fit       0.027939
 **** Fit       0.036662
 **** Fit       0.042555
 **** Fit       0.046916
 **** Fit       0.050295
 **** Fit       0.052881
 **** Fit       0.054692
 **** Fit       0.055616
 **** Fit       0.055384
 **** Fit       0.053486
 **** Fit       0.049131
 **** Fit       0.041265
 **** Fit       0.026279
 **** Fit       0.035282
 **** Fit       0.041106
 **** Fit       0.044756
 **** Fit       0.046488
 **** Fit       0.046047
 **** Fit       0.042687
 **** Fit       0.035126
 **** Fit       0.027541
 **** Fit       0.033548
 **** Fit       0.034509
 **** Fit       0.029696
 **** Fit       0.039959
 **** Fit       0.054399
 **** Fit       0.063632
 **** Fit       0.060065
 **** Fit       0.042853
 **** Fit       0.050014
 **** Fit       0.070776
 **** Fit       0.075951
 **** Fit       0.079189
 **** Fit       0.069990
 **** Fit       0.070275
 **** Fit       0.073040
 **** Fit       0.076531
 **** Fit       0.068500
 **** Fit       0.064210
 **** Fit       0.062009
 **** Fit       0.063273
 **** Fit       0.064972
 **** Fit       0.067213
 **** Fit       0.070085
 **** Fit       0.073650
 **** Fit       0.077907
 **** Fit       0.066204
 **** Fit       0.062331
 **** Fit       0.060432
 **** Fit       0.059888
 **** Fit       0.060315
 **** Fit       0.061506
 **** Fit       0.063391
 **** Fit       0.065975
 **** Fit       0.069289
 **** Fit       0.073330
 **** Fit       0.078026
 **** Fit       0.066251
 **** Fit       0.062015
 **** Fit       0.060009
 **** Fit       0.059581
 **** Fit       0.060346
 **** Fit       0.062104
 **** Fit       0.064765
 **** Fit       0.068283
 **** Fit       0.072583
 **** Fit       0.077510
 **** Fit       0.066599
 **** Fit       0.062351
 **** Fit       0.060539
 **** Fit       0.060507
 **** Fit       0.061868
 **** Fit       0.064396
 **** Fit       0.067932
 **** Fit       0.072296
 **** Fit       0.077234
 **** Fit       0.082417
 **** Fit       0.090752
 **** Fit       0.070075
 **** Fit       0.064706
 **** Fit       0.062493
 **** Fit       0.062574
 **** Fit       0.064412
 **** Fit       0.067631
 **** Fit       0.071881
 **** Fit       0.076754
 **** Fit       0.081796
 **** Fit       0.086580
 **** Fit       0.070033
 **** Fit       0.066104
 **** Fit       0.065731
 **** Fit       0.067905
 **** Fit       0.071834
 **** Fit       0.076766
 **** Fit       0.082024
 **** Fit       0.071319
 **** Fit       0.070516
 **** Fit       0.073608
 **** Fit       0.078936
 **** Fit       0.068984
 **** Fit       0.067837
 **** Fit       0.073823
 **** Fit       0.072821
 **** Fit       0.072328
 **** Fit       0.076625
 **** Fit       0.075641
 **** Fit       0.075361
 **** Fit       0.075415
 **** Fit       0.078761
 **** Fit       0.077740
 **** Fit       0.077528
 **** Fit       0.077695
 **** Fit       0.078082
 **** Fit       0.080064
 **** Fit       0.079197
 **** Fit       0.079124
 **** Fit       0.079398
 **** Fit       0.079788
 **** Fit       0.080220
 **** Fit       0.080166
 **** Fit       0.080602
 **** Fit       0.081147
 **** Fit       0.081644
 **** Fit       0.080572
 **** Fit       0.080607
 **** Fit       0.081277
 **** Fit       0.082165
 **** Fit       0.082961
 **** Fit       0.080237
 **** Fit       0.081080
 **** Fit       0.082349
 **** Fit       0.083701
 **** Fit       0.084870
 **** Fit       0.079493
 **** Fit       0.080925
 **** Fit       0.082774
 **** Fit       0.084734
 **** Fit       0.086546
 **** Fit       0.088109
 **** Fit       0.079873
 **** Fit       0.082294
 **** Fit       0.084914
 **** Fit       0.087504
 **** Fit       0.089965
 **** Fit       0.092570
 **** Fit       0.078207
 **** Fit       0.081119
 **** Fit       0.084278
 **** Fit       0.087517
 **** Fit       0.090776
 **** Fit       0.094332
 **** Fit       0.081603
 **** Fit       0.085452
 **** Fit       0.089413
 **** Fit       0.093655
 **** Fit       0.082267
 **** Fit       0.086615
 **** Fit       0.091134
 **** Fit       0.087136
 **** Fit       0.091926
 **** Fit       0.049149
 **** Fit       0.051372
 **** Fit       0.045036
 **** Fit       0.043997
 **** Fit       0.047994
 **** Fit       0.052026
 **** Fit       0.054033
 **** Fit       0.054957
 **** Fit       0.035942
 **** Fit       0.038906
 **** Fit       0.043598
 **** Fit       0.047661
 **** Fit       0.051037
 **** Fit       0.054066
 **** Fit       0.056718
 **** Fit       0.058509
 **** Fit       0.058421
 **** Fit       0.034532
 **** Fit       0.040477
 **** Fit       0.044825
 **** Fit       0.047974
 **** Fit       0.050562
 **** Fit       0.053019
 **** Fit       0.055515
 **** Fit       0.058039
 **** Fit       0.060462
 **** Fit       0.062538
 **** Fit       0.063808
 **** Fit       0.063451
 **** Fit       0.041217
 **** Fit       0.045215
 **** Fit       0.047802
 **** Fit       0.049770
 **** Fit       0.051617
 **** Fit       0.053591
 **** Fit       0.055768
 **** Fit       0.058133
 **** Fit       0.060633
 **** Fit       0.063196
 **** Fit       0.065718
 **** Fit       0.068000
 **** Fit       0.069642
 **** Fit       0.045948
 **** Fit       0.048279
 **** Fit       0.049628
 **** Fit       0.050699
 **** Fit       0.051881
 **** Fit       0.053352
 **** Fit       0.055151
 **** Fit       0.057251
 **** Fit       0.059601
 **** Fit       0.062157
 **** Fit       0.064892
 **** Fit       0.067785
 **** Fit       0.070788
 **** Fit       0.073769
 **** Fit       0.051887
 **** Fit       0.052104
 **** Fit       0.052010
 **** Fit       0.052063
 **** Fit       0.052488
 **** Fit       0.053370
 **** Fit       0.054699
 **** Fit       0.056420
 **** Fit       0.058465
 **** Fit       0.060782
 **** Fit       0.063342
 **** Fit       0.066146
 **** Fit       0.069219
 **** Fit       0.072597
 **** Fit       0.076307
 **** Fit       0.058930
 **** Fit       0.056719
 **** Fit       0.054973
 **** Fit       0.053888
 **** Fit       0.053521
 **** Fit       0.053847
 **** Fit       0.054790
 **** Fit       0.056247
 **** Fit       0.058119
 **** Fit       0.060329
 **** Fit       0.062838
 **** Fit       0.065645
 **** Fit       0.068788
 **** Fit       0.072342
 **** Fit       0.076419
 **** Fit       0.062136
 **** Fit       0.058526
 **** Fit       0.056186
 **** Fit       0.054939
 **** Fit       0.054627
 **** Fit       0.055097
 **** Fit       0.056198
 **** Fit       0.057800
 **** Fit       0.059803
 **** Fit       0.062150
 **** Fit       0.064826
 **** Fit       0.067862
 **** Fit       0.071335
 **** Fit       0.075377
 **** Fit       0.080186
 **** Fit       0.065228
 **** Fit       0.060574
 **** Fit       0.057669
 **** Fit       0.056127
 **** Fit       0.055669
 **** Fit       0.056070
 **** Fit       0.057143
 **** Fit       0.058742
 **** Fit       0.060768
 **** Fit       0.063171
 **** Fit       0.065952
 **** Fit       0.069161
 **** Fit       0.072906
 **** Fit       0.077367
 **** Fit       0.067333
 **** Fit       0.061969
 **** Fit       0.058771
 **** Fit       0.057172
 **** Fit       0.056786
 **** Fit       0.057325
 **** Fit       0.058572
 **** Fit       0.060378
 **** Fit       0.062656
 **** Fit       0.065386
 **** Fit       0.068608
 **** Fit       0.072437
 **** Fit       0.077074
 **** Fit       0.065131
 **** Fit       0.060889
 **** Fit       0.058693
 **** Fit       0.057984
 **** Fit       0.058375
 **** Fit       0.059598
 **** Fit       0.061477
 **** Fit       0.063926
 **** Fit       0.066941
 **** Fit       0.070602
 **** Fit       0.063055
 **** Fit       0.060319
 **** Fit       0.059299
 **** Fit       0.059527
 **** Fit       0.060694
 **** Fit       0.062608
 **** Fit       0.065188
 **** Fit       0.068448
 **** Fit       0.060586
 **** Fit       0.060995
 **** Fit       0.062484
 -----------------------------------------------------------------
 Leave Link  602 at Wed Sep 18 11:38:21 2019, MaxMem=  1342177280 cpu:             124.1 elap:               2.6

 Test job not archived.
 1\1\GINC-C489-063\SP\RB3LYP\SVP\C54H83Ca1N15O23\PENGZHI\18-Sep-2019\0\
 \#b3lyp/svp scf=(tight,noincore) Test #IOP(5/87=12) Density=Current Po
 p=(MK,readradii) iop(6/33=2) iop(6/42=6)\\Ng-295_loop3_36.0\\0,1\C,0,9
 8.97,73.294,73.58\C,0,98.04,73.174,72.39\O,0,97.35,74.104,72.\H,0,99.8
 5,73.871,73.296\H,0,98.453,73.799,74.396\H,0,99.277,72.299,73.904\N,0,
 98.,72.014,71.73\C,0,97.28,71.784,70.49\C,0,95.76,71.814,70.66\O,0,95.
 29,71.174,71.59\C,0,97.82,70.554,69.78\C,0,97.24,70.244,68.41\O,0,97.9
 7,69.734,67.52\O,0,96.03,70.454,68.18\H,0,98.57,71.234,72.02\H,0,97.57
 ,72.634,69.88\H,0,97.72,69.654,70.39\H,0,98.88,70.744,69.59\N,0,94.98,
 72.554,69.87\C,0,93.56,72.814,70.02\C,0,92.68,71.644,69.61\O,0,91.48,7
 1.764,69.86\C,0,93.29,74.064,69.18\C,0,93.67,75.464,69.66\C,0,92.91,75
 .744,70.94\C,0,93.14,77.164,71.46\N,0,94.52,77.434,71.91\H,0,95.48,72.
 984,69.11\H,0,93.35,73.014,71.07\H,0,92.24,74.094,68.88\H,0,93.68,73.7
 84,68.2\H,0,93.35,76.264,68.99\H,0,94.74,75.504,69.89\H,0,93.32,75.044
 ,71.67\H,0,91.84,75.534,70.91\H,0,92.42,77.354,72.26\H,0,92.89,77.934,
 70.74\H,0,94.49,78.364,72.32\H,0,94.73,76.844,72.7\H,0,95.2,77.464,71.
 17\N,0,93.23,70.604,68.98\C,0,92.56,69.324,68.98\C,0,93.42,68.124,69.3
 2\O,0,92.82,67.104,69.67\C,0,91.81,69.004,67.69\C,0,92.58,69.474,66.47
 \O,0,91.99,70.174,65.61\O,0,93.8,69.264,66.27\H,0,94.21,70.664,68.73\H
 ,0,91.82,69.354,69.78\H,0,90.81,69.424,67.82\H,0,91.64,67.934,67.54\N,
 0,94.74,68.164,69.13\C,0,95.65,67.034,69.18\C,0,95.56,66.074,68.01\O,0
 ,96.21,65.034,68.06\H,0,95.17,69.034,68.84\H,0,95.29,66.564,70.09\H,0,
 96.67,67.424,69.13\N,0,94.77,66.444,66.99\C,0,94.87,65.864,65.67\C,0,9
 6.16,66.264,64.95\O,0,96.59,67.404,65.01\C,0,93.62,66.064,64.83\C,0,93
 .8,66.134,63.32\N,0,94.02,67.294,62.69\O,0,93.9,65.084,62.69\H,0,94.2,
 67.274,67.09\H,0,94.83,64.804,65.9\H,0,93.14,67.004,65.13\H,0,92.98,65
 .194,64.97\H,0,94.1,68.184,63.16\H,0,94.19,67.204,61.7\N,0,96.75,65.24
 4,64.32\C,0,97.82,65.444,63.37\C,0,97.71,64.424,62.24\O,0,98.75,63.994
 ,61.75\H,0,96.31,64.334,64.4\H,0,98.77,65.254,63.86\H,0,97.65,66.414,6
 2.9\N,0,96.48,64.094,61.84\C,0,96.16,63.234,60.72\C,0,96.02,64.014,59.
 41\O,0,95.04,64.724,59.21\C,0,94.88,62.434,60.94\C,0,94.56,61.424,59.8
 6\C,0,93.45,61.514,59.01\C,0,95.34,60.274,59.74\C,0,93.2,60.574,58.01\
 C,0,95.04,59.204,58.88\C,0,93.97,59.394,57.99\O,0,93.74,58.374,57.11\H
 ,0,95.65,64.494,62.24\H,0,96.99,62.554,60.55\H,0,94.07,63.164,60.91\H,
 0,94.76,61.994,61.93\H,0,92.78,62.354,59.09\H,0,96.06,60.114,60.53\H,0
 ,92.3,60.584,57.41\H,0,95.71,58.354,58.91\H,0,94.49,57.764,57.06\N,0,9
 7.07,63.894,58.59\C,0,97.33,64.704,57.42\C,0,96.28,64.394,56.37\O,0,95
 .36,63.634,56.66\C,0,97.5,66.174,57.81\C,0,98.12,67.094,56.77\C,0,98.3
 8,66.264,59.06\C,0,97.9,68.594,56.94\H,0,97.78,63.214,58.84\H,0,98.28,
 64.334,57.05\H,0,96.56,66.694,58.02\H,0,97.85,66.814,55.75\H,0,99.2,66
 .904,56.78\H,0,99.2,65.554,59.\H,0,98.87,67.224,59.18\H,0,97.68,66.024
 ,59.86\H,0,97.08,68.904,56.3\H,0,97.64,68.874,57.96\H,0,98.8,69.154,56
 .67\N,0,96.5,64.844,55.13\C,0,95.53,64.714,54.06\C,0,95.99,64.014,52.7
 9\O,0,95.15,63.764,51.93\C,0,94.96,66.084,53.7\O,0,96.07,66.834,53.26\
 H,0,97.4,65.284,55.06\H,0,94.61,64.204,54.33\H,0,94.48,66.494,54.59\H,
 0,94.33,66.044,52.81\H,0,95.78,67.744,53.25\N,0,97.31,63.824,52.7\C,0,
 98.11,63.384,51.58\C,0,97.54,63.734,50.22\O,0,97.07,62.924,49.42\C,0,9
 8.14,61.874,51.79\H,0,97.82,64.234,53.46\H,0,99.09,63.864,51.67\H,0,98
 .79,61.484,51.\H,0,98.57,61.534,52.74\H,0,97.18,61.424,51.54\N,0,97.58
 ,64.994,49.75\C,0,98.16,66.144,50.41\C,0,99.57,66.364,49.9\O,0,99.78,6
 6.294,48.69\C,0,97.21,67.334,50.29\H,0,97.05,65.104,48.9\H,0,98.25,65.
 914,51.47\H,0,97.54,68.174,50.9\H,0,97.21,67.654,49.25\H,0,96.18,67.06
 4,50.54\N,0,100.58,66.684,50.71\C,0,100.61,66.894,52.14\C,0,101.9,66.3
 14,52.71\O,0,101.86,65.814,53.83\C,0,100.58,68.384,52.45\C,0,100.19,68
 .644,53.91\C,0,100.23,70.134,54.22\O,0,99.58,70.884,53.46\O,0,100.71,7
 0.514,55.31\H,0,101.44,66.734,50.17\H,0,99.71,66.524,52.64\H,0,99.88,6
 8.904,51.79\H,0,101.56,68.814,52.27\H,0,100.88,68.084,54.54\H,0,99.24,
 68.174,54.13\N,0,102.98,66.264,51.93\C,0,104.26,65.734,52.37\H,0,104.9
 83,66.546,52.443\H,0,104.143,65.264,53.346\H,0,104.615,64.996,51.651\H
 ,0,102.96,66.804,51.08\Ca,0,96.18,70.3,65.55\O,0,98.04,72.11,65.97\H,0
 ,98.07,72.59,66.8\H,0,98.88,72.3,65.56\\Version=ES64L-G16RevA.03\State
 =1-A\HF=-5333.3252167\RMSD=1.320e-09\Dipole=0.5918366,17.1430023,22.28
 48787\Quadrupole=-119.931758,174.3258322,-54.3940741,-71.3363788,30.98
 77144,305.6419212\PG=C01 [X(C54H83Ca1N15O23)]\\@


 GETTING A SIMPLE ANSWER FROM A PROFESSOR IS LIKE
 GETTING A THIMBLE OF WATER FROM A FIRE HYDRANT.
     -- PROF. LEN SHAPIRO, NDSU
 Job cpu time:       1 days  2 hours  2 minutes 32.3 seconds.
 Elapsed time:       0 days  0 hours 32 minutes 58.9 seconds.
 File lengths (MBytes):  RWF=   1517 Int=      0 D2E=      0 Chk=    171 Scr=      1
 Normal termination of Gaussian 16 at Wed Sep 18 11:38:23 2019.
