 Entering Gaussian System, Link 0=g16
 Initial command:
 /home1/apps/gaussian/16rA.03/g16/l1.exe "/scratch/01990/pengzhi/4342298/Gau-150743.inp" -scrdir="/scratch/01990/pengzhi/4342298/"
 Entering Link 1 = /home1/apps/gaussian/16rA.03/g16/l1.exe PID=    150744.
  
 Copyright (c) 1988,1990,1992,1993,1995,1998,2003,2009,2016,
            Gaussian, Inc.  All Rights Reserved.
  
 This is part of the Gaussian(R) 16 program.  It is based on
 the Gaussian(R) 09 system (copyright 2009, Gaussian, Inc.),
 the Gaussian(R) 03 system (copyright 2003, Gaussian, Inc.),
 the Gaussian(R) 98 system (copyright 1998, Gaussian, Inc.),
 the Gaussian(R) 94 system (copyright 1995, Gaussian, Inc.),
 the Gaussian 92(TM) system (copyright 1992, Gaussian, Inc.),
 the Gaussian 90(TM) system (copyright 1990, Gaussian, Inc.),
 the Gaussian 88(TM) system (copyright 1988, Gaussian, Inc.),
 the Gaussian 86(TM) system (copyright 1986, Carnegie Mellon
 University), and the Gaussian 82(TM) system (copyright 1983,
 Carnegie Mellon University). Gaussian is a federally registered
 trademark of Gaussian, Inc.
  
 This software contains proprietary and confidential information,
 including trade secrets, belonging to Gaussian, Inc.
  
 This software is provided under written license and may be
 used, copied, transmitted, or stored only in accord with that
 written license.
  
 The following legend is applicable only to US Government
 contracts under FAR:
  
                    RESTRICTED RIGHTS LEGEND
  
 Use, reproduction and disclosure by the US Government is
 subject to restrictions as set forth in subparagraphs (a)
 and (c) of the Commercial Computer Software - Restricted
 Rights clause in FAR 52.227-19.
  
 Gaussian, Inc.
 340 Quinnipiac St., Bldg. 40, Wallingford CT 06492
  
  
 ---------------------------------------------------------------
 Warning -- This program may not be used in any manner that
 competes with the business of Gaussian, Inc. or will provide
 assistance to any competitor of Gaussian, Inc.  The licensee
 of this program is prohibited from giving any competitor of
 Gaussian, Inc. access to this program.  By using this program,
 the user acknowledges that Gaussian, Inc. is engaged in the
 business of creating and licensing software in the field of
 computational chemistry and represents and warrants to the
 licensee that it is not a competitor of Gaussian, Inc. and that
 it will not use this program in any manner prohibited above.
 ---------------------------------------------------------------
  

 Cite this work as:
 Gaussian 16, Revision A.03,
 M. J. Frisch, G. W. Trucks, H. B. Schlegel, G. E. Scuseria, 
 M. A. Robb, J. R. Cheeseman, G. Scalmani, V. Barone, 
 G. A. Petersson, H. Nakatsuji, X. Li, M. Caricato, A. V. Marenich, 
 J. Bloino, B. G. Janesko, R. Gomperts, B. Mennucci, H. P. Hratchian, 
 J. V. Ortiz, A. F. Izmaylov, J. L. Sonnenberg, D. Williams-Young, 
 F. Ding, F. Lipparini, F. Egidi, J. Goings, B. Peng, A. Petrone, 
 T. Henderson, D. Ranasinghe, V. G. Zakrzewski, J. Gao, N. Rega, 
 G. Zheng, W. Liang, M. Hada, M. Ehara, K. Toyota, R. Fukuda, 
 J. Hasegawa, M. Ishida, T. Nakajima, Y. Honda, O. Kitao, H. Nakai, 
 T. Vreven, K. Throssell, J. A. Montgomery, Jr., J. E. Peralta, 
 F. Ogliaro, M. J. Bearpark, J. J. Heyd, E. N. Brothers, K. N. Kudin, 
 V. N. Staroverov, T. A. Keith, R. Kobayashi, J. Normand, 
 K. Raghavachari, A. P. Rendell, J. C. Burant, S. S. Iyengar, 
 J. Tomasi, M. Cossi, J. M. Millam, M. Klene, C. Adamo, R. Cammi, 
 J. W. Ochterski, R. L. Martin, K. Morokuma, O. Farkas, 
 J. B. Foresman, and D. J. Fox, Gaussian, Inc., Wallingford CT, 2016.
 
 ******************************************
 Gaussian 16:  ES64L-G16RevA.03 25-Dec-2016
                17-Sep-2019 
 ******************************************
 %chk=Ng-293_loop3_3.0.chk
 %nprocshared=48
 Will use up to   48 processors via shared memory.
 %mem=10GB
 %nosave
 ----------------------------------------------------------------------
 #b3lyp/svp scf=(tight,noincore) Test #IOP(5/87=12) Density=Current Pop
 =(MK,readradii) iop(6/33=2) iop(6/42=6)
 ----------------------------------------------------------------------
 1/30=1,38=1,172=1/1;
 2/12=2,17=6,18=5,40=1/2;
 3/5=18,7=101,11=2,25=1,30=1,74=-5/1,2,3;
 4//1;
 5/5=4,32=2,38=5,87=12/2;
 6/7=2,8=2,9=2,10=2,15=8,20=101,22=-1,28=1,33=2,42=6/1,2;
 99/5=1,9=1/99;
 ----------------
 Ng-293_loop3_3.0
 ----------------
 Symbolic Z-matrix:
 Charge =  0 Multiplicity = 1
 C                     34.09     12.27    -0.96 
 C                     33.43     12.99    -2.13 
 O                     33.82     12.71    -3.27 
 H                     34.997    12.802   -0.671 
 H                     33.402    12.241   -0.115 
 H                     34.345    11.253   -1.256 
 N                     32.46     13.86    -1.86 
 C                     31.65     14.55    -2.84 
 C                     30.16     14.32    -2.67 
 O                     29.67     14.27    -1.54 
 C                     31.89     16.06    -2.8 
 C                     31.13     16.8     -3.88 
 O                     30.03     17.31    -3.58 
 O                     31.68     16.92    -4.99 
 H                     32.05     13.86    -0.94 
 H                     31.89     14.28    -3.87 
 H                     32.93     16.31    -3.01 
 H                     31.49     16.36    -1.83 
 N                     29.49     14.15    -3.82 
 C                     28.17     13.59    -3.99 
 C                     26.96     14.29    -3.39 
 O                     25.87     13.92    -3.84 
 C                     28.15     12.12    -3.58 
 C                     29.18     11.23    -4.29 
 C                     28.76     9.78     -4.09 
 C                     29.59     8.75     -4.86 
 N                     31.04     8.99     -4.72 
 H                     29.97     14.15    -4.71 
 H                     28.02     13.54    -5.07 
 H                     27.19     11.72    -3.89 
 H                     28.27     12.14    -2.5 
 H                     30.18     11.48    -3.92 
 H                     29.14     11.43    -5.36 
 H                     27.75     9.51     -4.4 
 H                     28.85     9.49     -3.04 
 H                     29.29     8.87     -5.91 
 H                     29.35     7.74     -4.55 
 H                     31.21     9.14     -3.74 
 H                     31.53     8.16     -5.01 
 H                     31.46     9.71     -5.28 
 N                     27.14     15.34    -2.6 
 C                     26.11     16.22    -2.09 
 C                     26.63     17.57    -1.63 
 O                     27.52     17.63    -0.79 
 C                     25.39     15.5     -0.95 
 C                     24.33     16.37    -0.3 
 O                     24.41     16.79     0.87 
 O                     23.35     16.76    -0.99 
 H                     28.09     15.62    -2.38 
 H                     25.4      16.38    -2.91 
 H                     26.18     15.16    -0.28 
 H                     25.       14.52    -1.21 
 N                     26.1      18.66    -2.2 
 C                     26.34     19.99    -1.68 
 C                     25.64     20.3     -0.36 
 O                     24.46     19.98    -0.22 
 H                     25.61     18.5     -3.07 
 H                     26.04     20.79    -2.34 
 H                     27.4      20.05    -1.46 
 N                     26.26     21.07     0.53 
 C                     25.66     21.56     1.76 
 C                     26.03     23.01     2.07 
 O                     25.52     23.62     3.01 
 C                     25.95     20.74     3.01 
 C                     25.42     19.34     2.75 
 N                     26.31     18.53     2.18 
 O                     24.21     19.12     2.83 
 H                     27.25     21.07     0.35 
 H                     24.59     21.59     1.58 
 H                     25.39     21.14     3.85 
 H                     26.99     20.7      3.33 
 H                     27.23     18.8      1.86 
 H                     25.93     17.65     1.84 
 N                     26.98     23.53     1.29 
 C                     27.51     24.87     1.47 
 C                     28.27     24.99     2.78 
 O                     29.12     24.16     3.09 
 H                     27.53     22.89     0.74 
 H                     26.74     25.64     1.34 
 H                     28.27     25.12     0.73 
 N                     27.85     25.93     3.64 
 C                     28.47     26.27     4.9 
 C                     28.29     25.24     6.01 
 O                     28.77     25.45     7.12 
 C                     29.88     26.82     4.73 
 C                     30.54     27.46     5.93 
 C                     29.84     28.3      6.8 
 C                     31.89     27.18     6.15 
 C                     30.54     28.97     7.82 
 C                     32.58     27.82     7.19 
 C                     31.92     28.78     7.99 
 O                     32.52     29.43     9.03 
 H                     27.08     26.53     3.39 
 H                     27.93     27.16     5.21 
 H                     29.75     27.66     4.04 
 H                     30.43     25.99     4.27 
 H                     28.78     28.47     6.72 
 H                     32.28     26.4      5.51 
 H                     30.01     29.6      8.51 
 H                     33.63     27.62     7.35 
 H                     33.47     29.43     9.12 
 N                     27.69     24.07     5.79 
 C                     27.44     23.08     6.83 
 C                     26.29     23.45     7.76 
 O                     25.38     22.64     7.93 
 C                     28.66     22.53     7.55 
 C                     29.81     22.19     6.6 
 C                     28.31     21.34     8.43 
 C                     31.16     21.89     7.24 
 H                     27.61     23.74     4.84 
 H                     27.05     22.2      6.31 
 H                     29.11     23.25     8.23 
 H                     30.02     22.99     5.89 
 H                     29.62     21.29     6.02 
 H                     29.14     20.83     8.91 
 H                     27.59     21.59     9.21 
 H                     27.95     20.63     7.69 
 H                     31.07     21.       7.87 
 H                     31.93     21.74     6.49 
 H                     31.51     22.71     7.87 
 N                     26.22     24.68     8.26 
 C                     25.12     25.24     9.02 
 C                     24.59     24.44     10.2 
 O                     23.43     24.58     10.57 
 C                     25.62     26.61     9.45 
 O                     25.72     27.46     8.33 
 H                     27.07     25.22     8.17 
 H                     24.26     25.34     8.36 
 H                     26.59     26.5      9.93 
 H                     24.97     27.06     10.21 
 H                     25.89     28.3      8.78 
 N                     25.29     23.45     10.76 
 C                     24.69     22.43     11.59 
 C                     23.45     21.74     11.04 
 O                     22.51     21.53     11.8 
 C                     24.56     22.9      13.04 
 H                     26.26     23.3      10.51 
 H                     25.46     21.67     11.72 
 H                     25.54     23.03     13.5 
 H                     23.98     23.83     13.06 
 H                     23.98     22.16     13.59 
 N                     23.48     21.33     9.77 
 C                     22.41     20.69     9.02 
 C                     22.81     19.37     8.39 
 O                     24.01     19.14     8.29 
 C                     21.89     21.68     7.98 
 H                     24.32     21.68     9.32 
 H                     21.61     20.41     9.71 
 H                     21.01     21.36     7.42 
 H                     21.77     22.66     8.44 
 H                     22.61     21.77     7.17 
 N                     21.82     18.6      7.94 
 C                     22.       17.29     7.35 
 C                     23.06     16.41     7.99 
 O                     23.89     15.83     7.3 
 C                     22.23     17.39     5.84 
 C                     20.94     17.76     5.12 
 C                     21.24     17.93     3.64 
 O                     21.64     16.92     3.02 
 O                     21.05     19.01     3.04 
 H                     20.87     18.9      8.12 
 H                     21.13     16.68     7.57 
 H                     22.51     16.38     5.53 
 H                     23.08     18.03     5.62 
 H                     20.56     18.71     5.52 
 H                     20.22     16.96     5.27 
 N                     23.1      16.29     9.32 
 C                     24.17     15.62     10.03 
 H                     25.013    16.302    10.143 
 H                     23.817    15.313    11.014 
 H                     24.487    14.742    9.467 
 H                     22.45     16.72     9.96 
 Ca                    22.46     18.59     0.87 
 O                     20.11     17.66    -0.064 
 H                     19.59     17.17     0.576 
 H                     19.48     17.89    -0.754 
 
 Stoichiometry    C54H83CaN15O23
 Framework group  C1[X(C54H83CaN15O23)]
 Deg. of freedom   522
 Full point group                 C1      NOp   1
 Largest Abelian subgroup         C1      NOp   1
 Largest concise Abelian subgroup C1      NOp   1
                         Standard orientation:                         
 ---------------------------------------------------------------------
 Center     Atomic      Atomic             Coordinates (Angstroms)
 Number     Number       Type             X           Y           Z
 ---------------------------------------------------------------------
      1          6           0        9.210246    3.569204    5.514142
      2          6           0        9.473050    3.721775    4.020637
      3          8           0       10.546030    4.231570    3.675786
      4          1           0        8.780447    4.492671    5.903596
      5          1           0        8.513636    2.747255    5.679506
      6          1           0       10.147480    3.360296    6.028807
      7          7           0        8.545223    3.279310    3.175616
      8          6           0        8.667902    3.239297    1.734800
      9          6           0        8.473808    1.855037    1.144841
     10          8           0        7.614950    1.102843    1.609671
     11          6           0        7.659338    4.171754    1.062028
     12          6           0        7.828364    4.226301   -0.441320
     13          8           0        7.101333    3.490468   -1.141373
     14          8           0        8.634732    5.056555   -0.898975
     15          1           0        7.816910    2.677981    3.525565
     16          1           0        9.631774    3.599366    1.370520
     17          1           0        7.800763    5.208555    1.367386
     18          1           0        6.694488    3.712669    1.283849
     19          7           0        9.319425    1.553213    0.147778
     20          6           0        9.619321    0.243025   -0.379829
     21          6           0        8.530551   -0.575445   -1.057167
     22          8           0        8.940212   -1.522343   -1.737653
     23          6           0       10.308446   -0.619025    0.674390
     24          6           0       11.577435   -0.010423    1.287880
     25          6           0       12.344568   -1.129935    1.978605
     26          6           0       13.720899   -0.737267    2.521030
     27          7           0       13.677725    0.529781    3.277619
     28          1           0       10.036619    2.203275   -0.144714
     29          1           0       10.412292    0.406676   -1.111822
     30          1           0       10.656609   -1.514563    0.169916
     31          1           0        9.531113   -0.822115    1.406312
     32          1           0       11.292807    0.826377    1.934527
     33          1           0       12.211625    0.364234    0.485425
     34          1           0       12.597690   -2.002127    1.375024
     35          1           0       11.792989   -1.502377    2.845638
     36          1           0       14.355042   -0.621100    1.631497
     37          1           0       14.139608   -1.523194    3.138121
     38          1           0       12.892914    0.460841    3.903014
     39          1           0       14.520400    0.604325    3.823001
     40          1           0       13.662437    1.391825    2.762793
     41          7           0        7.279300   -0.136031   -1.040221
     42          6           0        6.161864   -0.691923   -1.773516
     43          6           0        4.999240    0.269803   -1.940513
     44          8           0        4.485443    0.786908   -0.955670
     45          6           0        5.711708   -1.967104   -1.061003
     46          6           0        4.495078   -2.592898   -1.717656
     47          8           0        3.377386   -2.656777   -1.171410
     48          8           0        4.583851   -3.004334   -2.905696
     49          1           0        7.075531    0.717871   -0.531666
     50          1           0        6.540428   -0.958368   -2.767396
     51          1           0        5.574991   -1.680911   -0.017930
     52          1           0        6.500259   -2.696820   -0.900374
     53          7           0        4.598320    0.539067   -3.189777
     54          6           0        3.363283    1.244067   -3.462832
     55          6           0        2.092810    0.443102   -3.192923
     56          8           0        2.027960   -0.722924   -3.580967
     57          1           0        5.261724    0.309025   -3.917497
     58          1           0        3.257499    1.584309   -4.481972
     59          1           0        3.324201    2.079272   -2.772539
     60          7           0        1.024198    1.075814   -2.716327
     61          6           0       -0.287062    0.471846   -2.546560
     62          6           0       -1.431075    1.403341   -2.945375
     63          8           0       -2.599441    1.016140   -2.973582
     64          6           0       -0.596570   -0.056583   -1.152298
     65          6           0        0.453355   -1.108909   -0.838024
     66          7           0        1.545930   -0.615844   -0.258140
     67          8           0        0.360125   -2.232743   -1.335221
     68          1           0        1.304530    1.939262   -2.282308
     69          1           0       -0.339013   -0.338550   -3.266810
     70          1           0       -1.558807   -0.559864   -1.155288
     71          1           0       -0.643814    0.683910   -0.355406
     72          1           0        1.735372    0.364196   -0.098976
     73          1           0        2.326644   -1.264813   -0.197102
     74          7           0       -1.072194    2.664305   -3.195323
     75          6           0       -2.023820    3.710002   -3.526723
     76          6           0       -2.938021    4.014733   -2.352212
     77          8           0       -2.475280    4.211412   -1.232083
     78          1           0       -0.159993    2.957015   -2.884183
     79          1           0       -2.564414    3.497319   -4.456897
     80          1           0       -1.541029    4.670068   -3.708070
     81          7           0       -4.256852    3.887680   -2.562307
     82          6           0       -5.304078    4.200931   -1.617430
     83          6           0       -5.442123    3.223656   -0.454985
     84          8           0       -6.314473    3.401054    0.390080
     85          6           0       -5.337407    5.677968   -1.247633
     86          6           0       -6.536971    6.189767   -0.483232
     87          6           0       -7.838183    5.780813   -0.786719
     88          6           0       -6.303359    7.094445    0.554208
     89          6           0       -8.921529    6.392140   -0.129497
     90          6           0       -7.382517    7.676963    1.234935
     91          6           0       -8.707719    7.380364    0.843694
     92          8           0       -9.807241    7.894053    1.469213
     93          1           0       -4.596171    3.625464   -3.474177
     94          1           0       -6.209180    4.109325   -2.210894
     95          1           0       -5.422625    6.186011   -2.213671
     96          1           0       -4.362541    5.850707   -0.775620
     97          1           0       -8.055227    5.019066   -1.515783
     98          1           0       -5.256031    7.212660    0.797581
     99          1           0       -9.925350    6.070515   -0.336379
    100          1           0       -7.204734    8.392603    2.025095
    101          1           0       -9.728484    8.646871    2.050300
    102          7           0       -4.586517    2.216236   -0.280796
    103          6           0       -4.711392    1.221554    0.777134
    104          6           0       -5.808002    0.193827    0.521162
    105          8           0       -5.523988   -1.002000    0.570504
    106          6           0       -4.677876    1.741904    2.204514
    107          6           0       -3.586968    2.790243    2.431457
    108          6           0       -4.567477    0.612400    3.216954
    109          6           0       -3.644032    3.563940    3.743035
    110          1           0       -3.688687    2.261228   -0.738700
    111          1           0       -3.801850    0.616281    0.719875
    112          1           0       -5.586536    2.271056    2.483143
    113          1           0       -3.579279    3.562973    1.662673
    114          1           0       -2.590221    2.356320    2.458069
    115          1           0       -4.446170    0.902032    4.256568
    116          1           0       -5.409583   -0.078974    3.170491
    117          1           0       -3.608462    0.179271    2.944942
    118          1           0       -3.515056    2.868106    4.577469
    119          1           0       -2.883356    4.337140    3.780917
    120          1           0       -4.598918    4.075019    3.880114
    121          7           0       -7.008240    0.600983    0.119351
    122          6           0       -8.102010   -0.242722   -0.319999
    123          6           0       -8.498520   -1.413270    0.566509
    124          8           0       -9.036386   -2.401570    0.080645
    125          6           0       -9.259397    0.721155   -0.527837
    126          8           0       -9.005123    1.546656   -1.641746
    127          1           0       -7.177614    1.590947    0.235473
    128          1           0       -7.821663   -0.707948   -1.263487
    129          1           0       -9.386008    1.323499    0.369132
    130          1           0      -10.210980    0.191903   -0.658153
    131          1           0       -9.870394    1.971970   -1.727856
    132          7           0       -8.131885   -1.490806    1.848408
    133          6           0       -8.137534   -2.726706    2.597956
    134          6           0       -7.462884   -3.926095    1.947947
    135          8           0       -8.014341   -5.019687    2.020410
    136          6           0       -9.523439   -3.018712    3.176144
    137          1           0       -7.702971   -0.697803    2.310014
    138          1           0       -7.603669   -2.509073    3.522631
    139          1           0       -9.795529   -2.283637    3.934123
    140          1           0      -10.251517   -3.039708    2.356900
    141          1           0       -9.511693   -4.018931    3.607333
    142          7           0       -6.262842   -3.738265    1.394305
    143          6           0       -5.451251   -4.715894    0.685389
    144          6           0       -4.046327   -4.859592    1.237510
    145          8           0       -3.637360   -3.960880    1.964120
    146          6           0       -5.443035   -4.352422   -0.797824
    147          1           0       -6.045209   -2.746737    1.383842
    148          1           0       -5.883712   -5.709181    0.829815
    149          1           0       -4.955545   -5.070717   -1.458737
    150          1           0       -6.453678   -4.098438   -1.114830
    151          1           0       -4.807964   -3.484144   -0.957131
    152          7           0       -3.352387   -5.922462    0.832226
    153          6           0       -2.016486   -6.253089    1.282399
    154          6           0       -1.727250   -6.004143    2.752763
    155          8           0       -0.711619   -5.411848    3.097843
    156          6           0       -0.955492   -5.579736    0.408393
    157          6           0       -0.878505   -6.246544   -0.958662
    158          6           0        0.124273   -5.489817   -1.813705
    159          8           0        1.313382   -5.482989   -1.425796
    160          8           0       -0.196684   -4.938137   -2.888478
    161          1           0       -3.828505   -6.604660    0.255322
    162          1           0       -1.897182   -7.331567    1.275174
    163          1           0       -0.009043   -5.760650    0.924246
    164          1           0       -1.098011   -4.502807    0.388074
    165          1           0       -1.864907   -6.203244   -1.440364
    166          1           0       -0.557950   -7.275903   -0.822410
    167          7           0       -2.603539   -6.414167    3.674119
    168          6           0       -2.504770   -6.073281    5.078377
    169          1           0       -2.917742   -5.077308    5.239727
    170          1           0       -3.064235   -6.798259    5.668733
    171          1           0       -1.458323   -6.085604    5.383566
    172          1           0       -3.454771   -6.918721    3.479618
    173         20           0        1.870875   -3.364534   -3.238294
    174          8           0        2.816898   -5.481911   -4.609975
    175          1           0        2.604358   -6.335175   -4.226742
    176          1           0        3.066349   -5.685613   -5.516716
 ---------------------------------------------------------------------
 Rotational constants (GHZ):           0.0199022           0.0079989           0.0067440
 Standard basis: SVP (5D, 7F)
 There are  1809 symmetry adapted cartesian basis functions of A   symmetry.
 There are  1717 symmetry adapted basis functions of A   symmetry.
  1717 basis functions,  2922 primitive gaussians,  1809 cartesian basis functions
   358 alpha electrons      358 beta electrons
       nuclear repulsion energy     18841.9951659455 Hartrees.
 NAtoms=  176 NActive=  176 NUniq=  176 SFac= 1.00D+00 NAtFMM=   60 NAOKFM=T Big=T
 Integral buffers will be    131072 words long.
 Raffenetti 2 integral format.
 Two-electron integral symmetry is turned on.
 One-electron integrals computed using PRISM.
 NBasis=  1717 RedAO= T EigKep=  2.81D-04  NBF=  1717
 NBsUse=  1717 1.00D-06 EigRej= -1.00D+00 NBFU=  1717
 ExpMin= 1.98D-02 ExpMax= 3.51D+04 ExpMxC= 5.28D+03 IAcc=3 IRadAn=         5 AccDes= 0.00D+00
 Harris functional with IExCor=  402 and IRadAn=       5 diagonalized for initial guess.
 HarFok:  IExCor=  402 AccDes= 0.00D+00 IRadAn=         5 IDoV= 1 UseB2=F ITyADJ=14
 ICtDFT=  3500011 ScaDFX=  1.000000  1.000000  1.000000  1.000000
 FoFCou: FMM=F IPFlag=           0 FMFlag=      100000 FMFlg1=        2001
         NFxFlg=           0 DoJE=T BraDBF=F KetDBF=T FulRan=T
         wScrn=  0.000000 ICntrl=       500 IOpCl=  0 I1Cent=   200000004 NGrid=           0
         NMat0=    1 NMatS0=      1 NMatT0=    0 NMatD0=    1 NMtDS0=    0 NMtDT0=    0
 Petite list used in FoFCou.
 Requested convergence on RMS density matrix=1.00D-08 within 128 cycles.
 Requested convergence on MAX density matrix=1.00D-06.
 Requested convergence on             energy=1.00D-06.
 No special actions if energy rises.
 EnCoef did     1 forward-backward iterations
 Restarting incremental Fock formation.
 SCF Done:  E(RB3LYP) =  -5333.45954101     A.U. after   28 cycles
            NFock= 28  Conv=0.15D-08     -V/T= 2.0081
 SCF density gives NOpUse=  1 NOpAll=  1.
 Hyperfine terms turned off by default for NAtoms > 100.

 **********************************************************************

            Population analysis using the SCF density.

 **********************************************************************

 Orbital symmetries:
 BldTbl:  Degeneracy threshold= 1.00D-02
       Occupied  (A) (A) (A) (A) (A) (A) (A) (A) (A) (A) (A) (A)
                 (A) (A) (A) (A) (A) (A) (A) (A) (A) (A) (A) (A)
                 (A) (A) (A) (A) (A) (A) (A) (A) (A) (A) (A) (A)
                 (A) (A) (A) (A) (A) (A) (A) (A) (A) (A) (A) (A)
                 (A) (A) (A) (A) (A) (A) (A) (A) (A) (A) (A) (A)
                 (A) (A) (A) (A) (A) (A) (A) (A) (A) (A) (A) (A)
                 (A) (A) (A) (A) (A) (A) (A) (A) (A) (A) (A) (A)
                 (A) (A) (A) (A) (A) (A) (A) (A) (A) (A) (A) (A)
                 (A) (A) (A) (A) (A) (A) (A) (A) (A) (A) (A) (A)
                 (A) (A) (A) (A) (A) (A) (A) (A) (A) (A) (A) (A)
                 (A) (A) (A) (A) (A) (A) (A) (A) (A) (A) (A) (A)
                 (A) (A) (A) (A) (A) (A) (A) (A) (A) (A) (A) (A)
                 (A) (A) (A) (A) (A) (A) (A) (A) (A) (A) (A) (A)
                 (A) (A) (A) (A) (A) (A) (A) (A) (A) (A) (A) (A)
                 (A) (A) (A) (A) (A) (A) (A) (A) (A) (A) (A) (A)
                 (A) (A) (A) (A) (A) (A) (A) (A) (A) (A) (A) (A)
                 (A) (A) (A) (A) (A) (A) (A) (A) (A) (A) (A) (A)
                 (A) (A) (A) (A) (A) (A) (A) (A) (A) (A) (A) (A)
                 (A) (A) (A) (A) (A) (A) (A) (A) (A) (A) (A) (A)
                 (A) (A) (A) (A) (A) (A) (A) (A) (A) (A) (A) (A)
                 (A) (A) (A) (A) (A) (A) (A) (A) (A) (A) (A) (A)
                 (A) (A) (A) (A) (A) (A) (A) (A) (A) (A) (A) (A)
                 (A) (A) (A) (A) (A) (A) (A) (A) (A) (A) (A) (A)
                 (A) (A) (A) (A) (A) (A) (A) (A) (A) (A) (A) (A)
                 (A) (A) (A) (A) (A) (A) (A) (A) (A) (A) (A) (A)
                 (A) (A) (A) (A) (A) (A) (A) (A) (A) (A) (A) (A)
                 (A) (A) (A) (A) (A) (A) (A) (A) (A) (A) (A) (A)
                 (A) (A) (A) (A) (A) (A) (A) (A) (A) (A) (A) (A)
                 (A) (A) (A) (A) (A) (A) (A) (A) (A) (A) (A) (A)
                 (A) (A) (A) (A) (A) (A) (A) (A) (A) (A)
       Virtual   (A) (A) (A) (A) (A) (A) (A) (A) (A) (A) (A) (A)
                 (A) (A) (A) (A) (A) (A) (A) (A) (A) (A) (A) (A)
                 (A) (A) (A) (A) (A) (A) (A) (A) (A) (A) (A) (A)
                 (A) (A) (A) (A) (A) (A) (A) (A) (A) (A) (A) (A)
                 (A) (A) (A) (A) (A) (A) (A) (A) (A) (A) (A) (A)
                 (A) (A) (A) (A) (A) (A) (A) (A) (A) (A) (A) (A)
                 (A) (A) (A) (A) (A) (A) (A) (A) (A) (A) (A) (A)
                 (A) (A) (A) (A) (A) (A) (A) (A) (A) (A) (A) (A)
                 (A) (A) (A) (A) (A) (A) (A) (A) (A) (A) (A) (A)
                 (A) (A) (A) (A) (A) (A) (A) (A) (A) (A) (A) (A)
                 (A) (A) (A) (A) (A) (A) (A) (A) (A) (A) (A) (A)
                 (A) (A) (A) (A) (A) (A) (A) (A) (A) (A) (A) (A)
                 (A) (A) (A) (A) (A) (A) (A) (A) (A) (A) (A) (A)
                 (A) (A) (A) (A) (A) (A) (A) (A) (A) (A) (A) (A)
                 (A) (A) (A) (A) (A) (A) (A) (A) (A) (A) (A) (A)
                 (A) (A) (A) (A) (A) (A) (A) (A) (A) (A) (A) (A)
                 (A) (A) (A) (A) (A) (A) (A) (A) (A) (A) (A) (A)
                 (A) (A) (A) (A) (A) (A) (A) (A) (A) (A) (A) (A)
                 (A) (A) (A) (A) (A) (A) (A) (A) (A) (A) (A) (A)
                 (A) (A) (A) (A) (A) (A) (A) (A) (A) (A) (A) (A)
                 (A) (A) (A) (A) (A) (A) (A) (A) (A) (A) (A) (A)
                 (A) (A) (A) (A) (A) (A) (A) (A) (A) (A) (A) (A)
                 (A) (A) (A) (A) (A) (A) (A) (A) (A) (A) (A) (A)
                 (A) (A) (A) (A) (A) (A) (A) (A) (A) (A) (A) (A)
                 (A) (A) (A) (A) (A) (A) (A) (A) (A) (A) (A) (A)
                 (A) (A) (A) (A) (A) (A) (A) (A) (A) (A) (A) (A)
                 (A) (A) (A) (A) (A) (A) (A) (A) (A) (A) (A) (A)
                 (A) (A) (A) (A) (A) (A) (A) (A) (A) (A) (A) (A)
                 (A) (A) (A) (A) (A) (A) (A) (A) (A) (A) (A) (A)
                 (A) (A) (A) (A) (A) (A) (A) (A) (A) (A) (A) (A)
                 (A) (A) (A) (A) (A) (A) (A) (A) (A) (A) (A) (A)
                 (A) (A) (A) (A) (A) (A) (A) (A) (A) (A) (A) (A)
                 (A) (A) (A) (A) (A) (A) (A) (A) (A) (A) (A) (A)
                 (A) (A) (A) (A) (A) (A) (A) (A) (A) (A) (A) (A)
                 (A) (A) (A) (A) (A) (A) (A) (A) (A) (A) (A) (A)
                 (A) (A) (A) (A) (A) (A) (A) (A) (A) (A) (A) (A)
                 (A) (A) (A) (A) (A) (A) (A) (A) (A) (A) (A) (A)
                 (A) (A) (A) (A) (A) (A) (A) (A) (A) (A) (A) (A)
                 (A) (A) (A) (A) (A) (A) (A) (A) (A) (A) (A) (A)
                 (A) (A) (A) (A) (A) (A) (A) (A) (A) (A) (A) (A)
                 (A) (A) (A) (A) (A) (A) (A) (A) (A) (A) (A) (A)
                 (A) (A) (A) (A) (A) (A) (A) (A) (A) (A) (A) (A)
                 (A) (A) (A) (A) (A) (A) (A) (A) (A) (A) (A) (A)
                 (A) (A) (A) (A) (A) (A) (A) (A) (A) (A) (A) (A)
                 (A) (A) (A) (A) (A) (A) (A) (A) (A) (A) (A) (A)
                 (A) (A) (A) (A) (A) (A) (A) (A) (A) (A) (A) (A)
                 (A) (A) (A) (A) (A) (A) (A) (A) (A) (A) (A) (A)
                 (A) (A) (A) (A) (A) (A) (A) (A) (A) (A) (A) (A)
                 (A) (A) (A) (A) (A) (A) (A) (A) (A) (A) (A) (A)
                 (A) (A) (A) (A) (A) (A) (A) (A) (A) (A) (A) (A)
                 (A) (A) (A) (A) (A) (A) (A) (A) (A) (A) (A) (A)
                 (A) (A) (A) (A) (A) (A) (A) (A) (A) (A) (A) (A)
                 (A) (A) (A) (A) (A) (A) (A) (A) (A) (A) (A) (A)
                 (A) (A) (A) (A) (A) (A) (A) (A) (A) (A) (A) (A)
                 (A) (A) (A) (A) (A) (A) (A) (A) (A) (A) (A) (A)
                 (A) (A) (A) (A) (A) (A) (A) (A) (A) (A) (A) (A)
                 (A) (A) (A) (A) (A) (A) (A) (A) (A) (A) (A) (A)
                 (A) (A) (A) (A) (A) (A) (A) (A) (A) (A) (A) (A)
                 (A) (A) (A) (A) (A) (A) (A) (A) (A) (A) (A) (A)
                 (A) (A) (A) (A) (A) (A) (A) (A) (A) (A) (A) (A)
                 (A) (A) (A) (A) (A) (A) (A) (A) (A) (A) (A) (A)
                 (A) (A) (A) (A) (A) (A) (A) (A) (A) (A) (A) (A)
                 (A) (A) (A) (A) (A) (A) (A) (A) (A) (A) (A) (A)
                 (A) (A) (A) (A) (A) (A) (A) (A) (A) (A) (A) (A)
                 (A) (A) (A) (A) (A) (A) (A) (A) (A) (A) (A) (A)
                 (A) (A) (A) (A) (A) (A) (A) (A) (A) (A) (A) (A)
                 (A) (A) (A) (A) (A) (A) (A) (A) (A) (A) (A) (A)
                 (A) (A) (A) (A) (A) (A) (A) (A) (A) (A) (A) (A)
                 (A) (A) (A) (A) (A) (A) (A) (A) (A) (A) (A) (A)
                 (A) (A) (A) (A) (A) (A) (A) (A) (A) (A) (A) (A)
                 (A) (A) (A) (A) (A) (A) (A) (A) (A) (A) (A) (A)
                 (A) (A) (A) (A) (A) (A) (A) (A) (A) (A) (A) (A)
                 (A) (A) (A) (A) (A) (A) (A) (A) (A) (A) (A) (A)
                 (A) (A) (A) (A) (A) (A) (A) (A) (A) (A) (A) (A)
                 (A) (A) (A) (A) (A) (A) (A) (A) (A) (A) (A) (A)
                 (A) (A) (A) (A) (A) (A) (A) (A) (A) (A) (A) (A)
                 (A) (A) (A) (A) (A) (A) (A) (A) (A) (A) (A) (A)
                 (A) (A) (A) (A) (A) (A) (A) (A) (A) (A) (A) (A)
                 (A) (A) (A) (A) (A) (A) (A) (A) (A) (A) (A) (A)
                 (A) (A) (A) (A) (A) (A) (A) (A) (A) (A) (A) (A)
                 (A) (A) (A) (A) (A) (A) (A) (A) (A) (A) (A) (A)
                 (A) (A) (A) (A) (A) (A) (A) (A) (A) (A) (A) (A)
                 (A) (A) (A) (A) (A) (A) (A) (A) (A) (A) (A) (A)
                 (A) (A) (A) (A) (A) (A) (A) (A) (A) (A) (A) (A)
                 (A) (A) (A) (A) (A) (A) (A) (A) (A) (A) (A) (A)
                 (A) (A) (A) (A) (A) (A) (A) (A) (A) (A) (A) (A)
                 (A) (A) (A) (A) (A) (A) (A) (A) (A) (A) (A) (A)
                 (A) (A) (A) (A) (A) (A) (A) (A) (A) (A) (A) (A)
                 (A) (A) (A) (A) (A) (A) (A) (A) (A) (A) (A) (A)
                 (A) (A) (A) (A) (A) (A) (A) (A) (A) (A) (A) (A)
                 (A) (A) (A) (A) (A) (A) (A) (A) (A) (A) (A) (A)
                 (A) (A) (A) (A) (A) (A) (A) (A) (A) (A) (A) (A)
                 (A) (A) (A) (A) (A) (A) (A) (A) (A) (A) (A) (A)
                 (A) (A) (A) (A) (A) (A) (A) (A) (A) (A) (A) (A)
                 (A) (A) (A) (A) (A) (A) (A) (A) (A) (A) (A) (A)
                 (A) (A) (A) (A) (A) (A) (A) (A) (A) (A) (A) (A)
                 (A) (A) (A) (A) (A) (A) (A) (A) (A) (A) (A) (A)
                 (A) (A) (A) (A) (A) (A) (A) (A) (A) (A) (A) (A)
                 (A) (A) (A) (A) (A) (A) (A) (A) (A) (A) (A) (A)
                 (A) (A) (A) (A) (A) (A) (A) (A) (A) (A) (A) (A)
                 (A) (A) (A) (A) (A) (A) (A) (A) (A) (A) (A) (A)
                 (A) (A) (A) (A) (A) (A) (A) (A) (A) (A) (A) (A)
                 (A) (A) (A) (A) (A) (A) (A) (A) (A) (A) (A) (A)
                 (A) (A) (A) (A) (A) (A) (A) (A) (A) (A) (A) (A)
                 (A) (A) (A) (A) (A) (A) (A) (A) (A) (A) (A) (A)
                 (A) (A) (A) (A) (A) (A) (A) (A) (A) (A) (A) (A)
                 (A) (A) (A) (A) (A) (A) (A) (A) (A) (A) (A) (A)
                 (A) (A) (A) (A) (A) (A) (A) (A) (A) (A) (A) (A)
                 (A) (A) (A) (A) (A) (A) (A) (A) (A) (A) (A) (A)
                 (A) (A) (A) (A) (A) (A) (A) (A) (A) (A) (A) (A)
                 (A) (A) (A) (A) (A) (A) (A) (A) (A) (A) (A) (A)
                 (A) (A) (A) (A) (A) (A) (A) (A) (A) (A) (A) (A)
                 (A) (A) (A) (A) (A) (A) (A) (A) (A) (A) (A) (A)
                 (A) (A) (A)
 The electronic state is 1-A.
 Alpha  occ. eigenvalues -- -145.37647 -19.16180 -19.15496 -19.14278 -19.13852
 Alpha  occ. eigenvalues --  -19.12436 -19.12270 -19.10085 -19.09266 -19.09218
 Alpha  occ. eigenvalues --  -19.09155 -19.09067 -19.07935 -19.07803 -19.07303
 Alpha  occ. eigenvalues --  -19.06299 -19.05186 -19.05124 -19.03664 -19.03047
 Alpha  occ. eigenvalues --  -19.02088 -19.00641 -18.95799 -18.95663 -15.43472
 Alpha  occ. eigenvalues --  -14.58259 -14.39921 -14.39017 -14.38039 -14.35958
 Alpha  occ. eigenvalues --  -14.35520 -14.34973 -14.34842 -14.34159 -14.34098
 Alpha  occ. eigenvalues --  -14.33460 -14.33076 -14.32892 -14.31823 -14.30678
 Alpha  occ. eigenvalues --  -12.57082 -12.57052 -12.57003 -10.35242 -10.32296
 Alpha  occ. eigenvalues --  -10.31170 -10.30973 -10.29013 -10.27996 -10.27902
 Alpha  occ. eigenvalues --  -10.27821 -10.27552 -10.27371 -10.27319 -10.27017
 Alpha  occ. eigenvalues --  -10.26601 -10.26467 -10.26353 -10.25271 -10.25136
 Alpha  occ. eigenvalues --  -10.24948 -10.24907 -10.24783 -10.24359 -10.24299
 Alpha  occ. eigenvalues --  -10.24169 -10.23380 -10.23142 -10.22864 -10.22766
 Alpha  occ. eigenvalues --  -10.21238 -10.20923 -10.20829 -10.20538 -10.20146
 Alpha  occ. eigenvalues --  -10.20103 -10.19929 -10.19856 -10.19840 -10.19128
 Alpha  occ. eigenvalues --  -10.18914 -10.18684 -10.18639 -10.18622 -10.18496
 Alpha  occ. eigenvalues --  -10.18137 -10.17936 -10.16734 -10.16449 -10.16357
 Alpha  occ. eigenvalues --  -10.15646 -10.15259 -10.14975 -10.14864 -10.12910
 Alpha  occ. eigenvalues --  -10.12758 -10.11434  -1.80200  -1.13776  -1.07770
 Alpha  occ. eigenvalues --   -1.07625  -1.07305  -1.06747  -1.05909  -1.04812
 Alpha  occ. eigenvalues --   -1.03937  -1.03879  -1.03048  -1.02296  -1.02262
 Alpha  occ. eigenvalues --   -1.01967  -1.01932  -1.01495  -1.01349  -1.00412
 Alpha  occ. eigenvalues --   -0.99964  -0.99829  -0.98462  -0.98448  -0.98007
 Alpha  occ. eigenvalues --   -0.97001  -0.96292  -0.94874  -0.94666  -0.92492
 Alpha  occ. eigenvalues --   -0.92227  -0.92064  -0.91696  -0.90877  -0.90319
 Alpha  occ. eigenvalues --   -0.90283  -0.90109  -0.89891  -0.89224  -0.88743
 Alpha  occ. eigenvalues --   -0.87766  -0.87591  -0.87267  -0.85711  -0.84587
 Alpha  occ. eigenvalues --   -0.82280  -0.81867  -0.80953  -0.80850  -0.79775
 Alpha  occ. eigenvalues --   -0.77521  -0.77391  -0.76490  -0.76196  -0.76136
 Alpha  occ. eigenvalues --   -0.74907  -0.74256  -0.73838  -0.73762  -0.73498
 Alpha  occ. eigenvalues --   -0.73450  -0.72572  -0.72455  -0.71697  -0.70744
 Alpha  occ. eigenvalues --   -0.69546  -0.69405  -0.69389  -0.69128  -0.66656
 Alpha  occ. eigenvalues --   -0.65661  -0.64985  -0.64700  -0.64416  -0.63433
 Alpha  occ. eigenvalues --   -0.63349  -0.62622  -0.62410  -0.61875  -0.61466
 Alpha  occ. eigenvalues --   -0.61268  -0.61139  -0.61022  -0.60720  -0.59955
 Alpha  occ. eigenvalues --   -0.59223  -0.58912  -0.58813  -0.58342  -0.58166
 Alpha  occ. eigenvalues --   -0.57506  -0.57099  -0.57093  -0.56626  -0.56347
 Alpha  occ. eigenvalues --   -0.55931  -0.55583  -0.55110  -0.55088  -0.54736
 Alpha  occ. eigenvalues --   -0.54400  -0.54375  -0.54294  -0.54173  -0.53960
 Alpha  occ. eigenvalues --   -0.53351  -0.53178  -0.52527  -0.52344  -0.52166
 Alpha  occ. eigenvalues --   -0.51882  -0.51767  -0.50947  -0.50667  -0.50314
 Alpha  occ. eigenvalues --   -0.49388  -0.49195  -0.49171  -0.48775  -0.48568
 Alpha  occ. eigenvalues --   -0.48168  -0.47838  -0.47741  -0.47665  -0.46945
 Alpha  occ. eigenvalues --   -0.46676  -0.46598  -0.46317  -0.46292  -0.46062
 Alpha  occ. eigenvalues --   -0.45836  -0.45436  -0.45196  -0.45032  -0.44985
 Alpha  occ. eigenvalues --   -0.44867  -0.44752  -0.44689  -0.44479  -0.43979
 Alpha  occ. eigenvalues --   -0.43816  -0.43787  -0.43578  -0.43464  -0.43092
 Alpha  occ. eigenvalues --   -0.43060  -0.42867  -0.42803  -0.42694  -0.42610
 Alpha  occ. eigenvalues --   -0.42478  -0.42379  -0.42195  -0.42077  -0.41838
 Alpha  occ. eigenvalues --   -0.41811  -0.41352  -0.41012  -0.40919  -0.40846
 Alpha  occ. eigenvalues --   -0.40708  -0.40671  -0.40538  -0.40479  -0.40294
 Alpha  occ. eigenvalues --   -0.40219  -0.39986  -0.39801  -0.39583  -0.39553
 Alpha  occ. eigenvalues --   -0.39238  -0.39174  -0.38954  -0.38881  -0.38746
 Alpha  occ. eigenvalues --   -0.38661  -0.38579  -0.38447  -0.38304  -0.38017
 Alpha  occ. eigenvalues --   -0.37947  -0.37815  -0.37680  -0.37633  -0.37567
 Alpha  occ. eigenvalues --   -0.37253  -0.37107  -0.36821  -0.36771  -0.36422
 Alpha  occ. eigenvalues --   -0.36218  -0.36123  -0.36116  -0.35849  -0.35783
 Alpha  occ. eigenvalues --   -0.35613  -0.35200  -0.35095  -0.34963  -0.34560
 Alpha  occ. eigenvalues --   -0.34416  -0.34380  -0.34133  -0.33801  -0.33652
 Alpha  occ. eigenvalues --   -0.33416  -0.33377  -0.33156  -0.33082  -0.33077
 Alpha  occ. eigenvalues --   -0.32674  -0.32427  -0.32305  -0.32120  -0.31806
 Alpha  occ. eigenvalues --   -0.31723  -0.31477  -0.31416  -0.31121  -0.30909
 Alpha  occ. eigenvalues --   -0.30341  -0.29931  -0.29463  -0.29402  -0.28692
 Alpha  occ. eigenvalues --   -0.28480  -0.28088  -0.27718  -0.27619  -0.27557
 Alpha  occ. eigenvalues --   -0.27396  -0.26680  -0.26339  -0.26162  -0.26063
 Alpha  occ. eigenvalues --   -0.25972  -0.25654  -0.25126  -0.25087  -0.24757
 Alpha  occ. eigenvalues --   -0.24683  -0.24052  -0.23919  -0.23813  -0.23609
 Alpha  occ. eigenvalues --   -0.23531  -0.23318  -0.22659  -0.22139  -0.22026
 Alpha  occ. eigenvalues --   -0.21894  -0.21466  -0.21371  -0.21001  -0.20840
 Alpha  occ. eigenvalues --   -0.20711  -0.20087  -0.18872  -0.18709  -0.16787
 Alpha  occ. eigenvalues --   -0.13680  -0.13380  -0.11384
 Alpha virt. eigenvalues --   -0.09979  -0.04606  -0.03822  -0.02078  -0.01915
 Alpha virt. eigenvalues --   -0.01912  -0.01291  -0.00984  -0.00579  -0.00415
 Alpha virt. eigenvalues --    0.00433   0.01066   0.01376   0.01974   0.02010
 Alpha virt. eigenvalues --    0.02225   0.02383   0.02578   0.02798   0.03288
 Alpha virt. eigenvalues --    0.03525   0.03578   0.04013   0.04151   0.04443
 Alpha virt. eigenvalues --    0.04504   0.04738   0.04914   0.05027   0.05251
 Alpha virt. eigenvalues --    0.05526   0.05640   0.05694   0.06210   0.06239
 Alpha virt. eigenvalues --    0.06683   0.07223   0.07254   0.07864   0.07940
 Alpha virt. eigenvalues --    0.08015   0.08521   0.08715   0.08845   0.08971
 Alpha virt. eigenvalues --    0.09130   0.09265   0.09820   0.09862   0.10015
 Alpha virt. eigenvalues --    0.10220   0.10404   0.10687   0.10828   0.10991
 Alpha virt. eigenvalues --    0.11078   0.11262   0.11414   0.11713   0.11962
 Alpha virt. eigenvalues --    0.12075   0.12204   0.12399   0.12699   0.12867
 Alpha virt. eigenvalues --    0.13132   0.13279   0.13447   0.13487   0.13556
 Alpha virt. eigenvalues --    0.13789   0.13897   0.14209   0.14508   0.14586
 Alpha virt. eigenvalues --    0.14650   0.14933   0.15144   0.15249   0.15470
 Alpha virt. eigenvalues --    0.15548   0.15819   0.15980   0.16003   0.16112
 Alpha virt. eigenvalues --    0.16284   0.16398   0.16506   0.16580   0.16706
 Alpha virt. eigenvalues --    0.17018   0.17043   0.17159   0.17404   0.17477
 Alpha virt. eigenvalues --    0.17661   0.17692   0.17857   0.18071   0.18287
 Alpha virt. eigenvalues --    0.18480   0.18572   0.18858   0.18891   0.19250
 Alpha virt. eigenvalues --    0.19300   0.19615   0.19842   0.20042   0.20156
 Alpha virt. eigenvalues --    0.20420   0.20678   0.20776   0.20832   0.20967
 Alpha virt. eigenvalues --    0.21139   0.21316   0.21465   0.21531   0.21772
 Alpha virt. eigenvalues --    0.21960   0.22099   0.22242   0.22535   0.22933
 Alpha virt. eigenvalues --    0.23316   0.23569   0.23814   0.23850   0.24147
 Alpha virt. eigenvalues --    0.24329   0.24648   0.24919   0.24978   0.25284
 Alpha virt. eigenvalues --    0.25322   0.25514   0.25842   0.25878   0.26067
 Alpha virt. eigenvalues --    0.26184   0.26825   0.27247   0.27327   0.27631
 Alpha virt. eigenvalues --    0.27821   0.28258   0.28385   0.28598   0.28798
 Alpha virt. eigenvalues --    0.29001   0.29144   0.29238   0.29430   0.29857
 Alpha virt. eigenvalues --    0.30173   0.30254   0.30469   0.30721   0.30876
 Alpha virt. eigenvalues --    0.30909   0.31074   0.31148   0.31182   0.31672
 Alpha virt. eigenvalues --    0.31876   0.32152   0.32681   0.33310   0.33385
 Alpha virt. eigenvalues --    0.33747   0.34080   0.34499   0.34809   0.34984
 Alpha virt. eigenvalues --    0.35199   0.35670   0.35820   0.36052   0.36109
 Alpha virt. eigenvalues --    0.36612   0.36833   0.37259   0.37534   0.37662
 Alpha virt. eigenvalues --    0.38431   0.38786   0.38826   0.39226   0.39417
 Alpha virt. eigenvalues --    0.39547   0.39963   0.40203   0.40558   0.40721
 Alpha virt. eigenvalues --    0.40938   0.41227   0.41508   0.41673   0.41874
 Alpha virt. eigenvalues --    0.41943   0.42094   0.42244   0.42618   0.42710
 Alpha virt. eigenvalues --    0.42957   0.43218   0.43270   0.43480   0.43737
 Alpha virt. eigenvalues --    0.43830   0.43897   0.44305   0.45161   0.45197
 Alpha virt. eigenvalues --    0.45363   0.45607   0.45701   0.45885   0.46104
 Alpha virt. eigenvalues --    0.46283   0.46475   0.46556   0.46702   0.46891
 Alpha virt. eigenvalues --    0.47084   0.47130   0.47248   0.47322   0.47388
 Alpha virt. eigenvalues --    0.47666   0.47926   0.48001   0.48510   0.48633
 Alpha virt. eigenvalues --    0.48754   0.48861   0.49016   0.49569   0.49629
 Alpha virt. eigenvalues --    0.49829   0.49882   0.50115   0.50236   0.50335
 Alpha virt. eigenvalues --    0.50437   0.50623   0.50858   0.51044   0.51217
 Alpha virt. eigenvalues --    0.51525   0.51806   0.51857   0.52034   0.52260
 Alpha virt. eigenvalues --    0.52475   0.52604   0.52649   0.52839   0.53146
 Alpha virt. eigenvalues --    0.53233   0.53856   0.53960   0.54110   0.54281
 Alpha virt. eigenvalues --    0.54749   0.55022   0.55264   0.55396   0.55559
 Alpha virt. eigenvalues --    0.55797   0.55910   0.56060   0.56372   0.56446
 Alpha virt. eigenvalues --    0.56892   0.57082   0.57246   0.57429   0.57558
 Alpha virt. eigenvalues --    0.57775   0.57942   0.58135   0.58385   0.58653
 Alpha virt. eigenvalues --    0.58780   0.59150   0.59283   0.59473   0.59669
 Alpha virt. eigenvalues --    0.59824   0.59994   0.60166   0.60384   0.60489
 Alpha virt. eigenvalues --    0.60544   0.60718   0.60799   0.61018   0.61094
 Alpha virt. eigenvalues --    0.61370   0.61427   0.61611   0.61696   0.61908
 Alpha virt. eigenvalues --    0.62055   0.62129   0.62229   0.62283   0.62435
 Alpha virt. eigenvalues --    0.62529   0.62717   0.62816   0.62904   0.62932
 Alpha virt. eigenvalues --    0.63087   0.63171   0.63363   0.63444   0.63547
 Alpha virt. eigenvalues --    0.63612   0.63765   0.63980   0.64238   0.64273
 Alpha virt. eigenvalues --    0.64343   0.64513   0.64712   0.64810   0.64932
 Alpha virt. eigenvalues --    0.64999   0.65155   0.65203   0.65362   0.65438
 Alpha virt. eigenvalues --    0.65578   0.65691   0.65911   0.65986   0.66054
 Alpha virt. eigenvalues --    0.66203   0.66219   0.66321   0.66476   0.66588
 Alpha virt. eigenvalues --    0.66632   0.66675   0.66890   0.66939   0.67027
 Alpha virt. eigenvalues --    0.67170   0.67239   0.67323   0.67496   0.67582
 Alpha virt. eigenvalues --    0.67681   0.67819   0.67904   0.67950   0.68270
 Alpha virt. eigenvalues --    0.68338   0.68446   0.68529   0.68638   0.68735
 Alpha virt. eigenvalues --    0.68782   0.68902   0.69002   0.69215   0.69303
 Alpha virt. eigenvalues --    0.69470   0.69605   0.69723   0.69871   0.69943
 Alpha virt. eigenvalues --    0.70025   0.70103   0.70209   0.70321   0.70387
 Alpha virt. eigenvalues --    0.70472   0.70616   0.70854   0.71052   0.71105
 Alpha virt. eigenvalues --    0.71235   0.71282   0.71386   0.71598   0.71654
 Alpha virt. eigenvalues --    0.71833   0.71858   0.72097   0.72318   0.72380
 Alpha virt. eigenvalues --    0.72531   0.72650   0.72717   0.72921   0.72984
 Alpha virt. eigenvalues --    0.73125   0.73350   0.73438   0.73570   0.73962
 Alpha virt. eigenvalues --    0.74088   0.74178   0.74192   0.74253   0.74602
 Alpha virt. eigenvalues --    0.74646   0.74904   0.75060   0.75237   0.75621
 Alpha virt. eigenvalues --    0.75671   0.75760   0.75862   0.76190   0.76294
 Alpha virt. eigenvalues --    0.76559   0.76753   0.76931   0.77340   0.77455
 Alpha virt. eigenvalues --    0.77647   0.77976   0.78217   0.78576   0.78905
 Alpha virt. eigenvalues --    0.78988   0.79133   0.79390   0.80005   0.80256
 Alpha virt. eigenvalues --    0.80323   0.80508   0.80797   0.81065   0.81247
 Alpha virt. eigenvalues --    0.81546   0.81762   0.82024   0.82267   0.82443
 Alpha virt. eigenvalues --    0.82569   0.82890   0.83182   0.83492   0.83654
 Alpha virt. eigenvalues --    0.84070   0.84308   0.84669   0.84887   0.85051
 Alpha virt. eigenvalues --    0.85661   0.85850   0.86147   0.86332   0.86813
 Alpha virt. eigenvalues --    0.87287   0.87499   0.87831   0.88076   0.88249
 Alpha virt. eigenvalues --    0.88453   0.89056   0.89410   0.89658   0.89925
 Alpha virt. eigenvalues --    0.90217   0.90641   0.90922   0.91157   0.91841
 Alpha virt. eigenvalues --    0.91995   0.92348   0.92522   0.92571   0.93095
 Alpha virt. eigenvalues --    0.93271   0.93427   0.93909   0.94188   0.94602
 Alpha virt. eigenvalues --    0.94920   0.95364   0.95595   0.95962   0.96068
 Alpha virt. eigenvalues --    0.96396   0.96522   0.96933   0.97245   0.97453
 Alpha virt. eigenvalues --    0.97616   0.97933   0.98089   0.98395   0.98662
 Alpha virt. eigenvalues --    0.98898   0.99359   0.99490   0.99963   1.00039
 Alpha virt. eigenvalues --    1.00486   1.00687   1.00877   1.01081   1.01591
 Alpha virt. eigenvalues --    1.01745   1.02354   1.02475   1.02615   1.02763
 Alpha virt. eigenvalues --    1.03211   1.03775   1.03898   1.04086   1.04597
 Alpha virt. eigenvalues --    1.04796   1.05031   1.05504   1.05627   1.05895
 Alpha virt. eigenvalues --    1.06239   1.06345   1.06604   1.06765   1.07044
 Alpha virt. eigenvalues --    1.07247   1.07289   1.07806   1.08038   1.08353
 Alpha virt. eigenvalues --    1.08489   1.08594   1.08984   1.09216   1.09366
 Alpha virt. eigenvalues --    1.09750   1.09978   1.10127   1.10742   1.11007
 Alpha virt. eigenvalues --    1.11230   1.11511   1.11861   1.12139   1.12439
 Alpha virt. eigenvalues --    1.12577   1.13076   1.13325   1.13630   1.13835
 Alpha virt. eigenvalues --    1.14033   1.14271   1.14960   1.15208   1.15425
 Alpha virt. eigenvalues --    1.15723   1.15786   1.15803   1.16060   1.16558
 Alpha virt. eigenvalues --    1.17070   1.17228   1.17676   1.17769   1.18069
 Alpha virt. eigenvalues --    1.18532   1.18615   1.18725   1.18866   1.19267
 Alpha virt. eigenvalues --    1.19481   1.19616   1.19818   1.19950   1.20199
 Alpha virt. eigenvalues --    1.20440   1.20723   1.21035   1.21201   1.21664
 Alpha virt. eigenvalues --    1.21711   1.22184   1.22370   1.22680   1.22732
 Alpha virt. eigenvalues --    1.22884   1.23414   1.23456   1.23881   1.24164
 Alpha virt. eigenvalues --    1.24357   1.24402   1.24886   1.25069   1.25240
 Alpha virt. eigenvalues --    1.25400   1.25664   1.25982   1.26079   1.26180
 Alpha virt. eigenvalues --    1.26408   1.26750   1.27167   1.27798   1.27941
 Alpha virt. eigenvalues --    1.28174   1.28257   1.28767   1.28900   1.29107
 Alpha virt. eigenvalues --    1.29430   1.29908   1.30225   1.30333   1.30608
 Alpha virt. eigenvalues --    1.31243   1.31589   1.31863   1.32234   1.32423
 Alpha virt. eigenvalues --    1.32529   1.32737   1.33006   1.33089   1.33212
 Alpha virt. eigenvalues --    1.33608   1.33830   1.34218   1.34555   1.34805
 Alpha virt. eigenvalues --    1.34817   1.34954   1.35197   1.35676   1.36291
 Alpha virt. eigenvalues --    1.36336   1.36671   1.36956   1.37489   1.37720
 Alpha virt. eigenvalues --    1.38041   1.38339   1.38531   1.39305   1.39658
 Alpha virt. eigenvalues --    1.39805   1.40022   1.40277   1.40413   1.40502
 Alpha virt. eigenvalues --    1.40699   1.41076   1.41158   1.41362   1.41596
 Alpha virt. eigenvalues --    1.42034   1.42392   1.42528   1.42701   1.42949
 Alpha virt. eigenvalues --    1.43438   1.43684   1.44363   1.44515   1.45130
 Alpha virt. eigenvalues --    1.45230   1.45393   1.45661   1.45946   1.46344
 Alpha virt. eigenvalues --    1.46382   1.46523   1.46931   1.47248   1.47425
 Alpha virt. eigenvalues --    1.47557   1.47974   1.48308   1.49475   1.50060
 Alpha virt. eigenvalues --    1.50134   1.50153   1.50603   1.50951   1.51329
 Alpha virt. eigenvalues --    1.51768   1.52107   1.52542   1.52970   1.53138
 Alpha virt. eigenvalues --    1.53622   1.53786   1.54233   1.54365   1.54796
 Alpha virt. eigenvalues --    1.55748   1.55979   1.56042   1.56110   1.56602
 Alpha virt. eigenvalues --    1.56882   1.56984   1.57323   1.57558   1.57946
 Alpha virt. eigenvalues --    1.57995   1.58548   1.58760   1.58867   1.59234
 Alpha virt. eigenvalues --    1.60013   1.60262   1.60684   1.60870   1.61507
 Alpha virt. eigenvalues --    1.62127   1.62595   1.62932   1.63184   1.63418
 Alpha virt. eigenvalues --    1.63736   1.64230   1.64453   1.64563   1.64774
 Alpha virt. eigenvalues --    1.65276   1.65684   1.65904   1.66158   1.66484
 Alpha virt. eigenvalues --    1.66660   1.66757   1.67157   1.67616   1.67747
 Alpha virt. eigenvalues --    1.68078   1.69208   1.69657   1.69816   1.69945
 Alpha virt. eigenvalues --    1.70305   1.70385   1.70421   1.70535   1.70691
 Alpha virt. eigenvalues --    1.71141   1.71289   1.71427   1.71707   1.72055
 Alpha virt. eigenvalues --    1.72205   1.72538   1.72595   1.73094   1.73305
 Alpha virt. eigenvalues --    1.73564   1.73687   1.73871   1.74201   1.74391
 Alpha virt. eigenvalues --    1.74681   1.74990   1.75046   1.75256   1.75353
 Alpha virt. eigenvalues --    1.75542   1.76032   1.76258   1.76514   1.76713
 Alpha virt. eigenvalues --    1.76744   1.76851   1.76987   1.77120   1.77145
 Alpha virt. eigenvalues --    1.77506   1.77531   1.77790   1.77897   1.78059
 Alpha virt. eigenvalues --    1.78403   1.78473   1.78711   1.78957   1.79055
 Alpha virt. eigenvalues --    1.79123   1.79529   1.79646   1.79940   1.79969
 Alpha virt. eigenvalues --    1.80021   1.80365   1.80703   1.80740   1.80923
 Alpha virt. eigenvalues --    1.80963   1.81200   1.81237   1.81462   1.81682
 Alpha virt. eigenvalues --    1.81811   1.81939   1.82071   1.82199   1.82347
 Alpha virt. eigenvalues --    1.82494   1.82676   1.82867   1.83114   1.83554
 Alpha virt. eigenvalues --    1.83610   1.83690   1.84073   1.84328   1.84566
 Alpha virt. eigenvalues --    1.84695   1.84739   1.84835   1.85042   1.85181
 Alpha virt. eigenvalues --    1.85241   1.85374   1.85648   1.85687   1.85755
 Alpha virt. eigenvalues --    1.85951   1.86098   1.86169   1.86360   1.86658
 Alpha virt. eigenvalues --    1.86886   1.87033   1.87038   1.87386   1.87554
 Alpha virt. eigenvalues --    1.87917   1.87997   1.88093   1.88211   1.88325
 Alpha virt. eigenvalues --    1.88509   1.88701   1.89081   1.89238   1.89567
 Alpha virt. eigenvalues --    1.89741   1.90059   1.90344   1.90373   1.90474
 Alpha virt. eigenvalues --    1.90789   1.90918   1.91442   1.91602   1.91795
 Alpha virt. eigenvalues --    1.91947   1.92151   1.92253   1.92456   1.92524
 Alpha virt. eigenvalues --    1.92757   1.92988   1.93044   1.93178   1.93285
 Alpha virt. eigenvalues --    1.93422   1.93564   1.93613   1.93723   1.93994
 Alpha virt. eigenvalues --    1.94546   1.94637   1.94813   1.95112   1.95290
 Alpha virt. eigenvalues --    1.95589   1.95634   1.95857   1.96018   1.96587
 Alpha virt. eigenvalues --    1.96939   1.96975   1.97391   1.97563   1.97842
 Alpha virt. eigenvalues --    1.98105   1.98214   1.98468   1.98544   1.98911
 Alpha virt. eigenvalues --    1.99107   1.99216   1.99458   1.99633   2.00171
 Alpha virt. eigenvalues --    2.00320   2.00410   2.00440   2.00512   2.00848
 Alpha virt. eigenvalues --    2.00884   2.00975   2.01085   2.01596   2.01702
 Alpha virt. eigenvalues --    2.02137   2.02340   2.02459   2.03015   2.03122
 Alpha virt. eigenvalues --    2.03656   2.03985   2.04330   2.04688   2.04791
 Alpha virt. eigenvalues --    2.05049   2.05243   2.05349   2.05531   2.05994
 Alpha virt. eigenvalues --    2.06836   2.06997   2.07651   2.07835   2.08012
 Alpha virt. eigenvalues --    2.08112   2.08145   2.08351   2.08580   2.09355
 Alpha virt. eigenvalues --    2.09852   2.10043   2.10112   2.10194   2.10516
 Alpha virt. eigenvalues --    2.10710   2.11228   2.11383   2.11557   2.11684
 Alpha virt. eigenvalues --    2.11826   2.12336   2.12618   2.12763   2.13005
 Alpha virt. eigenvalues --    2.13393   2.13717   2.13929   2.14272   2.14335
 Alpha virt. eigenvalues --    2.14417   2.14536   2.14637   2.15369   2.15688
 Alpha virt. eigenvalues --    2.16200   2.16380   2.16903   2.17012   2.17136
 Alpha virt. eigenvalues --    2.17671   2.18471   2.18812   2.18942   2.19153
 Alpha virt. eigenvalues --    2.19280   2.19666   2.19855   2.19973   2.20339
 Alpha virt. eigenvalues --    2.20755   2.20880   2.21073   2.21602   2.21725
 Alpha virt. eigenvalues --    2.21865   2.22044   2.22514   2.22557   2.22650
 Alpha virt. eigenvalues --    2.22987   2.24046   2.24096   2.24314   2.24685
 Alpha virt. eigenvalues --    2.24982   2.25462   2.25783   2.25926   2.26438
 Alpha virt. eigenvalues --    2.26730   2.27262   2.27906   2.27964   2.28256
 Alpha virt. eigenvalues --    2.28529   2.28852   2.30036   2.30157   2.30741
 Alpha virt. eigenvalues --    2.30907   2.31349   2.31354   2.31643   2.31914
 Alpha virt. eigenvalues --    2.32162   2.32300   2.32640   2.32989   2.33285
 Alpha virt. eigenvalues --    2.33415   2.33827   2.33994   2.34313   2.34523
 Alpha virt. eigenvalues --    2.34920   2.35307   2.35451   2.35962   2.36293
 Alpha virt. eigenvalues --    2.36726   2.36837   2.37276   2.37629   2.37822
 Alpha virt. eigenvalues --    2.38244   2.38504   2.39018   2.39358   2.39463
 Alpha virt. eigenvalues --    2.39800   2.40052   2.40170   2.40566   2.40775
 Alpha virt. eigenvalues --    2.40907   2.42010   2.42116   2.42265   2.42909
 Alpha virt. eigenvalues --    2.43063   2.43245   2.43739   2.44370   2.44478
 Alpha virt. eigenvalues --    2.45093   2.45355   2.45810   2.46408   2.46410
 Alpha virt. eigenvalues --    2.46869   2.47932   2.48337   2.48529   2.48672
 Alpha virt. eigenvalues --    2.49269   2.49586   2.49759   2.50436   2.50607
 Alpha virt. eigenvalues --    2.50835   2.50856   2.51579   2.51871   2.52397
 Alpha virt. eigenvalues --    2.53028   2.53072   2.53228   2.53615   2.53932
 Alpha virt. eigenvalues --    2.54469   2.54586   2.54965   2.55260   2.55676
 Alpha virt. eigenvalues --    2.55798   2.56429   2.56539   2.56920   2.57147
 Alpha virt. eigenvalues --    2.57190   2.57397   2.57954   2.58422   2.58488
 Alpha virt. eigenvalues --    2.58794   2.59237   2.60235   2.60449   2.60637
 Alpha virt. eigenvalues --    2.60959   2.61113   2.61372   2.61700   2.61874
 Alpha virt. eigenvalues --    2.61911   2.62180   2.62350   2.62567   2.63407
 Alpha virt. eigenvalues --    2.63947   2.64167   2.64425   2.64493   2.64945
 Alpha virt. eigenvalues --    2.65362   2.65420   2.66266   2.66385   2.66454
 Alpha virt. eigenvalues --    2.66918   2.67297   2.67827   2.67960   2.68194
 Alpha virt. eigenvalues --    2.68313   2.68618   2.68781   2.68867   2.69400
 Alpha virt. eigenvalues --    2.69565   2.69849   2.70092   2.70291   2.70505
 Alpha virt. eigenvalues --    2.71902   2.71973   2.72519   2.72609   2.73043
 Alpha virt. eigenvalues --    2.73094   2.73187   2.73298   2.73414   2.73492
 Alpha virt. eigenvalues --    2.73791   2.74218   2.74343   2.74604   2.74621
 Alpha virt. eigenvalues --    2.75373   2.75952   2.76349   2.76497   2.76581
 Alpha virt. eigenvalues --    2.76737   2.77152   2.77223   2.77695   2.77799
 Alpha virt. eigenvalues --    2.78510   2.78577   2.78801   2.78953   2.79296
 Alpha virt. eigenvalues --    2.79755   2.79850   2.79939   2.80192   2.80414
 Alpha virt. eigenvalues --    2.80895   2.81103   2.81164   2.81359   2.81680
 Alpha virt. eigenvalues --    2.82158   2.82494   2.82773   2.82793   2.83186
 Alpha virt. eigenvalues --    2.83658   2.83756   2.83860   2.84070   2.84237
 Alpha virt. eigenvalues --    2.84324   2.84531   2.84929   2.85138   2.85449
 Alpha virt. eigenvalues --    2.85558   2.85918   2.86676   2.86837   2.87660
 Alpha virt. eigenvalues --    2.87835   2.88283   2.88553   2.88961   2.89170
 Alpha virt. eigenvalues --    2.89224   2.89942   2.90059   2.90297   2.90364
 Alpha virt. eigenvalues --    2.90955   2.91293   2.91473   2.91581   2.91982
 Alpha virt. eigenvalues --    2.92528   2.92613   2.92697   2.92890   2.92977
 Alpha virt. eigenvalues --    2.93067   2.93351   2.94109   2.94268   2.94298
 Alpha virt. eigenvalues --    2.94695   2.95352   2.95754   2.96249   2.96451
 Alpha virt. eigenvalues --    2.96631   2.96671   2.96760   2.97180   2.98088
 Alpha virt. eigenvalues --    2.98108   2.98294   2.98322   2.98751   2.98894
 Alpha virt. eigenvalues --    2.99975   3.00259   3.00694   3.00844   3.00890
 Alpha virt. eigenvalues --    3.00902   3.01594   3.01690   3.02604   3.03228
 Alpha virt. eigenvalues --    3.03765   3.03822   3.03946   3.04602   3.04800
 Alpha virt. eigenvalues --    3.05107   3.05208   3.05786   3.05864   3.06820
 Alpha virt. eigenvalues --    3.06975   3.07809   3.08956   3.09536   3.09791
 Alpha virt. eigenvalues --    3.10178   3.11252   3.11428   3.11517   3.11592
 Alpha virt. eigenvalues --    3.12106   3.13179   3.13648   3.13797   3.14102
 Alpha virt. eigenvalues --    3.14389   3.15269   3.15338   3.15607   3.15989
 Alpha virt. eigenvalues --    3.16052   3.16315   3.16505   3.16807   3.16902
 Alpha virt. eigenvalues --    3.16977   3.17236   3.17279   3.18028   3.18728
 Alpha virt. eigenvalues --    3.18877   3.18963   3.19285   3.20065   3.20612
 Alpha virt. eigenvalues --    3.20783   3.21321   3.21463   3.21699   3.21811
 Alpha virt. eigenvalues --    3.21999   3.22300   3.22658   3.22937   3.23678
 Alpha virt. eigenvalues --    3.23930   3.24638   3.25925   3.26589   3.27752
 Alpha virt. eigenvalues --    3.27858   3.28176   3.29053   3.29526   3.30186
 Alpha virt. eigenvalues --    3.30268   3.30384   3.30693   3.31763   3.33505
 Alpha virt. eigenvalues --    3.33793   3.34658   3.37536   3.38170   3.40209
 Alpha virt. eigenvalues --    3.41145   3.42538   3.47511   3.50827   3.51328
 Alpha virt. eigenvalues --    3.51542   3.52152   3.52531   3.53029   3.53896
 Alpha virt. eigenvalues --    3.54201   3.55134   3.57071   3.57553   3.58135
 Alpha virt. eigenvalues --    3.59969   3.60282   3.60298   3.60545   3.62256
 Alpha virt. eigenvalues --    3.64793   3.65574   3.65938   3.67286   3.67625
 Alpha virt. eigenvalues --    3.69335   3.69995   3.70071   3.70270   3.70291
 Alpha virt. eigenvalues --    3.71019   3.71083   3.71877   3.72327   3.72983
 Alpha virt. eigenvalues --    3.73068   3.73643   3.75099   3.76214   3.76440
 Alpha virt. eigenvalues --    3.77731   3.79765   3.80456   3.82833
          Condensed to atoms (all electrons):
 Mulliken charges:
               1
     1  C    0.066765
     2  C   -0.008146
     3  O   -0.324107
     4  H    0.050277
     5  H   -0.003035
     6  H    0.000680
     7  N   -0.086796
     8  C    0.076055
     9  C    0.074635
    10  O   -0.296260
    11  C    0.159458
    12  C   -0.033732
    13  O   -0.402220
    14  O   -0.385725
    15  H    0.118999
    16  H   -0.024399
    17  H   -0.008101
    18  H   -0.031697
    19  N   -0.106204
    20  C    0.096153
    21  C    0.092639
    22  O   -0.310393
    23  C    0.007301
    24  C    0.006071
    25  C   -0.040960
    26  C    0.021425
    27  N    0.087124
    28  H    0.136565
    29  H    0.002977
    30  H    0.017636
    31  H    0.028234
    32  H    0.009054
    33  H   -0.006035
    34  H    0.054963
    35  H    0.031549
    36  H    0.074133
    37  H    0.070444
    38  H    0.192595
    39  H    0.179158
    40  H    0.201154
    41  N   -0.093691
    42  C    0.112101
    43  C    0.098212
    44  O   -0.271842
    45  C    0.121887
    46  C    0.121913
    47  O   -0.408940
    48  O   -0.444176
    49  H    0.155202
    50  H   -0.010428
    51  H   -0.008619
    52  H    0.014592
    53  N   -0.120505
    54  C    0.233465
    55  C    0.074899
    56  O   -0.370611
    57  H    0.137736
    58  H    0.044191
    59  H    0.017923
    60  N   -0.151613
    61  C    0.103166
    62  C    0.075820
    63  O   -0.268840
    64  C    0.076513
    65  C    0.079478
    66  N   -0.050274
    67  O   -0.317453
    68  H    0.133461
    69  H    0.033322
    70  H    0.057401
    71  H    0.003866
    72  H    0.119726
    73  H    0.152421
    74  N   -0.118172
    75  C    0.221151
    76  C    0.034592
    77  O   -0.288898
    78  H    0.108504
    79  H    0.015127
    80  H    0.035820
    81  N   -0.121650
    82  C    0.078620
    83  C    0.101850
    84  O   -0.300324
    85  C    0.131496
    86  C    0.012831
    87  C    0.015243
    88  C   -0.005840
    89  C   -0.039061
    90  C   -0.039649
    91  C    0.192738
    92  O   -0.217095
    93  H    0.126575
    94  H    0.014377
    95  H   -0.002578
    96  H    0.027348
    97  H   -0.043165
    98  H   -0.032595
    99  H   -0.036458
   100  H   -0.044428
   101  H    0.175564
   102  N   -0.098855
   103  C    0.171284
   104  C    0.043176
   105  O   -0.278284
   106  C   -0.086815
   107  C    0.009264
   108  C    0.077732
   109  C    0.017905
   110  H    0.139490
   111  H   -0.000313
   112  H   -0.006074
   113  H    0.003364
   114  H   -0.020763
   115  H    0.002433
   116  H    0.003037
   117  H    0.008968
   118  H    0.003887
   119  H    0.004485
   120  H    0.004499
   121  N   -0.123182
   122  C    0.155873
   123  C    0.049387
   124  O   -0.270686
   125  C    0.176037
   126  O   -0.294936
   127  H    0.144324
   128  H    0.032688
   129  H   -0.009192
   130  H    0.016005
   131  H    0.165382
   132  N   -0.117286
   133  C    0.037596
   134  C    0.057780
   135  O   -0.281105
   136  C    0.081165
   137  H    0.112838
   138  H    0.009881
   139  H   -0.017945
   140  H    0.022754
   141  H    0.017367
   142  N   -0.119599
   143  C    0.114548
   144  C    0.056646
   145  O   -0.263617
   146  C    0.051818
   147  H    0.130205
   148  H   -0.002703
   149  H   -0.004090
   150  H    0.035275
   151  H    0.014418
   152  N   -0.114609
   153  C    0.083918
   154  C    0.067758
   155  O   -0.261861
   156  C    0.053748
   157  C    0.119378
   158  C    0.088859
   159  O   -0.405673
   160  O   -0.452463
   161  H    0.120757
   162  H   -0.015339
   163  H    0.026615
   164  H    0.018240
   165  H   -0.043473
   166  H   -0.023917
   167  N   -0.151919
   168  C    0.129658
   169  H    0.027671
   170  H   -0.000991
   171  H    0.032406
   172  H    0.102650
   173  Ca   1.302537
   174  O   -0.289660
   175  H    0.194516
   176  H    0.174670
 Sum of Mulliken charges =  -0.00000
 Mulliken charges with hydrogens summed into heavy atoms:
               1
     1  C    0.114687
     2  C   -0.008146
     3  O   -0.324107
     7  N    0.032203
     8  C    0.051656
     9  C    0.074635
    10  O   -0.296260
    11  C    0.119661
    12  C   -0.033732
    13  O   -0.402220
    14  O   -0.385725
    19  N    0.030361
    20  C    0.099130
    21  C    0.092639
    22  O   -0.310393
    23  C    0.053171
    24  C    0.009090
    25  C    0.045552
    26  C    0.166002
    27  N    0.660031
    41  N    0.061512
    42  C    0.101673
    43  C    0.098212
    44  O   -0.271842
    45  C    0.127860
    46  C    0.121913
    47  O   -0.408940
    48  O   -0.444176
    53  N    0.017231
    54  C    0.295580
    55  C    0.074899
    56  O   -0.370611
    60  N   -0.018151
    61  C    0.136487
    62  C    0.075820
    63  O   -0.268840
    64  C    0.137780
    65  C    0.079478
    66  N    0.221873
    67  O   -0.317453
    74  N   -0.009668
    75  C    0.272098
    76  C    0.034592
    77  O   -0.288898
    81  N    0.004925
    82  C    0.092998
    83  C    0.101850
    84  O   -0.300324
    85  C    0.156265
    86  C    0.012831
    87  C   -0.027923
    88  C   -0.038435
    89  C   -0.075520
    90  C   -0.084077
    91  C    0.192738
    92  O   -0.041531
   102  N    0.040636
   103  C    0.170971
   104  C    0.043176
   105  O   -0.278284
   106  C   -0.092889
   107  C   -0.008135
   108  C    0.092170
   109  C    0.030775
   121  N    0.021142
   122  C    0.188560
   123  C    0.049387
   124  O   -0.270686
   125  C    0.182850
   126  O   -0.129554
   132  N   -0.004448
   133  C    0.047477
   134  C    0.057780
   135  O   -0.281105
   136  C    0.103341
   142  N    0.010607
   143  C    0.111845
   144  C    0.056646
   145  O   -0.263617
   146  C    0.097422
   152  N    0.006148
   153  C    0.068578
   154  C    0.067758
   155  O   -0.261861
   156  C    0.098603
   157  C    0.051989
   158  C    0.088859
   159  O   -0.405673
   160  O   -0.452463
   167  N   -0.049269
   168  C    0.188744
   173  Ca   1.302537
   174  O    0.079526
 DipInt: DoE/N= T F RetVal/Mat= T F Init=T NMatP=  1 IDeriv=0 Min/MaxMlt=  0  4
 Entering OneElI...
 OneElI was handed  1333951383 working-precision words.
 Multipole integrals L=0 to 4 MinM= 0 MaxM= 0.
 Requested accuracy = 0.1000D-12
 ShPair: Thresh= 1.00D-13 NBox=     0 BxSize= 0.00D+00 RnKept= 3.31D+01
         NSMCal=               327645 NSMKep=              120075
 PrmmSu-InSpLW:  IPartL=    0 NPrtUS=    1 NPrtUL=    1 DoSpLW=F IThBeg=    0 IThEnd=    0 NThAct=    1.
 PrsmSu:  NPrtUS=   1 ThrOK=F IAlg=1 NPAlg=1 LenDen=           0 ISkipM=0 DoSpLW=F IThBeg=    0 IThEnd=    0.
 Prism:   IPart=     0 DynPar=F LinDyn=F Incr=         512.
 PRISM was handed  1325419287 working-precision words and120075 shell-pairs
 IPart=  0 NShTot=      120075 NBatch=         285 AvBLen=       421.3
 PrsmSu-ThDecC:  IPartSL=    0    0 NPrtUSL=    1    1 IThBeg=    0 IThEnd=    0 CPU=   -1 GPU=   -1 NThAct=    1.
 PrSmSu:  NxtVal=            513.
 Electronic moments (au):
       -716.00000000          9.78596997          0.97334171          1.65233499
    -108483.30453405     -35819.32492738     -13674.72769088       -123.29842802
        130.99895187         10.82202508    -469300.90087211     -13333.24407314
     -13206.55822912     165190.69430774    -214206.77363753    -200727.55472857
     -37016.86494032      12297.56302691     -29116.76453362     -70255.34752180
  -33049099.84251727   -4013007.39926418    -648823.50759214    -446996.54864517
   -2572851.31528754     989088.82568782      38897.81321421    -147754.09295777
     -45733.48650461   -4612561.00724671   -1887616.24926591    -712835.68664337
    -402512.98841589     271437.47414141    -250506.17902418
 Electronic spatial extent (au):  <R**2>=         157977.3572
 DipInt: DoE/N= F T RetVal/Mat= T F Init=T NMatP=  1 IDeriv=0 Min/MaxMlt=  0  4
 Nuclear    moments (au):
        716.00000000         -0.00000000         -0.00000000         -0.00000000
     108398.85847218      35357.88924584      13341.85352883          0.00000000
         -0.00000000         -0.00000000     481157.50269954      12768.77381387
      12985.57573691    -166249.28602725     213698.83662745     204144.52720794
      37792.13388660     -12395.54645173      29031.08665681      70338.11083225
   32998792.85467388    3896648.91741390     609630.92076355     410605.20873247
    2663217.99912735   -1004313.13612410     -34102.42704777     151367.82693556
      47784.36484052    4510146.46823689    1838896.40215512     688708.78294043
     404830.05469513    -273923.38538355     247759.60747496
 Total      moments (au):
         -0.00000000          9.78596997          0.97334171          1.65233499
        -84.44606188       -461.43568153       -332.87416205       -123.29842802
        130.99895187         10.82202508      11856.60182743       -564.47025927
       -220.98249221      -1058.59171951       -507.93701007       3416.97247937
        775.26894628        -97.98342482        -85.67787681         82.76331045
     -50306.98784339    -116358.48185028     -39192.58682859     -36391.33991270
      90366.68383981     -15224.31043629       4795.38616644       3613.73397778
       2050.87833591    -102414.53900982     -48719.84711079     -24126.90370294
       2317.06627924      -2485.91124214      -2746.57154922
 Traceless Quadrup. (au):
        208.47257328       -168.51704638        -39.95552690       -123.29842802
        130.99895187         10.82202508
 Charge=             -0.0000 electrons
 Dipole moment (field-independent basis, Debye):
    X=             24.8735    Y=              2.4740    Z=              4.1998  Tot=             25.3466
 Quadrupole moment (field-independent basis, Debye-Ang):
   XX=           -113.5828   YY=           -620.6468   ZZ=           -447.7271
   XY=           -165.8406   XZ=            176.1981   YZ=             14.5560
 Traceless Quadrupole moment (field-independent basis, Debye-Ang):
   XX=            280.4028   YY=           -226.6612   ZZ=            -53.7416
   XY=           -165.8406   XZ=            176.1981   YZ=             14.5560
 Octapole moment (field-independent basis, Debye-Ang**2):
  XXX=           8439.0724  YYY=           -401.7682  ZZZ=           -157.2868  XYY=           -753.4648
  XXY=           -361.5300  XXZ=           2432.0694  XZZ=            551.8066  YZZ=            -69.7408
  YYZ=            -60.9822  XYZ=             58.9077
 Hexadecapole moment (field-independent basis, Debye-Ang**3):
 XXXX=         -18948.0239 YYYY=         -43826.1838 ZZZZ=         -14761.8075 XXXY=         -13706.7236
 XXXZ=          34036.4264 YYYX=          -5734.2053 YYYZ=           1806.1724 ZZZX=           1361.1055
 ZZZY=            772.4591 XXYY=         -38574.2263 XXZZ=         -18350.2306 YYZZ=          -9087.3489
 XXYZ=            872.7183 YYXZ=           -936.3134 ZZXY=          -1034.4905
 N-N= 1.884199516595D+04 E-N=-5.016888141095D+04  KE= 5.290352249183D+03
 Leave Link  601 at Tue Sep 17 00:48:31 2019, MaxMem=  1342177280 cpu:              40.4 elap:               1.0
 FitSet:  NAtFit=   176 NAtPot=   176 NAtFrz=     0 MDM=   180 TotChg=   0.00000
 Merz-Kollman atomic radii used.
 Read replacement radii for each type of atom:
 Rad(20) =   1.700000000000D+00
 Atom Element Radius
    1     6    1.50
    2     6    1.50
    3     8    1.40
    4     1    1.20
    5     1    1.20
    6     1    1.20
    7     7    1.50
    8     6    1.50
    9     6    1.50
   10     8    1.40
   11     6    1.50
   12     6    1.50
   13     8    1.40
   14     8    1.40
   15     1    1.20
   16     1    1.20
   17     1    1.20
   18     1    1.20
   19     7    1.50
   20     6    1.50
   21     6    1.50
   22     8    1.40
   23     6    1.50
   24     6    1.50
   25     6    1.50
   26     6    1.50
   27     7    1.50
   28     1    1.20
   29     1    1.20
   30     1    1.20
   31     1    1.20
   32     1    1.20
   33     1    1.20
   34     1    1.20
   35     1    1.20
   36     1    1.20
   37     1    1.20
   38     1    1.20
   39     1    1.20
   40     1    1.20
   41     7    1.50
   42     6    1.50
   43     6    1.50
   44     8    1.40
   45     6    1.50
   46     6    1.50
   47     8    1.40
   48     8    1.40
   49     1    1.20
   50     1    1.20
   51     1    1.20
   52     1    1.20
   53     7    1.50
   54     6    1.50
   55     6    1.50
   56     8    1.40
   57     1    1.20
   58     1    1.20
   59     1    1.20
   60     7    1.50
   61     6    1.50
   62     6    1.50
   63     8    1.40
   64     6    1.50
   65     6    1.50
   66     7    1.50
   67     8    1.40
   68     1    1.20
   69     1    1.20
   70     1    1.20
   71     1    1.20
   72     1    1.20
   73     1    1.20
   74     7    1.50
   75     6    1.50
   76     6    1.50
   77     8    1.40
   78     1    1.20
   79     1    1.20
   80     1    1.20
   81     7    1.50
   82     6    1.50
   83     6    1.50
   84     8    1.40
   85     6    1.50
   86     6    1.50
   87     6    1.50
   88     6    1.50
   89     6    1.50
   90     6    1.50
   91     6    1.50
   92     8    1.40
   93     1    1.20
   94     1    1.20
   95     1    1.20
   96     1    1.20
   97     1    1.20
   98     1    1.20
   99     1    1.20
  100     1    1.20
  101     1    1.20
  102     7    1.50
  103     6    1.50
  104     6    1.50
  105     8    1.40
  106     6    1.50
  107     6    1.50
  108     6    1.50
  109     6    1.50
  110     1    1.20
  111     1    1.20
  112     1    1.20
  113     1    1.20
  114     1    1.20
  115     1    1.20
  116     1    1.20
  117     1    1.20
  118     1    1.20
  119     1    1.20
  120     1    1.20
  121     7    1.50
  122     6    1.50
  123     6    1.50
  124     8    1.40
  125     6    1.50
  126     8    1.40
  127     1    1.20
  128     1    1.20
  129     1    1.20
  130     1    1.20
  131     1    1.20
  132     7    1.50
  133     6    1.50
  134     6    1.50
  135     8    1.40
  136     6    1.50
  137     1    1.20
  138     1    1.20
  139     1    1.20
  140     1    1.20
  141     1    1.20
  142     7    1.50
  143     6    1.50
  144     6    1.50
  145     8    1.40
  146     6    1.50
  147     1    1.20
  148     1    1.20
  149     1    1.20
  150     1    1.20
  151     1    1.20
  152     7    1.50
  153     6    1.50
  154     6    1.50
  155     8    1.40
  156     6    1.50
  157     6    1.50
  158     6    1.50
  159     8    1.40
  160     8    1.40
  161     1    1.20
  162     1    1.20
  163     1    1.20
  164     1    1.20
  165     1    1.20
  166     1    1.20
  167     7    1.50
  168     6    1.50
  169     1    1.20
  170     1    1.20
  171     1    1.20
  172     1    1.20
  173    20    1.70
  174     8    1.40
  175     1    1.20
  176     1    1.20
 Generate VDW surfaces: Layer= 4 Dens= 6 Start= 1.400 Inc= 0.200

[...]
 **** Fit      -0.005077
 **** Fit      -0.006069
 **** Fit      -0.007391
 **** Fit      -0.008990
 **** Fit      -0.010802
 **** Fit      -0.009773
 **** Fit      -0.007909
 **** Fit      -0.006198
 **** Fit      -0.004793
 **** Fit      -0.003807
 **** Fit      -0.003307
 **** Fit      -0.003311
 **** Fit      -0.003803
 **** Fit      -0.004745
 **** Fit      -0.006085
 **** Fit      -0.007766
 **** Fit      -0.009726
 **** Fit      -0.007753
 **** Fit      -0.005510
 **** Fit      -0.003645
 **** Fit      -0.002327
 **** Fit      -0.001648
 **** Fit      -0.001629
 **** Fit      -0.002242
 **** Fit      -0.003425
 **** Fit      -0.005105
 **** Fit      -0.007203
 **** Fit       0.000765
 **** Fit      -0.000664
 **** Fit      -0.014941
 **** Fit      -0.016147
 **** Fit      -0.016874
 **** Fit      -0.016968
 **** Fit      -0.013873
 **** Fit      -0.015065
 **** Fit      -0.017658
 **** Fit      -0.018547
 **** Fit      -0.019067
 **** Fit      -0.019086
 **** Fit      -0.014214
 **** Fit      -0.015384
 **** Fit      -0.016558
 **** Fit      -0.019613
 **** Fit      -0.020674
 **** Fit      -0.021444
 **** Fit      -0.021811
 **** Fit      -0.021696
 **** Fit      -0.014611
 **** Fit      -0.015837
 **** Fit      -0.017102
 **** Fit      -0.018385
 **** Fit      -0.022171
 **** Fit      -0.023456
 **** Fit      -0.024461
 **** Fit      -0.025079
 **** Fit      -0.025231
 **** Fit      -0.024875
 **** Fit      -0.015030
 **** Fit      -0.016370
 **** Fit      -0.017766
 **** Fit      -0.019231
 **** Fit      -0.020726
 **** Fit      -0.025512
 **** Fit      -0.027059
 **** Fit      -0.028322
 **** Fit      -0.029191
 **** Fit      -0.029585
 **** Fit      -0.029464
 **** Fit      -0.028817
 **** Fit      -0.015674
 **** Fit      -0.017142
 **** Fit      -0.018678
 **** Fit      -0.020315
 **** Fit      -0.022040
 **** Fit      -0.023802
 **** Fit      -0.029861
 **** Fit      -0.031840
 **** Fit      -0.033473
 **** Fit      -0.034620
 **** Fit      -0.035184
 **** Fit      -0.035120
 **** Fit      -0.034435
 **** Fit      -0.017586
 **** Fit      -0.019345
 **** Fit      -0.021237
 **** Fit      -0.023282
 **** Fit      -0.025456
 **** Fit      -0.027686
 **** Fit      -0.035507
 **** Fit      -0.038057
 **** Fit      -0.040182
 **** Fit      -0.041704
 **** Fit      -0.042493
 **** Fit      -0.042493
 **** Fit      -0.041731
 **** Fit      -0.020078
 **** Fit      -0.022214
 **** Fit      -0.024565
 **** Fit      -0.027137
 **** Fit      -0.029889
 **** Fit      -0.032725
 **** Fit      -0.042850
 **** Fit      -0.046276
 **** Fit      -0.022861
 **** Fit      -0.025508
 **** Fit      -0.028492
 **** Fit      -0.031812
 **** Fit      -0.035404
 **** Fit      -0.039146
 **** Fit      -0.025317
 **** Fit      -0.028625
 **** Fit      -0.032506
 **** Fit      -0.036959
 **** Fit      -0.041906
 **** Fit      -0.031481
 **** Fit      -0.036494
 **** Fit      -0.009953
 **** Fit      -0.007190
 **** Fit      -0.004517
 **** Fit      -0.002203
 **** Fit      -0.000467
 **** Fit       0.000554
 **** Fit       0.000787
 **** Fit       0.000192
 **** Fit      -0.015966
 **** Fit      -0.013000
 **** Fit      -0.009753
 **** Fit      -0.006521
 **** Fit      -0.003668
 **** Fit      -0.001446
 **** Fit       0.000013
 **** Fit       0.000658
 **** Fit       0.000472
 **** Fit      -0.000556
 **** Fit      -0.022100
 **** Fit      -0.019326
 **** Fit      -0.016086
 **** Fit      -0.012331
 **** Fit      -0.008526
 **** Fit      -0.005136
 **** Fit      -0.002438
 **** Fit      -0.000547
 **** Fit       0.000512
 **** Fit       0.000751
 **** Fit       0.000185
 **** Fit      -0.001184
 **** Fit      -0.023304
 **** Fit      -0.020381
 **** Fit      -0.016481
 **** Fit      -0.012107
 **** Fit      -0.007955
 **** Fit      -0.004465
 **** Fit      -0.001818
 **** Fit      -0.000047
 **** Fit       0.000874
 **** Fit       0.000987
 **** Fit       0.000327
 **** Fit      -0.001087
 **** Fit      -0.019183
 **** Fit      -0.014713
 **** Fit      -0.010031
 **** Fit      -0.005893
 **** Fit      -0.002635
 **** Fit      -0.000337
 **** Fit       0.001033
 **** Fit       0.001537
 **** Fit       0.001239
 **** Fit       0.000191
 **** Fit      -0.008320
 **** Fit      -0.004357
 **** Fit      -0.001257
 **** Fit       0.000871
 **** Fit       0.002054
 **** Fit       0.002370
 **** Fit       0.001908
 **** Fit       0.000764
 **** Fit      -0.001694
 **** Fit       0.000896
 **** Fit       0.002639
 **** Fit       0.003524
 **** Fit       0.003632
 **** Fit       0.003098
 **** Fit       0.005653
 **** Fit      -0.014198
 **** Fit      -0.005344
 **** Fit       0.010234
 **** Fit       0.002490
 **** Fit      -0.006245
 **** Fit       0.016053
 **** Fit       0.009906
 **** Fit       0.002664
 **** Fit      -0.005460
 **** Fit      -0.000335
 **** Fit       0.023709
 **** Fit       0.020740
 **** Fit       0.016117
 **** Fit       0.010313
 **** Fit       0.003754
 **** Fit      -0.002998
 **** Fit       0.001003
 **** Fit       0.002986
 **** Fit       0.006048
 **** Fit       0.008938
 **** Fit       0.025685
 **** Fit       0.026074
 **** Fit       0.024466
 **** Fit       0.021184
 **** Fit       0.016696
 **** Fit       0.011522
 **** Fit       0.006300
 **** Fit       0.001814
 **** Fit      -0.001128
 **** Fit      -0.001976
 **** Fit       0.011851
 **** Fit       0.012974
 **** Fit       0.014937
 **** Fit       0.016777
 **** Fit       0.027603
 **** Fit       0.027965
 **** Fit       0.026635
 **** Fit       0.023818
 **** Fit       0.019995
 **** Fit       0.015817
 **** Fit       0.012054
 **** Fit       0.009482
 **** Fit       0.008657
 **** Fit       0.020018
 **** Fit       0.020566
 **** Fit       0.021871
 **** Fit       0.023263
 **** Fit       0.024663
 **** Fit       0.026276
 **** Fit       0.028035
 **** Fit       0.029392
 **** Fit       0.029673
 **** Fit       0.028534
 **** Fit       0.026130
 **** Fit       0.023006
 **** Fit       0.019945
 **** Fit       0.017778
 **** Fit       0.017185
 **** Fit       0.025887
 **** Fit       0.026287
 **** Fit       0.027404
 **** Fit       0.028748
 **** Fit       0.030101
 **** Fit       0.030995
 **** Fit       0.030799
 **** Fit       0.029292
 **** Fit       0.026946
 **** Fit       0.024740
 **** Fit       0.023764
 **** Fit       0.030734
 **** Fit       0.029814
 **** Fit       0.030361
 **** Fit       0.031370
 **** Fit       0.031965
 **** Fit       0.031404
 **** Fit       0.029833
 **** Fit       0.028588
 **** Fit       0.032402
 **** Fit       0.032126
 **** Fit       0.032428
 **** Fit       0.031733
 **** Fit       0.031753
 **** Fit       0.032636
 **** Fit      -0.046604
 **** Fit      -0.052997
 **** Fit      -0.035394
 **** Fit      -0.041785
 **** Fit      -0.049606
 **** Fit      -0.030834
 **** Fit      -0.037995
 **** Fit      -0.046572
 **** Fit      -0.020867
 **** Fit      -0.027310
 **** Fit      -0.034582
 **** Fit      -0.043172
 **** Fit      -0.017148
 **** Fit      -0.023462
 **** Fit      -0.030486
 **** Fit      -0.038635
 **** Fit      -0.041650
 **** Fit      -0.006774
 **** Fit      -0.012438
 **** Fit      -0.018512
 **** Fit      -0.025172
 **** Fit      -0.032721
 **** Fit      -0.033565
 **** Fit      -0.002462
 **** Fit      -0.007715
 **** Fit      -0.013315
 **** Fit      -0.019365
 **** Fit      -0.026033
 **** Fit      -0.024845
 **** Fit      -0.031576
 **** Fit       0.006908
 **** Fit       0.002455
 **** Fit      -0.002310
 **** Fit      -0.007384
 **** Fit      -0.012794
 **** Fit      -0.018595
 **** Fit      -0.015823
 **** Fit      -0.021024
 **** Fit      -0.025935
 **** Fit      -0.017506
 **** Fit      -0.010246
 **** Fit       0.011851
 **** Fit       0.007975
 **** Fit       0.003741
 **** Fit      -0.000797
 **** Fit      -0.005603
 **** Fit      -0.010635
 **** Fit      -0.010725
 **** Fit      -0.014104
 **** Fit      -0.016309
 **** Fit      -0.016585
 **** Fit      -0.014052
 **** Fit      -0.012189
 **** Fit      -0.012880
 **** Fit      -0.010271
 **** Fit      -0.005667
 **** Fit      -0.000116
 **** Fit      -0.003729
 **** Fit      -0.000444
 **** Fit       0.005564
 **** Fit       0.005617
 **** Fit      -0.000579
 **** Fit      -0.003157
 **** Fit      -0.002621
 **** Fit       0.000164
 **** Fit       0.004301
 **** Fit       0.009025
 **** Fit       0.013728
 **** Fit       0.016276
 **** Fit       0.023101
 **** Fit       0.018685
 **** Fit       0.011567
 **** Fit       0.006722
 **** Fit       0.004642
 **** Fit       0.005124
 **** Fit       0.007557
 **** Fit       0.011198
 **** Fit       0.027804
 **** Fit       0.031089
 **** Fit       0.032229
 **** Fit       0.030641
 **** Fit       0.026638
 **** Fit       0.021365
 **** Fit       0.016316
 **** Fit       0.012742
 **** Fit       0.011283
 **** Fit      -0.039804
 **** Fit      -0.044315
 **** Fit      -0.029616
 **** Fit      -0.026815
 **** Fit      -0.026214
 **** Fit      -0.027699
 **** Fit      -0.031226
 **** Fit      -0.036741
 **** Fit      -0.022304
 **** Fit      -0.018872
 **** Fit      -0.017032
 **** Fit      -0.016714
 **** Fit      -0.017912
 **** Fit      -0.020674
 **** Fit      -0.025092
 **** Fit      -0.021710
 **** Fit      -0.016720
 **** Fit      -0.013059
 **** Fit      -0.010615
 **** Fit      -0.009313
 **** Fit      -0.009122
 **** Fit      -0.010059
 **** Fit      -0.012186
 **** Fit      -0.015612
 **** Fit      -0.020491
 **** Fit      -0.016110
 **** Fit      -0.011195
 **** Fit      -0.007566
 **** Fit      -0.005039
 **** Fit      -0.003511
 **** Fit      -0.002933
 **** Fit      -0.003303
 **** Fit      -0.004666
 **** Fit      -0.007110
 **** Fit      -0.010776
 **** Fit      -0.015864
 **** Fit      -0.018285
 **** Fit      -0.011792
 **** Fit      -0.006926
 **** Fit      -0.003297
 **** Fit      -0.000681
 **** Fit       0.001051
 **** Fit       0.001964
 **** Fit       0.002080
 **** Fit       0.001383
 **** Fit      -0.000184
 **** Fit      -0.002719
 **** Fit      -0.006372
 **** Fit      -0.017167
 **** Fit      -0.010213
 **** Fit      -0.004935
 **** Fit      -0.000921
 **** Fit       0.002086
 **** Fit       0.004243
 **** Fit       0.005645
 **** Fit       0.006338
 **** Fit       0.006336
 **** Fit       0.005617
 **** Fit       0.004127
 **** Fit       0.001773
 **** Fit      -0.001586
 **** Fit      -0.014093
 **** Fit      -0.007375
 **** Fit      -0.002091
 **** Fit       0.002019
 **** Fit       0.005161
 **** Fit       0.007479
 **** Fit       0.009069
 **** Fit       0.009984
 **** Fit       0.010248
 **** Fit       0.009851
 **** Fit       0.008756
 **** Fit       0.006889
 **** Fit      -0.012801
 **** Fit      -0.006492
 **** Fit      -0.001062
 **** Fit       0.003391
 **** Fit       0.006936
 **** Fit       0.009672
 **** Fit       0.011686
 **** Fit       0.013042
 **** Fit       0.013780
 **** Fit       0.013916
 **** Fit       0.013442
 **** Fit       0.012323
 **** Fit       0.000590
 **** Fit       0.004877
 **** Fit       0.008558
 **** Fit       0.011579
 **** Fit       0.013964
 **** Fit       0.015758
 **** Fit       0.017008
 **** Fit       0.017753
 **** Fit       0.018028
 **** Fit       0.007966
 **** Fit       0.011473
 **** Fit       0.014576
 **** Fit       0.017179
 **** Fit       0.019286
 **** Fit       0.020949
 **** Fit      -0.007287
 **** Fit       0.018621
 **** Fit       0.015642
 **** Fit       0.012339
 **** Fit       0.008785
 **** Fit       0.005014
 **** Fit       0.001047
 **** Fit      -0.003082
 **** Fit      -0.000419
 **** Fit      -0.003371
 **** Fit      -0.005704
 **** Fit      -0.006897
 **** Fit       0.022213
 **** Fit       0.021296
 **** Fit       0.019684
 **** Fit       0.017558
 **** Fit       0.015052
 **** Fit       0.012259
 **** Fit       0.009243
 **** Fit       0.006063
 **** Fit       0.002799
 **** Fit       0.005453
 **** Fit       0.003357
 **** Fit       0.001963
 **** Fit       0.001702
 **** Fit       0.003044
 **** Fit       0.006370
 **** Fit       0.013999
 **** Fit       0.017064
 **** Fit       0.019528
 **** Fit       0.021145
 **** Fit       0.021852
 **** Fit       0.021718
 **** Fit       0.020874
 **** Fit       0.019465
 **** Fit       0.017623
 **** Fit       0.015454
 **** Fit       0.013050
 **** Fit       0.010499
 **** Fit       0.007913
 **** Fit       0.010371
 **** Fit       0.008951
 **** Fit       0.008223
 **** Fit       0.008509
 **** Fit       0.010089
 **** Fit       0.013081
 **** Fit       0.017317
 **** Fit       0.022256
 **** Fit       0.026987
 **** Fit       0.012234
 **** Fit       0.012802
 **** Fit       0.014491
 **** Fit       0.016670
 **** Fit       0.018799
 **** Fit       0.020504
 **** Fit       0.021582
 **** Fit       0.021973
 **** Fit       0.021716
 **** Fit       0.020900
 **** Fit       0.019634
 **** Fit       0.018023
 **** Fit       0.016170
 **** Fit       0.014183
 **** Fit       0.012192
 **** Fit       0.014403
 **** Fit       0.013454
 **** Fit       0.013236
 **** Fit       0.014004
 **** Fit       0.015880
 **** Fit       0.018729
 **** Fit       0.022085
 **** Fit       0.025176
 **** Fit       0.027111
 **** Fit       0.027225
 **** Fit       0.025459
 **** Fit       0.022474
 **** Fit       0.019355
 **** Fit       0.017084
 **** Fit       0.016154
 **** Fit       0.016514
 **** Fit       0.017745
 **** Fit       0.019320
 **** Fit       0.020778
 **** Fit       0.021810
 **** Fit       0.022270
 **** Fit       0.022137
 **** Fit       0.021472
 **** Fit       0.020376
 **** Fit       0.018970
 **** Fit       0.017390
 **** Fit       0.015799
 **** Fit       0.017623
 **** Fit       0.017056
 **** Fit       0.017207
 **** Fit       0.018229
 **** Fit       0.020046
 **** Fit       0.022276
 **** Fit       0.024262
 **** Fit       0.025297
 **** Fit       0.024969
 **** Fit       0.023451
 **** Fit       0.021454
 **** Fit       0.019825
 **** Fit       0.019104
 **** Fit       0.019345
 **** Fit       0.020230
 **** Fit       0.021309
 **** Fit       0.022192
 **** Fit       0.022639
 **** Fit       0.022566
 **** Fit       0.022003
 **** Fit       0.021056
 **** Fit       0.019875
 **** Fit       0.018652
 **** Fit       0.020099
 **** Fit       0.019834
 **** Fit       0.020290
 **** Fit       0.021451
 **** Fit       0.022932
 **** Fit       0.024069
 **** Fit       0.024278
 **** Fit       0.023498
 **** Fit       0.022289
 **** Fit       0.021405
 **** Fit       0.021259
 **** Fit       0.021741
 **** Fit       0.022437
 **** Fit       0.022932
 **** Fit       0.022986
 **** Fit       0.022559
 **** Fit       0.021772
 **** Fit       0.020852
 **** Fit       0.021887
 **** Fit       0.021893
 **** Fit       0.022612
 **** Fit       0.023541
 **** Fit       0.023858
 **** Fit       0.023363
 **** Fit       0.022760
 **** Fit       0.022706
 **** Fit       0.023069
 **** Fit       0.023295
 **** Fit       0.023050
 **** Fit       0.022437
 **** Fit       0.023028
 **** Fit       0.023287
 **** Fit       0.023677
 **** Fit       0.023464
 **** Fit       0.023460
 **** Fit       0.023366
 **** Fit       0.023551
 -----------------------------------------------------------------
 Leave Link  602 at Tue Sep 17 00:48:33 2019, MaxMem=  1342177280 cpu:             114.1 elap:               2.4

 Test job not archived.
 1\1\GINC-C506-073\SP\RB3LYP\SVP\C54H83Ca1N15O23\PENGZHI\17-Sep-2019\0\
 \#b3lyp/svp scf=(tight,noincore) Test #IOP(5/87=12) Density=Current Po
 p=(MK,readradii) iop(6/33=2) iop(6/42=6)\\Ng-293_loop3_3.0\\0,1\C,0,34
 .09,12.27,-0.96\C,0,33.43,12.99,-2.13\O,0,33.82,12.71,-3.27\H,0,34.997
 ,12.802,-0.671\H,0,33.402,12.241,-0.115\H,0,34.345,11.253,-1.256\N,0,3
 2.46,13.86,-1.86\C,0,31.65,14.55,-2.84\C,0,30.16,14.32,-2.67\O,0,29.67
 ,14.27,-1.54\C,0,31.89,16.06,-2.8\C,0,31.13,16.8,-3.88\O,0,30.03,17.31
 ,-3.58\O,0,31.68,16.92,-4.99\H,0,32.05,13.86,-0.94\H,0,31.89,14.28,-3.
 87\H,0,32.93,16.31,-3.01\H,0,31.49,16.36,-1.83\N,0,29.49,14.15,-3.82\C
 ,0,28.17,13.59,-3.99\C,0,26.96,14.29,-3.39\O,0,25.87,13.92,-3.84\C,0,2
 8.15,12.12,-3.58\C,0,29.18,11.23,-4.29\C,0,28.76,9.78,-4.09\C,0,29.59,
 8.75,-4.86\N,0,31.04,8.99,-4.72\H,0,29.97,14.15,-4.71\H,0,28.02,13.54,
 -5.07\H,0,27.19,11.72,-3.89\H,0,28.27,12.14,-2.5\H,0,30.18,11.48,-3.92
 \H,0,29.14,11.43,-5.36\H,0,27.75,9.51,-4.4\H,0,28.85,9.49,-3.04\H,0,29
 .29,8.87,-5.91\H,0,29.35,7.74,-4.55\H,0,31.21,9.14,-3.74\H,0,31.53,8.1
 6,-5.01\H,0,31.46,9.71,-5.28\N,0,27.14,15.34,-2.6\C,0,26.11,16.22,-2.0
 9\C,0,26.63,17.57,-1.63\O,0,27.52,17.63,-0.79\C,0,25.39,15.5,-0.95\C,0
 ,24.33,16.37,-0.3\O,0,24.41,16.79,0.87\O,0,23.35,16.76,-0.99\H,0,28.09
 ,15.62,-2.38\H,0,25.4,16.38,-2.91\H,0,26.18,15.16,-0.28\H,0,25.,14.52,
 -1.21\N,0,26.1,18.66,-2.2\C,0,26.34,19.99,-1.68\C,0,25.64,20.3,-0.36\O
 ,0,24.46,19.98,-0.22\H,0,25.61,18.5,-3.07\H,0,26.04,20.79,-2.34\H,0,27
 .4,20.05,-1.46\N,0,26.26,21.07,0.53\C,0,25.66,21.56,1.76\C,0,26.03,23.
 01,2.07\O,0,25.52,23.62,3.01\C,0,25.95,20.74,3.01\C,0,25.42,19.34,2.75
 \N,0,26.31,18.53,2.18\O,0,24.21,19.12,2.83\H,0,27.25,21.07,0.35\H,0,24
 .59,21.59,1.58\H,0,25.39,21.14,3.85\H,0,26.99,20.7,3.33\H,0,27.23,18.8
 ,1.86\H,0,25.93,17.65,1.84\N,0,26.98,23.53,1.29\C,0,27.51,24.87,1.47\C
 ,0,28.27,24.99,2.78\O,0,29.12,24.16,3.09\H,0,27.53,22.89,0.74\H,0,26.7
 4,25.64,1.34\H,0,28.27,25.12,0.73\N,0,27.85,25.93,3.64\C,0,28.47,26.27
 ,4.9\C,0,28.29,25.24,6.01\O,0,28.77,25.45,7.12\C,0,29.88,26.82,4.73\C,
 0,30.54,27.46,5.93\C,0,29.84,28.3,6.8\C,0,31.89,27.18,6.15\C,0,30.54,2
 8.97,7.82\C,0,32.58,27.82,7.19\C,0,31.92,28.78,7.99\O,0,32.52,29.43,9.
 03\H,0,27.08,26.53,3.39\H,0,27.93,27.16,5.21\H,0,29.75,27.66,4.04\H,0,
 30.43,25.99,4.27\H,0,28.78,28.47,6.72\H,0,32.28,26.4,5.51\H,0,30.01,29
 .6,8.51\H,0,33.63,27.62,7.35\H,0,33.47,29.43,9.12\N,0,27.69,24.07,5.79
 \C,0,27.44,23.08,6.83\C,0,26.29,23.45,7.76\O,0,25.38,22.64,7.93\C,0,28
 .66,22.53,7.55\C,0,29.81,22.19,6.6\C,0,28.31,21.34,8.43\C,0,31.16,21.8
 9,7.24\H,0,27.61,23.74,4.84\H,0,27.05,22.2,6.31\H,0,29.11,23.25,8.23\H
 ,0,30.02,22.99,5.89\H,0,29.62,21.29,6.02\H,0,29.14,20.83,8.91\H,0,27.5
 9,21.59,9.21\H,0,27.95,20.63,7.69\H,0,31.07,21.,7.87\H,0,31.93,21.74,6
 .49\H,0,31.51,22.71,7.87\N,0,26.22,24.68,8.26\C,0,25.12,25.24,9.02\C,0
 ,24.59,24.44,10.2\O,0,23.43,24.58,10.57\C,0,25.62,26.61,9.45\O,0,25.72
 ,27.46,8.33\H,0,27.07,25.22,8.17\H,0,24.26,25.34,8.36\H,0,26.59,26.5,9
 .93\H,0,24.97,27.06,10.21\H,0,25.89,28.3,8.78\N,0,25.29,23.45,10.76\C,
 0,24.69,22.43,11.59\C,0,23.45,21.74,11.04\O,0,22.51,21.53,11.8\C,0,24.
 56,22.9,13.04\H,0,26.26,23.3,10.51\H,0,25.46,21.67,11.72\H,0,25.54,23.
 03,13.5\H,0,23.98,23.83,13.06\H,0,23.98,22.16,13.59\N,0,23.48,21.33,9.
 77\C,0,22.41,20.69,9.02\C,0,22.81,19.37,8.39\O,0,24.01,19.14,8.29\C,0,
 21.89,21.68,7.98\H,0,24.32,21.68,9.32\H,0,21.61,20.41,9.71\H,0,21.01,2
 1.36,7.42\H,0,21.77,22.66,8.44\H,0,22.61,21.77,7.17\N,0,21.82,18.6,7.9
 4\C,0,22.,17.29,7.35\C,0,23.06,16.41,7.99\O,0,23.89,15.83,7.3\C,0,22.2
 3,17.39,5.84\C,0,20.94,17.76,5.12\C,0,21.24,17.93,3.64\O,0,21.64,16.92
 ,3.02\O,0,21.05,19.01,3.04\H,0,20.87,18.9,8.12\H,0,21.13,16.68,7.57\H,
 0,22.51,16.38,5.53\H,0,23.08,18.03,5.62\H,0,20.56,18.71,5.52\H,0,20.22
 ,16.96,5.27\N,0,23.1,16.29,9.32\C,0,24.17,15.62,10.03\H,0,25.013,16.30
 2,10.143\H,0,23.817,15.313,11.014\H,0,24.487,14.742,9.467\H,0,22.45,16
 .72,9.96\Ca,0,22.46,18.59,0.87\O,0,20.11,17.66,-0.064\H,0,19.59,17.17,
 0.576\H,0,19.48,17.89,-0.754\\Version=ES64L-G16RevA.03\State=1-A\HF=-5
 333.459541\RMSD=1.503e-09\Dipole=3.1931238,-7.0111929,-6.3316623\Quadr
 upole=-119.5489545,214.1766246,-94.62767,-80.2317525,45.5809614,161.66
 08325\PG=C01 [X(C54H83Ca1N15O23)]\\@


 HEAVEN'S NET CASTS WIDE.
 THOUGH ITS MESHES ARE COARSE, NOTHING SLIPS THROUGH.

                                          -- LAO-TSU
 Job cpu time:       0 days  7 hours 45 minutes  5.3 seconds.
 Elapsed time:       0 days  0 hours  9 minutes 49.7 seconds.
 File lengths (MBytes):  RWF=   1517 Int=      0 D2E=      0 Chk=    171 Scr=      1
 Normal termination of Gaussian 16 at Tue Sep 17 00:48:35 2019.
