 Entering Gaussian System, Link 0=g16
 Initial command:
 /home1/apps/gaussian/16rA.03/g16/l1.exe "/scratch/01990/pengzhi/4345548/Gau-315732.inp" -scrdir="/scratch/01990/pengzhi/4345548/"
 Entering Link 1 = /home1/apps/gaussian/16rA.03/g16/l1.exe PID=    315734.
  
 Copyright (c) 1988,1990,1992,1993,1995,1998,2003,2009,2016,
            Gaussian, Inc.  All Rights Reserved.
  
 This is part of the Gaussian(R) 16 program.  It is based on
 the Gaussian(R) 09 system (copyright 2009, Gaussian, Inc.),
 the Gaussian(R) 03 system (copyright 2003, Gaussian, Inc.),
 the Gaussian(R) 98 system (copyright 1998, Gaussian, Inc.),
 the Gaussian(R) 94 system (copyright 1995, Gaussian, Inc.),
 the Gaussian 92(TM) system (copyright 1992, Gaussian, Inc.),
 the Gaussian 90(TM) system (copyright 1990, Gaussian, Inc.),
 the Gaussian 88(TM) system (copyright 1988, Gaussian, Inc.),
 the Gaussian 86(TM) system (copyright 1986, Carnegie Mellon
 University), and the Gaussian 82(TM) system (copyright 1983,
 Carnegie Mellon University). Gaussian is a federally registered
 trademark of Gaussian, Inc.
  
 This software contains proprietary and confidential information,
 including trade secrets, belonging to Gaussian, Inc.
  
 This software is provided under written license and may be
 used, copied, transmitted, or stored only in accord with that
 written license.
  
 The following legend is applicable only to US Government
 contracts under FAR:
  
                    RESTRICTED RIGHTS LEGEND
  
 Use, reproduction and disclosure by the US Government is
 subject to restrictions as set forth in subparagraphs (a)
 and (c) of the Commercial Computer Software - Restricted
 Rights clause in FAR 52.227-19.
  
 Gaussian, Inc.
 340 Quinnipiac St., Bldg. 40, Wallingford CT 06492
  
  
 ---------------------------------------------------------------
 Warning -- This program may not be used in any manner that
 competes with the business of Gaussian, Inc. or will provide
 assistance to any competitor of Gaussian, Inc.  The licensee
 of this program is prohibited from giving any competitor of
 Gaussian, Inc. access to this program.  By using this program,
 the user acknowledges that Gaussian, Inc. is engaged in the
 business of creating and licensing software in the field of
 computational chemistry and represents and warrants to the
 licensee that it is not a competitor of Gaussian, Inc. and that
 it will not use this program in any manner prohibited above.
 ---------------------------------------------------------------
  

 Cite this work as:
 Gaussian 16, Revision A.03,
 M. J. Frisch, G. W. Trucks, H. B. Schlegel, G. E. Scuseria, 
 M. A. Robb, J. R. Cheeseman, G. Scalmani, V. Barone, 
 G. A. Petersson, H. Nakatsuji, X. Li, M. Caricato, A. V. Marenich, 
 J. Bloino, B. G. Janesko, R. Gomperts, B. Mennucci, H. P. Hratchian, 
 J. V. Ortiz, A. F. Izmaylov, J. L. Sonnenberg, D. Williams-Young, 
 F. Ding, F. Lipparini, F. Egidi, J. Goings, B. Peng, A. Petrone, 
 T. Henderson, D. Ranasinghe, V. G. Zakrzewski, J. Gao, N. Rega, 
 G. Zheng, W. Liang, M. Hada, M. Ehara, K. Toyota, R. Fukuda, 
 J. Hasegawa, M. Ishida, T. Nakajima, Y. Honda, O. Kitao, H. Nakai, 
 T. Vreven, K. Throssell, J. A. Montgomery, Jr., J. E. Peralta, 
 F. Ogliaro, M. J. Bearpark, J. J. Heyd, E. N. Brothers, K. N. Kudin, 
 V. N. Staroverov, T. A. Keith, R. Kobayashi, J. Normand, 
 K. Raghavachari, A. P. Rendell, J. C. Burant, S. S. Iyengar, 
 J. Tomasi, M. Cossi, J. M. Millam, M. Klene, C. Adamo, R. Cammi, 
 J. W. Ochterski, R. L. Martin, K. Morokuma, O. Farkas, 
 J. B. Foresman, and D. J. Fox, Gaussian, Inc., Wallingford CT, 2016.
 
 ******************************************
 Gaussian 16:  ES64L-G16RevA.03 25-Dec-2016
                17-Sep-2019 
 ******************************************
 %chk=Ng-293_loop3_7.0.chk
 %nprocshared=48
 Will use up to   48 processors via shared memory.
 %mem=10GB
 %nosave
 ----------------------------------------------------------------------
 #b3lyp/svp scf=(tight,noincore) Test #IOP(5/87=12) Density=Current Pop
 =(MK,readradii) iop(6/33=2) iop(6/42=6)
 ----------------------------------------------------------------------
 1/30=1,38=1,172=1/1;
 2/12=2,17=6,18=5,40=1/2;
 3/5=18,7=101,11=2,25=1,30=1,74=-5/1,2,3;
 4//1;
 5/5=4,32=2,38=5,87=12/2;
 6/7=2,8=2,9=2,10=2,15=8,20=101,22=-1,28=1,33=2,42=6/1,2;
 99/5=1,9=1/99;
 ----------------
 Ng-293_loop3_7.0
 ----------------
 Symbolic Z-matrix:
 Charge =  0 Multiplicity = 1
 C                     41.12     78.49     70.24 
 C                     41.61     78.52     68.8 
 O                     42.66     79.1      68.55 
 H                     40.093    78.127    70.266 
 H                     41.755    77.826    70.827 
 H                     41.16     79.495    70.659 
 N                     40.99     77.72     67.93 
 C                     41.28     77.49     66.52 
 C                     40.99     76.03     66.21 
 O                     40.41     75.3      67.01 
 C                     40.52     78.45     65.62 
 C                     40.88     78.34     64.14 
 O                     42.04     77.93     63.92 
 O                     40.01     78.6      63.28 
 H                     40.41     77.02     68.36 
 H                     42.32     77.8      66.5 
 H                     40.88     79.44     65.89 
 H                     39.44     78.4      65.8 
 N                     41.4      75.47     65.07 
 C                     40.94     74.25     64.43 
 C                     39.47     74.25     64.05 
 O                     38.67     75.08     64.47 
 C                     41.37     72.96     65.12 
 C                     42.78     72.98     65.71 
 C                     43.86     73.17     64.65 
 C                     45.22     72.98     65.31 
 N                     45.77     74.29     65.69 
 H                     41.95     76.04     64.44 
 H                     41.59     74.24     63.56 
 H                     41.29     72.18     64.37 
 H                     40.76     72.6      65.95 
 H                     42.99     72.09     66.31 
 H                     42.82     73.82     66.4 
 H                     43.84     74.15     64.17 
 H                     43.8      72.36     63.92 
 H                     45.88     72.52     64.58 
 H                     45.22     72.34     66.19 
 H                     45.72     74.95     64.92 
 H                     45.26     74.61     66.5 
 H                     46.7      74.2      66.06 
 N                     39.09     73.22     63.28 
 C                     37.75     73.03     62.76 
 C                     36.81     72.19     63.61 
 O                     36.02     71.36     63.17 
 C                     37.65     72.76     61.27 
 C                     38.53     71.58     60.86 
 O                     39.09     70.87     61.72 
 O                     38.79     71.41     59.65 
 H                     39.8      72.54     63.04 
 H                     37.28     74.02     62.77 
 H                     37.95     73.63     60.69 
 H                     36.61     72.58     61. 
 N                     36.73     72.57     64.89 
 C                     35.78     72.03     65.85 
 C                     34.37     72.59     65.78 
 O                     33.99     73.45     66.57 
 H                     37.34     73.31     65.21 
 H                     36.23     72.24     66.82 
 H                     35.79     70.94     65.84 
 N                     33.57     72.02     64.88 
 C                     32.15     72.28     64.72 
 C                     31.47     71.       64.26 
 O                     32.09     70.25     63.51 
 C                     31.92     73.43     63.75 
 C                     32.22     74.81     64.33 
 N                     31.56     75.16     65.44 
 O                     33.04     75.55     63.79 
 H                     33.96     71.37     64.22 
 H                     31.7      72.53     65.69 
 H                     30.88     73.42     63.44 
 H                     32.54     73.24     62.87 
 H                     30.74     74.67     65.78 
 H                     31.87     76.04     65.83 
 N                     30.16     70.93     64.52 
 C                     29.41     69.7      64.41 
 C                     29.6      68.73     65.57 
 O                     29.99     69.19     66.64 
 H                     29.88     71.7      65.11 
 H                     29.55     69.29     63.41 
 H                     28.38     70.02     64.46 
 N                     29.4      67.43     65.35 
 C                     29.45     66.45     66.4 
 C                     30.82     66.25     67.03 
 O                     30.93     65.77     68.16 
 C                     28.33     66.83     67.37 
 C                     27.73     65.69     68.16 
 C                     27.41     65.9      69.5 
 C                     27.28     64.5      67.59 
 C                     26.74     64.96     70.3 
 C                     26.52     63.56     68.3 
 C                     26.3      63.78     69.67 
 O                     25.54     62.8      70.25 
 H                     29.15     67.09     64.43 
 H                     29.04     65.54     65.95 
 H                     27.45     67.18     66.83 
 H                     28.6      67.66     68.02 
 H                     27.58     66.88     69.93 
 H                     27.4      64.36     66.53 
 H                     26.36     65.17     71.29 
 H                     26.04     62.72     67.82 
 H                     25.08     62.26     69.61 
 N                     31.92     66.82     66.54 
 C                     33.3      66.82     66.97 
 C                     34.02     65.49     66.78 
 O                     35.17     65.55     66.35 
 C                     33.48     67.35     68.39 
 C                     32.87     68.75     68.46 
 C                     34.93     67.42     68.85 
 C                     33.24     69.74     67.37 
 H                     31.83     67.23     65.62 
 H                     33.87     67.5      66.33 
 H                     32.99     66.64     69.06 
 H                     33.07     69.22     69.43 
 H                     31.78     68.64     68.48 
 H                     35.2      66.43     69.21 
 H                     35.6      67.75     68.06 
 H                     34.98     68.02     69.76 
 H                     32.73     69.6      66.42 
 H                     33.01     70.72     67.79 
 H                     34.32     69.86     67.23 
 N                     33.38     64.35     67.06 
 C                     33.79     63.01     66.66 
 C                     35.17     62.57     67.13 
 O                     35.91     61.94     66.39 
 C                     32.75     62.02     67.18 
 O                     32.69     62.07     68.59 
 H                     32.45     64.46     67.43 
 H                     33.75     62.95     65.57 
 H                     33.07     61.03     66.85 
 H                     31.79     62.26     66.74 
 H                     31.89     61.67     68.93 
 N                     35.55     62.96     68.36 
 C                     36.85     62.79     68.97 
 C                     38.1      63.19     68.2 
 O                     39.19     62.67     68.45 
 C                     37.1      61.36     69.43 
 H                     34.78     63.3      68.9 
 H                     36.86     63.34     69.91 
 H                     37.92     61.26     70.13 
 H                     36.22     60.92     69.9 
 H                     37.43     60.76     68.58 
 N                     38.02     64.08     67.2 
 C                     39.06     64.37     66.24 
 C                     40.09     65.38     66.73 
 O                     39.77     66.36     67.39 
 C                     38.43     64.79     64.91 
 H                     37.11     64.47     67. 
 H                     39.61     63.44     66.1 
 H                     37.79     65.64     65.12 
 H                     39.07     65.02     64.07 
 H                     37.85     64.       64.42 
 N                     41.34     65.26     66.26 
 C                     42.54     66.08     66.32 
 C                     42.88     66.57     67.72 
 O                     43.58     67.56     67.96 
 C                     42.25     67.27     65.42 
 C                     42.04     66.82     63.98 
 C                     42.57     67.87     63.01 
 O                     43.77     67.93     62.67 
 O                     41.71     68.66     62.57 
 H                     41.54     64.39     65.79 
 H                     43.45     65.64     65.92 
 H                     43.05     68.       65.52 
 H                     41.39     67.81     65.84 
 H                     41.01     66.6      63.71 
 H                     42.44     65.81     63.88 
 N                     42.33     65.93     68.75 
 C                     42.29     66.45     70.1 
 H                     41.389    67.049    70.231 
 H                     42.282    65.622    70.809 
 H                     43.168    67.072    70.277 
 H                     41.73     65.16     68.49 
 Ca                    40.86     69.65     60.14 
 O                     39.96     69.48     57.6 
 H                     39.93     68.79     56.94 
 H                     39.52     70.23     57.19 
 
 Stoichiometry    C54H83CaN15O23
 Framework group  C1[X(C54H83CaN15O23)]
 Deg. of freedom   522
 Full point group                 C1      NOp   1
 Largest Abelian subgroup         C1      NOp   1
 Largest concise Abelian subgroup C1      NOp   1
                         Standard orientation:                         
 ---------------------------------------------------------------------
 Center     Atomic      Atomic             Coordinates (Angstroms)
 Number     Number       Type             X           Y           Z
 ---------------------------------------------------------------------
      1          6           0        8.190988   -3.235823   -6.529292
      2          6           0        8.861743   -3.059887   -5.175138
      3          8           0       10.060478   -2.808092   -5.142984
      4          1           0        7.194115   -3.652533   -6.388679
      5          1           0        8.113589   -2.268265   -7.025811
      6          1           0        8.783614   -3.912947   -7.143688
      7          7           0        8.064016   -2.962583   -4.109557
      8          6           0        8.413659   -2.725858   -2.714276
      9          6           0        7.321498   -1.870380   -2.092069
     10          8           0        6.262203   -1.647599   -2.673072
     11          6           0        8.652528   -4.023631   -1.960667
     12          6           0        9.145221   -3.834939   -0.527576
     13          8           0        9.781286   -2.776330   -0.335568
     14          8           0        8.843908   -4.686142    0.337735
     15          1           0        7.098531   -2.795257   -4.335702
     16          1           0        9.384771   -2.260803   -2.851261
     17          1           0        9.501600   -4.489069   -2.455686
     18          1           0        7.787195   -4.692891   -2.028403
     19          7           0        7.492733   -1.285566   -0.904646
     20          6           0        6.496184   -0.750609    0.006567
     21          6           0        5.488028   -1.768045    0.510298
     22          8           0        5.347910   -2.877783    0.006166
     23          6           0        5.843497    0.551045   -0.445978
     24          6           0        6.777992    1.532501   -1.153129
     25          6           0        7.910667    2.019212   -0.255209
     26          6           0        8.658888    3.128491   -0.983882
     27          7           0        9.832165    2.563907   -1.667742
     28          1           0        8.392592   -1.395038   -0.454569
     29          1           0        7.144484   -0.386813    0.798311
     30          1           0        5.432941    1.005578    0.449647
     31          1           0        4.994395    0.483431   -1.127927
     32          1           0        6.238789    2.383735   -1.578405
     33          1           0        7.209766    1.001535   -1.998674
     34          1           0        8.623888    1.239453    0.017722
     35          1           0        7.491515    2.511061    0.625130
     36          1           0        8.996477    3.843645   -0.239108
     37          1           0        8.069428    3.679999   -1.713523
     38          1           0       10.375473    1.974103   -1.044887
     39          1           0        9.498957    2.059593   -2.475975
     40          1           0       10.385910    3.285673   -2.094733
     41          7           0        4.699081   -1.331490    1.502862
     42          6           0        3.692624   -2.134377    2.169583
     43          6           0        2.286769   -2.066711    1.594523
     44          8           0        1.257718   -2.022256    2.262114
     45          6           0        3.744837   -2.136192    3.686248
     46          6           0        3.716487   -0.713774    4.243763
     47          8           0        3.499158    0.262146    3.497005
     48          8           0        4.042388   -0.523381    5.434619
     49          1           0        4.833192   -0.376429    1.809411
     50          1           0        3.981613   -3.178377    2.003308
     51          1           0        4.643438   -2.629751    4.049865
     52          1           0        2.915854   -2.723290    4.079952
     53          7           0        2.214882   -2.285370    0.276866
     54          6           0        0.972776   -2.435864   -0.464906
     55          6           0        0.307260   -3.798488   -0.381582
     56          8           0        0.421888   -4.616127   -1.290662
     57          1           0        3.077294   -2.394613   -0.239285
     58          1           0        1.244837   -2.202497   -1.493994
     59          1           0        0.279949   -1.625745   -0.236875
     60          7           0       -0.469068   -3.994001    0.683308
     61          6           0       -1.317116   -5.150043    0.915647
     62          6           0       -2.550884   -4.701751    1.683274
     63          8           0       -2.425612   -3.801156    2.509491
     64          6           0       -0.550686   -6.239830    1.651342
     65          6           0        0.442963   -7.005274    0.780964
     66          7           0       -0.041988   -7.605039   -0.312335
     67          8           0        1.633447   -7.051496    1.084629
     68          1           0       -0.467197   -3.312930    1.422455
     69          1           0       -1.683358   -5.548163   -0.040004
     70          1           0       -1.262097   -6.955975    2.049878
     71          1           0       -0.038471   -5.764175    2.491752
     72          1           0       -1.031152   -7.761306   -0.471195
     73          1           0        0.675168   -8.011944   -0.897754
     74          7           0       -3.614914   -5.502886    1.562352
     75          6           0       -4.938576   -5.106794    1.984879
     76          6           0       -5.656806   -4.159478    1.031287
     77          8           0       -5.288088   -4.141717   -0.140178
     78          1           0       -3.444221   -6.205236    0.857392
     79          1           0       -4.898109   -4.800653    3.030030
     80          1           0       -5.502480   -6.027347    1.965014
     81          7           0       -6.597600   -3.353765    1.525388
     82          6           0       -7.403429   -2.502615    0.693773
     83          6           0       -6.648232   -1.381969   -0.004533
     84          8           0       -7.103775   -0.852443   -1.020152
     85          6           0       -8.180285   -3.444798   -0.227359
     86          6           0       -9.516461   -2.933749   -0.714353
     87          6           0       -9.887033   -3.182085   -2.034620
     88          6           0      -10.500396   -2.407938    0.121646
     89          6           0      -11.148024   -2.864539   -2.565247
     90          6           0      -11.809677   -2.158693   -0.313049
     91          6           0      -12.106061   -2.344821   -1.673642
     92          8           0      -13.414942   -2.077765   -1.973494
     93          1           0       -6.815905   -3.352929    2.513741
     94          1           0       -8.201620   -2.145861    1.352801
     95          1           0       -8.495413   -4.340288    0.308638
     96          1           0       -7.577194   -3.818149   -1.052701
     97          1           0       -9.216805   -3.752819   -2.666488
     98          1           0      -10.288664   -2.319815    1.172837
     99          1           0      -11.492412   -3.184522   -3.538699
    100          1           0      -12.608383   -1.903115    0.367502
    101          1           0      -13.973410   -2.044592   -1.199018
    102          7           0       -5.370734   -1.110963    0.259197
    103          6           0       -4.439050   -0.149222   -0.285156
    104          6           0       -4.726380    1.296677    0.102424
    105          8           0       -3.752628    1.982867    0.405657
    106          6           0       -4.250641   -0.292060   -1.793068
    107          6           0       -3.812894   -1.726844   -2.087636
    108          6           0       -3.228250    0.667548   -2.387095
    109          6           0       -2.682670   -2.308056   -1.257042
    110          1           0       -4.987804   -1.556549    1.082251
    111          1           0       -3.451555   -0.327388    0.150746
    112          1           0       -5.204474   -0.035547   -2.259441
    113          1           0       -3.557796   -1.852550   -3.146373
    114          1           0       -4.692052   -2.372926   -1.986341
    115          1           0       -3.739293    1.611095   -2.563603
    116          1           0       -2.362257    0.801033   -1.743560
    117          1           0       -2.988002    0.340182   -3.399869
    118          1           0       -2.957932   -2.631408   -0.256106
    119          1           0       -2.305572   -3.147234   -1.842942
    120          1           0       -1.780292   -1.686848   -1.242397
    121          7           0       -5.989405    1.735048    0.116496
    122          6           0       -6.469640    2.962071    0.738982
    123          6           0       -5.829472    4.252098    0.244092
    124          8           0       -5.540362    5.145306    1.025561
    125          6           0       -7.979485    3.043824    0.525014
    126          8           0       -8.275384    3.093761   -0.854896
    127          1           0       -6.679230    1.065158   -0.182317
    128          1           0       -6.318387    2.881442    1.817834
    129          1           0       -8.314735    3.958682    1.016992
    130          1           0       -8.444638    2.185001    0.992835
    131          1           0       -9.191809    2.884459   -1.033663
    132          7           0       -5.545438    4.329232   -1.068454
    133          6           0       -4.818538    5.379119   -1.746947
    134          6           0       -3.483516    5.850686   -1.189507
    135          8           0       -3.064580    6.985968   -1.427471
    136          6           0       -5.647933    6.642977   -1.930706
    137          1           0       -6.003252    3.611945   -1.593816
    138          1           0       -4.646055    5.064595   -2.775308
    139          1           0       -5.248226    7.328263   -2.667603
    140          1           0       -6.675325    6.421389   -2.220987
    141          1           0       -5.619873    7.229911   -1.010858
    142          7           0       -2.767869    5.050385   -0.385848
    143          6           0       -1.620416    5.445555    0.398047
    144          6           0       -0.308381    5.433302   -0.376236
    145          8           0       -0.046004    4.555539   -1.188079
    146          6           0       -1.546952    4.594490    1.667886
    147          1           0       -3.147807    4.135929   -0.186808
    148          1           0       -1.785552    6.487084    0.671815
    149          1           0       -1.513854    3.558101    1.350076
    150          1           0       -0.757453    4.777198    2.383014
    151          1           0       -2.385219    4.745386    2.357190
    152          7           0        0.631246    6.315601   -0.006846
    153          6           0        2.032873    6.518538   -0.338900
    154          6           0        2.317595    6.510433   -1.833747
    155          8           0        3.423578    6.269705   -2.330287
    156          6           0        2.766710    5.365406    0.325908
    157          6           0        2.611731    5.427344    1.839957
    158          6           0        3.874510    4.919679    2.526954
    159          8           0        4.867037    5.647416    2.737877
    160          8           0        3.837473    3.721888    2.875126
    161          1           0        0.312944    7.049040    0.608420
    162          1           0        2.501381    7.415863    0.057342
    163          1           0        3.807159    5.370816    0.009150
    164          1           0        2.395492    4.429533   -0.114478
    165          1           0        1.764357    4.876452    2.240800
    166          1           0        2.276325    6.431179    2.104376
    167          7           0        1.292118    6.707577   -2.659901
    168          6           0        1.325846    6.418667   -4.077608
    169          1           0        1.020563    5.385811   -4.244261
    170          1           0        0.643790    7.088155   -4.601932
    171          1           0        2.338771    6.562876   -4.454815
    172          1           0        0.405679    6.851049   -2.197146
    173         20           0        4.337258    2.204010    5.123183
    174          8           0        4.074977    1.498769    7.716317
    175          1           0        3.741178    1.928437    8.501533
    176          1           0        4.316032    0.614115    8.005246
 ---------------------------------------------------------------------
 Rotational constants (GHZ):           0.0178266           0.0091772           0.0074071
 Standard basis: SVP (5D, 7F)
 There are  1809 symmetry adapted cartesian basis functions of A   symmetry.
 There are  1717 symmetry adapted basis functions of A   symmetry.
  1717 basis functions,  2922 primitive gaussians,  1809 cartesian basis functions
   358 alpha electrons      358 beta electrons
       nuclear repulsion energy     18752.8272267783 Hartrees.
 NAtoms=  176 NActive=  176 NUniq=  176 SFac= 1.00D+00 NAtFMM=   60 NAOKFM=T Big=T
 Integral buffers will be    131072 words long.
 Raffenetti 2 integral format.
 Two-electron integral symmetry is turned on.
 One-electron integrals computed using PRISM.
 NBasis=  1717 RedAO= T EigKep=  2.93D-04  NBF=  1717
 NBsUse=  1717 1.00D-06 EigRej= -1.00D+00 NBFU=  1717
 ExpMin= 1.98D-02 ExpMax= 3.51D+04 ExpMxC= 5.28D+03 IAcc=3 IRadAn=         5 AccDes= 0.00D+00
 Harris functional with IExCor=  402 and IRadAn=       5 diagonalized for initial guess.
 HarFok:  IExCor=  402 AccDes= 0.00D+00 IRadAn=         5 IDoV= 1 UseB2=F ITyADJ=14
 ICtDFT=  3500011 ScaDFX=  1.000000  1.000000  1.000000  1.000000
 FoFCou: FMM=F IPFlag=           0 FMFlag=      100000 FMFlg1=        2001
         NFxFlg=           0 DoJE=T BraDBF=F KetDBF=T FulRan=T
         wScrn=  0.000000 ICntrl=       500 IOpCl=  0 I1Cent=   200000004 NGrid=           0
         NMat0=    1 NMatS0=      1 NMatT0=    0 NMatD0=    1 NMtDS0=    0 NMtDT0=    0
 Petite list used in FoFCou.
 Requested convergence on RMS density matrix=1.00D-08 within 128 cycles.
 Requested convergence on MAX density matrix=1.00D-06.
 Requested convergence on             energy=1.00D-06.
 No special actions if energy rises.
 EnCoef did     2 forward-backward iterations
 EnCoef did     2 forward-backward iterations
 EnCoef did     5 forward-backward iterations
 EnCoef did     1 forward-backward iterations
 Rare condition: small coef for last iteration:  0.000D+00
 EnCoef did   100 forward-backward iterations
 Rare condition: small coef for last iteration:  0.000D+00
 EnCoef did   100 forward-backward iterations
 EnCoef did   100 forward-backward iterations
 Rare condition: small coef for last iteration:  0.598D-16
 EnCoef did   100 forward-backward iterations
 Rare condition: small coef for last iteration:  0.000D+00
 EnCoef did   100 forward-backward iterations
 Restarting incremental Fock formation.
 EnCoef did     8 forward-backward iterations
 SCF Done:  E(RB3LYP) =  -5333.35918947     A.U. after   32 cycles
            NFock= 32  Conv=0.22D-08     -V/T= 2.0081
 SCF density gives NOpUse=  1 NOpAll=  1.
 Hyperfine terms turned off by default for NAtoms > 100.

 **********************************************************************

            Population analysis using the SCF density.

 **********************************************************************

 Orbital symmetries:
 BldTbl:  Degeneracy threshold= 1.00D-02
       Occupied  (A) (A) (A) (A) (A) (A) (A) (A) (A) (A) (A) (A)
                 (A) (A) (A) (A) (A) (A) (A) (A) (A) (A) (A) (A)
                 (A) (A) (A) (A) (A) (A) (A) (A) (A) (A) (A) (A)
                 (A) (A) (A) (A) (A) (A) (A) (A) (A) (A) (A) (A)
                 (A) (A) (A) (A) (A) (A) (A) (A) (A) (A) (A) (A)
                 (A) (A) (A) (A) (A) (A) (A) (A) (A) (A) (A) (A)
                 (A) (A) (A) (A) (A) (A) (A) (A) (A) (A) (A) (A)
                 (A) (A) (A) (A) (A) (A) (A) (A) (A) (A) (A) (A)
                 (A) (A) (A) (A) (A) (A) (A) (A) (A) (A) (A) (A)
                 (A) (A) (A) (A) (A) (A) (A) (A) (A) (A) (A) (A)
                 (A) (A) (A) (A) (A) (A) (A) (A) (A) (A) (A) (A)
                 (A) (A) (A) (A) (A) (A) (A) (A) (A) (A) (A) (A)
                 (A) (A) (A) (A) (A) (A) (A) (A) (A) (A) (A) (A)
                 (A) (A) (A) (A) (A) (A) (A) (A) (A) (A) (A) (A)
                 (A) (A) (A) (A) (A) (A) (A) (A) (A) (A) (A) (A)
                 (A) (A) (A) (A) (A) (A) (A) (A) (A) (A) (A) (A)
                 (A) (A) (A) (A) (A) (A) (A) (A) (A) (A) (A) (A)
                 (A) (A) (A) (A) (A) (A) (A) (A) (A) (A) (A) (A)
                 (A) (A) (A) (A) (A) (A) (A) (A) (A) (A) (A) (A)
                 (A) (A) (A) (A) (A) (A) (A) (A) (A) (A) (A) (A)
                 (A) (A) (A) (A) (A) (A) (A) (A) (A) (A) (A) (A)
                 (A) (A) (A) (A) (A) (A) (A) (A) (A) (A) (A) (A)
                 (A) (A) (A) (A) (A) (A) (A) (A) (A) (A) (A) (A)
                 (A) (A) (A) (A) (A) (A) (A) (A) (A) (A) (A) (A)
                 (A) (A) (A) (A) (A) (A) (A) (A) (A) (A) (A) (A)
                 (A) (A) (A) (A) (A) (A) (A) (A) (A) (A) (A) (A)
                 (A) (A) (A) (A) (A) (A) (A) (A) (A) (A) (A) (A)
                 (A) (A) (A) (A) (A) (A) (A) (A) (A) (A) (A) (A)
                 (A) (A) (A) (A) (A) (A) (A) (A) (A) (A) (A) (A)
                 (A) (A) (A) (A) (A) (A) (A) (A) (A) (A)
       Virtual   (A) (A) (A) (A) (A) (A) (A) (A) (A) (A) (A) (A)
                 (A) (A) (A) (A) (A) (A) (A) (A) (A) (A) (A) (A)
                 (A) (A) (A) (A) (A) (A) (A) (A) (A) (A) (A) (A)
                 (A) (A) (A) (A) (A) (A) (A) (A) (A) (A) (A) (A)
                 (A) (A) (A) (A) (A) (A) (A) (A) (A) (A) (A) (A)
                 (A) (A) (A) (A) (A) (A) (A) (A) (A) (A) (A) (A)
                 (A) (A) (A) (A) (A) (A) (A) (A) (A) (A) (A) (A)
                 (A) (A) (A) (A) (A) (A) (A) (A) (A) (A) (A) (A)
                 (A) (A) (A) (A) (A) (A) (A) (A) (A) (A) (A) (A)
                 (A) (A) (A) (A) (A) (A) (A) (A) (A) (A) (A) (A)
                 (A) (A) (A) (A) (A) (A) (A) (A) (A) (A) (A) (A)
                 (A) (A) (A) (A) (A) (A) (A) (A) (A) (A) (A) (A)
                 (A) (A) (A) (A) (A) (A) (A) (A) (A) (A) (A) (A)
                 (A) (A) (A) (A) (A) (A) (A) (A) (A) (A) (A) (A)
                 (A) (A) (A) (A) (A) (A) (A) (A) (A) (A) (A) (A)
                 (A) (A) (A) (A) (A) (A) (A) (A) (A) (A) (A) (A)
                 (A) (A) (A) (A) (A) (A) (A) (A) (A) (A) (A) (A)
                 (A) (A) (A) (A) (A) (A) (A) (A) (A) (A) (A) (A)
                 (A) (A) (A) (A) (A) (A) (A) (A) (A) (A) (A) (A)
                 (A) (A) (A) (A) (A) (A) (A) (A) (A) (A) (A) (A)
                 (A) (A) (A) (A) (A) (A) (A) (A) (A) (A) (A) (A)
                 (A) (A) (A) (A) (A) (A) (A) (A) (A) (A) (A) (A)
                 (A) (A) (A) (A) (A) (A) (A) (A) (A) (A) (A) (A)
                 (A) (A) (A) (A) (A) (A) (A) (A) (A) (A) (A) (A)
                 (A) (A) (A) (A) (A) (A) (A) (A) (A) (A) (A) (A)
                 (A) (A) (A) (A) (A) (A) (A) (A) (A) (A) (A) (A)
                 (A) (A) (A) (A) (A) (A) (A) (A) (A) (A) (A) (A)
                 (A) (A) (A) (A) (A) (A) (A) (A) (A) (A) (A) (A)
                 (A) (A) (A) (A) (A) (A) (A) (A) (A) (A) (A) (A)
                 (A) (A) (A) (A) (A) (A) (A) (A) (A) (A) (A) (A)
                 (A) (A) (A) (A) (A) (A) (A) (A) (A) (A) (A) (A)
                 (A) (A) (A) (A) (A) (A) (A) (A) (A) (A) (A) (A)
                 (A) (A) (A) (A) (A) (A) (A) (A) (A) (A) (A) (A)
                 (A) (A) (A) (A) (A) (A) (A) (A) (A) (A) (A) (A)
                 (A) (A) (A) (A) (A) (A) (A) (A) (A) (A) (A) (A)
                 (A) (A) (A) (A) (A) (A) (A) (A) (A) (A) (A) (A)
                 (A) (A) (A) (A) (A) (A) (A) (A) (A) (A) (A) (A)
                 (A) (A) (A) (A) (A) (A) (A) (A) (A) (A) (A) (A)
                 (A) (A) (A) (A) (A) (A) (A) (A) (A) (A) (A) (A)
                 (A) (A) (A) (A) (A) (A) (A) (A) (A) (A) (A) (A)
                 (A) (A) (A) (A) (A) (A) (A) (A) (A) (A) (A) (A)
                 (A) (A) (A) (A) (A) (A) (A) (A) (A) (A) (A) (A)
                 (A) (A) (A) (A) (A) (A) (A) (A) (A) (A) (A) (A)
                 (A) (A) (A) (A) (A) (A) (A) (A) (A) (A) (A) (A)
                 (A) (A) (A) (A) (A) (A) (A) (A) (A) (A) (A) (A)
                 (A) (A) (A) (A) (A) (A) (A) (A) (A) (A) (A) (A)
                 (A) (A) (A) (A) (A) (A) (A) (A) (A) (A) (A) (A)
                 (A) (A) (A) (A) (A) (A) (A) (A) (A) (A) (A) (A)
                 (A) (A) (A) (A) (A) (A) (A) (A) (A) (A) (A) (A)
                 (A) (A) (A) (A) (A) (A) (A) (A) (A) (A) (A) (A)
                 (A) (A) (A) (A) (A) (A) (A) (A) (A) (A) (A) (A)
                 (A) (A) (A) (A) (A) (A) (A) (A) (A) (A) (A) (A)
                 (A) (A) (A) (A) (A) (A) (A) (A) (A) (A) (A) (A)
                 (A) (A) (A) (A) (A) (A) (A) (A) (A) (A) (A) (A)
                 (A) (A) (A) (A) (A) (A) (A) (A) (A) (A) (A) (A)
                 (A) (A) (A) (A) (A) (A) (A) (A) (A) (A) (A) (A)
                 (A) (A) (A) (A) (A) (A) (A) (A) (A) (A) (A) (A)
                 (A) (A) (A) (A) (A) (A) (A) (A) (A) (A) (A) (A)
                 (A) (A) (A) (A) (A) (A) (A) (A) (A) (A) (A) (A)
                 (A) (A) (A) (A) (A) (A) (A) (A) (A) (A) (A) (A)
                 (A) (A) (A) (A) (A) (A) (A) (A) (A) (A) (A) (A)
                 (A) (A) (A) (A) (A) (A) (A) (A) (A) (A) (A) (A)
                 (A) (A) (A) (A) (A) (A) (A) (A) (A) (A) (A) (A)
                 (A) (A) (A) (A) (A) (A) (A) (A) (A) (A) (A) (A)
                 (A) (A) (A) (A) (A) (A) (A) (A) (A) (A) (A) (A)
                 (A) (A) (A) (A) (A) (A) (A) (A) (A) (A) (A) (A)
                 (A) (A) (A) (A) (A) (A) (A) (A) (A) (A) (A) (A)
                 (A) (A) (A) (A) (A) (A) (A) (A) (A) (A) (A) (A)
                 (A) (A) (A) (A) (A) (A) (A) (A) (A) (A) (A) (A)
                 (A) (A) (A) (A) (A) (A) (A) (A) (A) (A) (A) (A)
                 (A) (A) (A) (A) (A) (A) (A) (A) (A) (A) (A) (A)
                 (A) (A) (A) (A) (A) (A) (A) (A) (A) (A) (A) (A)
                 (A) (A) (A) (A) (A) (A) (A) (A) (A) (A) (A) (A)
                 (A) (A) (A) (A) (A) (A) (A) (A) (A) (A) (A) (A)
                 (A) (A) (A) (A) (A) (A) (A) (A) (A) (A) (A) (A)
                 (A) (A) (A) (A) (A) (A) (A) (A) (A) (A) (A) (A)
                 (A) (A) (A) (A) (A) (A) (A) (A) (A) (A) (A) (A)
                 (A) (A) (A) (A) (A) (A) (A) (A) (A) (A) (A) (A)
                 (A) (A) (A) (A) (A) (A) (A) (A) (A) (A) (A) (A)
                 (A) (A) (A) (A) (A) (A) (A) (A) (A) (A) (A) (A)
                 (A) (A) (A) (A) (A) (A) (A) (A) (A) (A) (A) (A)
                 (A) (A) (A) (A) (A) (A) (A) (A) (A) (A) (A) (A)
                 (A) (A) (A) (A) (A) (A) (A) (A) (A) (A) (A) (A)
                 (A) (A) (A) (A) (A) (A) (A) (A) (A) (A) (A) (A)
                 (A) (A) (A) (A) (A) (A) (A) (A) (A) (A) (A) (A)
                 (A) (A) (A) (A) (A) (A) (A) (A) (A) (A) (A) (A)
                 (A) (A) (A) (A) (A) (A) (A) (A) (A) (A) (A) (A)
                 (A) (A) (A) (A) (A) (A) (A) (A) (A) (A) (A) (A)
                 (A) (A) (A) (A) (A) (A) (A) (A) (A) (A) (A) (A)
                 (A) (A) (A) (A) (A) (A) (A) (A) (A) (A) (A) (A)
                 (A) (A) (A) (A) (A) (A) (A) (A) (A) (A) (A) (A)
                 (A) (A) (A) (A) (A) (A) (A) (A) (A) (A) (A) (A)
                 (A) (A) (A) (A) (A) (A) (A) (A) (A) (A) (A) (A)
                 (A) (A) (A) (A) (A) (A) (A) (A) (A) (A) (A) (A)
                 (A) (A) (A) (A) (A) (A) (A) (A) (A) (A) (A) (A)
                 (A) (A) (A) (A) (A) (A) (A) (A) (A) (A) (A) (A)
                 (A) (A) (A) (A) (A) (A) (A) (A) (A) (A) (A) (A)
                 (A) (A) (A) (A) (A) (A) (A) (A) (A) (A) (A) (A)
                 (A) (A) (A) (A) (A) (A) (A) (A) (A) (A) (A) (A)
                 (A) (A) (A) (A) (A) (A) (A) (A) (A) (A) (A) (A)
                 (A) (A) (A) (A) (A) (A) (A) (A) (A) (A) (A) (A)
                 (A) (A) (A) (A) (A) (A) (A) (A) (A) (A) (A) (A)
                 (A) (A) (A) (A) (A) (A) (A) (A) (A) (A) (A) (A)
                 (A) (A) (A) (A) (A) (A) (A) (A) (A) (A) (A) (A)
                 (A) (A) (A) (A) (A) (A) (A) (A) (A) (A) (A) (A)
                 (A) (A) (A) (A) (A) (A) (A) (A) (A) (A) (A) (A)
                 (A) (A) (A) (A) (A) (A) (A) (A) (A) (A) (A) (A)
                 (A) (A) (A) (A) (A) (A) (A) (A) (A) (A) (A) (A)
                 (A) (A) (A) (A) (A) (A) (A) (A) (A) (A) (A) (A)
                 (A) (A) (A) (A) (A) (A) (A) (A) (A) (A) (A) (A)
                 (A) (A) (A) (A) (A) (A) (A) (A) (A) (A) (A) (A)
                 (A) (A) (A) (A) (A) (A) (A) (A) (A) (A) (A) (A)
                 (A) (A) (A) (A) (A) (A) (A) (A) (A) (A) (A) (A)
                 (A) (A) (A)
 The electronic state is 1-A.
 Alpha  occ. eigenvalues -- -145.49436 -19.22869 -19.16407 -19.15496 -19.12836
 Alpha  occ. eigenvalues --  -19.11276 -19.11095 -19.10527 -19.09350 -19.08503
 Alpha  occ. eigenvalues --  -19.08161 -19.07983 -19.07762 -19.07633 -19.07539
 Alpha  occ. eigenvalues --  -19.07002 -19.06982 -19.06633 -19.06255 -19.06110
 Alpha  occ. eigenvalues --  -19.04154 -19.03480 -18.97144 -18.96371 -15.55322
 Alpha  occ. eigenvalues --  -14.56074 -14.39638 -14.37797 -14.37102 -14.36251
 Alpha  occ. eigenvalues --  -14.34981 -14.34888 -14.33645 -14.33403 -14.33060
 Alpha  occ. eigenvalues --  -14.32869 -14.32670 -14.32510 -14.31032 -14.29626
 Alpha  occ. eigenvalues --  -12.68960 -12.68880 -12.68832 -10.32491 -10.31659
 Alpha  occ. eigenvalues --  -10.30703 -10.29335 -10.28826 -10.28190 -10.27116
 Alpha  occ. eigenvalues --  -10.27038 -10.26934 -10.26814 -10.26506 -10.26454
 Alpha  occ. eigenvalues --  -10.26243 -10.25984 -10.25898 -10.25880 -10.25814
 Alpha  occ. eigenvalues --  -10.25594 -10.25171 -10.24727 -10.24631 -10.23907
 Alpha  occ. eigenvalues --  -10.23453 -10.23451 -10.23358 -10.23039 -10.22622
 Alpha  occ. eigenvalues --  -10.22446 -10.22386 -10.21585 -10.21111 -10.20927
 Alpha  occ. eigenvalues --  -10.20418 -10.20376 -10.20050 -10.20007 -10.19907
 Alpha  occ. eigenvalues --  -10.19846 -10.19797 -10.19227 -10.18839 -10.17827
 Alpha  occ. eigenvalues --  -10.17810 -10.17539 -10.17373 -10.16495 -10.16160
 Alpha  occ. eigenvalues --  -10.16130 -10.16106 -10.16105 -10.16017 -10.15669
 Alpha  occ. eigenvalues --  -10.15539 -10.10415  -1.91799  -1.19552  -1.18875
 Alpha  occ. eigenvalues --   -1.18495  -1.11563  -1.08584  -1.06477  -1.05335
 Alpha  occ. eigenvalues --   -1.04902  -1.04073  -1.03985  -1.03440  -1.03063
 Alpha  occ. eigenvalues --   -1.02332  -1.01761  -1.01093  -1.00547  -1.00463
 Alpha  occ. eigenvalues --   -0.99838  -0.99581  -0.99454  -0.99366  -0.99319
 Alpha  occ. eigenvalues --   -0.97211  -0.96677  -0.94515  -0.93678  -0.92988
 Alpha  occ. eigenvalues --   -0.92719  -0.91648  -0.91604  -0.91215  -0.90396
 Alpha  occ. eigenvalues --   -0.90234  -0.89730  -0.89053  -0.88994  -0.88644
 Alpha  occ. eigenvalues --   -0.88419  -0.88026  -0.86784  -0.86577  -0.86166
 Alpha  occ. eigenvalues --   -0.81814  -0.81770  -0.80658  -0.79711  -0.78957
 Alpha  occ. eigenvalues --   -0.78879  -0.78253  -0.76940  -0.76250  -0.76121
 Alpha  occ. eigenvalues --   -0.75248  -0.74549  -0.74106  -0.74009  -0.72750
 Alpha  occ. eigenvalues --   -0.72642  -0.71762  -0.71301  -0.71256  -0.70433
 Alpha  occ. eigenvalues --   -0.69452  -0.68066  -0.67957  -0.67596  -0.67296
 Alpha  occ. eigenvalues --   -0.66739  -0.66311  -0.65155  -0.64249  -0.63877
 Alpha  occ. eigenvalues --   -0.63332  -0.63158  -0.62507  -0.61752  -0.61711
 Alpha  occ. eigenvalues --   -0.61659  -0.60817  -0.60540  -0.60197  -0.59863
 Alpha  occ. eigenvalues --   -0.59791  -0.59331  -0.58685  -0.58535  -0.58182
 Alpha  occ. eigenvalues --   -0.57419  -0.57017  -0.56911  -0.56328  -0.56088
 Alpha  occ. eigenvalues --   -0.55969  -0.55711  -0.55456  -0.55073  -0.54958
 Alpha  occ. eigenvalues --   -0.54883  -0.54111  -0.53514  -0.53426  -0.53020
 Alpha  occ. eigenvalues --   -0.52687  -0.52285  -0.52177  -0.51973  -0.51640
 Alpha  occ. eigenvalues --   -0.51369  -0.50929  -0.50712  -0.50535  -0.50225
 Alpha  occ. eigenvalues --   -0.49934  -0.49864  -0.49225  -0.48842  -0.48523
 Alpha  occ. eigenvalues --   -0.48307  -0.48094  -0.47889  -0.47649  -0.47505
 Alpha  occ. eigenvalues --   -0.47245  -0.46953  -0.46668  -0.46551  -0.46427
 Alpha  occ. eigenvalues --   -0.46317  -0.46039  -0.45699  -0.45442  -0.45320
 Alpha  occ. eigenvalues --   -0.45081  -0.44792  -0.44627  -0.44568  -0.44388
 Alpha  occ. eigenvalues --   -0.43814  -0.43744  -0.43707  -0.43614  -0.43356
 Alpha  occ. eigenvalues --   -0.43201  -0.43074  -0.43030  -0.42797  -0.42584
 Alpha  occ. eigenvalues --   -0.42507  -0.42168  -0.41969  -0.41955  -0.41897
 Alpha  occ. eigenvalues --   -0.41874  -0.41579  -0.41274  -0.41161  -0.41035
 Alpha  occ. eigenvalues --   -0.40869  -0.40648  -0.40578  -0.40409  -0.40358
 Alpha  occ. eigenvalues --   -0.40273  -0.40194  -0.40134  -0.40011  -0.39627
 Alpha  occ. eigenvalues --   -0.39542  -0.39430  -0.39402  -0.39208  -0.38976
 Alpha  occ. eigenvalues --   -0.38833  -0.38665  -0.38645  -0.38124  -0.37935
 Alpha  occ. eigenvalues --   -0.37897  -0.37697  -0.37656  -0.37389  -0.37183
 Alpha  occ. eigenvalues --   -0.37044  -0.36953  -0.36910  -0.36810  -0.36710
 Alpha  occ. eigenvalues --   -0.36573  -0.36414  -0.36364  -0.36298  -0.36053
 Alpha  occ. eigenvalues --   -0.35991  -0.35865  -0.35772  -0.35588  -0.35532
 Alpha  occ. eigenvalues --   -0.35058  -0.34961  -0.34851  -0.34662  -0.34631
 Alpha  occ. eigenvalues --   -0.34532  -0.34337  -0.34011  -0.33735  -0.33657
 Alpha  occ. eigenvalues --   -0.33573  -0.33499  -0.33436  -0.33300  -0.32830
 Alpha  occ. eigenvalues --   -0.32312  -0.31952  -0.31887  -0.31340  -0.30508
 Alpha  occ. eigenvalues --   -0.30264  -0.30182  -0.30045  -0.29336  -0.28889
 Alpha  occ. eigenvalues --   -0.28134  -0.28014  -0.27730  -0.27080  -0.26827
 Alpha  occ. eigenvalues --   -0.26747  -0.26657  -0.26577  -0.26461  -0.25984
 Alpha  occ. eigenvalues --   -0.25925  -0.25881  -0.25422  -0.25063  -0.24881
 Alpha  occ. eigenvalues --   -0.24720  -0.24527  -0.24324  -0.23980  -0.23681
 Alpha  occ. eigenvalues --   -0.23521  -0.23418  -0.23030  -0.23019  -0.22653
 Alpha  occ. eigenvalues --   -0.22542  -0.22439  -0.22397  -0.22341  -0.21937
 Alpha  occ. eigenvalues --   -0.21799  -0.21523  -0.20787  -0.20065  -0.19355
 Alpha  occ. eigenvalues --   -0.14635  -0.13879  -0.12221
 Alpha virt. eigenvalues --   -0.11140  -0.07885  -0.03307  -0.02790  -0.02109
 Alpha virt. eigenvalues --   -0.02006  -0.01737  -0.01671  -0.01377  -0.00500
 Alpha virt. eigenvalues --   -0.00142   0.00784   0.00873   0.01047   0.01457
 Alpha virt. eigenvalues --    0.01699   0.02323   0.02660   0.02728   0.02962
 Alpha virt. eigenvalues --    0.03315   0.03469   0.03664   0.03694   0.04055
 Alpha virt. eigenvalues --    0.04507   0.04620   0.04857   0.04904   0.05163
 Alpha virt. eigenvalues --    0.05658   0.05697   0.05795   0.05993   0.06103
 Alpha virt. eigenvalues --    0.06194   0.06568   0.06766   0.07013   0.07338
 Alpha virt. eigenvalues --    0.07834   0.08103   0.08222   0.08360   0.08426
 Alpha virt. eigenvalues --    0.08756   0.08874   0.09217   0.09272   0.09652
 Alpha virt. eigenvalues --    0.09776   0.09963   0.10051   0.10161   0.10372
 Alpha virt. eigenvalues --    0.10722   0.10917   0.11059   0.11149   0.11243
 Alpha virt. eigenvalues --    0.11640   0.11765   0.11849   0.11957   0.12102
 Alpha virt. eigenvalues --    0.12394   0.12471   0.12645   0.12785   0.13232
 Alpha virt. eigenvalues --    0.13404   0.13812   0.13969   0.14039   0.14181
 Alpha virt. eigenvalues --    0.14298   0.14438   0.14481   0.14624   0.14843
 Alpha virt. eigenvalues --    0.15101   0.15296   0.15405   0.15547   0.15713
 Alpha virt. eigenvalues --    0.15744   0.15909   0.16037   0.16349   0.16414
 Alpha virt. eigenvalues --    0.16642   0.16657   0.16788   0.16878   0.16923
 Alpha virt. eigenvalues --    0.17057   0.17293   0.17403   0.17634   0.17692
 Alpha virt. eigenvalues --    0.17903   0.17969   0.18164   0.18369   0.18573
 Alpha virt. eigenvalues --    0.18794   0.18867   0.19212   0.19324   0.19632
 Alpha virt. eigenvalues --    0.19743   0.20040   0.20167   0.20598   0.20690
 Alpha virt. eigenvalues --    0.21119   0.21316   0.21627   0.22039   0.22135
 Alpha virt. eigenvalues --    0.22230   0.22355   0.22561   0.22761   0.23160
 Alpha virt. eigenvalues --    0.23231   0.23596   0.23836   0.23892   0.24081
 Alpha virt. eigenvalues --    0.24215   0.24250   0.24416   0.24616   0.24647
 Alpha virt. eigenvalues --    0.24744   0.24975   0.25307   0.25707   0.26140
 Alpha virt. eigenvalues --    0.26305   0.26812   0.27064   0.27106   0.27439
 Alpha virt. eigenvalues --    0.27754   0.27983   0.28006   0.28185   0.28314
 Alpha virt. eigenvalues --    0.28397   0.28661   0.29082   0.29456   0.29765
 Alpha virt. eigenvalues --    0.29848   0.30120   0.30448   0.30768   0.30860
 Alpha virt. eigenvalues --    0.30979   0.31283   0.31560   0.31798   0.31924
 Alpha virt. eigenvalues --    0.32405   0.32544   0.32751   0.32816   0.33013
 Alpha virt. eigenvalues --    0.33347   0.33535   0.34063   0.34366   0.34396
 Alpha virt. eigenvalues --    0.34729   0.34834   0.35379   0.35673   0.35876
 Alpha virt. eigenvalues --    0.36379   0.36487   0.37028   0.37389   0.37466
 Alpha virt. eigenvalues --    0.38009   0.38429   0.38477   0.39151   0.39290
 Alpha virt. eigenvalues --    0.39550   0.39782   0.40076   0.40161   0.40359
 Alpha virt. eigenvalues --    0.40689   0.40843   0.41089   0.41205   0.41384
 Alpha virt. eigenvalues --    0.41556   0.41644   0.42132   0.42269   0.42442
 Alpha virt. eigenvalues --    0.42679   0.43065   0.43280   0.43509   0.43592
 Alpha virt. eigenvalues --    0.43897   0.44601   0.44781   0.45062   0.45226
 Alpha virt. eigenvalues --    0.45493   0.45797   0.45993   0.46219   0.46278
 Alpha virt. eigenvalues --    0.46398   0.46502   0.46762   0.46987   0.47149
 Alpha virt. eigenvalues --    0.47291   0.47339   0.47762   0.47798   0.47967
 Alpha virt. eigenvalues --    0.48318   0.48413   0.48533   0.48796   0.49209
 Alpha virt. eigenvalues --    0.49534   0.49660   0.49744   0.49939   0.50130
 Alpha virt. eigenvalues --    0.50549   0.50725   0.50797   0.50844   0.51032
 Alpha virt. eigenvalues --    0.51101   0.51423   0.51553   0.51724   0.51898
 Alpha virt. eigenvalues --    0.52094   0.52286   0.52450   0.52577   0.53010
 Alpha virt. eigenvalues --    0.53059   0.53228   0.53585   0.53657   0.53681
 Alpha virt. eigenvalues --    0.54143   0.54317   0.54381   0.54500   0.55061
 Alpha virt. eigenvalues --    0.55141   0.55405   0.55452   0.55534   0.55678
 Alpha virt. eigenvalues --    0.55814   0.55923   0.56089   0.56379   0.56515
 Alpha virt. eigenvalues --    0.56549   0.56603   0.56803   0.56884   0.57026
 Alpha virt. eigenvalues --    0.57205   0.57359   0.57618   0.58145   0.58277
 Alpha virt. eigenvalues --    0.58584   0.58761   0.58943   0.59291   0.59410
 Alpha virt. eigenvalues --    0.59713   0.59841   0.59896   0.59977   0.60154
 Alpha virt. eigenvalues --    0.60219   0.60346   0.60576   0.60737   0.60901
 Alpha virt. eigenvalues --    0.60975   0.61061   0.61199   0.61360   0.61509
 Alpha virt. eigenvalues --    0.61656   0.61730   0.61902   0.61993   0.62142
 Alpha virt. eigenvalues --    0.62266   0.62365   0.62485   0.62501   0.62691
 Alpha virt. eigenvalues --    0.62780   0.62919   0.62979   0.63336   0.63478
 Alpha virt. eigenvalues --    0.63520   0.63822   0.63943   0.64063   0.64124
 Alpha virt. eigenvalues --    0.64316   0.64321   0.64529   0.64552   0.64707
 Alpha virt. eigenvalues --    0.64791   0.64930   0.65100   0.65194   0.65411
 Alpha virt. eigenvalues --    0.65416   0.65688   0.65766   0.65921   0.66008
 Alpha virt. eigenvalues --    0.66110   0.66279   0.66300   0.66420   0.66540
 Alpha virt. eigenvalues --    0.66666   0.66752   0.66905   0.67122   0.67173
 Alpha virt. eigenvalues --    0.67247   0.67468   0.67536   0.67662   0.67681
 Alpha virt. eigenvalues --    0.67867   0.67875   0.67955   0.68017   0.68171
 Alpha virt. eigenvalues --    0.68319   0.68422   0.68524   0.68688   0.68838
 Alpha virt. eigenvalues --    0.68923   0.68924   0.68973   0.69103   0.69223
 Alpha virt. eigenvalues --    0.69247   0.69320   0.69589   0.69682   0.69753
 Alpha virt. eigenvalues --    0.69850   0.69974   0.70069   0.70187   0.70237
 Alpha virt. eigenvalues --    0.70400   0.70456   0.70629   0.70785   0.70896
 Alpha virt. eigenvalues --    0.71099   0.71157   0.71460   0.71491   0.71688
 Alpha virt. eigenvalues --    0.71772   0.71870   0.71904   0.72038   0.72129
 Alpha virt. eigenvalues --    0.72267   0.72288   0.72441   0.72604   0.72940
 Alpha virt. eigenvalues --    0.73104   0.73411   0.73554   0.73766   0.73927
 Alpha virt. eigenvalues --    0.74017   0.74203   0.74244   0.74289   0.74627
 Alpha virt. eigenvalues --    0.74938   0.75218   0.75340   0.75496   0.75574
 Alpha virt. eigenvalues --    0.75833   0.76046   0.76118   0.76865   0.76972
 Alpha virt. eigenvalues --    0.77035   0.77218   0.77334   0.77431   0.77495
 Alpha virt. eigenvalues --    0.77795   0.77938   0.78176   0.78351   0.78359
 Alpha virt. eigenvalues --    0.78622   0.78870   0.79039   0.79277   0.79410
 Alpha virt. eigenvalues --    0.79538   0.79667   0.80058   0.80421   0.80563
 Alpha virt. eigenvalues --    0.81161   0.81370   0.81583   0.81929   0.82058
 Alpha virt. eigenvalues --    0.82292   0.82686   0.83035   0.83220   0.83489
 Alpha virt. eigenvalues --    0.83576   0.83801   0.83951   0.84068   0.84172
 Alpha virt. eigenvalues --    0.84718   0.84933   0.85097   0.85525   0.85980
 Alpha virt. eigenvalues --    0.86448   0.86612   0.86735   0.87396   0.87730
 Alpha virt. eigenvalues --    0.88073   0.88105   0.88409   0.88721   0.88903
 Alpha virt. eigenvalues --    0.89099   0.89460   0.89661   0.90058   0.90251
 Alpha virt. eigenvalues --    0.90812   0.91180   0.91654   0.91688   0.91928
 Alpha virt. eigenvalues --    0.92383   0.92647   0.92846   0.93413   0.93802
 Alpha virt. eigenvalues --    0.93948   0.94390   0.94706   0.94913   0.95257
 Alpha virt. eigenvalues --    0.95345   0.95649   0.95861   0.96005   0.96274
 Alpha virt. eigenvalues --    0.96381   0.96792   0.97063   0.97379   0.97720
 Alpha virt. eigenvalues --    0.97863   0.98109   0.98572   0.98814   0.99003
 Alpha virt. eigenvalues --    0.99643   1.00161   1.00442   1.00592   1.00735
 Alpha virt. eigenvalues --    1.01140   1.01409   1.01740   1.01852   1.01933
 Alpha virt. eigenvalues --    1.02277   1.02788   1.03065   1.03495   1.03718
 Alpha virt. eigenvalues --    1.03855   1.04121   1.04528   1.04627   1.04861
 Alpha virt. eigenvalues --    1.05170   1.05338   1.05497   1.05727   1.05981
 Alpha virt. eigenvalues --    1.06397   1.06878   1.07015   1.07184   1.07289
 Alpha virt. eigenvalues --    1.07591   1.08033   1.08116   1.08316   1.08551
 Alpha virt. eigenvalues --    1.08754   1.09137   1.09518   1.09767   1.10338
 Alpha virt. eigenvalues --    1.10591   1.10933   1.11685   1.11827   1.11890
 Alpha virt. eigenvalues --    1.12302   1.12685   1.12898   1.13134   1.13437
 Alpha virt. eigenvalues --    1.13463   1.13555   1.13892   1.14174   1.14500
 Alpha virt. eigenvalues --    1.14689   1.15000   1.15155   1.15379   1.15616
 Alpha virt. eigenvalues --    1.15814   1.16332   1.16858   1.17049   1.17112
 Alpha virt. eigenvalues --    1.17534   1.17685   1.18010   1.18480   1.18609
 Alpha virt. eigenvalues --    1.18751   1.19324   1.19426   1.19692   1.20285
 Alpha virt. eigenvalues --    1.20544   1.20955   1.21006   1.21181   1.21507
 Alpha virt. eigenvalues --    1.21726   1.22008   1.22223   1.22528   1.22845
 Alpha virt. eigenvalues --    1.22979   1.22984   1.23503   1.23592   1.23940
 Alpha virt. eigenvalues --    1.24103   1.24237   1.24420   1.24473   1.24720
 Alpha virt. eigenvalues --    1.25156   1.25457   1.25635   1.25664   1.26079
 Alpha virt. eigenvalues --    1.26287   1.26369   1.26499   1.26943   1.27226
 Alpha virt. eigenvalues --    1.27603   1.27946   1.28110   1.28290   1.28790
 Alpha virt. eigenvalues --    1.29080   1.29242   1.29812   1.29881   1.30265
 Alpha virt. eigenvalues --    1.30689   1.31044   1.31239   1.31665   1.31934
 Alpha virt. eigenvalues --    1.32158   1.32465   1.32721   1.32915   1.33212
 Alpha virt. eigenvalues --    1.33515   1.33827   1.33978   1.34066   1.34330
 Alpha virt. eigenvalues --    1.34524   1.35120   1.35727   1.35918   1.36091
 Alpha virt. eigenvalues --    1.36541   1.36850   1.36987   1.37085   1.37741
 Alpha virt. eigenvalues --    1.37863   1.37968   1.38105   1.38251   1.38451
 Alpha virt. eigenvalues --    1.38789   1.39205   1.39648   1.39928   1.40238
 Alpha virt. eigenvalues --    1.40406   1.40626   1.40800   1.41389   1.41714
 Alpha virt. eigenvalues --    1.42029   1.42141   1.42278   1.42465   1.42680
 Alpha virt. eigenvalues --    1.43083   1.43218   1.43571   1.43752   1.43890
 Alpha virt. eigenvalues --    1.44044   1.44697   1.44819   1.45458   1.45765
 Alpha virt. eigenvalues --    1.46088   1.46437   1.46807   1.47149   1.47329
 Alpha virt. eigenvalues --    1.47680   1.47872   1.48110   1.48248   1.48402
 Alpha virt. eigenvalues --    1.49661   1.49990   1.50065   1.50401   1.50420
 Alpha virt. eigenvalues --    1.51041   1.51735   1.52109   1.52604   1.52902
 Alpha virt. eigenvalues --    1.53654   1.53811   1.54308   1.54600   1.54936
 Alpha virt. eigenvalues --    1.55075   1.55290   1.55427   1.55548   1.56143
 Alpha virt. eigenvalues --    1.56595   1.56698   1.56921   1.57155   1.57194
 Alpha virt. eigenvalues --    1.57890   1.58086   1.58318   1.58541   1.59055
 Alpha virt. eigenvalues --    1.60182   1.60697   1.60816   1.61914   1.62373
 Alpha virt. eigenvalues --    1.62554   1.62646   1.63071   1.63372   1.64039
 Alpha virt. eigenvalues --    1.64427   1.64790   1.64823   1.65052   1.65161
 Alpha virt. eigenvalues --    1.65447   1.65751   1.66273   1.66529   1.66563
 Alpha virt. eigenvalues --    1.66818   1.67196   1.67856   1.67946   1.68287
 Alpha virt. eigenvalues --    1.68425   1.68587   1.68830   1.69213   1.69365
 Alpha virt. eigenvalues --    1.69760   1.69885   1.69936   1.70360   1.70477
 Alpha virt. eigenvalues --    1.70567   1.70882   1.71017   1.71390   1.71782
 Alpha virt. eigenvalues --    1.71903   1.72468   1.72531   1.72769   1.72918
 Alpha virt. eigenvalues --    1.73169   1.73222   1.73733   1.73861   1.74051
 Alpha virt. eigenvalues --    1.74146   1.74375   1.74422   1.74685   1.74848
 Alpha virt. eigenvalues --    1.75146   1.75372   1.75604   1.75810   1.76003
 Alpha virt. eigenvalues --    1.76179   1.76323   1.76620   1.76789   1.76856
 Alpha virt. eigenvalues --    1.76960   1.77103   1.77219   1.77463   1.77826
 Alpha virt. eigenvalues --    1.78020   1.78053   1.78193   1.78406   1.78508
 Alpha virt. eigenvalues --    1.78607   1.78846   1.78910   1.79069   1.79356
 Alpha virt. eigenvalues --    1.79533   1.79628   1.79978   1.80301   1.80355
 Alpha virt. eigenvalues --    1.80416   1.80638   1.80842   1.81331   1.81519
 Alpha virt. eigenvalues --    1.81663   1.81786   1.81864   1.81920   1.82145
 Alpha virt. eigenvalues --    1.82288   1.82302   1.82574   1.82720   1.82914
 Alpha virt. eigenvalues --    1.83076   1.83394   1.83504   1.83626   1.83819
 Alpha virt. eigenvalues --    1.83928   1.83969   1.84504   1.84583   1.84699
 Alpha virt. eigenvalues --    1.84788   1.85073   1.85358   1.85553   1.85629
 Alpha virt. eigenvalues --    1.85715   1.85817   1.86031   1.86310   1.86389
 Alpha virt. eigenvalues --    1.86711   1.86907   1.87318   1.87614   1.87756
 Alpha virt. eigenvalues --    1.87899   1.87990   1.88233   1.88449   1.88580
 Alpha virt. eigenvalues --    1.88721   1.88752   1.89047   1.89417   1.89558
 Alpha virt. eigenvalues --    1.89771   1.89914   1.89977   1.90228   1.90627
 Alpha virt. eigenvalues --    1.90655   1.90998   1.91182   1.91396   1.91438
 Alpha virt. eigenvalues --    1.91730   1.91778   1.92062   1.92450   1.92519
 Alpha virt. eigenvalues --    1.92738   1.92934   1.93357   1.93410   1.93698
 Alpha virt. eigenvalues --    1.94093   1.94213   1.94434   1.94852   1.95042
 Alpha virt. eigenvalues --    1.95249   1.95530   1.95867   1.96067   1.96289
 Alpha virt. eigenvalues --    1.96381   1.96641   1.96816   1.97108   1.97448
 Alpha virt. eigenvalues --    1.97601   1.97839   1.98031   1.98075   1.98199
 Alpha virt. eigenvalues --    1.98700   1.98837   1.98932   1.99059   1.99141
 Alpha virt. eigenvalues --    1.99546   1.99590   1.99841   2.00095   2.00260
 Alpha virt. eigenvalues --    2.00419   2.00600   2.00974   2.01371   2.01515
 Alpha virt. eigenvalues --    2.01648   2.01807   2.02243   2.02372   2.02499
 Alpha virt. eigenvalues --    2.02894   2.03225   2.03490   2.03792   2.04151
 Alpha virt. eigenvalues --    2.04329   2.04710   2.05001   2.05240   2.05385
 Alpha virt. eigenvalues --    2.05477   2.05583   2.05817   2.06042   2.06344
 Alpha virt. eigenvalues --    2.06819   2.06990   2.07478   2.07661   2.08018
 Alpha virt. eigenvalues --    2.08716   2.08895   2.08976   2.09373   2.09614
 Alpha virt. eigenvalues --    2.09815   2.09957   2.10086   2.10276   2.10693
 Alpha virt. eigenvalues --    2.11290   2.11333   2.11514   2.11649   2.12182
 Alpha virt. eigenvalues --    2.12207   2.12501   2.12677   2.13061   2.13318
 Alpha virt. eigenvalues --    2.13489   2.13709   2.13791   2.14147   2.14374
 Alpha virt. eigenvalues --    2.14669   2.14775   2.15100   2.15232   2.15640
 Alpha virt. eigenvalues --    2.16219   2.16311   2.16593   2.16925   2.17139
 Alpha virt. eigenvalues --    2.17193   2.17448   2.17886   2.18030   2.18232
 Alpha virt. eigenvalues --    2.18858   2.18982   2.19789   2.19817   2.20005
 Alpha virt. eigenvalues --    2.20253   2.20436   2.20511   2.20672   2.21466
 Alpha virt. eigenvalues --    2.21739   2.22147   2.22635   2.22962   2.23110
 Alpha virt. eigenvalues --    2.23213   2.23709   2.23727   2.24220   2.24388
 Alpha virt. eigenvalues --    2.24891   2.25431   2.25579   2.25718   2.26546
 Alpha virt. eigenvalues --    2.26957   2.27250   2.27554   2.27900   2.28257
 Alpha virt. eigenvalues --    2.28351   2.28909   2.29053   2.29212   2.30065
 Alpha virt. eigenvalues --    2.30236   2.30361   2.30778   2.31081   2.31451
 Alpha virt. eigenvalues --    2.31625   2.31717   2.32154   2.32881   2.33210
 Alpha virt. eigenvalues --    2.33299   2.33453   2.33797   2.33989   2.34068
 Alpha virt. eigenvalues --    2.34459   2.34747   2.35048   2.35153   2.35312
 Alpha virt. eigenvalues --    2.36222   2.36726   2.36998   2.37100   2.37233
 Alpha virt. eigenvalues --    2.37690   2.37933   2.38115   2.38515   2.38953
 Alpha virt. eigenvalues --    2.39138   2.39503   2.39999   2.40324   2.40486
 Alpha virt. eigenvalues --    2.41430   2.42214   2.42344   2.42558   2.42684
 Alpha virt. eigenvalues --    2.43087   2.43593   2.43855   2.43952   2.44771
 Alpha virt. eigenvalues --    2.44953   2.45255   2.45692   2.45870   2.46704
 Alpha virt. eigenvalues --    2.46828   2.46893   2.47515   2.47749   2.48070
 Alpha virt. eigenvalues --    2.48475   2.49628   2.49665   2.50703   2.51255
 Alpha virt. eigenvalues --    2.51333   2.51467   2.51742   2.51944   2.52015
 Alpha virt. eigenvalues --    2.52351   2.52951   2.53278   2.53560   2.54242
 Alpha virt. eigenvalues --    2.54274   2.54371   2.54854   2.55580   2.55707
 Alpha virt. eigenvalues --    2.55810   2.55929   2.56562   2.56702   2.56948
 Alpha virt. eigenvalues --    2.57166   2.57885   2.58029   2.58259   2.58505
 Alpha virt. eigenvalues --    2.58921   2.59189   2.59331   2.60245   2.60411
 Alpha virt. eigenvalues --    2.60483   2.60676   2.60862   2.60909   2.61434
 Alpha virt. eigenvalues --    2.61644   2.62154   2.62502   2.62596   2.62688
 Alpha virt. eigenvalues --    2.63094   2.63429   2.63544   2.63742   2.64057
 Alpha virt. eigenvalues --    2.64214   2.64732   2.64756   2.65001   2.65416
 Alpha virt. eigenvalues --    2.66081   2.66236   2.66579   2.66817   2.67058
 Alpha virt. eigenvalues --    2.67262   2.67629   2.68033   2.68327   2.68931
 Alpha virt. eigenvalues --    2.68988   2.69154   2.69590   2.69647   2.69843
 Alpha virt. eigenvalues --    2.69969   2.70051   2.70553   2.70612   2.71117
 Alpha virt. eigenvalues --    2.71651   2.71903   2.72179   2.72827   2.73009
 Alpha virt. eigenvalues --    2.73390   2.73805   2.73855   2.74358   2.74546
 Alpha virt. eigenvalues --    2.74687   2.75007   2.75199   2.75363   2.75703
 Alpha virt. eigenvalues --    2.76066   2.76221   2.76878   2.77380   2.77436
 Alpha virt. eigenvalues --    2.77724   2.78248   2.78410   2.78478   2.78737
 Alpha virt. eigenvalues --    2.79121   2.79156   2.79454   2.79548   2.79683
 Alpha virt. eigenvalues --    2.79784   2.79962   2.80499   2.80893   2.81382
 Alpha virt. eigenvalues --    2.81399   2.81640   2.82221   2.82251   2.82290
 Alpha virt. eigenvalues --    2.82572   2.82837   2.83894   2.84194   2.84613
 Alpha virt. eigenvalues --    2.84727   2.84788   2.85193   2.85295   2.85853
 Alpha virt. eigenvalues --    2.86137   2.86405   2.86854   2.87306   2.87575
 Alpha virt. eigenvalues --    2.87613   2.87965   2.88073   2.88581   2.88737
 Alpha virt. eigenvalues --    2.88964   2.89412   2.89592   2.90386   2.90455
 Alpha virt. eigenvalues --    2.91132   2.91445   2.92111   2.92376   2.92693
 Alpha virt. eigenvalues --    2.92951   2.93373   2.93696   2.93988   2.94048
 Alpha virt. eigenvalues --    2.94158   2.94279   2.94412   2.94745   2.94864
 Alpha virt. eigenvalues --    2.95162   2.95607   2.95949   2.96181   2.96407
 Alpha virt. eigenvalues --    2.96848   2.97680   2.98026   2.98445   2.98548
 Alpha virt. eigenvalues --    2.99052   2.99588   2.99751   3.00129   3.00292
 Alpha virt. eigenvalues --    3.00323   3.00815   3.01110   3.01310   3.01897
 Alpha virt. eigenvalues --    3.02238   3.02522   3.03384   3.03834   3.03931
 Alpha virt. eigenvalues --    3.04078   3.04636   3.04892   3.05265   3.05465
 Alpha virt. eigenvalues --    3.05497   3.06267   3.06961   3.06992   3.07040
 Alpha virt. eigenvalues --    3.07770   3.07906   3.08486   3.08560   3.09061
 Alpha virt. eigenvalues --    3.09203   3.09500   3.10316   3.10426   3.11485
 Alpha virt. eigenvalues --    3.11968   3.12592   3.13377   3.13774   3.14407
 Alpha virt. eigenvalues --    3.14446   3.15042   3.15197   3.15526   3.15813
 Alpha virt. eigenvalues --    3.16377   3.16589   3.17357   3.17676   3.18434
 Alpha virt. eigenvalues --    3.18587   3.18760   3.18901   3.18921   3.19468
 Alpha virt. eigenvalues --    3.19726   3.19873   3.20900   3.21000   3.21035
 Alpha virt. eigenvalues --    3.21275   3.21632   3.21714   3.22087   3.22563
 Alpha virt. eigenvalues --    3.22804   3.22952   3.23376   3.23460   3.23712
 Alpha virt. eigenvalues --    3.23883   3.24123   3.24870   3.25256   3.25742
 Alpha virt. eigenvalues --    3.26060   3.27365   3.27520   3.28377   3.28728
 Alpha virt. eigenvalues --    3.30217   3.30347   3.30863   3.31075   3.31944
 Alpha virt. eigenvalues --    3.33524   3.33794   3.34486   3.34637   3.36054
 Alpha virt. eigenvalues --    3.37846   3.38564   3.41392   3.44789   3.46468
 Alpha virt. eigenvalues --    3.51239   3.51870   3.52662   3.53740   3.55214
 Alpha virt. eigenvalues --    3.57969   3.58220   3.58637   3.58976   3.59498
 Alpha virt. eigenvalues --    3.59697   3.60582   3.60898   3.62126   3.62841
 Alpha virt. eigenvalues --    3.64400   3.64768   3.66565   3.66973   3.67666
 Alpha virt. eigenvalues --    3.68051   3.68192   3.68517   3.68965   3.69165
 Alpha virt. eigenvalues --    3.69256   3.70089   3.70421   3.70633   3.71392
 Alpha virt. eigenvalues --    3.71822   3.71909   3.73182   3.73528   3.73668
 Alpha virt. eigenvalues --    3.74195   3.75618   3.78656   3.82727
          Condensed to atoms (all electrons):
 Mulliken charges:
               1
     1  C    0.054283
     2  C    0.001721
     3  O   -0.310205
     4  H   -0.000551
     5  H    0.024965
     6  H    0.027078
     7  N   -0.133036
     8  C    0.107156
     9  C    0.093290
    10  O   -0.307360
    11  C    0.103470
    12  C    0.052797
    13  O   -0.436186
    14  O   -0.340710
    15  H    0.106983
    16  H   -0.024519
    17  H   -0.000381
    18  H   -0.013294
    19  N   -0.137793
    20  C    0.096489
    21  C    0.122729
    22  O   -0.239551
    23  C    0.078339
    24  C    0.012740
    25  C   -0.062393
    26  C    0.038411
    27  N    0.074071
    28  H    0.106198
    29  H   -0.015887
    30  H   -0.003177
    31  H    0.021178
    32  H    0.026370
    33  H   -0.001690
    34  H    0.028731
    35  H    0.047438
    36  H    0.063818
    37  H    0.073657
    38  H    0.206671
    39  H    0.194700
    40  H    0.182153
    41  N   -0.154877
    42  C    0.080597
    43  C    0.104690
    44  O   -0.284029
    45  C    0.109712
    46  C    0.088495
    47  O   -0.421453
    48  O   -0.436635
    49  H    0.115409
    50  H    0.054098
    51  H    0.019050
    52  H    0.030597
    53  N   -0.155132
    54  C    0.221123
    55  C    0.056539
    56  O   -0.281456
    57  H    0.139781
    58  H    0.004849
    59  H    0.019948
    60  N   -0.133149
    61  C    0.051946
    62  C    0.074534
    63  O   -0.279243
    64  C    0.132573
    65  C    0.023683
    66  N   -0.049524
    67  O   -0.240483
    68  H    0.136117
    69  H   -0.003905
    70  H   -0.013130
    71  H    0.016302
    72  H    0.106337
    73  H    0.137356
    74  N   -0.122895
    75  C    0.227712
    76  C    0.032709
    77  O   -0.257361
    78  H    0.119507
    79  H    0.026769
    80  H    0.018593
    81  N   -0.141478
    82  C    0.101322
    83  C    0.095486
    84  O   -0.293897
    85  C    0.132363
    86  C    0.038831
    87  C   -0.026787
    88  C   -0.033360
    89  C   -0.013640
    90  C   -0.037290
    91  C    0.158079
    92  O   -0.208352
    93  H    0.124213
    94  H    0.004183
    95  H    0.003841
    96  H    0.031446
    97  H   -0.023058
    98  H   -0.049294
    99  H   -0.015297
   100  H   -0.046237
   101  H    0.171287
   102  N   -0.081891
   103  C    0.134634
   104  C    0.052986
   105  O   -0.274205
   106  C   -0.141261
   107  C    0.055716
   108  C    0.113048
   109  C   -0.025586
   110  H    0.120889
   111  H    0.022394
   112  H    0.001433
   113  H   -0.013705
   114  H    0.006327
   115  H   -0.018881
   116  H    0.030438
   117  H   -0.001410
   118  H    0.015528
   119  H    0.018432
   120  H    0.002214
   121  N   -0.112850
   122  C    0.095005
   123  C    0.049174
   124  O   -0.255168
   125  C    0.215517
   126  O   -0.316509
   127  H    0.126682
   128  H    0.013387
   129  H    0.015363
   130  H   -0.001824
   131  H    0.177727
   132  N   -0.111159
   133  C    0.077495
   134  C    0.062614
   135  O   -0.300250
   136  C    0.074456
   137  H    0.121488
   138  H    0.023007
   139  H    0.013481
   140  H   -0.010871
   141  H    0.019626
   142  N   -0.099147
   143  C    0.106386
   144  C    0.065025
   145  O   -0.266079
   146  C    0.043903
   147  H    0.136476
   148  H   -0.017390
   149  H    0.042996
   150  H   -0.004520
   151  H    0.024545
   152  N   -0.148279
   153  C    0.098081
   154  C    0.043428
   155  O   -0.306500
   156  C    0.014220
   157  C    0.120650
   158  C    0.050101
   159  O   -0.360256
   160  O   -0.448341
   161  H    0.117789
   162  H    0.030061
   163  H    0.009424
   164  H    0.022365
   165  H   -0.025162
   166  H   -0.045452
   167  N   -0.122450
   168  C    0.134642
   169  H    0.028756
   170  H    0.011176
   171  H    0.031398
   172  H    0.114533
   173  Ca   1.317723
   174  O   -0.318725
   175  H    0.185806
   176  H    0.212509
 Sum of Mulliken charges =  -0.00000
 Mulliken charges with hydrogens summed into heavy atoms:
               1
     1  C    0.105774
     2  C    0.001721
     3  O   -0.310205
     7  N   -0.026053
     8  C    0.082637
     9  C    0.093290
    10  O   -0.307360
    11  C    0.089795
    12  C    0.052797
    13  O   -0.436186
    14  O   -0.340710
    19  N   -0.031595
    20  C    0.080601
    21  C    0.122729
    22  O   -0.239551
    23  C    0.096340
    24  C    0.037420
    25  C    0.013775
    26  C    0.175885
    27  N    0.657595
    41  N   -0.039468
    42  C    0.134695
    43  C    0.104690
    44  O   -0.284029
    45  C    0.159359
    46  C    0.088495
    47  O   -0.421453
    48  O   -0.436635
    53  N   -0.015351
    54  C    0.245920
    55  C    0.056539
    56  O   -0.281456
    60  N    0.002968
    61  C    0.048040
    62  C    0.074534
    63  O   -0.279243
    64  C    0.135745
    65  C    0.023683
    66  N    0.194170
    67  O   -0.240483
    74  N   -0.003388
    75  C    0.273075
    76  C    0.032709
    77  O   -0.257361
    81  N   -0.017265
    82  C    0.105505
    83  C    0.095486
    84  O   -0.293897
    85  C    0.167650
    86  C    0.038831
    87  C   -0.049845
    88  C   -0.082654
    89  C   -0.028937
    90  C   -0.083527
    91  C    0.158079
    92  O   -0.037064
   102  N    0.038998
   103  C    0.157027
   104  C    0.052986
   105  O   -0.274205
   106  C   -0.139828
   107  C    0.048338
   108  C    0.123195
   109  C    0.010589
   121  N    0.013833
   122  C    0.108393
   123  C    0.049174
   124  O   -0.255168
   125  C    0.229056
   126  O   -0.138781
   132  N    0.010329
   133  C    0.100502
   134  C    0.062614
   135  O   -0.300250
   136  C    0.096691
   142  N    0.037329
   143  C    0.088996
   144  C    0.065025
   145  O   -0.266079
   146  C    0.106924
   152  N   -0.030490
   153  C    0.128142
   154  C    0.043428
   155  O   -0.306500
   156  C    0.046009
   157  C    0.050036
   158  C    0.050101
   159  O   -0.360256
   160  O   -0.448341
   167  N   -0.007918
   168  C    0.205972
   173  Ca   1.317723
   174  O    0.079589
 DipInt: DoE/N= T F RetVal/Mat= T F Init=T NMatP=  1 IDeriv=0 Min/MaxMlt=  0  4
 Entering OneElI...
 OneElI was handed  1333951383 working-precision words.
 Multipole integrals L=0 to 4 MinM= 0 MaxM= 0.
 Requested accuracy = 0.1000D-12
 ShPair: Thresh= 1.00D-13 NBox=     0 BxSize= 0.00D+00 RnKept= 3.75D+01
         NSMCal=               327645 NSMKep=              123002
 PrmmSu-InSpLW:  IPartL=    0 NPrtUS=    1 NPrtUL=    1 DoSpLW=F IThBeg=    0 IThEnd=    0 NThAct=    1.
 PrsmSu:  NPrtUS=   1 ThrOK=F IAlg=1 NPAlg=1 LenDen=           0 ISkipM=0 DoSpLW=F IThBeg=    0 IThEnd=    0.
 Prism:   IPart=     0 DynPar=F LinDyn=F Incr=         512.
 PRISM was handed  1325355505 working-precision words and123002 shell-pairs
 IPart=  0 NShTot=      123002 NBatch=         287 AvBLen=       428.6
 PrsmSu-ThDecC:  IPartSL=    0    0 NPrtUSL=    1    1 IThBeg=    0 IThEnd=    0 CPU=   -1 GPU=   -1 NThAct=    1.
 PrSmSu:  NxtVal=            513.
 Electronic moments (au):
       -716.00000000         -4.52721507          5.93242483          6.44088812
     -90618.70969318     -39995.07847702     -14964.95476402        208.29541125
          6.67027232          6.95311481     172411.03450355     -70030.13901704
     -23960.73078726      17521.24159444     159441.12711715     155677.08775542
     -98670.82252501      -2206.28979592      19543.30892659     -45091.57408809
  -24649352.54329506   -4355595.54670349   -1334996.49943373    -545262.94049397
     560448.94848257     117975.10425626     408461.74439746      43366.29649069
    -276166.87367804   -3144098.49953812   -1911779.05385884    -581861.87745095
    -786548.19517966      99233.36854864     127645.64525497
 Electronic spatial extent (au):  <R**2>=         145578.7429
 DipInt: DoE/N= F T RetVal/Mat= T F Init=T NMatP=  1 IDeriv=0 Min/MaxMlt=  0  4
 Nuclear    moments (au):
        716.00000000          0.00000000          0.00000000          0.00000000
      90293.93844586      39527.17664102      14636.68229204          0.00000000
         -0.00000000          0.00000000    -173776.39902895      69410.87642671
      25484.25979002     -18463.16672316    -156664.95706205    -154815.24240527
      99241.28315357       2724.43557447     -19525.36468237      45158.59008202
   24376184.88779473    4212892.74918243    1306499.26271239     606665.71606000
    -568913.72854111    -106829.14612992    -407289.21588425     -30041.99233281
     281204.42409137    3060170.34504096    1853013.79723930     551931.08083642
     777906.62080603    -101346.49912700    -122421.07730671
 Total      moments (au):
         -0.00000000         -4.52721507          5.93242483          6.44088812
       -324.77124732       -467.90183600       -328.27247198        208.29541125
          6.67027232          6.95311481      -1365.36452540       -619.26259033
       1523.52900275       -941.92512873       2776.17005510        861.84535015
        570.46062856        518.14577855         17.94424422         67.01599393
    -273167.65550033    -142702.79752106     -28497.23672134      61402.77556603
      -8464.78005854      11145.95812634       1172.52851322      13324.30415788
       5037.55041333     -83928.15449716     -58765.25661954     -29930.79661453
      -8641.57437362      -2113.13057836       5224.56794826
 Traceless Quadrup. (au):
         48.87727111        -94.25331756         45.37604645        208.29541125
          6.67027232          6.95311481
 Charge=             -0.0000 electrons
 Dipole moment (field-independent basis, Debye):
    X=            -11.5070    Y=             15.0787    Z=             16.3711  Tot=             25.0558
 Quadrupole moment (field-independent basis, Debye-Ang):
   XX=           -436.8285   YY=           -629.3440   ZZ=           -441.5377
   XY=            280.1645   XZ=              8.9717   YZ=              9.3522
 Traceless Quadrupole moment (field-independent basis, Debye-Ang):
   XX=             65.7416   YY=           -126.7739   ZZ=             61.0323
   XY=            280.1645   XZ=              8.9717   YZ=              9.3522
 Octapole moment (field-independent basis, Debye-Ang**2):
  XXX=           -971.8139  YYY=           -440.7673  ZZZ=           1084.3892  XYY=           -670.4260
  XXY=           1975.9709  XXZ=            613.4283  XZZ=            406.0319  YZZ=            368.7962
  YYZ=             12.7720  XYZ=             47.6994
 Hexadecapole moment (field-independent basis, Debye-Ang**3):
 XXXX=        -102888.0379 YYYY=         -53748.7164 ZZZZ=         -10733.4258 XXXY=          23127.2296
 XXXZ=          -3188.2421 YYYX=           4198.1023 YYYZ=            441.6305 ZZZX=           5018.5719
 ZZZY=           1897.3830 XXYY=         -31611.3675 XXZZ=         -22133.8135 YYZZ=         -11273.3732
 XXYZ=          -3254.8313 YYXZ=           -795.9063 ZZXY=           1967.8228
 N-N= 1.875282722678D+04 E-N=-4.998705516223D+04  KE= 5.290411746501D+03
 Leave Link  601 at Tue Sep 17 18:41:45 2019, MaxMem=  1342177280 cpu:              39.2 elap:               1.0
 FitSet:  NAtFit=   176 NAtPot=   176 NAtFrz=     0 MDM=   180 TotChg=   0.00000
 Merz-Kollman atomic radii used.
 Read replacement radii for each type of atom:
 Rad(20) =   1.700000000000D+00
 Atom Element Radius
    1     6    1.50
    2     6    1.50
    3     8    1.40
    4     1    1.20
    5     1    1.20
    6     1    1.20
    7     7    1.50
    8     6    1.50
    9     6    1.50
   10     8    1.40
   11     6    1.50
   12     6    1.50
   13     8    1.40
   14     8    1.40
   15     1    1.20
   16     1    1.20
   17     1    1.20
   18     1    1.20
   19     7    1.50
   20     6    1.50
   21     6    1.50
   22     8    1.40
   23     6    1.50
   24     6    1.50
   25     6    1.50
   26     6    1.50
   27     7    1.50
   28     1    1.20
   29     1    1.20
   30     1    1.20
   31     1    1.20
   32     1    1.20
   33     1    1.20
   34     1    1.20
   35     1    1.20
   36     1    1.20
   37     1    1.20
   38     1    1.20
   39     1    1.20
   40     1    1.20
   41     7    1.50
   42     6    1.50
   43     6    1.50
   44     8    1.40
   45     6    1.50
   46     6    1.50
   47     8    1.40
   48     8    1.40
   49     1    1.20
   50     1    1.20
   51     1    1.20
   52     1    1.20
   53     7    1.50
   54     6    1.50
   55     6    1.50
   56     8    1.40
   57     1    1.20
   58     1    1.20
   59     1    1.20
   60     7    1.50
   61     6    1.50
   62     6    1.50
   63     8    1.40
   64     6    1.50
   65     6    1.50
   66     7    1.50
   67     8    1.40
   68     1    1.20
   69     1    1.20
   70     1    1.20
   71     1    1.20
   72     1    1.20
   73     1    1.20
   74     7    1.50
   75     6    1.50
   76     6    1.50
   77     8    1.40
   78     1    1.20
   79     1    1.20
   80     1    1.20
   81     7    1.50
   82     6    1.50
   83     6    1.50
   84     8    1.40
   85     6    1.50
   86     6    1.50
   87     6    1.50
   88     6    1.50
   89     6    1.50
   90     6    1.50
   91     6    1.50
   92     8    1.40
   93     1    1.20
   94     1    1.20
   95     1    1.20
   96     1    1.20
   97     1    1.20
   98     1    1.20
   99     1    1.20
  100     1    1.20
  101     1    1.20
  102     7    1.50
  103     6    1.50
  104     6    1.50
  105     8    1.40
  106     6    1.50
  107     6    1.50
  108     6    1.50
  109     6    1.50
  110     1    1.20
  111     1    1.20
  112     1    1.20
  113     1    1.20
  114     1    1.20
  115     1    1.20
  116     1    1.20
  117     1    1.20
  118     1    1.20
  119     1    1.20
  120     1    1.20
  121     7    1.50
  122     6    1.50
  123     6    1.50
  124     8    1.40
  125     6    1.50
  126     8    1.40
  127     1    1.20
  128     1    1.20
  129     1    1.20
  130     1    1.20
  131     1    1.20
  132     7    1.50
  133     6    1.50
  134     6    1.50
  135     8    1.40
  136     6    1.50
  137     1    1.20
  138     1    1.20
  139     1    1.20
  140     1    1.20
[...]
 **** Fit       0.069110
 **** Fit       0.070556
 **** Fit       0.071150
 **** Fit       0.070965
 **** Fit       0.070106
 **** Fit       0.068716
 **** Fit       0.066986
 **** Fit       0.065147
 **** Fit       0.063449
 **** Fit       0.062131
 **** Fit       0.061368
 **** Fit       0.061224
 **** Fit       0.061637
 **** Fit       0.062438
 **** Fit       0.063397
 **** Fit       0.064280
 **** Fit       0.064874
 **** Fit       0.065002
 **** Fit       0.064517
 **** Fit       0.063290
 **** Fit       0.061214
 **** Fit       0.058198
 **** Fit       0.054179
 **** Fit       0.049127
 **** Fit       0.043049
 **** Fit       0.035987
 **** Fit       0.046796
 **** Fit       0.053677
 **** Fit       0.059149
 **** Fit       0.063467
 **** Fit       0.066763
 **** Fit       0.068917
 **** Fit       0.070134
 **** Fit       0.070353
 **** Fit       0.069649
 **** Fit       0.068124
 **** Fit       0.065925
 **** Fit       0.063254
 **** Fit       0.060375
 **** Fit       0.057608
 **** Fit       0.055291
 **** Fit       0.053719
 **** Fit       0.053063
 **** Fit       0.053308
 **** Fit       0.054267
 **** Fit       0.055637
 **** Fit       0.057099
 **** Fit       0.058378
 **** Fit       0.059270
 **** Fit       0.059621
 **** Fit       0.059314
 **** Fit       0.058248
 **** Fit       0.056334
 **** Fit       0.053500
 **** Fit       0.049691
 **** Fit       0.044876
 **** Fit       0.039044
 **** Fit       0.032200
 **** Fit       0.024334
 **** Fit       0.015342
 **** Fit       0.045007
 **** Fit       0.052680
 **** Fit       0.058661
 **** Fit       0.063260
 **** Fit       0.066647
 **** Fit       0.068313
 **** Fit       0.069244
 **** Fit       0.069049
 **** Fit       0.067788
 **** Fit       0.065545
 **** Fit       0.062450
 **** Fit       0.058698
 **** Fit       0.054568
 **** Fit       0.050439
 **** Fit       0.046769
 **** Fit       0.044028
 **** Fit       0.042568
 **** Fit       0.042499
 **** Fit       0.043630
 **** Fit       0.045549
 **** Fit       0.047777
 **** Fit       0.049914
 **** Fit       0.051686
 **** Fit       0.052935
 **** Fit       0.053558
 **** Fit       0.053473
 **** Fit       0.052602
 **** Fit       0.050868
 **** Fit       0.048208
 **** Fit       0.044572
 **** Fit       0.039926
 **** Fit       0.034256
 **** Fit       0.027568
 **** Fit       0.019879
 **** Fit       0.011172
 **** Fit       0.044406
 **** Fit       0.052201
 **** Fit       0.058271
 **** Fit       0.062892
 **** Fit       0.066213
 **** Fit       0.067354
 **** Fit       0.067939
 **** Fit       0.067236
 **** Fit       0.065276
 **** Fit       0.062115
 **** Fit       0.057857
 **** Fit       0.052679
 **** Fit       0.046870
 **** Fit       0.040883
 **** Fit       0.035355
 **** Fit       0.031042
 **** Fit       0.028618
 **** Fit       0.028392
 **** Fit       0.030127
 **** Fit       0.033137
 **** Fit       0.036610
 **** Fit       0.039903
 **** Fit       0.042660
 **** Fit       0.044745
 **** Fit       0.046122
 **** Fit       0.046759
 **** Fit       0.046596
 **** Fit       0.045555
 **** Fit       0.043562
 **** Fit       0.040559
 **** Fit       0.036499
 **** Fit       0.031354
 **** Fit       0.025125
 **** Fit       0.017863
 **** Fit       0.009694
 **** Fit       0.033884
 **** Fit       0.043753
 **** Fit       0.051538
 **** Fit       0.057629
 **** Fit       0.062235
 **** Fit       0.065461
 **** Fit       0.066074
 **** Fit       0.066239
 **** Fit       0.064955
 **** Fit       0.062210
 **** Fit       0.058014
 **** Fit       0.052411
 **** Fit       0.045513
 **** Fit       0.037564
 **** Fit       0.029041
 **** Fit       0.036933
 **** Fit       0.038323
 **** Fit       0.038924
 **** Fit       0.038651
 **** Fit       0.037406
 **** Fit       0.035110
 **** Fit       0.031703
 **** Fit       0.027138
 **** Fit       0.021389
 **** Fit       0.014487
 **** Fit       0.006587
 **** Fit       0.034479
 **** Fit       0.043714
 **** Fit       0.051160
 **** Fit       0.057041
 **** Fit       0.061468
 **** Fit       0.064478
 **** Fit       0.064481
 **** Fit       0.064108
 **** Fit       0.061999
 **** Fit       0.058081
 **** Fit       0.052284
 **** Fit       0.044558
 **** Fit       0.034900
 **** Fit       0.028976
 **** Fit       0.029737
 **** Fit       0.029505
 **** Fit       0.028129
 **** Fit       0.025504
 **** Fit       0.021548
 **** Fit       0.016189
 **** Fit       0.009395
 **** Fit       0.001259
 **** Fit       0.033574
 **** Fit       0.042577
 **** Fit       0.049998
 **** Fit       0.055907
 **** Fit       0.060315
 **** Fit       0.063193
 **** Fit       0.062547
 **** Fit       0.061518
 **** Fit       0.058439
 **** Fit       0.053144
 **** Fit       0.045441
 **** Fit       0.035098
 **** Fit       0.018806
 **** Fit       0.017330
 **** Fit       0.014353
 **** Fit       0.009736
 **** Fit       0.003353
 **** Fit       0.033474
 **** Fit       0.041932
 **** Fit       0.049086
 **** Fit       0.054829
 **** Fit       0.059065
 **** Fit       0.061682
 **** Fit       0.060198
 **** Fit       0.058338
 **** Fit       0.053997
 **** Fit       0.046868
 **** Fit       0.036561
 **** Fit       0.005959
 **** Fit       0.003619
 **** Fit      -0.000786
 **** Fit      -0.007496
 **** Fit       0.040966
 **** Fit       0.047894
 **** Fit       0.053484
 **** Fit       0.057535
 **** Fit       0.059848
 **** Fit       0.057294
 **** Fit       0.054468
 **** Fit       0.048695
 **** Fit       0.039496
 **** Fit       0.026235
 **** Fit      -0.012406
 **** Fit       0.040478
 **** Fit       0.046918
 **** Fit       0.052102
 **** Fit       0.055756
 **** Fit       0.057597
 **** Fit       0.053619
 **** Fit       0.049463
 **** Fit       0.041532
 **** Fit       0.029085
 **** Fit       0.045114
 **** Fit       0.049969
 **** Fit       0.053300
 **** Fit       0.054689
 **** Fit       0.032633
 **** Fit       0.047532
 **** Fit       0.050144
 **** Fit       0.050849
 **** Fit       0.057280
 **** Fit       0.054745
 **** Fit       0.055659
 **** Fit       0.054799
 **** Fit       0.052378
 **** Fit       0.053052
 **** Fit       0.054551
 **** Fit       0.052527
 **** Fit       0.050568
 **** Fit       0.051214
 **** Fit       0.052544
 **** Fit       0.054500
 **** Fit       0.057005
 **** Fit       0.045758
 **** Fit       0.050636
 **** Fit       0.049531
 **** Fit       0.050329
 **** Fit       0.051655
 **** Fit       0.053450
 **** Fit       0.055649
 **** Fit       0.058176
 **** Fit       0.042076
 **** Fit       0.040277
 **** Fit       0.039603
 **** Fit       0.049308
 **** Fit       0.049529
 **** Fit       0.050701
 **** Fit       0.052254
 **** Fit       0.054130
 **** Fit       0.056267
 **** Fit       0.058602
 **** Fit       0.061065
 **** Fit       0.063572
 **** Fit       0.041843
 **** Fit       0.038330
 **** Fit       0.035599
 **** Fit       0.033784
 **** Fit       0.032993
 **** Fit       0.048795
 **** Fit       0.050898
 **** Fit       0.052745
 **** Fit       0.054829
 **** Fit       0.057085
 **** Fit       0.059449
 **** Fit       0.061857
 **** Fit       0.064243
 **** Fit       0.066539
 **** Fit       0.068658
 **** Fit       0.070494
 **** Fit       0.044344
 **** Fit       0.039548
 **** Fit       0.035219
 **** Fit       0.031517
 **** Fit       0.028575
 **** Fit       0.026504
 **** Fit       0.049351
 **** Fit       0.054094
 **** Fit       0.056915
 **** Fit       0.059790
 **** Fit       0.062649
 **** Fit       0.065423
 **** Fit       0.068044
 **** Fit       0.070450
 **** Fit       0.072585
 **** Fit       0.074386
 **** Fit       0.075779
 **** Fit       0.076669
 **** Fit       0.076936
 **** Fit       0.049913
 **** Fit       0.044248
 **** Fit       0.038722
 **** Fit       0.033513
 **** Fit       0.028765
 **** Fit       0.024587
 **** Fit       0.021064
 **** Fit       0.018265
 **** Fit       0.048832
 **** Fit       0.051387
 **** Fit       0.059774
 **** Fit       0.064049
 **** Fit       0.073558
 **** Fit       0.068441
 **** Fit       0.062657
 **** Fit       0.056400
 **** Fit       0.049878
 **** Fit       0.043295
 **** Fit       0.036832
 **** Fit       0.030638
 **** Fit       0.024816
 **** Fit       0.019428
 **** Fit       0.014489
 **** Fit       0.009983
 **** Fit       0.050926
 **** Fit       0.055393
 **** Fit       0.056714
 **** Fit       0.048668
 **** Fit       0.040666
 **** Fit       0.032846
 **** Fit       0.025290
 **** Fit       0.018013
 **** Fit       0.010938
 **** Fit       0.047137
 **** Fit       0.054856
 **** Fit       0.029404
 **** Fit       0.019848
 **** Fit       0.055416
 **** Fit       0.055715
 **** Fit       0.055774
 **** Fit       0.055516
 **** Fit       0.054965
 **** Fit       0.055008
 **** Fit       0.055544
 **** Fit       0.055877
 **** Fit       0.055926
 **** Fit       0.056118
 **** Fit       0.056131
 **** Fit       0.055759
 **** Fit       0.055061
 **** Fit       0.054350
 **** Fit       0.054074
 **** Fit       0.054517
 **** Fit       0.055415
 **** Fit       0.056041
 **** Fit       0.056055
 **** Fit       0.055923
 **** Fit       0.055889
 **** Fit       0.056161
 **** Fit       0.056501
 **** Fit       0.056683
 **** Fit       0.056565
 **** Fit       0.056103
 **** Fit       0.055344
 **** Fit       0.054424
 **** Fit       0.053563
 **** Fit       0.053036
 **** Fit       0.053109
 **** Fit       0.053906
 **** Fit       0.055230
 **** Fit       0.056514
 **** Fit       0.057135
 **** Fit       0.056939
 **** Fit       0.056354
 **** Fit       0.055874
 **** Fit       0.055769
 **** Fit       0.056090
 **** Fit       0.056596
 **** Fit       0.057064
 **** Fit       0.057333
 **** Fit       0.057310
 **** Fit       0.056958
 **** Fit       0.056289
 **** Fit       0.055353
 **** Fit       0.054247
 **** Fit       0.053118
 **** Fit       0.052161
 **** Fit       0.051611
 **** Fit       0.051709
 **** Fit       0.052629
 **** Fit       0.054342
 **** Fit       0.056477
 **** Fit       0.057685
 **** Fit       0.056551
 **** Fit       0.055759
 **** Fit       0.055624
 **** Fit       0.056040
 **** Fit       0.056721
 **** Fit       0.057418
 **** Fit       0.057957
 **** Fit       0.058233
 **** Fit       0.058193
 **** Fit       0.057820
 **** Fit       0.057122
 **** Fit       0.056130
 **** Fit       0.054903
 **** Fit       0.053529
 **** Fit       0.052137
 **** Fit       0.050896
 **** Fit       0.050022
 **** Fit       0.049769
 **** Fit       0.050391
 **** Fit       0.052074
 **** Fit       0.056099
 **** Fit       0.056987
 **** Fit       0.057922
 **** Fit       0.058714
 **** Fit       0.059256
 **** Fit       0.059491
 **** Fit       0.059399
 **** Fit       0.058976
 **** Fit       0.058233
 **** Fit       0.057190
 **** Fit       0.055881
 **** Fit       0.054363
 **** Fit       0.052712
 **** Fit       0.051038
 **** Fit       0.049487
 **** Fit       0.048249
 **** Fit       0.047564
 **** Fit       0.047714
 **** Fit       0.048998
 **** Fit       0.059112
 **** Fit       0.060170
 **** Fit       0.060905
 **** Fit       0.061271
 **** Fit       0.061261
 **** Fit       0.060883
 **** Fit       0.060149
 **** Fit       0.059076
 **** Fit       0.057685
 **** Fit       0.056012
 **** Fit       0.054109
 **** Fit       0.052052
 **** Fit       0.049946
 **** Fit       0.047935
 **** Fit       0.046214
 **** Fit       0.045040
 **** Fit       0.044745
 **** Fit       0.062583
 **** Fit       0.063520
 **** Fit       0.064000
 **** Fit       0.064039
 **** Fit       0.063666
 **** Fit       0.062907
 **** Fit       0.061780
 **** Fit       0.060304
 **** Fit       0.058501
 **** Fit       0.056402
 **** Fit       0.054057
 **** Fit       0.051535
 **** Fit       0.048932
 **** Fit       0.046382
 **** Fit       0.044074
 **** Fit       0.042264
 **** Fit       0.068401
 **** Fit       0.068322
 **** Fit       0.067756
 **** Fit       0.066756
 **** Fit       0.065354
 **** Fit       0.063570
 **** Fit       0.061423
 **** Fit       0.058936
 **** Fit       0.056146
 **** Fit       0.053104
 **** Fit       0.049885
 **** Fit       0.046598
 **** Fit       0.043394
 **** Fit       0.073574
 **** Fit       0.071822
 **** Fit       0.069612
 **** Fit       0.066971
 **** Fit       0.063919
 **** Fit       0.060479
 **** Fit       0.056690
 **** Fit       0.052608
 **** Fit       0.056861
 **** Fit       0.055016
 **** Fit       0.053903
 **** Fit       0.054766
 **** Fit       0.054942
 **** Fit       0.051113
 **** Fit       0.049578
 **** Fit       0.049887
 **** Fit       0.051668
 **** Fit       0.052702
 **** Fit       0.054389
 **** Fit       0.049822
 **** Fit       0.047068
 **** Fit       0.045749
 **** Fit       0.045582
 **** Fit       0.046342
 **** Fit       0.047844
 **** Fit       0.049962
 **** Fit       0.050803
 **** Fit       0.049946
 **** Fit       0.045934
 **** Fit       0.043375
 **** Fit       0.041957
 **** Fit       0.041478
 **** Fit       0.041785
 **** Fit       0.042743
 **** Fit       0.044220
 **** Fit       0.046098
 **** Fit       0.048293
 **** Fit       0.049184
 **** Fit       0.046917
 **** Fit       0.042737
 **** Fit       0.039905
 **** Fit       0.038126
 **** Fit       0.037227
 **** Fit       0.037094
 **** Fit       0.037632
 **** Fit       0.038745
 **** Fit       0.040324
 **** Fit       0.042254
 **** Fit       0.044423
 **** Fit       0.046745
 **** Fit       0.047963
 **** Fit       0.038852
 **** Fit       0.035865
 **** Fit       0.033811
 **** Fit       0.032558
 **** Fit       0.032032
 **** Fit       0.032182
 **** Fit       0.032949
 **** Fit       0.034261
 **** Fit       0.036026
 **** Fit       0.038138
 **** Fit       0.040488
 **** Fit       0.042967
 **** Fit       0.045480
 **** Fit       0.047277
 **** Fit       0.033661
 **** Fit       0.030545
 **** Fit       0.028290
 **** Fit       0.026817
 **** Fit       0.026099
 **** Fit       0.026123
 **** Fit       0.026864
 **** Fit       0.028264
 **** Fit       0.030233
 **** Fit       0.032656
 **** Fit       0.035411
 **** Fit       0.038371
 **** Fit       0.041411
 **** Fit       0.044414
 **** Fit       0.047303
 **** Fit       0.024370
 **** Fit       0.021785
 **** Fit       0.019950
 **** Fit       0.018900
 **** Fit       0.018682
 **** Fit       0.019319
 **** Fit       0.020778
 **** Fit       0.022971
 **** Fit       0.025767
 **** Fit       0.029019
 **** Fit       0.032584
 **** Fit       0.036323
 **** Fit       0.040108
 **** Fit       0.043809
 **** Fit       0.048268
 **** Fit       0.015137
 **** Fit       0.012329
 **** Fit       0.010340
 **** Fit       0.009313
 **** Fit       0.009377
 **** Fit       0.010584
 **** Fit       0.012868
 **** Fit       0.016068
 **** Fit       0.019971
 **** Fit       0.024369
 **** Fit       0.029082
 **** Fit       0.033958
 **** Fit       0.038867
 **** Fit       0.043681
 **** Fit       0.017054
 **** Fit       0.023639
 **** Fit       0.030395
 **** Fit       0.037190
 **** Fit       0.043919
 **** Fit       0.034751
 **** Fit       0.044517
 -----------------------------------------------------------------
 Leave Link  602 at Tue Sep 17 18:41:48 2019, MaxMem=  1342177280 cpu:             119.8 elap:               2.5

 Test job not archived.
 1\1\GINC-C477-041\SP\RB3LYP\SVP\C54H83Ca1N15O23\PENGZHI\17-Sep-2019\0\
 \#b3lyp/svp scf=(tight,noincore) Test #IOP(5/87=12) Density=Current Po
 p=(MK,readradii) iop(6/33=2) iop(6/42=6)\\Ng-293_loop3_7.0\\0,1\C,0,41
 .12,78.49,70.24\C,0,41.61,78.52,68.8\O,0,42.66,79.1,68.55\H,0,40.093,7
 8.127,70.266\H,0,41.755,77.826,70.827\H,0,41.16,79.495,70.659\N,0,40.9
 9,77.72,67.93\C,0,41.28,77.49,66.52\C,0,40.99,76.03,66.21\O,0,40.41,75
 .3,67.01\C,0,40.52,78.45,65.62\C,0,40.88,78.34,64.14\O,0,42.04,77.93,6
 3.92\O,0,40.01,78.6,63.28\H,0,40.41,77.02,68.36\H,0,42.32,77.8,66.5\H,
 0,40.88,79.44,65.89\H,0,39.44,78.4,65.8\N,0,41.4,75.47,65.07\C,0,40.94
 ,74.25,64.43\C,0,39.47,74.25,64.05\O,0,38.67,75.08,64.47\C,0,41.37,72.
 96,65.12\C,0,42.78,72.98,65.71\C,0,43.86,73.17,64.65\C,0,45.22,72.98,6
 5.31\N,0,45.77,74.29,65.69\H,0,41.95,76.04,64.44\H,0,41.59,74.24,63.56
 \H,0,41.29,72.18,64.37\H,0,40.76,72.6,65.95\H,0,42.99,72.09,66.31\H,0,
 42.82,73.82,66.4\H,0,43.84,74.15,64.17\H,0,43.8,72.36,63.92\H,0,45.88,
 72.52,64.58\H,0,45.22,72.34,66.19\H,0,45.72,74.95,64.92\H,0,45.26,74.6
 1,66.5\H,0,46.7,74.2,66.06\N,0,39.09,73.22,63.28\C,0,37.75,73.03,62.76
 \C,0,36.81,72.19,63.61\O,0,36.02,71.36,63.17\C,0,37.65,72.76,61.27\C,0
 ,38.53,71.58,60.86\O,0,39.09,70.87,61.72\O,0,38.79,71.41,59.65\H,0,39.
 8,72.54,63.04\H,0,37.28,74.02,62.77\H,0,37.95,73.63,60.69\H,0,36.61,72
 .58,61.\N,0,36.73,72.57,64.89\C,0,35.78,72.03,65.85\C,0,34.37,72.59,65
 .78\O,0,33.99,73.45,66.57\H,0,37.34,73.31,65.21\H,0,36.23,72.24,66.82\
 H,0,35.79,70.94,65.84\N,0,33.57,72.02,64.88\C,0,32.15,72.28,64.72\C,0,
 31.47,71.,64.26\O,0,32.09,70.25,63.51\C,0,31.92,73.43,63.75\C,0,32.22,
 74.81,64.33\N,0,31.56,75.16,65.44\O,0,33.04,75.55,63.79\H,0,33.96,71.3
 7,64.22\H,0,31.7,72.53,65.69\H,0,30.88,73.42,63.44\H,0,32.54,73.24,62.
 87\H,0,30.74,74.67,65.78\H,0,31.87,76.04,65.83\N,0,30.16,70.93,64.52\C
 ,0,29.41,69.7,64.41\C,0,29.6,68.73,65.57\O,0,29.99,69.19,66.64\H,0,29.
 88,71.7,65.11\H,0,29.55,69.29,63.41\H,0,28.38,70.02,64.46\N,0,29.4,67.
 43,65.35\C,0,29.45,66.45,66.4\C,0,30.82,66.25,67.03\O,0,30.93,65.77,68
 .16\C,0,28.33,66.83,67.37\C,0,27.73,65.69,68.16\C,0,27.41,65.9,69.5\C,
 0,27.28,64.5,67.59\C,0,26.74,64.96,70.3\C,0,26.52,63.56,68.3\C,0,26.3,
 63.78,69.67\O,0,25.54,62.8,70.25\H,0,29.15,67.09,64.43\H,0,29.04,65.54
 ,65.95\H,0,27.45,67.18,66.83\H,0,28.6,67.66,68.02\H,0,27.58,66.88,69.9
 3\H,0,27.4,64.36,66.53\H,0,26.36,65.17,71.29\H,0,26.04,62.72,67.82\H,0
 ,25.08,62.26,69.61\N,0,31.92,66.82,66.54\C,0,33.3,66.82,66.97\C,0,34.0
 2,65.49,66.78\O,0,35.17,65.55,66.35\C,0,33.48,67.35,68.39\C,0,32.87,68
 .75,68.46\C,0,34.93,67.42,68.85\C,0,33.24,69.74,67.37\H,0,31.83,67.23,
 65.62\H,0,33.87,67.5,66.33\H,0,32.99,66.64,69.06\H,0,33.07,69.22,69.43
 \H,0,31.78,68.64,68.48\H,0,35.2,66.43,69.21\H,0,35.6,67.75,68.06\H,0,3
 4.98,68.02,69.76\H,0,32.73,69.6,66.42\H,0,33.01,70.72,67.79\H,0,34.32,
 69.86,67.23\N,0,33.38,64.35,67.06\C,0,33.79,63.01,66.66\C,0,35.17,62.5
 7,67.13\O,0,35.91,61.94,66.39\C,0,32.75,62.02,67.18\O,0,32.69,62.07,68
 .59\H,0,32.45,64.46,67.43\H,0,33.75,62.95,65.57\H,0,33.07,61.03,66.85\
 H,0,31.79,62.26,66.74\H,0,31.89,61.67,68.93\N,0,35.55,62.96,68.36\C,0,
 36.85,62.79,68.97\C,0,38.1,63.19,68.2\O,0,39.19,62.67,68.45\C,0,37.1,6
 1.36,69.43\H,0,34.78,63.3,68.9\H,0,36.86,63.34,69.91\H,0,37.92,61.26,7
 0.13\H,0,36.22,60.92,69.9\H,0,37.43,60.76,68.58\N,0,38.02,64.08,67.2\C
 ,0,39.06,64.37,66.24\C,0,40.09,65.38,66.73\O,0,39.77,66.36,67.39\C,0,3
 8.43,64.79,64.91\H,0,37.11,64.47,67.\H,0,39.61,63.44,66.1\H,0,37.79,65
 .64,65.12\H,0,39.07,65.02,64.07\H,0,37.85,64.,64.42\N,0,41.34,65.26,66
 .26\C,0,42.54,66.08,66.32\C,0,42.88,66.57,67.72\O,0,43.58,67.56,67.96\
 C,0,42.25,67.27,65.42\C,0,42.04,66.82,63.98\C,0,42.57,67.87,63.01\O,0,
 43.77,67.93,62.67\O,0,41.71,68.66,62.57\H,0,41.54,64.39,65.79\H,0,43.4
 5,65.64,65.92\H,0,43.05,68.,65.52\H,0,41.39,67.81,65.84\H,0,41.01,66.6
 ,63.71\H,0,42.44,65.81,63.88\N,0,42.33,65.93,68.75\C,0,42.29,66.45,70.
 1\H,0,41.389,67.049,70.231\H,0,42.282,65.622,70.809\H,0,43.168,67.072,
 70.277\H,0,41.73,65.16,68.49\Ca,0,40.86,69.65,60.14\O,0,39.96,69.48,57
 .6\H,0,39.93,68.79,56.94\H,0,39.52,70.23,57.19\\Version=ES64L-G16RevA.
 03\State=1-A\HF=-5333.3591895\RMSD=2.164e-09\Dipole=0.0443689,-8.58940
 77,-4.8367848\Quadrupole=188.6795189,-226.9119645,38.2324456,45.073026
 7,-32.4076752,52.8057941\PG=C01 [X(C54H83Ca1N15O23)]\\@


 THE POLHOLDE ROLLS WITHOUT SLIPPING ON THE HERPOLHOLDE LYING IN
 THE INVARIABLE PLANE.
 H.GOLDSTEIN, "CLASSICAL MECHANICS", PG 161
 Job cpu time:       0 days  9 hours  5 minutes 31.4 seconds.
 Elapsed time:       0 days  0 hours 11 minutes 31.2 seconds.
 File lengths (MBytes):  RWF=   1517 Int=      0 D2E=      0 Chk=    171 Scr=      1
 Normal termination of Gaussian 16 at Tue Sep 17 18:41:49 2019.
