 Entering Gaussian System, Link 0=g16
 Initial command:
 /home1/apps/gaussian/16rA.03/g16/l1.exe "/scratch/01990/pengzhi/4353696/Gau-275921.inp" -scrdir="/scratch/01990/pengzhi/4353696/"
 Entering Link 1 = /home1/apps/gaussian/16rA.03/g16/l1.exe PID=    275922.
  
 Copyright (c) 1988,1990,1992,1993,1995,1998,2003,2009,2016,
            Gaussian, Inc.  All Rights Reserved.
  
 This is part of the Gaussian(R) 16 program.  It is based on
 the Gaussian(R) 09 system (copyright 2009, Gaussian, Inc.),
 the Gaussian(R) 03 system (copyright 2003, Gaussian, Inc.),
 the Gaussian(R) 98 system (copyright 1998, Gaussian, Inc.),
 the Gaussian(R) 94 system (copyright 1995, Gaussian, Inc.),
 the Gaussian 92(TM) system (copyright 1992, Gaussian, Inc.),
 the Gaussian 90(TM) system (copyright 1990, Gaussian, Inc.),
 the Gaussian 88(TM) system (copyright 1988, Gaussian, Inc.),
 the Gaussian 86(TM) system (copyright 1986, Carnegie Mellon
 University), and the Gaussian 82(TM) system (copyright 1983,
 Carnegie Mellon University). Gaussian is a federally registered
 trademark of Gaussian, Inc.
  
 This software contains proprietary and confidential information,
 including trade secrets, belonging to Gaussian, Inc.
  
 This software is provided under written license and may be
 used, copied, transmitted, or stored only in accord with that
 written license.
  
 The following legend is applicable only to US Government
 contracts under FAR:
  
                    RESTRICTED RIGHTS LEGEND
  
 Use, reproduction and disclosure by the US Government is
 subject to restrictions as set forth in subparagraphs (a)
 and (c) of the Commercial Computer Software - Restricted
 Rights clause in FAR 52.227-19.
  
 Gaussian, Inc.
 340 Quinnipiac St., Bldg. 40, Wallingford CT 06492
  
  
 ---------------------------------------------------------------
 Warning -- This program may not be used in any manner that
 competes with the business of Gaussian, Inc. or will provide
 assistance to any competitor of Gaussian, Inc.  The licensee
 of this program is prohibited from giving any competitor of
 Gaussian, Inc. access to this program.  By using this program,
 the user acknowledges that Gaussian, Inc. is engaged in the
 business of creating and licensing software in the field of
 computational chemistry and represents and warrants to the
 licensee that it is not a competitor of Gaussian, Inc. and that
 it will not use this program in any manner prohibited above.
 ---------------------------------------------------------------
  

 Cite this work as:
 Gaussian 16, Revision A.03,
 M. J. Frisch, G. W. Trucks, H. B. Schlegel, G. E. Scuseria, 
 M. A. Robb, J. R. Cheeseman, G. Scalmani, V. Barone, 
 G. A. Petersson, H. Nakatsuji, X. Li, M. Caricato, A. V. Marenich, 
 J. Bloino, B. G. Janesko, R. Gomperts, B. Mennucci, H. P. Hratchian, 
 J. V. Ortiz, A. F. Izmaylov, J. L. Sonnenberg, D. Williams-Young, 
 F. Ding, F. Lipparini, F. Egidi, J. Goings, B. Peng, A. Petrone, 
 T. Henderson, D. Ranasinghe, V. G. Zakrzewski, J. Gao, N. Rega, 
 G. Zheng, W. Liang, M. Hada, M. Ehara, K. Toyota, R. Fukuda, 
 J. Hasegawa, M. Ishida, T. Nakajima, Y. Honda, O. Kitao, H. Nakai, 
 T. Vreven, K. Throssell, J. A. Montgomery, Jr., J. E. Peralta, 
 F. Ogliaro, M. J. Bearpark, J. J. Heyd, E. N. Brothers, K. N. Kudin, 
 V. N. Staroverov, T. A. Keith, R. Kobayashi, J. Normand, 
 K. Raghavachari, A. P. Rendell, J. C. Burant, S. S. Iyengar, 
 J. Tomasi, M. Cossi, J. M. Millam, M. Klene, C. Adamo, R. Cammi, 
 J. W. Ochterski, R. L. Martin, K. Morokuma, O. Farkas, 
 J. B. Foresman, and D. J. Fox, Gaussian, Inc., Wallingford CT, 2016.
 
 ******************************************
 Gaussian 16:  ES64L-G16RevA.03 25-Dec-2016
                18-Sep-2019 
 ******************************************
 %chk=Ng-295_loop3_38.0.chk
 %nprocshared=48
 Will use up to   48 processors via shared memory.
 %mem=10GB
 %nosave
 ----------------------------------------------------------------------
 #b3lyp/svp scf=(tight,noincore) Test #IOP(5/87=12) Density=Current Pop
 =(MK,readradii) iop(6/33=2) iop(6/42=6)
 ----------------------------------------------------------------------
 1/30=1,38=1,172=1/1;
 2/12=2,17=6,18=5,40=1/2;
 3/5=18,7=101,11=2,25=1,30=1,74=-5/1,2,3;
 4//1;
 5/5=4,32=2,38=5,87=12/2;
 6/7=2,8=2,9=2,10=2,15=8,20=101,22=-1,28=1,33=2,42=6/1,2;
 99/5=1,9=1/99;
 -----------------
 Ng-295_loop3_38.0
 -----------------
 Symbolic Z-matrix:
 Charge =  0 Multiplicity = 1
 C                     88.59     75.33     62.37 
 C                     87.82     74.09     62.82 
 O                     86.65     73.87     62.5 
 H                     89.56     75.03     61.972 
 H                     88.025    75.848    61.595 
 H                     88.737    75.996    63.22 
 N                     88.5      73.4      63.74 
 C                     87.91     72.28     64.44 
 C                     87.46     72.58     65.87 
 O                     88.29     73.09     66.61 
 C                     88.95     71.17     64.45 
 C                     88.3      69.8      64.34 
 O                     89.03     68.83     64.02 
 O                     87.1      69.59     64.61 
 H                     89.44     73.69     63.98 
 H                     87.04     71.97     63.86 
 H                     89.45     71.26     65.42 
 H                     89.73     71.38     63.71 
 N                     86.16     72.38     66.12 
 C                     85.51     72.94     67.28 
 C                     85.99     72.35     68.6 
 O                     85.59     72.87     69.64 
 C                     84.       72.84     67.09 
 C                     83.45     71.43     66.84 
 C                     81.93     71.38     66.79 
 C                     81.42     69.95     66.62 
 N                     81.9      69.3      65.39 
 H                     85.6      72.02     65.36 
 H                     85.81     73.99     67.31 
 H                     83.7      73.51     66.29 
 H                     83.52     73.11     68.03 
 H                     83.76     70.73     67.62 
 H                     83.91     71.       65.95 
 H                     81.7      71.85     65.83 
 H                     81.53     71.92     67.64 
 H                     80.34     70.03     66.71 
 H                     81.71     69.31     67.46 
 H                     81.23     68.58     65.16 
 H                     82.08     69.97     64.66 
 H                     82.71     68.75     65.65 
 N                     86.8      71.29     68.61 
 C                     87.35     70.52     69.72 
 C                     88.86     70.62     69.79 
 O                     89.43     70.19     70.79 
 C                     86.89     69.08     69.55 
 C                     87.15     68.5      68.17 
 O                     86.29     67.74     67.66 
 O                     88.12     68.88     67.49 
 H                     87.23     71.09     67.72 
 H                     87.07     70.86     70.71 
 H                     85.81     69.07     69.67 
 H                     87.4      68.41     70.25 
 N                     89.51     71.22     68.79 
 C                     90.95     71.21     68.67 
 C                     91.64     69.91     68.27 
 O                     92.87     69.86     68.31 
 H                     88.97     71.84     68.21 
 H                     91.41     71.61     69.57 
 H                     91.13     71.89     67.83 
 N                     90.89     68.83     68.02 
 C                     91.18     67.42     68.15 
 C                     91.04     66.59     66.87 
 O                     90.08     66.79     66.12 
 C                     90.44     66.87     69.36 
 C                     90.84     65.45     69.75 
 N                     91.95     65.26     70.46 
 O                     90.15     64.54     69.31 
 H                     89.93     68.99     67.75 
 H                     92.2      67.36     68.5 
 H                     89.36     66.85     69.25 
 H                     90.66     67.49     70.23 
 H                     92.47     66.08     70.74 
 H                     92.28     64.32     70.63 
 N                     91.99     65.68     66.68 
 C                     92.1      64.96     65.43 
 C                     91.47     63.59     65.24 
 O                     91.56     62.86     64.26 
 H                     92.68     65.59     67.41 
 H                     93.16     64.82     65.22 
 H                     91.75     65.47     64.53 
 N                     90.85     63.13     66.33 
 C                     90.1      61.9      66.47 
 C                     88.7      61.98     65.88 
 O                     88.12     63.05     66.03 
 C                     90.24     61.27     67.86 
 C                     89.42     60.02     68.06 
 C                     88.24     60.06     68.81 
 C                     89.87     58.86     67.42 
 C                     87.58     58.85     69.03 
 C                     89.18     57.66     67.64 
 C                     88.01     57.65     68.43 
 O                     87.3      56.5      68.61 
 H                     90.89     63.68     67.18 
 H                     90.52     61.16     65.79 
 H                     89.97     62.04     68.58 
 H                     91.32     61.19     67.93 
 H                     87.95     61.02     69.22 
 H                     90.84     58.92     66.97 
 H                     86.7      58.94     69.66 
 H                     89.58     56.75     67.21 
 H                     87.82     55.71     68.45 
 N                     88.29     61.05     65.02 
 C                     86.99     60.94     64.38 
 C                     85.8      60.7      65.29 
 O                     85.74     61.3      66.36 
 C                     86.76     62.04     63.34 
 C                     85.52     62.01     62.46 
 C                     87.98     62.13     62.42 
 C                     85.02     63.41     62.13 
 H                     88.91     60.33     64.69 
 H                     87.05     60.       63.83 
 H                     86.68     62.97     63.9 
 H                     84.67     61.5      62.92 
 H                     85.7      61.51     61.5 
 H                     87.97     62.94     61.69 
 H                     88.96     62.14     62.91 
 H                     87.93     61.19     61.88 
 H                     84.52     63.41     61.16 
 H                     84.33     63.71     62.92 
 H                     85.87     64.1      62.1 
 N                     84.88     59.91     64.73 
 C                     83.63     59.47     65.33 
 C                     83.22     58.05     64.99 
 O                     82.39     57.52     65.73 
 C                     82.47     60.43     65.08 
 O                     82.26     60.56     63.69 
 H                     85.07     59.48     63.84 
 H                     83.87     59.52     66.39 
 H                     82.73     61.39     65.52 
 H                     81.57     60.08     65.57 
 H                     81.79     61.38     63.51 
 N                     83.73     57.43     63.92 
 C                     83.53     56.04     63.56 
 C                     82.07     55.61     63.56 
 O                     81.71     54.6      64.16 
 C                     84.44     55.08     64.31 
 H                     84.41     57.93     63.35 
 H                     83.85     55.88     62.53 
 H                     84.23     54.99     65.38 
 H                     84.39     54.08     63.88 
 H                     85.44     55.53     64.23 
 N                     81.1      56.39     63.06 
 C                     81.11     57.57     62.22 
 C                     81.25     57.13     60.77 
 O                     80.54     56.21     60.35 
 C                     79.87     58.44     62.46 
 H                     80.16     56.03     63.17 
 H                     81.9      58.26     62.5 
 H                     78.99     57.81     62.53 
 H                     80.       58.93     63.42 
 H                     79.6      59.13     61.66 
 N                     82.11     57.71     59.94 
 C                     83.09     58.76     60.16 
 C                     84.25     58.81     59.17 
 O                     85.24     59.48     59.44 
 C                     82.32     60.07     60.21 
 C                     81.73     60.59     58.9 
 C                     81.13     61.98     59.09 
 O                     79.98     62.07     59.59 
 O                     81.72     63.03     58.76 
 H                     82.05     57.28     59.03 
 H                     83.54     58.59     61.14 
 H                     83.02     60.84     60.51 
 H                     81.52     60.02     60.95 
 H                     80.93     59.94     58.56 
 H                     82.52     60.69     58.16 
 N                     84.25     58.08     58.06 
 C                     85.33     58.1      57.09 
 H                     86.226    57.669    57.536 
 H                     85.044    57.516    56.215 
 H                     85.532    59.129    56.791 
 H                     83.49     57.42     57.95 
 Ca                    87.62     67.1      65.45 
 O                     88.49     65.23     63.83 
 H                     88.28     64.3      63.95 
 H                     89.07     65.24     63.07 
 
 Stoichiometry    C54H83CaN15O23
 Framework group  C1[X(C54H83CaN15O23)]
 Deg. of freedom   522
 Full point group                 C1      NOp   1
 Largest Abelian subgroup         C1      NOp   1
 Largest concise Abelian subgroup C1      NOp   1
                         Standard orientation:                         
 ---------------------------------------------------------------------
 Center     Atomic      Atomic             Coordinates (Angstroms)
 Number     Number       Type             X           Y           Z
 ---------------------------------------------------------------------
      1          6           0        9.420396   -5.113341    3.767395
      2          6           0        8.204017   -4.819654    2.891513
      3          8           0        7.518909   -5.702645    2.371270
      4          1           0        9.350528   -4.536591    4.690316
      5          1           0        9.448993   -6.176556    4.005993
      6          1           0       10.329156   -4.835386    3.233951
      7          7           0        8.106407   -3.516828    2.612199
      8          6           0        7.135285   -3.012931    1.665885
      9          6           0        7.703098   -2.648470    0.293968
     10          8           0        8.665412   -1.893212    0.282289
     11          6           0        6.497138   -1.786840    2.300920
     12          6           0        5.028592   -1.668710    1.925529
     13          8           0        4.307934   -0.906120    2.614955
     14          8           0        4.528321   -2.242592    0.936899
     15          1           0        8.752128   -2.868858    3.046342
     16          1           0        6.387901   -3.796380    1.535403
     17          1           0        7.048912   -0.935601    1.888685
     18          1           0        6.709777   -1.767212    3.375396
     19          7           0        7.172194   -3.306822   -0.743921
     20          6           0        7.819627   -3.351289   -2.032545
     21          6           0        7.870518   -2.004694   -2.743173
     22          8           0        8.527631   -1.927442   -3.779625
     23          6           0        7.169211   -4.448610   -2.868635
     24          6           0        5.654211   -4.322944   -3.073776
     25          6           0        5.089038   -5.370660   -4.021547
     26          6           0        3.594755   -5.163104   -4.262252
     27          7           0        2.788777   -5.233726   -3.032938
     28          1           0        6.426627   -3.956831   -0.537965
     29          1           0        8.862205   -3.608479   -1.831838
     30          1           0        7.413096   -5.413752   -2.435136
     31          1           0        7.545983   -4.368606   -3.887724
     32          1           0        5.380675   -3.348565   -3.486405
     33          1           0        5.144308   -4.315210   -2.110168
     34          1           0        5.127959   -6.287040   -3.426457
     35          1           0        5.704061   -5.410189   -4.912774
     36          1           0        3.335444   -5.889220   -5.028028
     37          1           0        3.386823   -4.195869   -4.731848
     38          1           0        1.853631   -5.494368   -3.311805
     39          1           0        3.214183   -5.830082   -2.341860
     40          1           0        2.650844   -4.279653   -2.721620
     41          7           0        7.200412   -0.959162   -2.255708
     42          6           0        7.048363    0.398728   -2.766116
     43          6           0        7.660966    1.428066   -1.838656
     44          8           0        7.783163    2.581958   -2.242883
     45          6           0        5.561801    0.645139   -2.974715
     46          6           0        4.697700    0.306695   -1.771725
     47          8           0        3.575642   -0.224573   -1.961566
     48          8           0        5.143498    0.412897   -0.615142
     49          1           0        6.885015   -1.077117   -1.305123
     50          1           0        7.569565    0.612203   -3.691792
     51          1           0        5.231932   -0.022848   -3.765841
     52          1           0        5.356170    1.697622   -3.196063
     53          7           0        8.095203    1.033013   -0.639543
     54          6           0        8.526889    1.956987    0.384185
     55          6           0        7.474360    2.797650    1.099424
     56          8           0        7.851138    3.686556    1.864202
     57          1           0        8.284230    0.050794   -0.530388
     58          1           0        9.318910    2.599460    0.007978
     59          1           0        8.926523    1.293743    1.159297
     60          7           0        6.186290    2.635357    0.773944
     61          6           0        5.070092    3.552278    0.823503
     62          6           0        3.882363    3.110472    1.684321
     63          8           0        3.504907    1.935912    1.639198
     64          6           0        4.716579    3.981738   -0.592404
     65          6           0        3.709963    5.125952   -0.669849
     66          7           0        4.133537    6.376133   -0.496840
     67          8           0        2.533087    4.819463   -0.807065
     68          1           0        5.924526    1.751010    0.362226
     69          1           0        5.465899    4.477384    1.215953
     70          1           0        4.305345    3.188021   -1.208683
     71          1           0        5.614998    4.342102   -1.095079
     72          1           0        5.123508    6.516545   -0.350408
     73          1           0        3.461067    7.128335   -0.438738
     74          7           0        3.329097    4.070139    2.418921
     75          6           0        2.331667    3.766475    3.421877
     76          6           0        0.844556    3.852997    3.120352
     77          8           0       -0.083329    3.693152    3.904494
     78          1           0        3.708344    4.997959    2.307468
     79          1           0        2.493180    4.438317    4.264398
     80          1           0        2.385188    2.783523    3.894677
     81          7           0        0.573107    4.255622    1.876042
     82          6           0       -0.725421    4.382829    1.249431
     83          6           0       -1.305315    3.052057    0.794165
     84          8           0       -0.499492    2.250306    0.334115
     85          6           0       -0.800986    5.554230    0.264184
     86          6           0       -2.121643    5.676571   -0.454006
     87          6           0       -2.241764    5.274075   -1.788198
     88          6           0       -3.205068    6.152719    0.292435
     89          6           0       -3.467404    5.499175   -2.416875
     90          6           0       -4.431785    6.352678   -0.355395
     91          6           0       -4.580430    6.002551   -1.714959
     92          8           0       -5.781945    6.143284   -2.343892
     93          1           0        1.343195    4.513225    1.270066
     94          1           0       -1.458033    4.623789    2.018598
     95          1           0        0.020733    5.425073   -0.437454
     96          1           0       -0.491257    6.370990    0.908134
     97          1           0       -1.355461    4.868745   -2.261457
     98          1           0       -2.971279    6.535475    1.264978
     99          1           0       -3.481223    5.211550   -3.464005
    100          1           0       -5.243396    6.799251    0.205730
    101          1           0       -6.361929    6.770257   -1.907288
    102          7           0       -2.539297    2.708760    1.157533
    103          6           0       -3.270637    1.505067    0.799812
    104          6           0       -3.592586    1.314328   -0.670483
    105          8           0       -2.741946    1.605146   -1.507344
    106          6           0       -2.696849    0.255430    1.473366
    107          6           0       -3.412762   -1.079651    1.339473
    108          6           0       -2.501437    0.529629    2.966527
    109          6           0       -2.438241   -2.249302    1.305910
    110          1           0       -3.077398    3.275999    1.790295
    111          1           0       -4.259684    1.664235    1.231265
    112          1           0       -1.720185    0.092783    1.021068
    113          1           0       -4.003589   -1.168792    0.424500
    114          1           0       -4.099973   -1.271573    2.173084
    115          1           0       -2.014690   -0.260992    3.538449
    116          1           0       -2.012572    1.474628    3.228422
    117          1           0       -3.523876    0.619038    3.319122
    118          1           0       -2.910004   -3.141674    1.720652
    119          1           0       -2.151829   -2.411981    0.265860
    120          1           0       -1.551894   -1.998821    1.898489
    121          7           0       -4.777003    0.727304   -0.861948
    122          6           0       -5.394370    0.411210   -2.140636
    123          6           0       -6.900110    0.586455   -2.186855
    124          8           0       -7.413843    0.678795   -3.302629
    125          6           0       -5.005067   -0.964574   -2.674829
    126          8           0       -5.397262   -1.955453   -1.748848
    127          1           0       -5.376604    0.549903   -0.073210
    128          1           0       -4.936172    1.153439   -2.790905
    129          1           0       -3.926593   -0.975782   -2.814716
    130          1           0       -5.460810   -1.144130   -3.640571
    131          1           0       -4.881134   -2.754472   -1.893351
    132          7           0       -7.619034    0.613336   -1.059102
    133          6           0       -9.034641    0.907534   -0.953247
    134          6           0       -9.901949    0.102960   -1.910816
    135          8           0      -10.730381    0.657638   -2.628961
    136          6           0       -9.349444    2.395159   -0.961679
    137          1           0       -7.128235    0.528164   -0.170754
    138          1           0       -9.395136    0.616558    0.033807
    139          1           0       -9.162053    2.898481   -1.914911
    140          1           0      -10.390562    2.574308   -0.694510
    141          1           0       -8.642383    2.829855   -0.240565
    142          7           0       -9.688324   -1.201908   -2.136613
    143          6           0       -8.900661   -2.210238   -1.457674
    144          6           0       -9.702224   -2.734607   -0.275204
    145          8           0      -10.888332   -3.038909   -0.440880
    146          6           0       -8.463542   -3.322146   -2.419281
    147          1           0      -10.285987   -1.619600   -2.839201
    148          1           0       -7.936564   -1.825276   -1.139994
    149          1           0       -9.293910   -3.597958   -3.060075
    150          1           0       -7.682234   -2.913091   -3.052394
    151          1           0       -8.191910   -4.275858   -1.965795
    152          7           0       -9.162434   -2.880216    0.929920
    153          6           0       -7.834079   -2.563499    1.426370
    154          6           0       -7.716217   -2.351816    2.932856
    155          8           0       -6.706608   -1.826242    3.387125
    156          6           0       -6.909525   -3.661872    0.926091
    157          6           0       -7.056039   -5.046234    1.555911
    158          6           0       -5.959773   -5.985290    1.061366
    159          8           0       -6.104254   -6.531699   -0.061649
    160          8           0       -4.934291   -6.247579    1.724006
    161          1           0       -9.851391   -3.240369    1.571970
    162          1           0       -7.526907   -1.622049    0.966895
    163          1           0       -5.897904   -3.363854    1.172482
    164          1           0       -6.986566   -3.768339   -0.156881
    165          1           0       -8.006805   -5.490326    1.278554
    166          1           0       -6.937870   -4.969476    2.633800
    167          7           0       -8.714966   -2.647021    3.757692
    168          6           0       -8.644050   -2.465151    5.196300
    169          1           0       -8.589010   -1.401123    5.425009
    170          1           0       -9.533966   -2.890056    5.661039
    171          1           0       -7.756369   -2.966327    5.583457
    172          1           0       -9.588858   -2.928814    3.330837
    173         20           0        2.752129   -0.272128    0.564729
    174          8           0        0.868229    0.261310    2.309597
    175          1           0        0.009498    0.610345    2.056310
    176          1           0        0.830321    0.223877    3.264198
 ---------------------------------------------------------------------
 Rotational constants (GHZ):           0.0231919           0.0088203           0.0075570
 Standard basis: SVP (5D, 7F)
 There are  1809 symmetry adapted cartesian basis functions of A   symmetry.
 There are  1717 symmetry adapted basis functions of A   symmetry.
  1717 basis functions,  2922 primitive gaussians,  1809 cartesian basis functions
   358 alpha electrons      358 beta electrons
       nuclear repulsion energy     19527.2854499225 Hartrees.
 NAtoms=  176 NActive=  176 NUniq=  176 SFac= 1.00D+00 NAtFMM=   60 NAOKFM=T Big=T
 Integral buffers will be    131072 words long.
 Raffenetti 2 integral format.
 Two-electron integral symmetry is turned on.
 One-electron integrals computed using PRISM.
 NBasis=  1717 RedAO= T EigKep=  2.94D-04  NBF=  1717
 NBsUse=  1717 1.00D-06 EigRej= -1.00D+00 NBFU=  1717
 ExpMin= 1.98D-02 ExpMax= 3.51D+04 ExpMxC= 5.28D+03 IAcc=3 IRadAn=         5 AccDes= 0.00D+00
 Harris functional with IExCor=  402 and IRadAn=       5 diagonalized for initial guess.
 HarFok:  IExCor=  402 AccDes= 0.00D+00 IRadAn=         5 IDoV= 1 UseB2=F ITyADJ=14
 ICtDFT=  3500011 ScaDFX=  1.000000  1.000000  1.000000  1.000000
 FoFCou: FMM=F IPFlag=           0 FMFlag=      100000 FMFlg1=        2001
         NFxFlg=           0 DoJE=T BraDBF=F KetDBF=T FulRan=T
         wScrn=  0.000000 ICntrl=       500 IOpCl=  0 I1Cent=   200000004 NGrid=           0
         NMat0=    1 NMatS0=      1 NMatT0=    0 NMatD0=    1 NMtDS0=    0 NMtDT0=    0
 Petite list used in FoFCou.
 Requested convergence on RMS density matrix=1.00D-08 within 128 cycles.
 Requested convergence on MAX density matrix=1.00D-06.
 Requested convergence on             energy=1.00D-06.
 No special actions if energy rises.
 EnCoef did     2 forward-backward iterations
 EnCoef did     2 forward-backward iterations
 EnCoef did     5 forward-backward iterations
 EnCoef did     2 forward-backward iterations
 EnCoef did     8 forward-backward iterations
 EnCoef did   100 forward-backward iterations
 Rare condition: small coef for last iteration:  0.000D+00
 Rare condition: small coef for last iteration:  0.000D+00
 EnCoef did   100 forward-backward iterations
 EnCoef did     4 forward-backward iterations
 Rare condition: small coef for last iteration:  0.887D-15
 EnCoef did   100 forward-backward iterations
 EnCoef did   100 forward-backward iterations
 Restarting incremental Fock formation.
 Rare condition: small coef for last iteration:  0.000D+00
 EnCoef did    51 forward-backward iterations
 Rare condition: small coef for last iteration:  0.000D+00
 SCF Done:  E(RB3LYP) =  -5333.42750402     A.U. after   38 cycles
            NFock= 38  Conv=0.70D-10     -V/T= 2.0081
 SCF density gives NOpUse=  1 NOpAll=  1.
 Hyperfine terms turned off by default for NAtoms > 100.

 **********************************************************************

            Population analysis using the SCF density.

 **********************************************************************

 Orbital symmetries:
 BldTbl:  Degeneracy threshold= 1.00D-02
       Occupied  (A) (A) (A) (A) (A) (A) (A) (A) (A) (A) (A) (A)
                 (A) (A) (A) (A) (A) (A) (A) (A) (A) (A) (A) (A)
                 (A) (A) (A) (A) (A) (A) (A) (A) (A) (A) (A) (A)
                 (A) (A) (A) (A) (A) (A) (A) (A) (A) (A) (A) (A)
                 (A) (A) (A) (A) (A) (A) (A) (A) (A) (A) (A) (A)
                 (A) (A) (A) (A) (A) (A) (A) (A) (A) (A) (A) (A)
                 (A) (A) (A) (A) (A) (A) (A) (A) (A) (A) (A) (A)
                 (A) (A) (A) (A) (A) (A) (A) (A) (A) (A) (A) (A)
                 (A) (A) (A) (A) (A) (A) (A) (A) (A) (A) (A) (A)
                 (A) (A) (A) (A) (A) (A) (A) (A) (A) (A) (A) (A)
                 (A) (A) (A) (A) (A) (A) (A) (A) (A) (A) (A) (A)
                 (A) (A) (A) (A) (A) (A) (A) (A) (A) (A) (A) (A)
                 (A) (A) (A) (A) (A) (A) (A) (A) (A) (A) (A) (A)
                 (A) (A) (A) (A) (A) (A) (A) (A) (A) (A) (A) (A)
                 (A) (A) (A) (A) (A) (A) (A) (A) (A) (A) (A) (A)
                 (A) (A) (A) (A) (A) (A) (A) (A) (A) (A) (A) (A)
                 (A) (A) (A) (A) (A) (A) (A) (A) (A) (A) (A) (A)
                 (A) (A) (A) (A) (A) (A) (A) (A) (A) (A) (A) (A)
                 (A) (A) (A) (A) (A) (A) (A) (A) (A) (A) (A) (A)
                 (A) (A) (A) (A) (A) (A) (A) (A) (A) (A) (A) (A)
                 (A) (A) (A) (A) (A) (A) (A) (A) (A) (A) (A) (A)
                 (A) (A) (A) (A) (A) (A) (A) (A) (A) (A) (A) (A)
                 (A) (A) (A) (A) (A) (A) (A) (A) (A) (A) (A) (A)
                 (A) (A) (A) (A) (A) (A) (A) (A) (A) (A) (A) (A)
                 (A) (A) (A) (A) (A) (A) (A) (A) (A) (A) (A) (A)
                 (A) (A) (A) (A) (A) (A) (A) (A) (A) (A) (A) (A)
                 (A) (A) (A) (A) (A) (A) (A) (A) (A) (A) (A) (A)
                 (A) (A) (A) (A) (A) (A) (A) (A) (A) (A) (A) (A)
                 (A) (A) (A) (A) (A) (A) (A) (A) (A) (A) (A) (A)
                 (A) (A) (A) (A) (A) (A) (A) (A) (A) (A)
       Virtual   (A) (A) (A) (A) (A) (A) (A) (A) (A) (A) (A) (A)
                 (A) (A) (A) (A) (A) (A) (A) (A) (A) (A) (A) (A)
                 (A) (A) (A) (A) (A) (A) (A) (A) (A) (A) (A) (A)
                 (A) (A) (A) (A) (A) (A) (A) (A) (A) (A) (A) (A)
                 (A) (A) (A) (A) (A) (A) (A) (A) (A) (A) (A) (A)
                 (A) (A) (A) (A) (A) (A) (A) (A) (A) (A) (A) (A)
                 (A) (A) (A) (A) (A) (A) (A) (A) (A) (A) (A) (A)
                 (A) (A) (A) (A) (A) (A) (A) (A) (A) (A) (A) (A)
                 (A) (A) (A) (A) (A) (A) (A) (A) (A) (A) (A) (A)
                 (A) (A) (A) (A) (A) (A) (A) (A) (A) (A) (A) (A)
                 (A) (A) (A) (A) (A) (A) (A) (A) (A) (A) (A) (A)
                 (A) (A) (A) (A) (A) (A) (A) (A) (A) (A) (A) (A)
                 (A) (A) (A) (A) (A) (A) (A) (A) (A) (A) (A) (A)
                 (A) (A) (A) (A) (A) (A) (A) (A) (A) (A) (A) (A)
                 (A) (A) (A) (A) (A) (A) (A) (A) (A) (A) (A) (A)
                 (A) (A) (A) (A) (A) (A) (A) (A) (A) (A) (A) (A)
                 (A) (A) (A) (A) (A) (A) (A) (A) (A) (A) (A) (A)
                 (A) (A) (A) (A) (A) (A) (A) (A) (A) (A) (A) (A)
                 (A) (A) (A) (A) (A) (A) (A) (A) (A) (A) (A) (A)
                 (A) (A) (A) (A) (A) (A) (A) (A) (A) (A) (A) (A)
                 (A) (A) (A) (A) (A) (A) (A) (A) (A) (A) (A) (A)
                 (A) (A) (A) (A) (A) (A) (A) (A) (A) (A) (A) (A)
                 (A) (A) (A) (A) (A) (A) (A) (A) (A) (A) (A) (A)
                 (A) (A) (A) (A) (A) (A) (A) (A) (A) (A) (A) (A)
                 (A) (A) (A) (A) (A) (A) (A) (A) (A) (A) (A) (A)
                 (A) (A) (A) (A) (A) (A) (A) (A) (A) (A) (A) (A)
                 (A) (A) (A) (A) (A) (A) (A) (A) (A) (A) (A) (A)
                 (A) (A) (A) (A) (A) (A) (A) (A) (A) (A) (A) (A)
                 (A) (A) (A) (A) (A) (A) (A) (A) (A) (A) (A) (A)
                 (A) (A) (A) (A) (A) (A) (A) (A) (A) (A) (A) (A)
                 (A) (A) (A) (A) (A) (A) (A) (A) (A) (A) (A) (A)
                 (A) (A) (A) (A) (A) (A) (A) (A) (A) (A) (A) (A)
                 (A) (A) (A) (A) (A) (A) (A) (A) (A) (A) (A) (A)
                 (A) (A) (A) (A) (A) (A) (A) (A) (A) (A) (A) (A)
                 (A) (A) (A) (A) (A) (A) (A) (A) (A) (A) (A) (A)
                 (A) (A) (A) (A) (A) (A) (A) (A) (A) (A) (A) (A)
                 (A) (A) (A) (A) (A) (A) (A) (A) (A) (A) (A) (A)
                 (A) (A) (A) (A) (A) (A) (A) (A) (A) (A) (A) (A)
                 (A) (A) (A) (A) (A) (A) (A) (A) (A) (A) (A) (A)
                 (A) (A) (A) (A) (A) (A) (A) (A) (A) (A) (A) (A)
                 (A) (A) (A) (A) (A) (A) (A) (A) (A) (A) (A) (A)
                 (A) (A) (A) (A) (A) (A) (A) (A) (A) (A) (A) (A)
                 (A) (A) (A) (A) (A) (A) (A) (A) (A) (A) (A) (A)
                 (A) (A) (A) (A) (A) (A) (A) (A) (A) (A) (A) (A)
                 (A) (A) (A) (A) (A) (A) (A) (A) (A) (A) (A) (A)
                 (A) (A) (A) (A) (A) (A) (A) (A) (A) (A) (A) (A)
                 (A) (A) (A) (A) (A) (A) (A) (A) (A) (A) (A) (A)
                 (A) (A) (A) (A) (A) (A) (A) (A) (A) (A) (A) (A)
                 (A) (A) (A) (A) (A) (A) (A) (A) (A) (A) (A) (A)
                 (A) (A) (A) (A) (A) (A) (A) (A) (A) (A) (A) (A)
                 (A) (A) (A) (A) (A) (A) (A) (A) (A) (A) (A) (A)
                 (A) (A) (A) (A) (A) (A) (A) (A) (A) (A) (A) (A)
                 (A) (A) (A) (A) (A) (A) (A) (A) (A) (A) (A) (A)
                 (A) (A) (A) (A) (A) (A) (A) (A) (A) (A) (A) (A)
                 (A) (A) (A) (A) (A) (A) (A) (A) (A) (A) (A) (A)
                 (A) (A) (A) (A) (A) (A) (A) (A) (A) (A) (A) (A)
                 (A) (A) (A) (A) (A) (A) (A) (A) (A) (A) (A) (A)
                 (A) (A) (A) (A) (A) (A) (A) (A) (A) (A) (A) (A)
                 (A) (A) (A) (A) (A) (A) (A) (A) (A) (A) (A) (A)
                 (A) (A) (A) (A) (A) (A) (A) (A) (A) (A) (A) (A)
                 (A) (A) (A) (A) (A) (A) (A) (A) (A) (A) (A) (A)
                 (A) (A) (A) (A) (A) (A) (A) (A) (A) (A) (A) (A)
                 (A) (A) (A) (A) (A) (A) (A) (A) (A) (A) (A) (A)
                 (A) (A) (A) (A) (A) (A) (A) (A) (A) (A) (A) (A)
                 (A) (A) (A) (A) (A) (A) (A) (A) (A) (A) (A) (A)
                 (A) (A) (A) (A) (A) (A) (A) (A) (A) (A) (A) (A)
                 (A) (A) (A) (A) (A) (A) (A) (A) (A) (A) (A) (A)
                 (A) (A) (A) (A) (A) (A) (A) (A) (A) (A) (A) (A)
                 (A) (A) (A) (A) (A) (A) (A) (A) (A) (A) (A) (A)
                 (A) (A) (A) (A) (A) (A) (A) (A) (A) (A) (A) (A)
                 (A) (A) (A) (A) (A) (A) (A) (A) (A) (A) (A) (A)
                 (A) (A) (A) (A) (A) (A) (A) (A) (A) (A) (A) (A)
                 (A) (A) (A) (A) (A) (A) (A) (A) (A) (A) (A) (A)
                 (A) (A) (A) (A) (A) (A) (A) (A) (A) (A) (A) (A)
                 (A) (A) (A) (A) (A) (A) (A) (A) (A) (A) (A) (A)
                 (A) (A) (A) (A) (A) (A) (A) (A) (A) (A) (A) (A)
                 (A) (A) (A) (A) (A) (A) (A) (A) (A) (A) (A) (A)
                 (A) (A) (A) (A) (A) (A) (A) (A) (A) (A) (A) (A)
                 (A) (A) (A) (A) (A) (A) (A) (A) (A) (A) (A) (A)
                 (A) (A) (A) (A) (A) (A) (A) (A) (A) (A) (A) (A)
                 (A) (A) (A) (A) (A) (A) (A) (A) (A) (A) (A) (A)
                 (A) (A) (A) (A) (A) (A) (A) (A) (A) (A) (A) (A)
                 (A) (A) (A) (A) (A) (A) (A) (A) (A) (A) (A) (A)
                 (A) (A) (A) (A) (A) (A) (A) (A) (A) (A) (A) (A)
                 (A) (A) (A) (A) (A) (A) (A) (A) (A) (A) (A) (A)
                 (A) (A) (A) (A) (A) (A) (A) (A) (A) (A) (A) (A)
                 (A) (A) (A) (A) (A) (A) (A) (A) (A) (A) (A) (A)
                 (A) (A) (A) (A) (A) (A) (A) (A) (A) (A) (A) (A)
                 (A) (A) (A) (A) (A) (A) (A) (A) (A) (A) (A) (A)
                 (A) (A) (A) (A) (A) (A) (A) (A) (A) (A) (A) (A)
                 (A) (A) (A) (A) (A) (A) (A) (A) (A) (A) (A) (A)
                 (A) (A) (A) (A) (A) (A) (A) (A) (A) (A) (A) (A)
                 (A) (A) (A) (A) (A) (A) (A) (A) (A) (A) (A) (A)
                 (A) (A) (A) (A) (A) (A) (A) (A) (A) (A) (A) (A)
                 (A) (A) (A) (A) (A) (A) (A) (A) (A) (A) (A) (A)
                 (A) (A) (A) (A) (A) (A) (A) (A) (A) (A) (A) (A)
                 (A) (A) (A) (A) (A) (A) (A) (A) (A) (A) (A) (A)
                 (A) (A) (A) (A) (A) (A) (A) (A) (A) (A) (A) (A)
                 (A) (A) (A) (A) (A) (A) (A) (A) (A) (A) (A) (A)
                 (A) (A) (A) (A) (A) (A) (A) (A) (A) (A) (A) (A)
                 (A) (A) (A) (A) (A) (A) (A) (A) (A) (A) (A) (A)
                 (A) (A) (A) (A) (A) (A) (A) (A) (A) (A) (A) (A)
                 (A) (A) (A) (A) (A) (A) (A) (A) (A) (A) (A) (A)
                 (A) (A) (A) (A) (A) (A) (A) (A) (A) (A) (A) (A)
                 (A) (A) (A) (A) (A) (A) (A) (A) (A) (A) (A) (A)
                 (A) (A) (A) (A) (A) (A) (A) (A) (A) (A) (A) (A)
                 (A) (A) (A) (A) (A) (A) (A) (A) (A) (A) (A) (A)
                 (A) (A) (A) (A) (A) (A) (A) (A) (A) (A) (A) (A)
                 (A) (A) (A) (A) (A) (A) (A) (A) (A) (A) (A) (A)
                 (A) (A) (A) (A) (A) (A) (A) (A) (A) (A) (A) (A)
                 (A) (A) (A) (A) (A) (A) (A) (A) (A) (A) (A) (A)
                 (A) (A) (A) (A) (A) (A) (A) (A) (A) (A) (A) (A)
                 (A) (A) (A) (A) (A) (A) (A) (A) (A) (A) (A) (A)
                 (A) (A) (A)
 The electronic state is 1-A.
 Alpha  occ. eigenvalues -- -145.44023 -19.19954 -19.16913 -19.15798 -19.15069
 Alpha  occ. eigenvalues --  -19.13722 -19.13093 -19.11968 -19.11162 -19.10841
 Alpha  occ. eigenvalues --  -19.10840 -19.10838 -19.10748 -19.10363 -19.10125
 Alpha  occ. eigenvalues --  -19.10067 -19.09728 -19.08895 -19.08621 -19.07163
 Alpha  occ. eigenvalues --  -19.06892 -19.06883 -18.96994 -18.96705 -15.49872
 Alpha  occ. eigenvalues --  -14.56973 -14.41979 -14.39819 -14.39356 -14.37860
 Alpha  occ. eigenvalues --  -14.37731 -14.37563 -14.37113 -14.37007 -14.36542
 Alpha  occ. eigenvalues --  -14.35541 -14.35421 -14.35011 -14.34161 -14.32770
 Alpha  occ. eigenvalues --  -12.63479 -12.63449 -12.63399 -10.34634 -10.34050
 Alpha  occ. eigenvalues --  -10.32033 -10.31246 -10.30998 -10.30187 -10.29973
 Alpha  occ. eigenvalues --  -10.29754 -10.29692 -10.29589 -10.29210 -10.29020
 Alpha  occ. eigenvalues --  -10.28556 -10.28398 -10.27685 -10.27392 -10.27067
 Alpha  occ. eigenvalues --  -10.27016 -10.26929 -10.26603 -10.26443 -10.26118
 Alpha  occ. eigenvalues --  -10.25797 -10.25095 -10.24764 -10.24635 -10.24628
 Alpha  occ. eigenvalues --  -10.24483 -10.24467 -10.24109 -10.23627 -10.23499
 Alpha  occ. eigenvalues --  -10.22554 -10.22308 -10.22135 -10.21560 -10.20573
 Alpha  occ. eigenvalues --  -10.20530 -10.20489 -10.20435 -10.20275 -10.20023
 Alpha  occ. eigenvalues --  -10.19984 -10.19905 -10.19774 -10.19366 -10.18891
 Alpha  occ. eigenvalues --  -10.18041 -10.17689 -10.17583 -10.16822 -10.16516
 Alpha  occ. eigenvalues --  -10.15130 -10.11851  -1.86583  -1.14153  -1.13892
 Alpha  occ. eigenvalues --   -1.13638  -1.12665  -1.08083  -1.06800  -1.06176
 Alpha  occ. eigenvalues --   -1.05955  -1.05609  -1.05551  -1.05290  -1.04540
 Alpha  occ. eigenvalues --   -1.04108  -1.03867  -1.03159  -1.03140  -1.03103
 Alpha  occ. eigenvalues --   -1.02776  -1.02645  -1.02326  -1.02274  -1.00761
 Alpha  occ. eigenvalues --   -0.99908  -0.98181  -0.96895  -0.95405  -0.95035
 Alpha  occ. eigenvalues --   -0.94592  -0.94249  -0.94152  -0.93533  -0.93412
 Alpha  occ. eigenvalues --   -0.93317  -0.93038  -0.92173  -0.91788  -0.91737
 Alpha  occ. eigenvalues --   -0.91398  -0.90307  -0.89462  -0.89334  -0.86188
 Alpha  occ. eigenvalues --   -0.83630  -0.83053  -0.81988  -0.80704  -0.80486
 Alpha  occ. eigenvalues --   -0.80300  -0.79527  -0.79309  -0.77635  -0.77495
 Alpha  occ. eigenvalues --   -0.76908  -0.76386  -0.75481  -0.75118  -0.74779
 Alpha  occ. eigenvalues --   -0.74342  -0.73815  -0.73239  -0.73207  -0.71598
 Alpha  occ. eigenvalues --   -0.71481  -0.70857  -0.70356  -0.70044  -0.68255
 Alpha  occ. eigenvalues --   -0.67692  -0.67282  -0.67218  -0.66771  -0.65484
 Alpha  occ. eigenvalues --   -0.65078  -0.64944  -0.64385  -0.64366  -0.63409
 Alpha  occ. eigenvalues --   -0.63200  -0.62881  -0.62718  -0.61707  -0.61502
 Alpha  occ. eigenvalues --   -0.61225  -0.61086  -0.60929  -0.60716  -0.60467
 Alpha  occ. eigenvalues --   -0.59953  -0.59354  -0.59130  -0.59017  -0.58914
 Alpha  occ. eigenvalues --   -0.58636  -0.58470  -0.58457  -0.57551  -0.56584
 Alpha  occ. eigenvalues --   -0.56465  -0.56180  -0.55968  -0.55706  -0.55622
 Alpha  occ. eigenvalues --   -0.54621  -0.54426  -0.54105  -0.54047  -0.53916
 Alpha  occ. eigenvalues --   -0.53126  -0.52849  -0.52338  -0.52042  -0.51613
 Alpha  occ. eigenvalues --   -0.51366  -0.50904  -0.50851  -0.50695  -0.50619
 Alpha  occ. eigenvalues --   -0.50489  -0.50238  -0.50018  -0.49875  -0.49535
 Alpha  occ. eigenvalues --   -0.49304  -0.48590  -0.48211  -0.47966  -0.47794
 Alpha  occ. eigenvalues --   -0.47601  -0.47459  -0.47388  -0.47228  -0.47203
 Alpha  occ. eigenvalues --   -0.46940  -0.46903  -0.46825  -0.46716  -0.46508
 Alpha  occ. eigenvalues --   -0.46215  -0.46016  -0.45965  -0.45950  -0.45911
 Alpha  occ. eigenvalues --   -0.45623  -0.45258  -0.45131  -0.45026  -0.44882
 Alpha  occ. eigenvalues --   -0.44786  -0.44410  -0.44325  -0.44191  -0.43908
 Alpha  occ. eigenvalues --   -0.43632  -0.43520  -0.43510  -0.43274  -0.43115
 Alpha  occ. eigenvalues --   -0.42926  -0.42603  -0.42442  -0.42405  -0.42306
 Alpha  occ. eigenvalues --   -0.42222  -0.42053  -0.41868  -0.41784  -0.41645
 Alpha  occ. eigenvalues --   -0.41569  -0.41408  -0.41206  -0.41038  -0.40980
 Alpha  occ. eigenvalues --   -0.40886  -0.40602  -0.40572  -0.40389  -0.40213
 Alpha  occ. eigenvalues --   -0.39904  -0.39884  -0.39850  -0.39772  -0.39625
 Alpha  occ. eigenvalues --   -0.39470  -0.39322  -0.38954  -0.38874  -0.38818
 Alpha  occ. eigenvalues --   -0.38610  -0.38577  -0.38428  -0.38322  -0.38143
 Alpha  occ. eigenvalues --   -0.37989  -0.37666  -0.37546  -0.37491  -0.37148
 Alpha  occ. eigenvalues --   -0.36960  -0.36897  -0.36683  -0.36601  -0.36421
 Alpha  occ. eigenvalues --   -0.36110  -0.36006  -0.35912  -0.35806  -0.35480
 Alpha  occ. eigenvalues --   -0.35109  -0.34896  -0.34644  -0.34268  -0.33780
 Alpha  occ. eigenvalues --   -0.33647  -0.33559  -0.33446  -0.32945  -0.32655
 Alpha  occ. eigenvalues --   -0.31820  -0.31685  -0.31468  -0.31448  -0.31396
 Alpha  occ. eigenvalues --   -0.29997  -0.29494  -0.29252  -0.28988  -0.28940
 Alpha  occ. eigenvalues --   -0.28871  -0.28662  -0.28630  -0.28529  -0.28130
 Alpha  occ. eigenvalues --   -0.27802  -0.27772  -0.27742  -0.27305  -0.26978
 Alpha  occ. eigenvalues --   -0.26944  -0.26781  -0.26543  -0.26366  -0.26285
 Alpha  occ. eigenvalues --   -0.25811  -0.25805  -0.25685  -0.25469  -0.25341
 Alpha  occ. eigenvalues --   -0.25087  -0.25063  -0.24940  -0.24824  -0.24120
 Alpha  occ. eigenvalues --   -0.23382  -0.23199  -0.23131  -0.23000  -0.22177
 Alpha  occ. eigenvalues --   -0.14761  -0.14007  -0.11040
 Alpha virt. eigenvalues --   -0.09885  -0.06103  -0.04215  -0.03981  -0.03484
 Alpha virt. eigenvalues --   -0.02841  -0.02236  -0.01850  -0.01361  -0.01217
 Alpha virt. eigenvalues --   -0.01143  -0.00953  -0.00793  -0.00454  -0.00085
 Alpha virt. eigenvalues --    0.00249   0.00609   0.01132   0.01319   0.01524
 Alpha virt. eigenvalues --    0.01595   0.01997   0.02407   0.02669   0.02740
 Alpha virt. eigenvalues --    0.02980   0.03135   0.03244   0.03310   0.03645
 Alpha virt. eigenvalues --    0.03909   0.04061   0.04151   0.04170   0.04451
 Alpha virt. eigenvalues --    0.04712   0.04834   0.05327   0.05390   0.05753
 Alpha virt. eigenvalues --    0.05988   0.06674   0.06896   0.07041   0.07139
 Alpha virt. eigenvalues --    0.07660   0.07768   0.08097   0.08311   0.08483
 Alpha virt. eigenvalues --    0.08950   0.09140   0.09261   0.09342   0.09498
 Alpha virt. eigenvalues --    0.09689   0.09879   0.10085   0.10244   0.10275
 Alpha virt. eigenvalues --    0.10539   0.10787   0.10873   0.11065   0.11175
 Alpha virt. eigenvalues --    0.11358   0.11495   0.11614   0.11843   0.11974
 Alpha virt. eigenvalues --    0.12048   0.12383   0.12561   0.12681   0.12803
 Alpha virt. eigenvalues --    0.12902   0.13078   0.13242   0.13392   0.13493
 Alpha virt. eigenvalues --    0.13582   0.13805   0.13957   0.13994   0.14468
 Alpha virt. eigenvalues --    0.14473   0.14653   0.14744   0.14778   0.15069
 Alpha virt. eigenvalues --    0.15189   0.15211   0.15325   0.15542   0.15564
 Alpha virt. eigenvalues --    0.15750   0.16078   0.16263   0.16354   0.16698
 Alpha virt. eigenvalues --    0.16788   0.16931   0.16968   0.17172   0.17429
 Alpha virt. eigenvalues --    0.17469   0.17638   0.17865   0.18113   0.18453
 Alpha virt. eigenvalues --    0.18506   0.18694   0.18804   0.18896   0.18915
 Alpha virt. eigenvalues --    0.19006   0.19180   0.19637   0.19820   0.20076
 Alpha virt. eigenvalues --    0.20654   0.20680   0.20893   0.21179   0.21303
 Alpha virt. eigenvalues --    0.21532   0.21768   0.21999   0.22117   0.22265
 Alpha virt. eigenvalues --    0.22336   0.22579   0.22753   0.22940   0.23409
 Alpha virt. eigenvalues --    0.23446   0.23996   0.24078   0.24122   0.24357
 Alpha virt. eigenvalues --    0.24480   0.25022   0.25240   0.25508   0.25944
 Alpha virt. eigenvalues --    0.26099   0.26203   0.26270   0.26401   0.26752
 Alpha virt. eigenvalues --    0.27060   0.27474   0.27522   0.27578   0.27620
 Alpha virt. eigenvalues --    0.28070   0.28187   0.28399   0.28602   0.28993
 Alpha virt. eigenvalues --    0.29025   0.29274   0.29578   0.29679   0.29705
 Alpha virt. eigenvalues --    0.30061   0.30470   0.30629   0.30707   0.31116
 Alpha virt. eigenvalues --    0.31632   0.31723   0.31836   0.32062   0.32554
 Alpha virt. eigenvalues --    0.33147   0.33583   0.33714   0.34162   0.34360
 Alpha virt. eigenvalues --    0.34784   0.35046   0.35134   0.35962   0.36039
 Alpha virt. eigenvalues --    0.36308   0.36641   0.37209   0.37458   0.37769
 Alpha virt. eigenvalues --    0.38196   0.38347   0.38542   0.38715   0.39462
 Alpha virt. eigenvalues --    0.39780   0.39980   0.40229   0.40563   0.40703
 Alpha virt. eigenvalues --    0.40858   0.40956   0.41063   0.41142   0.41349
 Alpha virt. eigenvalues --    0.41595   0.41739   0.41898   0.42410   0.42642
 Alpha virt. eigenvalues --    0.42974   0.43033   0.43232   0.43385   0.43706
 Alpha virt. eigenvalues --    0.43820   0.44011   0.44189   0.44329   0.44494
 Alpha virt. eigenvalues --    0.44903   0.45089   0.45462   0.45744   0.45803
 Alpha virt. eigenvalues --    0.46044   0.46380   0.46547   0.46692   0.46725
 Alpha virt. eigenvalues --    0.46954   0.47028   0.47266   0.47475   0.47617
 Alpha virt. eigenvalues --    0.47637   0.47695   0.47813   0.47947   0.48212
 Alpha virt. eigenvalues --    0.48333   0.48545   0.48697   0.48923   0.48969
 Alpha virt. eigenvalues --    0.49225   0.49398   0.49479   0.49678   0.50104
 Alpha virt. eigenvalues --    0.50199   0.50380   0.50701   0.50758   0.50935
 Alpha virt. eigenvalues --    0.51034   0.51264   0.51585   0.51707   0.51814
 Alpha virt. eigenvalues --    0.52287   0.52478   0.52575   0.52642   0.52934
 Alpha virt. eigenvalues --    0.53158   0.53301   0.53487   0.53598   0.53866
 Alpha virt. eigenvalues --    0.54060   0.54351   0.54685   0.54716   0.54953
 Alpha virt. eigenvalues --    0.55167   0.55387   0.55398   0.55870   0.55952
 Alpha virt. eigenvalues --    0.56269   0.56308   0.56614   0.56759   0.56944
 Alpha virt. eigenvalues --    0.57136   0.57359   0.57401   0.57429   0.57594
 Alpha virt. eigenvalues --    0.57788   0.58004   0.58105   0.58216   0.58517
 Alpha virt. eigenvalues --    0.58647   0.58827   0.58899   0.59022   0.59140
 Alpha virt. eigenvalues --    0.59429   0.59786   0.59864   0.59930   0.60032
 Alpha virt. eigenvalues --    0.60087   0.60274   0.60318   0.60346   0.60495
 Alpha virt. eigenvalues --    0.60718   0.60883   0.61103   0.61170   0.61230
 Alpha virt. eigenvalues --    0.61423   0.61526   0.61740   0.61822   0.61953
 Alpha virt. eigenvalues --    0.62136   0.62198   0.62309   0.62497   0.62647
 Alpha virt. eigenvalues --    0.62806   0.62848   0.63011   0.63122   0.63279
 Alpha virt. eigenvalues --    0.63473   0.63493   0.63602   0.63670   0.63770
 Alpha virt. eigenvalues --    0.63803   0.63844   0.63927   0.64035   0.64174
 Alpha virt. eigenvalues --    0.64366   0.64448   0.64576   0.64650   0.64703
 Alpha virt. eigenvalues --    0.64880   0.64973   0.65065   0.65200   0.65245
 Alpha virt. eigenvalues --    0.65420   0.65484   0.65710   0.65842   0.65942
 Alpha virt. eigenvalues --    0.65988   0.66126   0.66300   0.66349   0.66448
 Alpha virt. eigenvalues --    0.66551   0.66682   0.66784   0.67055   0.67080
 Alpha virt. eigenvalues --    0.67158   0.67344   0.67431   0.67624   0.67683
 Alpha virt. eigenvalues --    0.67792   0.67940   0.68008   0.68042   0.68250
 Alpha virt. eigenvalues --    0.68331   0.68358   0.68553   0.68575   0.68877
 Alpha virt. eigenvalues --    0.68963   0.69382   0.69436   0.69468   0.69516
 Alpha virt. eigenvalues --    0.69565   0.69779   0.69886   0.70033   0.70075
 Alpha virt. eigenvalues --    0.70362   0.70575   0.70651   0.70714   0.70967
 Alpha virt. eigenvalues --    0.71065   0.71270   0.71324   0.71477   0.71803
 Alpha virt. eigenvalues --    0.71969   0.72008   0.72161   0.72268   0.72488
 Alpha virt. eigenvalues --    0.72745   0.73000   0.73083   0.73164   0.73365
 Alpha virt. eigenvalues --    0.73456   0.73582   0.73632   0.74029   0.74213
 Alpha virt. eigenvalues --    0.74511   0.74749   0.74976   0.75081   0.75327
 Alpha virt. eigenvalues --    0.75856   0.75951   0.76034   0.76151   0.76429
 Alpha virt. eigenvalues --    0.76596   0.76969   0.77192   0.77432   0.77599
 Alpha virt. eigenvalues --    0.77716   0.77984   0.78442   0.78753   0.79230
 Alpha virt. eigenvalues --    0.79312   0.79391   0.79517   0.79680   0.80107
 Alpha virt. eigenvalues --    0.80589   0.80913   0.81219   0.81311   0.81664
 Alpha virt. eigenvalues --    0.81729   0.81929   0.82371   0.82494   0.82996
 Alpha virt. eigenvalues --    0.83241   0.83515   0.83605   0.83946   0.84464
 Alpha virt. eigenvalues --    0.84493   0.84824   0.84873   0.85319   0.85557
 Alpha virt. eigenvalues --    0.85954   0.86226   0.86547   0.86843   0.86888
 Alpha virt. eigenvalues --    0.87433   0.87744   0.87963   0.88044   0.88678
 Alpha virt. eigenvalues --    0.89073   0.89122   0.89388   0.89656   0.89970
 Alpha virt. eigenvalues --    0.90425   0.90794   0.90993   0.91234   0.91349
 Alpha virt. eigenvalues --    0.91581   0.91815   0.91929   0.92157   0.92456
 Alpha virt. eigenvalues --    0.92587   0.92738   0.93251   0.93659   0.93758
 Alpha virt. eigenvalues --    0.93996   0.94216   0.94633   0.95040   0.95145
 Alpha virt. eigenvalues --    0.95369   0.95584   0.95968   0.96092   0.96338
 Alpha virt. eigenvalues --    0.96618   0.96918   0.97336   0.97950   0.98182
 Alpha virt. eigenvalues --    0.98726   0.98878   0.98991   0.99351   0.99441
 Alpha virt. eigenvalues --    0.99568   0.99880   1.00280   1.00393   1.00608
 Alpha virt. eigenvalues --    1.00785   1.00980   1.01738   1.02116   1.02250
 Alpha virt. eigenvalues --    1.02630   1.02925   1.03316   1.03527   1.03640
 Alpha virt. eigenvalues --    1.03945   1.04521   1.04728   1.04833   1.04932
 Alpha virt. eigenvalues --    1.05317   1.05563   1.05781   1.05983   1.06184
 Alpha virt. eigenvalues --    1.06280   1.06407   1.06685   1.06930   1.07292
 Alpha virt. eigenvalues --    1.08015   1.08094   1.08711   1.09189   1.09361
 Alpha virt. eigenvalues --    1.09544   1.09772   1.10158   1.10351   1.10717
 Alpha virt. eigenvalues --    1.10938   1.11076   1.11615   1.11719   1.12337
 Alpha virt. eigenvalues --    1.12691   1.12966   1.13133   1.13281   1.13654
 Alpha virt. eigenvalues --    1.14048   1.14131   1.14361   1.14590   1.14851
 Alpha virt. eigenvalues --    1.15042   1.15116   1.15532   1.15865   1.16443
 Alpha virt. eigenvalues --    1.16800   1.16858   1.17015   1.17330   1.17405
 Alpha virt. eigenvalues --    1.17519   1.17901   1.18410   1.18594   1.18761
 Alpha virt. eigenvalues --    1.18976   1.19054   1.19466   1.19833   1.19987
 Alpha virt. eigenvalues --    1.20431   1.20542   1.20705   1.21112   1.21359
 Alpha virt. eigenvalues --    1.21551   1.21670   1.21915   1.22290   1.22940
 Alpha virt. eigenvalues --    1.23086   1.23408   1.23594   1.23637   1.23941
 Alpha virt. eigenvalues --    1.24099   1.24246   1.24517   1.24665   1.25074
 Alpha virt. eigenvalues --    1.25129   1.25653   1.25871   1.26147   1.26306
 Alpha virt. eigenvalues --    1.26721   1.27190   1.27508   1.27570   1.27759
 Alpha virt. eigenvalues --    1.28193   1.28281   1.28724   1.28790   1.29204
 Alpha virt. eigenvalues --    1.29391   1.29767   1.29861   1.30000   1.30440
 Alpha virt. eigenvalues --    1.30661   1.30759   1.31037   1.31171   1.32133
 Alpha virt. eigenvalues --    1.32291   1.32643   1.32692   1.33424   1.33910
 Alpha virt. eigenvalues --    1.34123   1.34275   1.34675   1.34794   1.35265
 Alpha virt. eigenvalues --    1.35422   1.35985   1.36099   1.36372   1.36628
 Alpha virt. eigenvalues --    1.36796   1.36961   1.37215   1.37709   1.38213
 Alpha virt. eigenvalues --    1.38408   1.38512   1.38599   1.38742   1.39215
 Alpha virt. eigenvalues --    1.39281   1.39781   1.40140   1.40624   1.40870
 Alpha virt. eigenvalues --    1.40971   1.41508   1.41799   1.41967   1.42229
 Alpha virt. eigenvalues --    1.42325   1.42967   1.43151   1.43518   1.43708
 Alpha virt. eigenvalues --    1.44321   1.44648   1.44942   1.45157   1.45506
 Alpha virt. eigenvalues --    1.45767   1.45904   1.45976   1.46522   1.46769
 Alpha virt. eigenvalues --    1.47030   1.47671   1.47865   1.47924   1.48474
 Alpha virt. eigenvalues --    1.48636   1.48897   1.49046   1.49647   1.50086
 Alpha virt. eigenvalues --    1.50431   1.50733   1.50918   1.51423   1.51536
 Alpha virt. eigenvalues --    1.51775   1.52073   1.52248   1.52419   1.52756
 Alpha virt. eigenvalues --    1.52858   1.53162   1.53526   1.53856   1.53977
 Alpha virt. eigenvalues --    1.54148   1.55121   1.55323   1.55658   1.55716
 Alpha virt. eigenvalues --    1.56723   1.57159   1.57394   1.57519   1.57709
 Alpha virt. eigenvalues --    1.57838   1.58136   1.58241   1.58526   1.58694
 Alpha virt. eigenvalues --    1.58860   1.59012   1.59154   1.59736   1.60026
 Alpha virt. eigenvalues --    1.60401   1.61142   1.61319   1.61591   1.62122
 Alpha virt. eigenvalues --    1.62473   1.63345   1.63492   1.63668   1.63845
 Alpha virt. eigenvalues --    1.64158   1.64348   1.64780   1.65411   1.65475
 Alpha virt. eigenvalues --    1.65608   1.66243   1.66453   1.66618   1.66793
 Alpha virt. eigenvalues --    1.67004   1.67676   1.67846   1.68560   1.68920
 Alpha virt. eigenvalues --    1.69194   1.69404   1.69603   1.69904   1.70011
 Alpha virt. eigenvalues --    1.70036   1.70231   1.70476   1.70721   1.70985
 Alpha virt. eigenvalues --    1.71295   1.71727   1.71912   1.72111   1.72502
 Alpha virt. eigenvalues --    1.72554   1.72847   1.72924   1.73063   1.73109
 Alpha virt. eigenvalues --    1.73492   1.73580   1.73804   1.73964   1.74075
 Alpha virt. eigenvalues --    1.74394   1.74816   1.74932   1.75393   1.75777
 Alpha virt. eigenvalues --    1.75811   1.76125   1.76517   1.76789   1.76968
 Alpha virt. eigenvalues --    1.77004   1.77116   1.77277   1.77440   1.77614
 Alpha virt. eigenvalues --    1.77669   1.77826   1.78020   1.78174   1.78254
 Alpha virt. eigenvalues --    1.78407   1.78477   1.78812   1.78853   1.78982
 Alpha virt. eigenvalues --    1.79032   1.79131   1.79153   1.79398   1.79546
 Alpha virt. eigenvalues --    1.79661   1.80121   1.80310   1.80367   1.80512
 Alpha virt. eigenvalues --    1.80882   1.80920   1.81004   1.81223   1.81267
 Alpha virt. eigenvalues --    1.81810   1.82110   1.82255   1.82282   1.82444
 Alpha virt. eigenvalues --    1.82630   1.82759   1.82910   1.83117   1.83256
 Alpha virt. eigenvalues --    1.83493   1.83589   1.83803   1.83891   1.84071
 Alpha virt. eigenvalues --    1.84442   1.84516   1.85051   1.85098   1.85187
 Alpha virt. eigenvalues --    1.85374   1.85443   1.85625   1.85763   1.85919
 Alpha virt. eigenvalues --    1.86238   1.86607   1.86869   1.86909   1.87250
 Alpha virt. eigenvalues --    1.87399   1.87492   1.87558   1.87689   1.87830
 Alpha virt. eigenvalues --    1.88246   1.88282   1.88426   1.88464   1.88662
 Alpha virt. eigenvalues --    1.88881   1.89058   1.89430   1.89472   1.89914
 Alpha virt. eigenvalues --    1.90155   1.90482   1.90616   1.90732   1.90950
 Alpha virt. eigenvalues --    1.91174   1.91498   1.91621   1.91968   1.92022
 Alpha virt. eigenvalues --    1.92069   1.92300   1.92743   1.92834   1.93055
 Alpha virt. eigenvalues --    1.93260   1.93476   1.93552   1.93686   1.93831
 Alpha virt. eigenvalues --    1.94063   1.94427   1.94756   1.94851   1.94945
 Alpha virt. eigenvalues --    1.95386   1.95420   1.95571   1.95720   1.96410
 Alpha virt. eigenvalues --    1.96620   1.96774   1.96938   1.97204   1.97229
 Alpha virt. eigenvalues --    1.97376   1.97793   1.97891   1.97906   1.98432
 Alpha virt. eigenvalues --    1.98537   1.99246   1.99488   1.99496   1.99744
 Alpha virt. eigenvalues --    1.99965   2.00241   2.00475   2.00756   2.00869
 Alpha virt. eigenvalues --    2.01205   2.01488   2.01589   2.01774   2.01837
 Alpha virt. eigenvalues --    2.02411   2.02684   2.02870   2.03137   2.03243
 Alpha virt. eigenvalues --    2.03620   2.03909   2.04042   2.04358   2.04653
 Alpha virt. eigenvalues --    2.04984   2.05037   2.05064   2.05438   2.05582
 Alpha virt. eigenvalues --    2.05790   2.06327   2.06399   2.06673   2.06864
 Alpha virt. eigenvalues --    2.07391   2.07608   2.07997   2.08081   2.08487
 Alpha virt. eigenvalues --    2.08892   2.09119   2.09642   2.09994   2.10151
 Alpha virt. eigenvalues --    2.10385   2.10614   2.10981   2.11237   2.11626
 Alpha virt. eigenvalues --    2.11809   2.12060   2.12343   2.12409   2.12614
 Alpha virt. eigenvalues --    2.12760   2.13043   2.13169   2.13643   2.14248
 Alpha virt. eigenvalues --    2.14518   2.14806   2.15176   2.15384   2.15473
 Alpha virt. eigenvalues --    2.15846   2.16421   2.16475   2.16800   2.16959
 Alpha virt. eigenvalues --    2.17497   2.17894   2.18002   2.18329   2.18386
 Alpha virt. eigenvalues --    2.18726   2.18871   2.19427   2.19793   2.20094
 Alpha virt. eigenvalues --    2.20374   2.21038   2.21529   2.21799   2.21958
 Alpha virt. eigenvalues --    2.22271   2.22927   2.22932   2.23697   2.24281
 Alpha virt. eigenvalues --    2.24871   2.25437   2.25500   2.25818   2.26050
 Alpha virt. eigenvalues --    2.26341   2.26488   2.27023   2.27395   2.27673
 Alpha virt. eigenvalues --    2.28108   2.28457   2.28749   2.29005   2.29283
 Alpha virt. eigenvalues --    2.29515   2.29576   2.29797   2.29839   2.30081
 Alpha virt. eigenvalues --    2.30228   2.30979   2.31043   2.31305   2.31648
 Alpha virt. eigenvalues --    2.31725   2.31939   2.32609   2.32746   2.32859
 Alpha virt. eigenvalues --    2.32919   2.33256   2.33828   2.34279   2.34560
 Alpha virt. eigenvalues --    2.34706   2.34930   2.34987   2.35086   2.35916
 Alpha virt. eigenvalues --    2.36002   2.36373   2.36865   2.37907   2.38132
 Alpha virt. eigenvalues --    2.38437   2.38647   2.39203   2.39445   2.39611
 Alpha virt. eigenvalues --    2.40056   2.40531   2.40674   2.40743   2.40861
 Alpha virt. eigenvalues --    2.41041   2.41442   2.42254   2.42342   2.42450
 Alpha virt. eigenvalues --    2.43055   2.43141   2.43321   2.44902   2.45126
 Alpha virt. eigenvalues --    2.45191   2.46005   2.46425   2.46688   2.46944
 Alpha virt. eigenvalues --    2.47593   2.48026   2.48033   2.48364   2.48878
 Alpha virt. eigenvalues --    2.49333   2.49468   2.50217   2.50252   2.50322
 Alpha virt. eigenvalues --    2.50880   2.50955   2.51398   2.51866   2.51887
 Alpha virt. eigenvalues --    2.52174   2.52911   2.53256   2.53445   2.53585
 Alpha virt. eigenvalues --    2.54301   2.54374   2.54685   2.54873   2.55170
 Alpha virt. eigenvalues --    2.55492   2.55649   2.55815   2.56272   2.56278
 Alpha virt. eigenvalues --    2.56450   2.56639   2.57371   2.57832   2.57861
 Alpha virt. eigenvalues --    2.58098   2.58223   2.58535   2.58821   2.59231
 Alpha virt. eigenvalues --    2.59333   2.59398   2.59750   2.60181   2.60291
 Alpha virt. eigenvalues --    2.60366   2.60853   2.61470   2.62145   2.62620
 Alpha virt. eigenvalues --    2.63133   2.63343   2.63501   2.64232   2.64257
 Alpha virt. eigenvalues --    2.65011   2.65204   2.65265   2.65635   2.65872
 Alpha virt. eigenvalues --    2.66388   2.66699   2.66986   2.67155   2.67477
 Alpha virt. eigenvalues --    2.67524   2.67734   2.68075   2.68310   2.68409
 Alpha virt. eigenvalues --    2.68521   2.68611   2.68809   2.69047   2.69117
 Alpha virt. eigenvalues --    2.69445   2.69525   2.69915   2.70423   2.70872
 Alpha virt. eigenvalues --    2.71027   2.71779   2.71978   2.72249   2.72405
 Alpha virt. eigenvalues --    2.72570   2.73371   2.73713   2.74038   2.74251
 Alpha virt. eigenvalues --    2.74760   2.74829   2.74980   2.75030   2.75202
 Alpha virt. eigenvalues --    2.75333   2.75496   2.76124   2.76575   2.76652
 Alpha virt. eigenvalues --    2.76796   2.77133   2.77258   2.78022   2.78265
 Alpha virt. eigenvalues --    2.78384   2.78495   2.78673   2.78877   2.79355
 Alpha virt. eigenvalues --    2.79465   2.79900   2.80108   2.80550   2.80941
 Alpha virt. eigenvalues --    2.81540   2.81714   2.82009   2.82129   2.82774
 Alpha virt. eigenvalues --    2.83401   2.83535   2.83577   2.83864   2.84689
 Alpha virt. eigenvalues --    2.84780   2.85155   2.85279   2.85715   2.86180
 Alpha virt. eigenvalues --    2.86740   2.87209   2.87262   2.87347   2.87845
 Alpha virt. eigenvalues --    2.88495   2.88662   2.88912   2.88953   2.89136
 Alpha virt. eigenvalues --    2.89779   2.89907   2.90310   2.90404   2.90430
 Alpha virt. eigenvalues --    2.91279   2.91480   2.91677   2.91852   2.91996
 Alpha virt. eigenvalues --    2.92160   2.92544   2.92953   2.93214   2.93428
 Alpha virt. eigenvalues --    2.93783   2.94012   2.94352   2.94386   2.94683
 Alpha virt. eigenvalues --    2.95326   2.95331   2.95898   2.95999   2.96667
 Alpha virt. eigenvalues --    2.96819   2.96911   2.96938   2.97656   2.97855
 Alpha virt. eigenvalues --    2.97957   2.98517   2.98702   2.98870   2.99205
 Alpha virt. eigenvalues --    2.99636   3.00262   3.00285   3.00301   3.00874
 Alpha virt. eigenvalues --    3.01028   3.01083   3.01184   3.01459   3.01725
 Alpha virt. eigenvalues --    3.02459   3.03537   3.04178   3.04448   3.05039
 Alpha virt. eigenvalues --    3.06086   3.06115   3.06537   3.06803   3.08364
 Alpha virt. eigenvalues --    3.08473   3.08606   3.09061   3.09792   3.09964
 Alpha virt. eigenvalues --    3.10130   3.10337   3.11626   3.11943   3.12127
 Alpha virt. eigenvalues --    3.12494   3.12922   3.13156   3.13448   3.14086
 Alpha virt. eigenvalues --    3.14327   3.14340   3.14622   3.14863   3.15373
 Alpha virt. eigenvalues --    3.15643   3.16043   3.16285   3.16438   3.16832
 Alpha virt. eigenvalues --    3.16944   3.17205   3.17522   3.17898   3.18257
 Alpha virt. eigenvalues --    3.18366   3.18676   3.18740   3.19025   3.19264
 Alpha virt. eigenvalues --    3.19714   3.19997   3.20407   3.20913   3.21019
 Alpha virt. eigenvalues --    3.21068   3.23164   3.23744   3.24009   3.24591
 Alpha virt. eigenvalues --    3.24921   3.27611   3.27870   3.28560   3.28812
 Alpha virt. eigenvalues --    3.29067   3.29482   3.29798   3.31355   3.33301
 Alpha virt. eigenvalues --    3.33586   3.34431   3.35492   3.38372   3.38646
 Alpha virt. eigenvalues --    3.40307   3.43861   3.44330   3.46057   3.49114
 Alpha virt. eigenvalues --    3.49477   3.51252   3.51747   3.52514   3.52722
 Alpha virt. eigenvalues --    3.53001   3.54254   3.55169   3.55315   3.56078
 Alpha virt. eigenvalues --    3.56177   3.56765   3.57694   3.58447   3.59640
 Alpha virt. eigenvalues --    3.60569   3.63134   3.64713   3.65100   3.65220
 Alpha virt. eigenvalues --    3.66038   3.66216   3.66446   3.67408   3.68264
 Alpha virt. eigenvalues --    3.68557   3.68904   3.69251   3.69600   3.69675
 Alpha virt. eigenvalues --    3.70351   3.70573   3.70727   3.70840   3.74841
 Alpha virt. eigenvalues --    3.77681   3.77842   3.78184   3.83111
          Condensed to atoms (all electrons):
 Mulliken charges:
               1
     1  C    0.024033
     2  C    0.042432
     3  O   -0.290431
     4  H    0.024900
     5  H    0.031752
     6  H    0.039621
     7  N   -0.129604
     8  C    0.096607
     9  C    0.082988
    10  O   -0.291782
    11  C    0.090257
    12  C    0.123200
    13  O   -0.420641
    14  O   -0.446699
    15  H    0.121378
    16  H    0.000145
    17  H    0.010470
    18  H    0.006067
    19  N   -0.149626
    20  C    0.170686
    21  C    0.019751
    22  O   -0.275561
    23  C    0.058305
    24  C   -0.076526
    25  C   -0.000323
    26  C    0.030823
    27  N    0.129399
    28  H    0.144336
    29  H    0.036503
    30  H    0.021082
    31  H    0.028676
    32  H    0.023847
    33  H   -0.035426
    34  H    0.016742
    35  H    0.058566
    36  H    0.072756
    37  H    0.063929
    38  H    0.145407
    39  H    0.160670
    40  H    0.153011
    41  N   -0.148584
    42  C    0.151397
    43  C    0.029989
    44  O   -0.285126
    45  C    0.137016
    46  C    0.081804
    47  O   -0.446784
    48  O   -0.415948
    49  H    0.153740
    50  H    0.031092
    51  H    0.003023
    52  H    0.032732
    53  N   -0.165285
    54  C    0.202494
    55  C    0.031369
    56  O   -0.288607
    57  H    0.136917
    58  H    0.046457
    59  H    0.027392
    60  N   -0.136495
    61  C    0.106892
    62  C    0.183174
    63  O   -0.347733
    64  C    0.095104
    65  C   -0.055042
    66  N   -0.030307
    67  O   -0.255765
    68  H    0.159837
    69  H   -0.035111
    70  H    0.031065
    71  H    0.032167
    72  H    0.137172
    73  H    0.136242
    74  N   -0.131830
    75  C    0.203667
    76  C    0.006085
    77  O   -0.273997
    78  H    0.142573
    79  H    0.039504
    80  H    0.048813
    81  N   -0.130586
    82  C    0.120067
    83  C    0.110245
    84  O   -0.306788
    85  C    0.132176
    86  C   -0.072502
    87  C    0.027733
    88  C   -0.016175
    89  C   -0.019405
    90  C   -0.049074
    91  C    0.200711
    92  O   -0.200903
    93  H    0.126262
    94  H   -0.029187
    95  H    0.010255
    96  H   -0.010659
    97  H   -0.008122
    98  H   -0.025361
    99  H   -0.012976
   100  H   -0.038186
   101  H    0.178532
   102  N   -0.117194
   103  C    0.110872
   104  C    0.107559
   105  O   -0.252044
   106  C   -0.070014
   107  C   -0.037412
   108  C    0.023493
   109  C    0.013052
   110  H    0.134784
   111  H   -0.032361
   112  H   -0.028412
   113  H   -0.002729
   114  H    0.031582
   115  H    0.012740
   116  H    0.014606
   117  H    0.004662
   118  H    0.060224
   119  H   -0.014800
   120  H   -0.024730
   121  N   -0.154878
   122  C    0.101542
   123  C    0.089191
   124  O   -0.257767
   125  C    0.248533
   126  O   -0.301479
   127  H    0.128293
   128  H    0.034477
   129  H   -0.004371
   130  H    0.018783
   131  H    0.192199
   132  N   -0.146912
   133  C    0.033055
   134  C    0.066568
   135  O   -0.256945
   136  C    0.086938
   137  H    0.122313
   138  H    0.015299
   139  H    0.037117
   140  H    0.029065
   141  H   -0.025587
   142  N   -0.090930
   143  C    0.023007
   144  C    0.049437
   145  O   -0.290033
   146  C    0.056778
   147  H    0.129826
   148  H    0.008192
   149  H   -0.001444
   150  H    0.011988
   151  H    0.059048
   152  N   -0.112850
   153  C    0.152848
   154  C    0.043515
   155  O   -0.282783
   156  C    0.001062
   157  C    0.086127
   158  C    0.002842
   159  O   -0.380950
   160  O   -0.354309
   161  H    0.107248
   162  H   -0.030495
   163  H    0.004168
   164  H    0.004065
   165  H   -0.027138
   166  H   -0.030796
   167  N   -0.145034
   168  C    0.144124
   169  H    0.022111
   170  H    0.016830
   171  H    0.046033
   172  H    0.104769
   173  Ca   1.335243
   174  O   -0.330803
   175  H    0.204603
   176  H    0.205511
 Sum of Mulliken charges =  -0.00000
 Mulliken charges with hydrogens summed into heavy atoms:
               1
     1  C    0.120307
     2  C    0.042432
     3  O   -0.290431
     7  N   -0.008226
     8  C    0.096751
     9  C    0.082988
    10  O   -0.291782
    11  C    0.106794
    12  C    0.123200
    13  O   -0.420641
    14  O   -0.446699
    19  N   -0.005290
    20  C    0.207190
    21  C    0.019751
    22  O   -0.275561
    23  C    0.108062
    24  C   -0.088106
    25  C    0.074985
    26  C    0.167509
    27  N    0.588487
    41  N    0.005157
    42  C    0.182489
    43  C    0.029989
    44  O   -0.285126
    45  C    0.172771
    46  C    0.081804
    47  O   -0.446784
    48  O   -0.415948
    53  N   -0.028369
    54  C    0.276343
    55  C    0.031369
    56  O   -0.288607
    60  N    0.023342
    61  C    0.071782
    62  C    0.183174
    63  O   -0.347733
    64  C    0.158335
    65  C   -0.055042
    66  N    0.243107
    67  O   -0.255765
    74  N    0.010743
    75  C    0.291984
    76  C    0.006085
    77  O   -0.273997
    81  N   -0.004324
    82  C    0.090880
    83  C    0.110245
    84  O   -0.306788
    85  C    0.131772
    86  C   -0.072502
    87  C    0.019611
    88  C   -0.041537
    89  C   -0.032381
    90  C   -0.087260
    91  C    0.200711
    92  O   -0.022371
   102  N    0.017590
   103  C    0.078511
   104  C    0.107559
   105  O   -0.252044
   106  C   -0.098426
   107  C   -0.008558
   108  C    0.055501
   109  C    0.033745
   121  N   -0.026585
   122  C    0.136019
   123  C    0.089191
   124  O   -0.257767
   125  C    0.262945
   126  O   -0.109280
   132  N   -0.024599
   133  C    0.048354
   134  C    0.066568
   135  O   -0.256945
   136  C    0.127533
   142  N    0.038896
   143  C    0.031199
   144  C    0.049437
   145  O   -0.290033
   146  C    0.126369
   152  N   -0.005601
   153  C    0.122353
   154  C    0.043515
   155  O   -0.282783
   156  C    0.009294
   157  C    0.028193
   158  C    0.002842
   159  O   -0.380950
   160  O   -0.354309
   167  N   -0.040264
   168  C    0.229098
   173  Ca   1.335243
   174  O    0.079311
 DipInt: DoE/N= T F RetVal/Mat= T F Init=T NMatP=  1 IDeriv=0 Min/MaxMlt=  0  4
 Entering OneElI...
 OneElI was handed  1333951383 working-precision words.
 Multipole integrals L=0 to 4 MinM= 0 MaxM= 0.
 Requested accuracy = 0.1000D-12
 ShPair: Thresh= 1.00D-13 NBox=     0 BxSize= 0.00D+00 RnKept= 2.64D+01
         NSMCal=               327645 NSMKep=              129966
 PrmmSu-InSpLW:  IPartL=    0 NPrtUS=    1 NPrtUL=    1 DoSpLW=F IThBeg=    0 IThEnd=    0 NThAct=    1.
 PrsmSu:  NPrtUS=   1 ThrOK=F IAlg=1 NPAlg=1 LenDen=           0 ISkipM=0 DoSpLW=F IThBeg=    0 IThEnd=    0.
 Prism:   IPart=     0 DynPar=F LinDyn=F Incr=         512.
 PRISM was handed  1325020133 working-precision words and129966 shell-pairs
 IPart=  0 NShTot=      129966 NBatch=         305 AvBLen=       426.1
 PrsmSu-ThDecC:  IPartSL=    0    0 NPrtUSL=    1    1 IThBeg=    0 IThEnd=    0 CPU=   -1 GPU=   -1 NThAct=    1.
 PrSmSu:  NxtVal=            513.
 Electronic moments (au):
       -716.00000000          7.61686174          3.30318485         -1.20710696
     -97688.99255343     -30483.45254229     -12354.73852327       -109.54639195
        -50.64259200         73.36099662     164796.63649302     -16075.56588121
      -4673.66060028      -5121.71272334     200518.56594923      33739.07248734
      -5510.51629075      24096.00717734        964.44926436     -36677.92694007
  -21958714.22209103   -2796987.62767446    -495472.05018451    -356894.54272935
    -430115.49482874     262433.72748840      71396.35885227     208548.58905845
     -43948.23202783   -3462704.04162849   -1854997.94342259    -530746.46852310
     503338.59045359     -34798.35168859     170114.97976564
 Electronic spatial extent (au):  <R**2>=         140527.1836
 DipInt: DoE/N= F T RetVal/Mat= T F Init=T NMatP=  1 IDeriv=0 Min/MaxMlt=  0  4
 Nuclear    moments (au):
        716.00000000          0.00000000         -0.00000000          0.00000000
      97130.77873115      30078.11442195      11950.47202472          0.00000000
          0.00000000         -0.00000000    -163397.70238273      17533.38194708
       4655.78574936       6461.03118807    -199982.97936144     -32386.02153762
       5651.00153261     -24564.28557262      -1576.93964268      36848.75397879
   21560034.35504341    2689899.42556886     454796.67779453     340709.13966797
     416799.46688552    -277315.90015466     -62904.02174509    -210064.28635881
      45700.10583483    3382525.11222786    1790118.04546820     508801.77308542
    -503264.29371649      31748.93833514    -170480.39908567
 Total      moments (au):
         -0.00000000          7.61686174          3.30318485         -1.20710696
       -558.21382228       -405.33812033       -404.26649855       -109.54639195
        -50.64259200         73.36099662       1398.93411029       1457.81606586
        -17.87485092       1339.31846473        535.58658779       1353.05094971
        140.48524186       -468.27839528       -612.49037832        170.82703871
    -398679.86704762    -107088.20210560     -40675.37238998     -16185.40306138
     -13316.02794322     -14882.17266626       8492.33710719      -1515.69730035
       1751.87380700     -80178.92940063     -64879.89795438     -21944.69543768
         74.29673710      -3049.41335345       -365.41932002
 Traceless Quadrup. (au):
       -102.27434190         50.60136006         51.67298184       -109.54639195
        -50.64259200         73.36099662
 Charge=             -0.0000 electrons
 Dipole moment (field-independent basis, Debye):
    X=             19.3601    Y=              8.3959    Z=             -3.0682  Tot=             21.3241
 Quadrupole moment (field-independent basis, Debye-Ang):
   XX=           -750.8167   YY=           -545.1937   ZZ=           -543.7523
   XY=           -147.3436   XZ=            -68.1160   YZ=             98.6731
 Traceless Quadrupole moment (field-independent basis, Debye-Ang):
   XX=           -137.5625   YY=             68.0606   ZZ=             69.5019
   XY=           -147.3436   XZ=            -68.1160   YZ=             98.6731
 Octapole moment (field-independent basis, Debye-Ang**2):
  XXX=            995.7074  YYY=           1037.6173  ZZZ=            -12.7226  XYY=            953.2753
  XXY=            381.2099  XXZ=            963.0495  XZZ=             99.9920  YZZ=           -333.3025
  YYZ=           -435.9471  XYZ=            121.5881
 Hexadecapole moment (field-independent basis, Debye-Ang**3):
 XXXX=        -150161.9553 YYYY=         -40334.5520 ZZZZ=         -15320.2957 XXXY=          -6096.1989
 XXXZ=          -5015.4546 YYYX=          -5605.3399 YYYZ=           3198.6214 ZZZX=           -570.8843
 ZZZY=            659.8397 XXYY=         -30199.2295 XXZZ=         -24436.8807 YYZZ=          -8265.4246
 XXYZ=             27.9837 YYXZ=          -1148.5553 ZZXY=           -137.6344
 N-N= 1.952728544992D+04 E-N=-5.152320720903D+04  KE= 5.290320724926D+03
 Leave Link  601 at Wed Sep 18 11:21:23 2019, MaxMem=  1342177280 cpu:              48.0 elap:               1.2
 FitSet:  NAtFit=   176 NAtPot=   176 NAtFrz=     0 MDM=   180 TotChg=   0.00000
 Merz-Kollman atomic radii used.
 Read replacement radii for each type of atom:
 Rad(20) =   1.700000000000D+00
 Atom Element Radius
    1     6    1.50
    2     6    1.50
    3     8    1.40
    4     1    1.20
    5     1    1.20
    6     1    1.20
    7     7    1.50
    8     6    1.50
    9     6    1.50
   10     8    1.40
   11     6    1.50
   12     6    1.50
   13     8    1.40
   14     8    1.40
   15     1    1.20
   16     1    1.20
   17     1    1.20
   18     1    1.20
   19     7    1.50
   20     6    1.50
   21     6    1.50
   22     8    1.40
   23     6    1.50
   24     6    1.50
   25     6    1.50
   26     6    1.50
   27     7    1.50
   28     1    1.20
   29     1    1.20
   30     1    1.20
   31     1    1.20
   32     1    1.20
   33     1    1.20
   34     1    1.20
   35     1    1.20
   36     1    1.20
   37     1    1.20
   38     1    1.20
   39     1    1.20
   40     1    1.20
   41     7    1.50
   42     6    1.50
   43     6    1.50
   44     8    1.40
   45     6    1.50
   46     6    1.50
   47     8    1.40
   48     8    1.40
   49     1    1.20
   50     1    1.20
   51     1    1.20
   52     1    1.20
   53     7    1.50
   54     6    1.50
   55     6    1.50
   56     8    1.40
   57     1    1.20
   58     1    1.20
   59     1    1.20
   60     7    1.50
   61     6    1.50
   62     6    1.50
   63     8    1.40
   64     6    1.50
   65     6    1.50
   66     7    1.50
   67     8    1.40
   68     1    1.20
   69     1    1.20
   70     1    1.20
   71     1    1.20
   72     1    1.20
   73     1    1.20
   74     7    1.50
   75     6    1.50
   76     6    1.50
   77     8    1.40
   78     1    1.20
   79     1    1.20
   80     1    1.20
   81     7    1.50
   82     6    1.50
   83     6    1.50
   84     8    1.40
   85     6    1.50
   86     6    1.50
   87     6    1.50
   88     6    1.50
   89     6    1.50
   90     6    1.50
   91     6    1.50
   92     8    1.40
   93     1    1.20
   94     1    1.20
   95     1    1.20
   96     1    1.20
   97     1    1.20
   98     1    1.20
   99     1    1.20
  100     1    1.20
  101     1    1.20
  102     7    1.50
  103     6    1.50
  104     6    1.50
  105     8    1.40
  106     6    1.50
  107     6    1.50
  108     6    1.50
  109     6    1.50
  110     1    1.20
  111     1    1.20
  112     1    1.20
  113     1    1.20
  114     1    1.20
  115     1    1.20
  116     1    1.20
  117     1    1.20
  118     1    1.20
  119     1    1.20
  120     1    1.20
  121     7    1.50
  122     6    1.50
  123     6    1.50
  124     8    1.40
  125     6    1.50
  126     8    1.40
  127     1    1.20
  128     1    1.20
  129     1    1.20
  130     1    1.20
  131     1    1.20
  132     7    1.50
  133     6    1.50
  134     6    1.50
[...]
 **** Fit      -0.000302
 **** Fit      -0.000643
 **** Fit      -0.001711
 **** Fit      -0.001241
 **** Fit      -0.000370
 **** Fit       0.000779
 **** Fit       0.001946
 **** Fit       0.002903
 **** Fit       0.003597
 **** Fit       0.004101
 **** Fit       0.004461
 **** Fit       0.000462
 **** Fit      -0.000705
 **** Fit      -0.001426
 **** Fit      -0.002766
 **** Fit      -0.001993
 **** Fit      -0.000807
 **** Fit       0.000596
 **** Fit       0.003765
 **** Fit       0.004288
 **** Fit       0.004732
 **** Fit       0.005169
 **** Fit      -0.000764
 **** Fit      -0.001927
 **** Fit      -0.004055
 **** Fit      -0.002976
 **** Fit      -0.001514
 **** Fit       0.004762
 **** Fit       0.005108
 **** Fit       0.005528
 **** Fit      -0.001101
 **** Fit      -0.002544
 **** Fit      -0.006521
 **** Fit      -0.005425
 **** Fit      -0.003798
 **** Fit       0.005392
 **** Fit       0.005709
 **** Fit      -0.002305
 **** Fit      -0.003917
 **** Fit      -0.008666
 **** Fit      -0.006893
 **** Fit       0.005910
 **** Fit       0.006256
 **** Fit      -0.003718
 **** Fit      -0.005507
 **** Fit      -0.012896
 **** Fit      -0.010853
 **** Fit       0.006519
 **** Fit      -0.004710
 **** Fit      -0.006848
 **** Fit      -0.018720
 **** Fit      -0.016342
 **** Fit       0.006799
 **** Fit       0.007260
 **** Fit      -0.005723
 **** Fit      -0.008212
 **** Fit      -0.010338
 **** Fit       0.006951
 **** Fit       0.007267
 **** Fit       0.007805
 **** Fit      -0.005846
 **** Fit      -0.008819
 **** Fit      -0.011513
 **** Fit      -0.013836
 **** Fit       0.007323
 **** Fit       0.007735
 **** Fit       0.008379
 **** Fit       0.009225
 **** Fit      -0.007083
 **** Fit      -0.010604
 **** Fit      -0.013855
 **** Fit      -0.016727
 **** Fit       0.007741
 **** Fit       0.008310
 **** Fit       0.009132
 **** Fit       0.010176
 **** Fit      -0.003882
 **** Fit      -0.008198
 **** Fit      -0.012374
 **** Fit      -0.016255
 **** Fit      -0.019700
 **** Fit      -0.022605
 **** Fit       0.008227
 **** Fit       0.009028
 **** Fit       0.010133
 **** Fit       0.011519
 **** Fit       0.013101
 **** Fit       0.001511
 **** Fit       0.002609
 **** Fit       0.003487
 **** Fit      -0.000274
 **** Fit       0.001012
 **** Fit       0.002218
 **** Fit       0.003173
 **** Fit       0.003870
 **** Fit       0.004417
 **** Fit      -0.002320
 **** Fit      -0.000776
 **** Fit       0.000778
 **** Fit       0.002120
 **** Fit       0.003156
 **** Fit       0.003896
 **** Fit       0.004419
 **** Fit       0.004851
 **** Fit      -0.004865
 **** Fit      -0.002924
 **** Fit      -0.000933
 **** Fit       0.000854
 **** Fit       0.002304
 **** Fit       0.003385
 **** Fit       0.004136
 **** Fit       0.004642
 **** Fit       0.005017
 **** Fit       0.005394
 **** Fit      -0.008313
 **** Fit      -0.005854
 **** Fit      -0.003320
 **** Fit      -0.000999
 **** Fit       0.000953
 **** Fit       0.002481
 **** Fit       0.003599
 **** Fit       0.004366
 **** Fit       0.004870
 **** Fit       0.005215
 **** Fit       0.005516
 **** Fit       0.005900
 **** Fit      -0.012740
 **** Fit      -0.009315
 **** Fit      -0.005891
 **** Fit      -0.002813
 **** Fit      -0.000250
 **** Fit       0.001751
 **** Fit       0.003222
 **** Fit       0.004238
 **** Fit       0.004899
 **** Fit       0.005318
 **** Fit       0.005612
 **** Fit       0.005907
 **** Fit       0.006342
 **** Fit      -0.014175
 **** Fit      -0.009495
 **** Fit      -0.005387
 **** Fit      -0.002016
 **** Fit       0.000604
 **** Fit       0.002538
 **** Fit       0.003892
 **** Fit       0.004787
 **** Fit       0.005349
 **** Fit       0.005704
 **** Fit       0.005980
 **** Fit       0.006311
 **** Fit       0.006839
 **** Fit      -0.013931
 **** Fit      -0.008353
 **** Fit      -0.003919
 **** Fit      -0.000553
 **** Fit       0.001893
 **** Fit       0.003592
 **** Fit       0.004714
 **** Fit       0.005416
 **** Fit       0.005850
 **** Fit       0.006160
 **** Fit       0.006493
 **** Fit       0.007004
 **** Fit      -0.010574
 **** Fit      -0.004907
 **** Fit      -0.000830
 **** Fit       0.001992
 **** Fit       0.003864
 **** Fit       0.005045
 **** Fit       0.005759
 **** Fit       0.006205
 **** Fit       0.006574
 **** Fit       0.007062
 **** Fit      -0.004913
 **** Fit      -0.000314
 **** Fit       0.002669
 **** Fit       0.004524
 **** Fit       0.005625
 **** Fit       0.006279
 **** Fit       0.006760
 **** Fit       0.007339
 **** Fit       0.000467
 **** Fit       0.003455
 **** Fit       0.005207
 **** Fit       0.006212
 **** Fit       0.006867
 **** Fit       0.007543
 **** Fit       0.003157
 **** Fit       0.005345
 **** Fit       0.003339
 **** Fit       0.004085
 **** Fit       0.003831
 **** Fit       0.003026
 **** Fit       0.002458
 **** Fit       0.004711
 **** Fit       0.004663
 **** Fit       0.004313
 **** Fit       0.003632
 **** Fit       0.002720
 **** Fit       0.001858
 **** Fit       0.005244
 **** Fit       0.005252
 **** Fit       0.005113
 **** Fit       0.004773
 **** Fit       0.004194
 **** Fit       0.003383
 **** Fit       0.002408
 **** Fit       0.001417
 **** Fit       0.000623
 **** Fit       0.005727
 **** Fit       0.005726
 **** Fit       0.005632
 **** Fit       0.005394
 **** Fit       0.004969
 **** Fit       0.004331
 **** Fit       0.003481
 **** Fit       0.002456
 **** Fit       0.001337
 **** Fit       0.000257
 **** Fit      -0.000603
 **** Fit       0.006170
 **** Fit       0.006149
 **** Fit       0.006043
 **** Fit       0.005806
 **** Fit       0.005397
 **** Fit       0.004789
 **** Fit       0.003970
 **** Fit       0.002949
 **** Fit       0.001767
 **** Fit       0.000497
 **** Fit      -0.000741
 **** Fit      -0.001782
 **** Fit       0.006609
 **** Fit       0.006577
 **** Fit       0.006463
 **** Fit       0.006228
 **** Fit       0.005837
 **** Fit       0.005264
 **** Fit       0.004490
 **** Fit       0.003512
 **** Fit       0.002342
 **** Fit       0.001018
 **** Fit      -0.000391
 **** Fit      -0.001782
 **** Fit      -0.003005
 **** Fit       0.007108
 **** Fit       0.007075
 **** Fit       0.006960
 **** Fit       0.006723
 **** Fit       0.006329
 **** Fit       0.005747
 **** Fit       0.004954
 **** Fit       0.003938
 **** Fit       0.002700
 **** Fit       0.001262
 **** Fit      -0.000324
 **** Fit      -0.001975
 **** Fit      -0.003560
 **** Fit       0.007744
 **** Fit       0.007715
 **** Fit       0.007603
 **** Fit       0.007369
 **** Fit       0.006978
 **** Fit       0.006398
 **** Fit       0.005602
 **** Fit       0.004569
 **** Fit       0.003293
 **** Fit       0.001781
 **** Fit       0.000067
 **** Fit      -0.001788
 **** Fit      -0.003677
 **** Fit       0.008642
 **** Fit       0.008597
 **** Fit       0.008443
 **** Fit       0.008144
 **** Fit       0.007662
 **** Fit       0.006963
 **** Fit       0.006016
 **** Fit       0.004798
 **** Fit       0.003301
 **** Fit       0.001532
 **** Fit      -0.000471
 **** Fit      -0.002637
 **** Fit       0.010018
 **** Fit       0.009983
 **** Fit       0.009800
 **** Fit       0.009422
 **** Fit       0.008804
 **** Fit       0.007900
 **** Fit       0.006671
 **** Fit       0.005091
 **** Fit       0.003150
 **** Fit       0.000869
 **** Fit      -0.001689
 **** Fit       0.012291
 **** Fit       0.012218
 **** Fit       0.011891
 **** Fit       0.011245
 **** Fit       0.010216
 **** Fit       0.008745
 **** Fit       0.006789
 **** Fit       0.004332
 **** Fit       0.001401
 **** Fit      -0.002741
 **** Fit      -0.002672
 **** Fit      -0.004380
 **** Fit      -0.003425
 **** Fit      -0.003137
 **** Fit      -0.004291
 **** Fit      -0.004690
 **** Fit      -0.006215
 **** Fit      -0.005461
 **** Fit      -0.004297
 **** Fit      -0.003631
 **** Fit      -0.005137
 **** Fit      -0.006121
 **** Fit      -0.006590
 **** Fit      -0.006599
 **** Fit      -0.008372
 **** Fit      -0.007728
 **** Fit      -0.006771
 **** Fit      -0.005401
 **** Fit      -0.005593
 **** Fit      -0.007086
 **** Fit      -0.008121
 **** Fit      -0.008710
 **** Fit      -0.008900
 **** Fit      -0.008766
 **** Fit      -0.010989
 **** Fit      -0.010447
 **** Fit      -0.009653
 **** Fit      -0.008466
 **** Fit      -0.007384
 **** Fit      -0.009065
 **** Fit      -0.010307
 **** Fit      -0.011110
 **** Fit      -0.011503
 **** Fit      -0.011555
 **** Fit      -0.011359
 **** Fit      -0.014229
 **** Fit      -0.013852
 **** Fit      -0.013287
 **** Fit      -0.012360
 **** Fit      -0.009462
 **** Fit      -0.011356
 **** Fit      -0.012835
 **** Fit      -0.013884
 **** Fit      -0.014507
 **** Fit      -0.014754
 **** Fit      -0.014720
 **** Fit      -0.014519
 **** Fit      -0.018297
 **** Fit      -0.018181
 **** Fit      -0.017927
 **** Fit      -0.017276
 **** Fit      -0.010503
 **** Fit      -0.012975
 **** Fit      -0.015021
 **** Fit      -0.016616
 **** Fit      -0.017727
 **** Fit      -0.018359
 **** Fit      -0.018587
 **** Fit      -0.018553
 **** Fit      -0.018420
 **** Fit      -0.023451
 **** Fit      -0.023841
 **** Fit      -0.024186
 **** Fit      -0.014382
 **** Fit      -0.017041
 **** Fit      -0.019264
 **** Fit      -0.020997
 **** Fit      -0.022191
 **** Fit      -0.022856
 **** Fit      -0.023108
 **** Fit      -0.023154
 **** Fit      -0.023219
 **** Fit      -0.030021
 **** Fit      -0.017967
 **** Fit      -0.020989
 **** Fit      -0.023561
 **** Fit      -0.025605
 **** Fit      -0.027041
 **** Fit      -0.027879
 **** Fit      -0.028289
 **** Fit      -0.028580
 **** Fit      -0.029084
 **** Fit      -0.023612
 **** Fit      -0.026847
 **** Fit      -0.029560
 **** Fit      -0.031617
 **** Fit      -0.032967
 **** Fit      -0.033821
 **** Fit      -0.034658
 **** Fit      -0.038907
 **** Fit       0.015115
 **** Fit       0.014742
 **** Fit       0.013995
 **** Fit       0.012803
 **** Fit       0.011094
 **** Fit       0.013480
 **** Fit       0.013538
 **** Fit       0.013392
 **** Fit       0.013010
 **** Fit       0.012331
 **** Fit       0.011275
 **** Fit       0.009751
 **** Fit       0.007665
 **** Fit       0.004942
 **** Fit       0.011925
 **** Fit       0.011836
 **** Fit       0.011629
 **** Fit       0.011278
 **** Fit       0.010719
 **** Fit       0.009862
 **** Fit       0.008598
 **** Fit       0.006809
 **** Fit       0.004385
 **** Fit       0.001242
 **** Fit       0.010425
 **** Fit       0.010222
 **** Fit       0.009980
 **** Fit       0.009728
 **** Fit       0.009460
 **** Fit       0.009126
 **** Fit       0.008636
 **** Fit       0.007860
 **** Fit       0.006646
 **** Fit       0.004841
 **** Fit       0.002309
 **** Fit      -0.001052
 **** Fit       0.009122
 **** Fit       0.008488
 **** Fit       0.007902
 **** Fit       0.007431
 **** Fit       0.007111
 **** Fit       0.006921
 **** Fit       0.006772
 **** Fit       0.006494
 **** Fit      -0.004575
 **** Fit       0.006349
 **** Fit       0.014009
 **** Fit       0.016576
 **** Fit       0.009256
 **** Fit       0.024511
 **** Fit       0.019972
 **** Fit       0.012970
 **** Fit       0.030703
 **** Fit       0.028459
 **** Fit       0.023985
 **** Fit       0.016934
 **** Fit       0.035916
 **** Fit       0.034917
 **** Fit       0.031806
 **** Fit       0.026075
 **** Fit       0.041152
 **** Fit       0.041350
 **** Fit       0.039661
 **** Fit       0.035529
 **** Fit       0.047484
 **** Fit       0.047805
 **** Fit       0.046117
 **** Fit       0.041789
 **** Fit       0.052672
 **** Fit       0.054660
 **** Fit       0.055181
 **** Fit       0.053676
 **** Fit       0.049431
 **** Fit       0.057919
 **** Fit       0.060990
 **** Fit       0.062978
 **** Fit       0.063302
 **** Fit       0.061195
 **** Fit       0.062346
 **** Fit       0.066371
 **** Fit       0.069770
 **** Fit       0.071998
 **** Fit       0.072259
 **** Fit       0.069509
 **** Fit       0.046332
 **** Fit       0.063261
 **** Fit       0.068295
 **** Fit       0.073176
 **** Fit       0.077585
 **** Fit       0.080873
 **** Fit       0.028195
 **** Fit       0.039109
 **** Fit       0.047785
 **** Fit       0.054914
 **** Fit       0.061178
 **** Fit       0.067103
 **** Fit       0.072995
 **** Fit       0.078892
 **** Fit       0.084491
 **** Fit       0.029915
 **** Fit       0.040308
 **** Fit       0.049154
 **** Fit       0.056804
 **** Fit       0.063799
 **** Fit       0.070633
 **** Fit       0.077603
 **** Fit       0.084670
 **** Fit       0.001062
 **** Fit       0.020991
 **** Fit       0.031017
 **** Fit       0.040578
 **** Fit       0.049216
 **** Fit       0.057058
 **** Fit       0.064502
 **** Fit       0.071942
 **** Fit       0.079523
 **** Fit       0.004658
 **** Fit       0.008223
 **** Fit       0.014017
 **** Fit       0.021699
 **** Fit       0.030340
 **** Fit       0.038995
 **** Fit       0.047157
 **** Fit       0.054795
 **** Fit       0.062117
 **** Fit       0.069234
 **** Fit       0.019344
 **** Fit       0.018474
 **** Fit       0.017145
 **** Fit       0.014602
 **** Fit       0.009965
 **** Fit       0.017928
 **** Fit       0.017546
 **** Fit       0.016148
 **** Fit       0.012787
 **** Fit       0.019969
 **** Fit       0.019306
 **** Fit       0.025947
 **** Fit       0.022680
 **** Fit       0.022252
 **** Fit       0.022550
 **** Fit       0.021977
 **** Fit       0.022614
 **** Fit       0.022861
 **** Fit       0.022209
 **** Fit       0.020990
 **** Fit       0.022592
 **** Fit       0.022816
 **** Fit       0.020941
 **** Fit       0.019713
 **** Fit       0.020708
 **** Fit       0.022346
 **** Fit       0.023167
 **** Fit       0.022935
 **** Fit       0.021999
 **** Fit       0.020816
 **** Fit       0.020201
 **** Fit       0.018475
 **** Fit       0.021393
 **** Fit       0.020844
 **** Fit       0.015311
 **** Fit       0.017076
 **** Fit       0.019871
 **** Fit       0.022145
 **** Fit       0.023349
 **** Fit       0.023466
 **** Fit       0.022850
 **** Fit       0.021793
 **** Fit       0.020361
 **** Fit       0.018672
 **** Fit       0.017240
 **** Fit       0.016960
 **** Fit       0.014179
 **** Fit       0.018618
 **** Fit       0.022973
 **** Fit       0.021842
 **** Fit       0.020470
 **** Fit       0.018665
 **** Fit       0.016350
 **** Fit       0.013832
 **** Fit       0.011960
 **** Fit       0.011857
 **** Fit       0.007460
 **** Fit       0.022265
 **** Fit       0.020930
 **** Fit       0.019440
 **** Fit       0.017409
 **** Fit       0.014542
 **** Fit       0.010847
 **** Fit       0.006939
 **** Fit       0.004177
 **** Fit       0.004124
 **** Fit       0.021343
 **** Fit       0.020019
 **** Fit       0.018570
 **** Fit       0.016485
 **** Fit       0.013291
 **** Fit       0.008679
 **** Fit       0.020024
 **** Fit       0.018853
 **** Fit       0.017260
 **** Fit       0.014554
 **** Fit       0.010024
 -----------------------------------------------------------------
 Leave Link  602 at Wed Sep 18 11:21:28 2019, MaxMem=  1342177280 cpu:             165.4 elap:               4.9

 Test job not archived.
 1\1\GINC-C490-071\SP\RB3LYP\SVP\C54H83Ca1N15O23\PENGZHI\18-Sep-2019\0\
 \#b3lyp/svp scf=(tight,noincore) Test #IOP(5/87=12) Density=Current Po
 p=(MK,readradii) iop(6/33=2) iop(6/42=6)\\Ng-295_loop3_38.0\\0,1\C,0,8
 8.59,75.33,62.37\C,0,87.82,74.09,62.82\O,0,86.65,73.87,62.5\H,0,89.56,
 75.03,61.972\H,0,88.025,75.848,61.595\H,0,88.737,75.996,63.22\N,0,88.5
 ,73.4,63.74\C,0,87.91,72.28,64.44\C,0,87.46,72.58,65.87\O,0,88.29,73.0
 9,66.61\C,0,88.95,71.17,64.45\C,0,88.3,69.8,64.34\O,0,89.03,68.83,64.0
 2\O,0,87.1,69.59,64.61\H,0,89.44,73.69,63.98\H,0,87.04,71.97,63.86\H,0
 ,89.45,71.26,65.42\H,0,89.73,71.38,63.71\N,0,86.16,72.38,66.12\C,0,85.
 51,72.94,67.28\C,0,85.99,72.35,68.6\O,0,85.59,72.87,69.64\C,0,84.,72.8
 4,67.09\C,0,83.45,71.43,66.84\C,0,81.93,71.38,66.79\C,0,81.42,69.95,66
 .62\N,0,81.9,69.3,65.39\H,0,85.6,72.02,65.36\H,0,85.81,73.99,67.31\H,0
 ,83.7,73.51,66.29\H,0,83.52,73.11,68.03\H,0,83.76,70.73,67.62\H,0,83.9
 1,71.,65.95\H,0,81.7,71.85,65.83\H,0,81.53,71.92,67.64\H,0,80.34,70.03
 ,66.71\H,0,81.71,69.31,67.46\H,0,81.23,68.58,65.16\H,0,82.08,69.97,64.
 66\H,0,82.71,68.75,65.65\N,0,86.8,71.29,68.61\C,0,87.35,70.52,69.72\C,
 0,88.86,70.62,69.79\O,0,89.43,70.19,70.79\C,0,86.89,69.08,69.55\C,0,87
 .15,68.5,68.17\O,0,86.29,67.74,67.66\O,0,88.12,68.88,67.49\H,0,87.23,7
 1.09,67.72\H,0,87.07,70.86,70.71\H,0,85.81,69.07,69.67\H,0,87.4,68.41,
 70.25\N,0,89.51,71.22,68.79\C,0,90.95,71.21,68.67\C,0,91.64,69.91,68.2
 7\O,0,92.87,69.86,68.31\H,0,88.97,71.84,68.21\H,0,91.41,71.61,69.57\H,
 0,91.13,71.89,67.83\N,0,90.89,68.83,68.02\C,0,91.18,67.42,68.15\C,0,91
 .04,66.59,66.87\O,0,90.08,66.79,66.12\C,0,90.44,66.87,69.36\C,0,90.84,
 65.45,69.75\N,0,91.95,65.26,70.46\O,0,90.15,64.54,69.31\H,0,89.93,68.9
 9,67.75\H,0,92.2,67.36,68.5\H,0,89.36,66.85,69.25\H,0,90.66,67.49,70.2
 3\H,0,92.47,66.08,70.74\H,0,92.28,64.32,70.63\N,0,91.99,65.68,66.68\C,
 0,92.1,64.96,65.43\C,0,91.47,63.59,65.24\O,0,91.56,62.86,64.26\H,0,92.
 68,65.59,67.41\H,0,93.16,64.82,65.22\H,0,91.75,65.47,64.53\N,0,90.85,6
 3.13,66.33\C,0,90.1,61.9,66.47\C,0,88.7,61.98,65.88\O,0,88.12,63.05,66
 .03\C,0,90.24,61.27,67.86\C,0,89.42,60.02,68.06\C,0,88.24,60.06,68.81\
 C,0,89.87,58.86,67.42\C,0,87.58,58.85,69.03\C,0,89.18,57.66,67.64\C,0,
 88.01,57.65,68.43\O,0,87.3,56.5,68.61\H,0,90.89,63.68,67.18\H,0,90.52,
 61.16,65.79\H,0,89.97,62.04,68.58\H,0,91.32,61.19,67.93\H,0,87.95,61.0
 2,69.22\H,0,90.84,58.92,66.97\H,0,86.7,58.94,69.66\H,0,89.58,56.75,67.
 21\H,0,87.82,55.71,68.45\N,0,88.29,61.05,65.02\C,0,86.99,60.94,64.38\C
 ,0,85.8,60.7,65.29\O,0,85.74,61.3,66.36\C,0,86.76,62.04,63.34\C,0,85.5
 2,62.01,62.46\C,0,87.98,62.13,62.42\C,0,85.02,63.41,62.13\H,0,88.91,60
 .33,64.69\H,0,87.05,60.,63.83\H,0,86.68,62.97,63.9\H,0,84.67,61.5,62.9
 2\H,0,85.7,61.51,61.5\H,0,87.97,62.94,61.69\H,0,88.96,62.14,62.91\H,0,
 87.93,61.19,61.88\H,0,84.52,63.41,61.16\H,0,84.33,63.71,62.92\H,0,85.8
 7,64.1,62.1\N,0,84.88,59.91,64.73\C,0,83.63,59.47,65.33\C,0,83.22,58.0
 5,64.99\O,0,82.39,57.52,65.73\C,0,82.47,60.43,65.08\O,0,82.26,60.56,63
 .69\H,0,85.07,59.48,63.84\H,0,83.87,59.52,66.39\H,0,82.73,61.39,65.52\
 H,0,81.57,60.08,65.57\H,0,81.79,61.38,63.51\N,0,83.73,57.43,63.92\C,0,
 83.53,56.04,63.56\C,0,82.07,55.61,63.56\O,0,81.71,54.6,64.16\C,0,84.44
 ,55.08,64.31\H,0,84.41,57.93,63.35\H,0,83.85,55.88,62.53\H,0,84.23,54.
 99,65.38\H,0,84.39,54.08,63.88\H,0,85.44,55.53,64.23\N,0,81.1,56.39,63
 .06\C,0,81.11,57.57,62.22\C,0,81.25,57.13,60.77\O,0,80.54,56.21,60.35\
 C,0,79.87,58.44,62.46\H,0,80.16,56.03,63.17\H,0,81.9,58.26,62.5\H,0,78
 .99,57.81,62.53\H,0,80.,58.93,63.42\H,0,79.6,59.13,61.66\N,0,82.11,57.
 71,59.94\C,0,83.09,58.76,60.16\C,0,84.25,58.81,59.17\O,0,85.24,59.48,5
 9.44\C,0,82.32,60.07,60.21\C,0,81.73,60.59,58.9\C,0,81.13,61.98,59.09\
 O,0,79.98,62.07,59.59\O,0,81.72,63.03,58.76\H,0,82.05,57.28,59.03\H,0,
 83.54,58.59,61.14\H,0,83.02,60.84,60.51\H,0,81.52,60.02,60.95\H,0,80.9
 3,59.94,58.56\H,0,82.52,60.69,58.16\N,0,84.25,58.08,58.06\C,0,85.33,58
 .1,57.09\H,0,86.226,57.669,57.536\H,0,85.044,57.516,56.215\H,0,85.532,
 59.129,56.791\H,0,83.49,57.42,57.95\Ca,0,87.62,67.1,65.45\O,0,88.49,65
 .23,63.83\H,0,88.28,64.3,63.95\H,0,89.07,65.24,63.07\\Version=ES64L-G1
 6RevA.03\State=1-A\HF=-5333.427504\RMSD=6.996e-11\Dipole=4.0135796,5.2
 281586,5.1905931\Quadrupole=27.6357535,14.4220719,-42.0578253,-145.217
 5941,-69.7277227,-21.7218091\PG=C01 [X(C54H83Ca1N15O23)]\\@


 THE REAL VOYAGE OF DISCOVERY CONSISTS NOT IN SEEKING NEW LANDSCAPES 
 BUT IN HAVING NEW EYES.
                                                    -- MARCEL PROUST
 Job cpu time:       0 days 12 hours 43 minutes  1.1 seconds.
 Elapsed time:       0 days  0 hours 16 minutes  7.4 seconds.
 File lengths (MBytes):  RWF=   1517 Int=      0 D2E=      0 Chk=    171 Scr=      1
 Normal termination of Gaussian 16 at Wed Sep 18 11:21:29 2019.
