 Entering Gaussian System, Link 0=g16
 Initial command:
 /home1/apps/gaussian/16rA.03/g16/l1.exe "/scratch/01990/pengzhi/4353694/Gau-379946.inp" -scrdir="/scratch/01990/pengzhi/4353694/"
 Entering Link 1 = /home1/apps/gaussian/16rA.03/g16/l1.exe PID=    379947.
  
 Copyright (c) 1988,1990,1992,1993,1995,1998,2003,2009,2016,
            Gaussian, Inc.  All Rights Reserved.
  
 This is part of the Gaussian(R) 16 program.  It is based on
 the Gaussian(R) 09 system (copyright 2009, Gaussian, Inc.),
 the Gaussian(R) 03 system (copyright 2003, Gaussian, Inc.),
 the Gaussian(R) 98 system (copyright 1998, Gaussian, Inc.),
 the Gaussian(R) 94 system (copyright 1995, Gaussian, Inc.),
 the Gaussian 92(TM) system (copyright 1992, Gaussian, Inc.),
 the Gaussian 90(TM) system (copyright 1990, Gaussian, Inc.),
 the Gaussian 88(TM) system (copyright 1988, Gaussian, Inc.),
 the Gaussian 86(TM) system (copyright 1986, Carnegie Mellon
 University), and the Gaussian 82(TM) system (copyright 1983,
 Carnegie Mellon University). Gaussian is a federally registered
 trademark of Gaussian, Inc.
  
 This software contains proprietary and confidential information,
 including trade secrets, belonging to Gaussian, Inc.
  
 This software is provided under written license and may be
 used, copied, transmitted, or stored only in accord with that
 written license.
  
 The following legend is applicable only to US Government
 contracts under FAR:
  
                    RESTRICTED RIGHTS LEGEND
  
 Use, reproduction and disclosure by the US Government is
 subject to restrictions as set forth in subparagraphs (a)
 and (c) of the Commercial Computer Software - Restricted
 Rights clause in FAR 52.227-19.
  
 Gaussian, Inc.
 340 Quinnipiac St., Bldg. 40, Wallingford CT 06492
  
  
 ---------------------------------------------------------------
 Warning -- This program may not be used in any manner that
 competes with the business of Gaussian, Inc. or will provide
 assistance to any competitor of Gaussian, Inc.  The licensee
 of this program is prohibited from giving any competitor of
 Gaussian, Inc. access to this program.  By using this program,
 the user acknowledges that Gaussian, Inc. is engaged in the
 business of creating and licensing software in the field of
 computational chemistry and represents and warrants to the
 licensee that it is not a competitor of Gaussian, Inc. and that
 it will not use this program in any manner prohibited above.
 ---------------------------------------------------------------
  

 Cite this work as:
 Gaussian 16, Revision A.03,
 M. J. Frisch, G. W. Trucks, H. B. Schlegel, G. E. Scuseria, 
 M. A. Robb, J. R. Cheeseman, G. Scalmani, V. Barone, 
 G. A. Petersson, H. Nakatsuji, X. Li, M. Caricato, A. V. Marenich, 
 J. Bloino, B. G. Janesko, R. Gomperts, B. Mennucci, H. P. Hratchian, 
 J. V. Ortiz, A. F. Izmaylov, J. L. Sonnenberg, D. Williams-Young, 
 F. Ding, F. Lipparini, F. Egidi, J. Goings, B. Peng, A. Petrone, 
 T. Henderson, D. Ranasinghe, V. G. Zakrzewski, J. Gao, N. Rega, 
 G. Zheng, W. Liang, M. Hada, M. Ehara, K. Toyota, R. Fukuda, 
 J. Hasegawa, M. Ishida, T. Nakajima, Y. Honda, O. Kitao, H. Nakai, 
 T. Vreven, K. Throssell, J. A. Montgomery, Jr., J. E. Peralta, 
 F. Ogliaro, M. J. Bearpark, J. J. Heyd, E. N. Brothers, K. N. Kudin, 
 V. N. Staroverov, T. A. Keith, R. Kobayashi, J. Normand, 
 K. Raghavachari, A. P. Rendell, J. C. Burant, S. S. Iyengar, 
 J. Tomasi, M. Cossi, J. M. Millam, M. Klene, C. Adamo, R. Cammi, 
 J. W. Ochterski, R. L. Martin, K. Morokuma, O. Farkas, 
 J. B. Foresman, and D. J. Fox, Gaussian, Inc., Wallingford CT, 2016.
 
 ******************************************
 Gaussian 16:  ES64L-G16RevA.03 25-Dec-2016
                18-Sep-2019 
 ******************************************
 %chk=Ng-295_loop3_37.0.chk
 %nprocshared=48
 Will use up to   48 processors via shared memory.
 %mem=10GB
 %nosave
 ----------------------------------------------------------------------
 #b3lyp/svp scf=(tight,noincore) Test #IOP(5/87=12) Density=Current Pop
 =(MK,readradii) iop(6/33=2) iop(6/42=6)
 ----------------------------------------------------------------------
 1/30=1,38=1,172=1/1;
 2/12=2,17=6,18=5,40=1/2;
 3/5=18,7=101,11=2,25=1,30=1,74=-5/1,2,3;
 4//1;
 5/5=4,32=2,38=5,87=12/2;
 6/7=2,8=2,9=2,10=2,15=8,20=101,22=-1,28=1,33=2,42=6/1,2;
 99/5=1,9=1/99;
 -----------------
 Ng-295_loop3_37.0
 -----------------
 Symbolic Z-matrix:
 Charge =  0 Multiplicity = 1
 C                     8.558     73.162    67.75 
 C                     7.828     72.002    67.1 
 O                     6.598     71.952    67.2 
 H                     9.484     73.356    67.209 
 H                     7.928     74.051    67.721 
 H                     8.788     72.913    68.786 
 N                     8.598     71.192    66.38 
 C                     7.988     70.192    65.51 
 C                     7.968     68.872    66.26 
 O                     8.988     68.522    66.85 
 C                     8.878     70.052    64.29 
 C                     8.048     69.242    63.3 
 O                     7.168     69.832    62.65 
 O                     8.248     68.022    63.14 
 H                     9.588     71.372    66.37 
 H                     6.968     70.472    65.23 
 H                     9.858     69.582    64.41 
 H                     9.088     71.012    63.81 
 N                     6.838     68.162    66.24 
 C                     6.668     67.012    67.11 
 C                     6.578     65.622    66.49 
 O                     6.718     64.602    67.16 
 C                     5.428     67.252    67.97 
 C                     5.668     68.352    69. 
 C                     4.678     69.512    68.96 
 C                     4.938     70.772    69.78 
 N                     5.368     70.422    71.14 
 H                     6.078     68.552    65.7 
 H                     7.538     67.002    67.77 
 H                     5.118     66.362    68.51 
 H                     4.678     67.502    67.22 
 H                     6.718     68.602    68.91 
 H                     5.638     67.832    69.96 
 H                     3.728     69.172    69.37 
 H                     4.418     69.842    67.96 
 H                     4.008     71.322    69.93 
 H                     5.688     71.382    69.29 
 H                     4.688     69.842    71.62 
 H                     6.228     69.882    71.16 
 H                     5.538     71.232    71.72 
 N                     6.308     65.572    65.19 
 C                     5.938     64.372    64.46 
 C                     7.138     63.592    63.93 
 O                     7.058     62.482    63.43 
 C                     4.968     64.682    63.32 
 C                     5.528     65.832    62.51 
 O                     6.418     65.582    61.66 
 O                     5.158     67.002    62.75 
 H                     6.038     66.412    64.71 
 H                     5.288     63.772    65.1 
 H                     4.038     65.062    63.74 
 H                     4.728     63.882    62.61 
 N                     8.298     64.222    64.15 
 C                     9.588     63.682    63.76 
 C                     9.998     63.662    62.29 
 O                     11.158    63.372    62.04 
 H                     8.288     65.112    64.62 
 H                     9.698     62.642    64.07 
 H                     10.358    64.252    64.28 
 N                     9.138     64.022    61.34 
 C                     9.388     63.952    59.91 
 C                     9.318     65.292    59.19 
 O                     8.698     66.222    59.73 
 C                     8.278     63.012    59.46 
 C                     8.338     62.622    57.99 
 N                     8.858     61.472    57.56 
 O                     8.028     63.402    57.09 
 H                     8.168     64.162    61.58 
 H                     10.378    63.552    59.69 
 H                     7.358     63.602    59.46 
 H                     8.218     62.102    60.05 
 H                     9.268     60.772    58.16 
 H                     8.688     61.222    56.6 
 N                     9.908     65.412    58.01 
 C                     9.948     66.612    57.19 
 C                     9.678     66.372    55.7 
 O                     9.978     67.342    55.01 
 H                     10.408    64.602    57.67 
 H                     10.908    67.082    57.36 
 H                     9.198     67.312    57.54 
 N                     9.228     65.212    55.24 
 C                     9.158     64.892    53.82 
 C                     7.868     65.332    53.16 
 O                     6.808     64.982    53.69 
 C                     9.418     63.392    53.69 
 C                     9.688     62.872    52.3 
 C                     8.618     62.582    51.44 
 C                     11.028    62.652    51.96 
 C                     8.838     62.162    50.13 
 C                     11.248    62.182    50.66 
 C                     10.188    61.902    49.78 
 O                     10.568    61.332    48.6 
 H                     9.048     64.492    55.92 
 H                     9.988     65.432    53.38 
 H                     8.588     62.842    54.15 
 H                     10.328    63.232    54.27 
 H                     7.658     62.832    51.88 
 H                     11.838    62.922    52.62 
 H                     8.098     61.852    49.41 
 H                     12.258    62.042    50.3 
 H                     11.528    61.242    48.66 
 N                     7.918     66.132    52.09 
 C                     6.838     66.642    51.26 
 C                     6.168     65.632    50.35 
 O                     6.028     64.482    50.77 
 C                     5.908     67.612    51.98 
 C                     6.688     68.532    52.91 
 C                     4.718     66.932    52.64 
 C                     7.858     69.322    52.33 
 H                     8.838     66.462    51.83 
 H                     7.318     67.292    50.53 
 H                     5.458     68.322    51.28 
 H                     7.068     68.052    53.81 
 H                     5.918     69.182    53.34 
 H                     4.958     66.762    53.69 
 H                     3.848     67.582    52.65 
 H                     4.428     65.992    52.16 
 H                     8.708     68.702    52.07 
 H                     7.508     70.032    51.58 
 H                     8.248     70.032    53.06 
 N                     5.628     65.972    49.17 
 C                     4.728     65.112    48.42 
 C                     4.808     65.402    46.92 
 O                     3.988     64.852    46.18 
 C                     3.308     65.082    48.98 
 O                     2.788     66.262    49.55 
 H                     5.738     66.932    48.91 
 H                     5.138     64.122    48.56 
 H                     3.308     64.372    49.8 
 H                     2.568     64.662    48.29 
 H                     1.878     66.072    49.81 
 N                     5.668     66.302    46.43 
 C                     5.908     66.692    45.06 
 C                     4.558     66.972    44.4 
 O                     4.398     66.452    43.3 
 C                     6.858     65.672    44.45 
 H                     6.238     66.722    47.14 
 H                     6.418     67.652    45.1 
 H                     7.028     65.902    43.4 
 H                     7.778     65.752    45.02 
 H                     6.478     64.652    44.49 
 N                     3.588     67.732    44.9 
 C                     3.538     68.502    46.13 
 C                     3.248     69.972    45.85 
 O                     2.538     70.232    44.88 
 C                     2.428     67.832    46.93 
 H                     2.828     67.902    44.25 
 H                     4.508     68.432    46.62 
 H                     1.428     68.202    46.71 
 H                     2.508     66.752    46.78 
 H                     2.708     68.052    47.96 
 N                     3.458     70.942    46.74 
 C                     4.278     70.772    47.92 
 C                     5.628     71.452    47.78 
 O                     6.498     71.282    48.64 
 C                     3.538     71.372    49.12 
 C                     2.498     70.392    49.67 
 C                     1.918     70.812    51.01 
 O                     1.808     72.052    51.15 
 O                     1.688     69.962    51.9 
 H                     3.268     71.862    46.35 
 H                     4.488     69.722    48.12 
 H                     3.018     72.222    48.69 
 H                     4.198     71.782    49.88 
 H                     2.908     69.392    49.83 
 H                     1.738     70.202    48.91 
 N                     5.828     72.342    46.81 
 C                     7.078     73.032    46.62 
 H                     7.844     72.318    46.316 
 H                     6.961     73.79     45.846 
 H                     7.376     73.508    47.554 
 H                     5.128     72.572    46.12 
 Ca                    6.96      67.93     60.8 
 O                     9.11      69.35     60.13 
 H                     9.22      70.28     60.29 
 H                     9.65      69.17     59.36 
 
 Stoichiometry    C54H83CaN15O23
 Framework group  C1[X(C54H83CaN15O23)]
 Deg. of freedom   522
 Full point group                 C1      NOp   1
 Largest Abelian subgroup         C1      NOp   1
 Largest concise Abelian subgroup C1      NOp   1
                         Standard orientation:                         
 ---------------------------------------------------------------------
 Center     Atomic      Atomic             Coordinates (Angstroms)
 Number     Number       Type             X           Y           Z
 ---------------------------------------------------------------------
      1          6           0       11.595995   -4.983871    3.390792
      2          6           0       10.852988   -4.295836    2.261390
      3          8           0       10.820667   -4.848319    1.157254
      4          1           0       11.159894   -4.687561    4.344631
      5          1           0       11.514739   -6.064638    3.275029
      6          1           0       12.646351   -4.693480    3.365855
      7          7           0       10.205801   -3.189015    2.612811
      8          6           0        9.259479   -2.575096    1.687296
      9          6           0        9.981264   -1.456851    0.956644
     10          8           0       10.670637   -0.680912    1.615191
     11          6           0        8.138999   -1.978525    2.517193
     12          6           0        7.053086   -1.632490    1.504201
     13          8           0        6.322913   -2.548885    1.089390
     14          8           0        6.895226   -0.462068    1.105213
     15          1           0       10.304193   -2.869307    3.561866
     16          1           0        8.877151   -3.301244    0.963601
     17          1           0        8.354873   -1.099364    3.130524
     18          1           0        7.699941   -2.700061    3.211969
     19          7           0        9.829424   -1.378864   -0.367087
     20          6           0       10.657344   -0.486170   -1.158255
     21          6           0       10.008496    0.710442   -1.845070
     22          8           0       10.672714    1.646077   -2.283594
     23          6           0       11.384311   -1.325556   -2.207898
     24          6           0       12.451967   -2.211208   -1.572106
     25          6           0       12.325919   -3.702264   -1.869027
     26          6           0       13.189558   -4.710578   -1.117342
     27          7           0       14.581655   -4.247424   -1.049848
     28          1           0        9.218092   -2.066423   -0.785220
     29          1           0       11.405940   -0.082767   -0.473075
     30          1           0       11.873528   -0.715706   -2.961920
     31          1           0       10.562961   -1.877937   -2.663704
     32          1           0       12.478362   -1.920915   -0.528969
     33          1           0       13.394633   -1.805987   -1.946376
     34          1           0       12.626824   -3.877451   -2.900999
     35          1           0       11.309493   -4.079359   -1.834711
     36          1           0       13.248751   -5.645705   -1.675851
     37          1           0       12.792274   -4.865165   -0.120864
     38          1           0       14.976941   -4.085009   -1.969940
     39          1           0       14.684186   -3.361079   -0.564587
     40          1           0       15.189705   -4.896209   -0.569481
     41          7           0        8.686497    0.672354   -1.972617
     42          6           0        7.901614    1.571806   -2.800109
     43          6           0        7.489583    2.852468   -2.079390
     44          8           0        6.965709    3.804301   -2.634430
     45          6           0        6.670104    0.875371   -3.378867
     46          6           0        5.943345    0.168334   -2.254536
     47          8           0        5.188902    0.847493   -1.515171
     48          8           0        6.161822   -1.043176   -2.035652
     49          1           0        8.194375   -0.175359   -1.753302
     50          1           0        8.458834    1.760251   -3.719943
     51          1           0        6.994929    0.079070   -4.046770
     52          1           0        5.925523    1.486499   -3.902148
     53          7           0        7.842137    2.851558   -0.788419
     54          6           0        7.582821    3.960260    0.112323
     55          6           0        6.164681    4.229799    0.607931
     56          8           0        6.034828    5.051801    1.502163
     57          1           0        8.322985    2.050095   -0.414866
     58          1           0        7.885610    4.912302   -0.325552
     59          1           0        8.191132    3.812875    1.004755
     60          7           0        5.134596    3.535534    0.129786
     61          6           0        3.738371    3.770287    0.458033
     62          6           0        3.037160    2.590061    1.117026
     63          8           0        3.523334    1.457115    0.972226
     64          6           0        3.157375    4.075225   -0.915887
     65          6           0        1.695893    4.500096   -0.903387
     66          7           0        1.304816    5.773404   -0.962929
     67          8           0        0.780970    3.701219   -0.705371
     68          1           0        5.272261    2.936765   -0.670604
     69          1           0        3.618439    4.605586    1.148244
     70          1           0        3.069164    3.115456   -1.431215
     71          1           0        3.722581    4.821168   -1.467168
     72          1           0        1.933445    6.561538   -1.004997
     73          1           0        0.328191    5.945987   -1.134451
     74          7           0        1.928796    2.812988    1.807484
     75          6           0        1.137571    1.812036    2.504664
     76          6           0       -0.376449    1.947343    2.304579
     77          8           0       -1.014542    1.268196    3.103702
     78          1           0        1.630661    3.775645    1.885630
     79          1           0        1.416496    1.856715    3.549463
     80          1           0        1.417229    0.824879    2.154933
     81          7           0       -0.900760    2.763222    1.399516
     82          6           0       -2.325217    3.062325    1.327686
     83          6           0       -3.111439    2.080112    0.484825
     84          8           0       -2.703103    1.856238   -0.659789
     85          6           0       -2.451473    4.505686    0.842643
     86          6           0       -3.813208    5.142576    0.966940
     87          6           0       -4.786864    4.912897   -0.016849
     88          6           0       -4.012227    5.993343    2.060643
     89          6           0       -6.072740    5.435181    0.104157
     90          6           0       -5.288984    6.559032    2.156493
     91          6           0       -6.281295    6.326157    1.188254
     92          8           0       -7.423366    7.052028    1.362852
     93          1           0       -0.255722    3.281668    0.826506
     94          1           0       -2.665429    3.005710    2.354891
     95          1           0       -2.091541    4.570315   -0.191413
     96          1           0       -1.780623    5.062654    1.498271
     97          1           0       -4.447487    4.215221   -0.775645
     98          1           0       -3.265409    6.122694    2.828844
     99          1           0       -6.872416    5.376798   -0.616405
    100          1           0       -5.541694    7.181522    3.003809
    101          1           0       -7.263018    7.591080    2.148353
    102          7           0       -4.156728    1.443458    1.022825
    103          6           0       -5.088458    0.507431    0.413619
    104          6           0       -6.081098    1.102683   -0.564869
    105          8           0       -5.697367    2.026516   -1.284441
    106          6           0       -4.455668   -0.816554    0.000290
    107          6           0       -3.432917   -1.280759    1.028976
    108          6           0       -3.937356   -0.818954   -1.429902
    109          6           0       -3.872012   -1.387268    2.486800
    110          1           0       -4.311864    1.607386    2.008705
    111          1           0       -5.752425    0.196650    1.218829
    112          1           0       -5.187808   -1.629006    0.022505
    113          1           0       -2.505605   -0.710817    1.036715
    114          1           0       -3.076676   -2.236742    0.629615
    115          1           0       -2.870716   -0.593432   -1.409407
    116          1           0       -4.009316   -1.807537   -1.873776
    117          1           0       -4.460900   -0.117869   -2.087535
    118          1           0       -4.050233   -0.425315    2.953043
    119          1           0       -4.643218   -2.149691    2.601053
    120          1           0       -3.093064   -1.848079    3.095071
    121          7           0       -7.306114    0.588618   -0.751073
    122          6           0       -8.161697    0.935806   -1.873364
    123          6           0       -9.639685    0.776068   -1.512067
    124          8           0      -10.471709    0.890013   -2.416087
    125          6           0       -7.756587    0.257222   -3.179622
    126          8           0       -7.225829   -1.047543   -3.119750
    127          1           0       -7.537095   -0.189251   -0.165524
    128          1           0       -7.995165    1.994901   -2.008959
    129          1           0       -6.953041    0.848436   -3.605391
    130          1           0       -8.528247    0.294035   -3.956336
    131          1           0       -7.067325   -1.329227   -4.029327
    132          7           0      -10.020488    0.420571   -0.279870
    133          6           0      -11.350557    0.245540    0.255744
    134          6           0      -12.145798   -0.625494   -0.716569
    135          8           0      -13.264987   -0.206510   -0.995618
    136          6           0      -11.872681    1.618857    0.651203
    137          1           0       -9.247038    0.301119    0.346952
    138          1           0      -11.240709   -0.350755    1.158886
    139          1           0      -12.894694    1.538320    1.016309
    140          1           0      -11.206759    1.970887    1.432434
    141          1           0      -11.890145    2.327343   -0.175926
    142          7           0      -11.739442   -1.776730   -1.243853
    143          6           0      -10.509246   -2.520583   -1.039888
    144          6           0      -10.794292   -3.936928   -0.553970
    145          8           0      -11.829941   -4.470636   -0.947909
    146          6           0       -9.843069   -2.498389   -2.409821
    147          1           0      -12.463755   -2.267595   -1.757101
    148          1           0       -9.920006   -2.010170   -0.279510
    149          1           0      -10.162136   -3.295924   -3.078726
    150          1           0      -10.001456   -1.508721   -2.846593
    151          1           0       -8.785638   -2.594310   -2.164182
    152          7           0       -9.871155   -4.718022    0.007108
    153          6           0       -8.613539   -4.217906    0.518953
    154          6           0       -8.597845   -4.157710    2.035736
    155          8           0       -7.653046   -3.621640    2.623430
    156          6           0       -7.489407   -5.144214    0.043684
    157          6           0       -7.069427   -4.807615   -1.389780
    158          6           0       -5.792042   -5.504441   -1.826955
    159          8           0       -5.644158   -6.648275   -1.338003
    160          8           0       -4.945687   -4.904051   -2.527466
    161          1           0      -10.263968   -5.600575    0.325539
    162          1           0       -8.409630   -3.204855    0.174354
    163          1           0       -7.958264   -6.122974    0.045316
    164          1           0       -6.656832   -5.213408    0.738905
    165          1           0       -6.883176   -3.740507   -1.532226
    166          1           0       -7.909024   -4.979212   -2.065747
    167          7           0       -9.526269   -4.804606    2.737558
    168          6           0       -9.570764   -4.799486    4.177243
    169          1           0       -9.803217   -3.794069    4.529479
    170          1           0      -10.340241   -5.490796    4.519771
    171          1           0       -8.602646   -5.107309    4.571866
    172          1           0      -10.282976   -5.317614    2.309518
    173         20           0        4.430234   -0.915239    0.177066
    174          8           0        4.016336   -1.097877    2.800639
    175          1           0        4.202419   -1.865056    3.329232
    176          1           0        3.305328   -0.651585    3.261280
 ---------------------------------------------------------------------
 Rotational constants (GHZ):           0.0267524           0.0058017           0.0051732
 Standard basis: SVP (5D, 7F)
 There are  1809 symmetry adapted cartesian basis functions of A   symmetry.
 There are  1717 symmetry adapted basis functions of A   symmetry.
  1717 basis functions,  2922 primitive gaussians,  1809 cartesian basis functions
   358 alpha electrons      358 beta electrons
       nuclear repulsion energy     18323.0963832888 Hartrees.
 NAtoms=  176 NActive=  176 NUniq=  176 SFac= 1.00D+00 NAtFMM=   60 NAOKFM=T Big=T
 Integral buffers will be    131072 words long.
 Raffenetti 2 integral format.
 Two-electron integral symmetry is turned on.
 One-electron integrals computed using PRISM.
 NBasis=  1717 RedAO= T EigKep=  3.15D-04  NBF=  1717
 NBsUse=  1717 1.00D-06 EigRej= -1.00D+00 NBFU=  1717
 ExpMin= 1.98D-02 ExpMax= 3.51D+04 ExpMxC= 5.28D+03 IAcc=3 IRadAn=         5 AccDes= 0.00D+00
 Harris functional with IExCor=  402 and IRadAn=       5 diagonalized for initial guess.
 HarFok:  IExCor=  402 AccDes= 0.00D+00 IRadAn=         5 IDoV= 1 UseB2=F ITyADJ=14
 ICtDFT=  3500011 ScaDFX=  1.000000  1.000000  1.000000  1.000000
 FoFCou: FMM=F IPFlag=           0 FMFlag=      100000 FMFlg1=        2001
         NFxFlg=           0 DoJE=T BraDBF=F KetDBF=T FulRan=T
         wScrn=  0.000000 ICntrl=       500 IOpCl=  0 I1Cent=   200000004 NGrid=           0
         NMat0=    1 NMatS0=      1 NMatT0=    0 NMatD0=    1 NMtDS0=    0 NMtDT0=    0
 Petite list used in FoFCou.
 Requested convergence on RMS density matrix=1.00D-08 within 128 cycles.
 Requested convergence on MAX density matrix=1.00D-06.
 Requested convergence on             energy=1.00D-06.
 No special actions if energy rises.
 EnCoef did     2 forward-backward iterations
 EnCoef did     3 forward-backward iterations
 EnCoef did     4 forward-backward iterations
 EnCoef did     1 forward-backward iterations
 EnCoef did     9 forward-backward iterations
 EnCoef did   100 forward-backward iterations
 Rare condition: small coef for last iteration:  0.000D+00
 EnCoef did   100 forward-backward iterations
 EnCoef did   100 forward-backward iterations
 EnCoef did   100 forward-backward iterations
 EnCoef did   100 forward-backward iterations
 Rare condition: small coef for last iteration:  0.103D-14
 EnCoef did   100 forward-backward iterations
 EnCoef did   100 forward-backward iterations
 Restarting incremental Fock formation.
 EnCoef did   100 forward-backward iterations
 EnCoef did   100 forward-backward iterations
 Rare condition: small coef for last iteration:  0.170D-14
 EnCoef did   100 forward-backward iterations
 EnCoef did   100 forward-backward iterations
 Rare condition: small coef for last iteration: -0.387D-14
 EnCoef did   100 forward-backward iterations
 EnCoef did   100 forward-backward iterations
 EnCoef did   100 forward-backward iterations
 Rare condition: small coef for last iteration:  0.000D+00
 EnCoef did    72 forward-backward iterations
 Rare condition: small coef for last iteration: -0.888D-15
 Rare condition: small coef for last iteration:  0.000D+00
 EnCoef did    15 forward-backward iterations
 Rare condition: small coef for last iteration: -0.444D-15
 Rare condition: small coef for last iteration:  0.000D+00
 EnCoef did   100 forward-backward iterations
 EnCoef did   100 forward-backward iterations
 Rare condition: small coef for last iteration:  0.140D-14
 Restarting incremental Fock formation.
 Rare condition: small coef for last iteration:  0.000D+00
 EnCoef did   100 forward-backward iterations
 EnCoef did   100 forward-backward iterations
 Rare condition: small coef for last iteration:  0.372D-15
 Rare condition: small coef for last iteration:  0.000D+00
 EnCoef did   100 forward-backward iterations
 EnCoef did   100 forward-backward iterations
 Rare condition: small coef for last iteration: -0.234D-15
 EnCoef did   100 forward-backward iterations
 EnCoef did   100 forward-backward iterations
 Rare condition: small coef for last iteration:  0.538D-15
 Restarting incremental Fock formation.
 SCF Done:  E(RB3LYP) =  -5333.39794414     A.U. after   62 cycles
            NFock= 62  Conv=0.15D-09     -V/T= 2.0081
 SCF density gives NOpUse=  1 NOpAll=  1.
 Hyperfine terms turned off by default for NAtoms > 100.

 **********************************************************************

            Population analysis using the SCF density.

 **********************************************************************

 Orbital symmetries:
 BldTbl:  Degeneracy threshold= 1.00D-02
       Occupied  (A) (A) (A) (A) (A) (A) (A) (A) (A) (A) (A) (A)
                 (A) (A) (A) (A) (A) (A) (A) (A) (A) (A) (A) (A)
                 (A) (A) (A) (A) (A) (A) (A) (A) (A) (A) (A) (A)
                 (A) (A) (A) (A) (A) (A) (A) (A) (A) (A) (A) (A)
                 (A) (A) (A) (A) (A) (A) (A) (A) (A) (A) (A) (A)
                 (A) (A) (A) (A) (A) (A) (A) (A) (A) (A) (A) (A)
                 (A) (A) (A) (A) (A) (A) (A) (A) (A) (A) (A) (A)
                 (A) (A) (A) (A) (A) (A) (A) (A) (A) (A) (A) (A)
                 (A) (A) (A) (A) (A) (A) (A) (A) (A) (A) (A) (A)
                 (A) (A) (A) (A) (A) (A) (A) (A) (A) (A) (A) (A)
                 (A) (A) (A) (A) (A) (A) (A) (A) (A) (A) (A) (A)
                 (A) (A) (A) (A) (A) (A) (A) (A) (A) (A) (A) (A)
                 (A) (A) (A) (A) (A) (A) (A) (A) (A) (A) (A) (A)
                 (A) (A) (A) (A) (A) (A) (A) (A) (A) (A) (A) (A)
                 (A) (A) (A) (A) (A) (A) (A) (A) (A) (A) (A) (A)
                 (A) (A) (A) (A) (A) (A) (A) (A) (A) (A) (A) (A)
                 (A) (A) (A) (A) (A) (A) (A) (A) (A) (A) (A) (A)
                 (A) (A) (A) (A) (A) (A) (A) (A) (A) (A) (A) (A)
                 (A) (A) (A) (A) (A) (A) (A) (A) (A) (A) (A) (A)
                 (A) (A) (A) (A) (A) (A) (A) (A) (A) (A) (A) (A)
                 (A) (A) (A) (A) (A) (A) (A) (A) (A) (A) (A) (A)
                 (A) (A) (A) (A) (A) (A) (A) (A) (A) (A) (A) (A)
                 (A) (A) (A) (A) (A) (A) (A) (A) (A) (A) (A) (A)
                 (A) (A) (A) (A) (A) (A) (A) (A) (A) (A) (A) (A)
                 (A) (A) (A) (A) (A) (A) (A) (A) (A) (A) (A) (A)
                 (A) (A) (A) (A) (A) (A) (A) (A) (A) (A) (A) (A)
                 (A) (A) (A) (A) (A) (A) (A) (A) (A) (A) (A) (A)
                 (A) (A) (A) (A) (A) (A) (A) (A) (A) (A) (A) (A)
                 (A) (A) (A) (A) (A) (A) (A) (A) (A) (A) (A) (A)
                 (A) (A) (A) (A) (A) (A) (A) (A) (A) (A)
       Virtual   (A) (A) (A) (A) (A) (A) (A) (A) (A) (A) (A) (A)
                 (A) (A) (A) (A) (A) (A) (A) (A) (A) (A) (A) (A)
                 (A) (A) (A) (A) (A) (A) (A) (A) (A) (A) (A) (A)
                 (A) (A) (A) (A) (A) (A) (A) (A) (A) (A) (A) (A)
                 (A) (A) (A) (A) (A) (A) (A) (A) (A) (A) (A) (A)
                 (A) (A) (A) (A) (A) (A) (A) (A) (A) (A) (A) (A)
                 (A) (A) (A) (A) (A) (A) (A) (A) (A) (A) (A) (A)
                 (A) (A) (A) (A) (A) (A) (A) (A) (A) (A) (A) (A)
                 (A) (A) (A) (A) (A) (A) (A) (A) (A) (A) (A) (A)
                 (A) (A) (A) (A) (A) (A) (A) (A) (A) (A) (A) (A)
                 (A) (A) (A) (A) (A) (A) (A) (A) (A) (A) (A) (A)
                 (A) (A) (A) (A) (A) (A) (A) (A) (A) (A) (A) (A)
                 (A) (A) (A) (A) (A) (A) (A) (A) (A) (A) (A) (A)
                 (A) (A) (A) (A) (A) (A) (A) (A) (A) (A) (A) (A)
                 (A) (A) (A) (A) (A) (A) (A) (A) (A) (A) (A) (A)
                 (A) (A) (A) (A) (A) (A) (A) (A) (A) (A) (A) (A)
                 (A) (A) (A) (A) (A) (A) (A) (A) (A) (A) (A) (A)
                 (A) (A) (A) (A) (A) (A) (A) (A) (A) (A) (A) (A)
                 (A) (A) (A) (A) (A) (A) (A) (A) (A) (A) (A) (A)
                 (A) (A) (A) (A) (A) (A) (A) (A) (A) (A) (A) (A)
                 (A) (A) (A) (A) (A) (A) (A) (A) (A) (A) (A) (A)
                 (A) (A) (A) (A) (A) (A) (A) (A) (A) (A) (A) (A)
                 (A) (A) (A) (A) (A) (A) (A) (A) (A) (A) (A) (A)
                 (A) (A) (A) (A) (A) (A) (A) (A) (A) (A) (A) (A)
                 (A) (A) (A) (A) (A) (A) (A) (A) (A) (A) (A) (A)
                 (A) (A) (A) (A) (A) (A) (A) (A) (A) (A) (A) (A)
                 (A) (A) (A) (A) (A) (A) (A) (A) (A) (A) (A) (A)
                 (A) (A) (A) (A) (A) (A) (A) (A) (A) (A) (A) (A)
                 (A) (A) (A) (A) (A) (A) (A) (A) (A) (A) (A) (A)
                 (A) (A) (A) (A) (A) (A) (A) (A) (A) (A) (A) (A)
                 (A) (A) (A) (A) (A) (A) (A) (A) (A) (A) (A) (A)
                 (A) (A) (A) (A) (A) (A) (A) (A) (A) (A) (A) (A)
                 (A) (A) (A) (A) (A) (A) (A) (A) (A) (A) (A) (A)
                 (A) (A) (A) (A) (A) (A) (A) (A) (A) (A) (A) (A)
                 (A) (A) (A) (A) (A) (A) (A) (A) (A) (A) (A) (A)
                 (A) (A) (A) (A) (A) (A) (A) (A) (A) (A) (A) (A)
                 (A) (A) (A) (A) (A) (A) (A) (A) (A) (A) (A) (A)
                 (A) (A) (A) (A) (A) (A) (A) (A) (A) (A) (A) (A)
                 (A) (A) (A) (A) (A) (A) (A) (A) (A) (A) (A) (A)
                 (A) (A) (A) (A) (A) (A) (A) (A) (A) (A) (A) (A)
                 (A) (A) (A) (A) (A) (A) (A) (A) (A) (A) (A) (A)
                 (A) (A) (A) (A) (A) (A) (A) (A) (A) (A) (A) (A)
                 (A) (A) (A) (A) (A) (A) (A) (A) (A) (A) (A) (A)
                 (A) (A) (A) (A) (A) (A) (A) (A) (A) (A) (A) (A)
                 (A) (A) (A) (A) (A) (A) (A) (A) (A) (A) (A) (A)
                 (A) (A) (A) (A) (A) (A) (A) (A) (A) (A) (A) (A)
                 (A) (A) (A) (A) (A) (A) (A) (A) (A) (A) (A) (A)
                 (A) (A) (A) (A) (A) (A) (A) (A) (A) (A) (A) (A)
                 (A) (A) (A) (A) (A) (A) (A) (A) (A) (A) (A) (A)
                 (A) (A) (A) (A) (A) (A) (A) (A) (A) (A) (A) (A)
                 (A) (A) (A) (A) (A) (A) (A) (A) (A) (A) (A) (A)
                 (A) (A) (A) (A) (A) (A) (A) (A) (A) (A) (A) (A)
                 (A) (A) (A) (A) (A) (A) (A) (A) (A) (A) (A) (A)
                 (A) (A) (A) (A) (A) (A) (A) (A) (A) (A) (A) (A)
                 (A) (A) (A) (A) (A) (A) (A) (A) (A) (A) (A) (A)
                 (A) (A) (A) (A) (A) (A) (A) (A) (A) (A) (A) (A)
                 (A) (A) (A) (A) (A) (A) (A) (A) (A) (A) (A) (A)
                 (A) (A) (A) (A) (A) (A) (A) (A) (A) (A) (A) (A)
                 (A) (A) (A) (A) (A) (A) (A) (A) (A) (A) (A) (A)
                 (A) (A) (A) (A) (A) (A) (A) (A) (A) (A) (A) (A)
                 (A) (A) (A) (A) (A) (A) (A) (A) (A) (A) (A) (A)
                 (A) (A) (A) (A) (A) (A) (A) (A) (A) (A) (A) (A)
                 (A) (A) (A) (A) (A) (A) (A) (A) (A) (A) (A) (A)
                 (A) (A) (A) (A) (A) (A) (A) (A) (A) (A) (A) (A)
                 (A) (A) (A) (A) (A) (A) (A) (A) (A) (A) (A) (A)
                 (A) (A) (A) (A) (A) (A) (A) (A) (A) (A) (A) (A)
                 (A) (A) (A) (A) (A) (A) (A) (A) (A) (A) (A) (A)
                 (A) (A) (A) (A) (A) (A) (A) (A) (A) (A) (A) (A)
                 (A) (A) (A) (A) (A) (A) (A) (A) (A) (A) (A) (A)
                 (A) (A) (A) (A) (A) (A) (A) (A) (A) (A) (A) (A)
                 (A) (A) (A) (A) (A) (A) (A) (A) (A) (A) (A) (A)
                 (A) (A) (A) (A) (A) (A) (A) (A) (A) (A) (A) (A)
                 (A) (A) (A) (A) (A) (A) (A) (A) (A) (A) (A) (A)
                 (A) (A) (A) (A) (A) (A) (A) (A) (A) (A) (A) (A)
                 (A) (A) (A) (A) (A) (A) (A) (A) (A) (A) (A) (A)
                 (A) (A) (A) (A) (A) (A) (A) (A) (A) (A) (A) (A)
                 (A) (A) (A) (A) (A) (A) (A) (A) (A) (A) (A) (A)
                 (A) (A) (A) (A) (A) (A) (A) (A) (A) (A) (A) (A)
                 (A) (A) (A) (A) (A) (A) (A) (A) (A) (A) (A) (A)
                 (A) (A) (A) (A) (A) (A) (A) (A) (A) (A) (A) (A)
                 (A) (A) (A) (A) (A) (A) (A) (A) (A) (A) (A) (A)
                 (A) (A) (A) (A) (A) (A) (A) (A) (A) (A) (A) (A)
                 (A) (A) (A) (A) (A) (A) (A) (A) (A) (A) (A) (A)
                 (A) (A) (A) (A) (A) (A) (A) (A) (A) (A) (A) (A)
                 (A) (A) (A) (A) (A) (A) (A) (A) (A) (A) (A) (A)
                 (A) (A) (A) (A) (A) (A) (A) (A) (A) (A) (A) (A)
                 (A) (A) (A) (A) (A) (A) (A) (A) (A) (A) (A) (A)
                 (A) (A) (A) (A) (A) (A) (A) (A) (A) (A) (A) (A)
                 (A) (A) (A) (A) (A) (A) (A) (A) (A) (A) (A) (A)
                 (A) (A) (A) (A) (A) (A) (A) (A) (A) (A) (A) (A)
                 (A) (A) (A) (A) (A) (A) (A) (A) (A) (A) (A) (A)
                 (A) (A) (A) (A) (A) (A) (A) (A) (A) (A) (A) (A)
                 (A) (A) (A) (A) (A) (A) (A) (A) (A) (A) (A) (A)
                 (A) (A) (A) (A) (A) (A) (A) (A) (A) (A) (A) (A)
                 (A) (A) (A) (A) (A) (A) (A) (A) (A) (A) (A) (A)
                 (A) (A) (A) (A) (A) (A) (A) (A) (A) (A) (A) (A)
                 (A) (A) (A) (A) (A) (A) (A) (A) (A) (A) (A) (A)
                 (A) (A) (A) (A) (A) (A) (A) (A) (A) (A) (A) (A)
                 (A) (A) (A) (A) (A) (A) (A) (A) (A) (A) (A) (A)
                 (A) (A) (A) (A) (A) (A) (A) (A) (A) (A) (A) (A)
                 (A) (A) (A) (A) (A) (A) (A) (A) (A) (A) (A) (A)
                 (A) (A) (A) (A) (A) (A) (A) (A) (A) (A) (A) (A)
                 (A) (A) (A) (A) (A) (A) (A) (A) (A) (A) (A) (A)
                 (A) (A) (A) (A) (A) (A) (A) (A) (A) (A) (A) (A)
                 (A) (A) (A) (A) (A) (A) (A) (A) (A) (A) (A) (A)
                 (A) (A) (A) (A) (A) (A) (A) (A) (A) (A) (A) (A)
                 (A) (A) (A) (A) (A) (A) (A) (A) (A) (A) (A) (A)
                 (A) (A) (A) (A) (A) (A) (A) (A) (A) (A) (A) (A)
                 (A) (A) (A) (A) (A) (A) (A) (A) (A) (A) (A) (A)
                 (A) (A) (A) (A) (A) (A) (A) (A) (A) (A) (A) (A)
                 (A) (A) (A) (A) (A) (A) (A) (A) (A) (A) (A) (A)
                 (A) (A) (A) (A) (A) (A) (A) (A) (A) (A) (A) (A)
                 (A) (A) (A) (A) (A) (A) (A) (A) (A) (A) (A) (A)
                 (A) (A) (A)
 The electronic state is 1-A.
 Alpha  occ. eigenvalues -- -145.44939 -19.21706 -19.15446 -19.15226 -19.13916
 Alpha  occ. eigenvalues --  -19.12611 -19.12161 -19.11579 -19.10416 -19.09968
 Alpha  occ. eigenvalues --  -19.09953 -19.09870 -19.09704 -19.09292 -19.09151
 Alpha  occ. eigenvalues --  -19.08474 -19.07704 -19.07447 -19.06987 -19.06528
 Alpha  occ. eigenvalues --  -19.06420 -19.04379 -18.95754 -18.95568 -15.50795
 Alpha  occ. eigenvalues --  -14.56268 -14.40424 -14.39692 -14.39618 -14.38025
 Alpha  occ. eigenvalues --  -14.37272 -14.35819 -14.35770 -14.35503 -14.35001
 Alpha  occ. eigenvalues --  -14.34528 -14.34380 -14.33782 -14.33247 -14.31021
 Alpha  occ. eigenvalues --  -12.64402 -12.64352 -12.64334 -10.33368 -10.33295
 Alpha  occ. eigenvalues --  -10.32440 -10.31539 -10.31206 -10.30482 -10.29465
 Alpha  occ. eigenvalues --  -10.28521 -10.28484 -10.28319 -10.27986 -10.27322
 Alpha  occ. eigenvalues --  -10.27093 -10.26910 -10.26781 -10.26705 -10.26610
 Alpha  occ. eigenvalues --  -10.26356 -10.26350 -10.25780 -10.25406 -10.25290
 Alpha  occ. eigenvalues --  -10.24562 -10.24426 -10.24289 -10.23994 -10.23178
 Alpha  occ. eigenvalues --  -10.23108 -10.23013 -10.22966 -10.22517 -10.22126
 Alpha  occ. eigenvalues --  -10.21790 -10.20896 -10.20885 -10.20804 -10.20537
 Alpha  occ. eigenvalues --  -10.20145 -10.19818 -10.19133 -10.18900 -10.18301
 Alpha  occ. eigenvalues --  -10.18263 -10.18123 -10.17939 -10.16112 -10.15902
 Alpha  occ. eigenvalues --  -10.15015 -10.14720 -10.14666 -10.14165 -10.12932
 Alpha  occ. eigenvalues --  -10.11659 -10.09651  -1.87491  -1.14945  -1.14645
 Alpha  occ. eigenvalues --   -1.14572  -1.11847  -1.07761  -1.07416  -1.06729
 Alpha  occ. eigenvalues --   -1.05846  -1.05711  -1.04900  -1.04460  -1.04391
 Alpha  occ. eigenvalues --   -1.04176  -1.03390  -1.03251  -1.02579  -1.01697
 Alpha  occ. eigenvalues --   -1.00859  -1.00541  -0.99717  -0.99628  -0.98540
 Alpha  occ. eigenvalues --   -0.98078  -0.96802  -0.96699  -0.96233  -0.94666
 Alpha  occ. eigenvalues --   -0.94212  -0.93526  -0.93443  -0.92763  -0.92178
 Alpha  occ. eigenvalues --   -0.91884  -0.91612  -0.90575  -0.90492  -0.90317
 Alpha  occ. eigenvalues --   -0.89604  -0.89009  -0.88443  -0.88097  -0.84333
 Alpha  occ. eigenvalues --   -0.84182  -0.81875  -0.81796  -0.80244  -0.79969
 Alpha  occ. eigenvalues --   -0.79373  -0.78194  -0.77342  -0.76563  -0.76258
 Alpha  occ. eigenvalues --   -0.76240  -0.74475  -0.74052  -0.74017  -0.73883
 Alpha  occ. eigenvalues --   -0.73364  -0.72285  -0.72240  -0.70818  -0.70450
 Alpha  occ. eigenvalues --   -0.70026  -0.69611  -0.69532  -0.68781  -0.67749
 Alpha  occ. eigenvalues --   -0.67194  -0.65524  -0.65155  -0.64707  -0.64505
 Alpha  occ. eigenvalues --   -0.64051  -0.63956  -0.62680  -0.62595  -0.62416
 Alpha  occ. eigenvalues --   -0.62326  -0.61998  -0.61734  -0.60935  -0.60700
 Alpha  occ. eigenvalues --   -0.60381  -0.59762  -0.59551  -0.59527  -0.58936
 Alpha  occ. eigenvalues --   -0.58465  -0.58190  -0.58126  -0.57778  -0.57602
 Alpha  occ. eigenvalues --   -0.57220  -0.56891  -0.56558  -0.55867  -0.55452
 Alpha  occ. eigenvalues --   -0.55279  -0.55034  -0.54906  -0.54622  -0.53753
 Alpha  occ. eigenvalues --   -0.53589  -0.53526  -0.53363  -0.53210  -0.52489
 Alpha  occ. eigenvalues --   -0.52167  -0.52141  -0.51945  -0.51630  -0.50727
 Alpha  occ. eigenvalues --   -0.50575  -0.50284  -0.50056  -0.49921  -0.49842
 Alpha  occ. eigenvalues --   -0.49684  -0.49210  -0.48967  -0.48708  -0.48701
 Alpha  occ. eigenvalues --   -0.48626  -0.48266  -0.47799  -0.47537  -0.47480
 Alpha  occ. eigenvalues --   -0.47134  -0.46934  -0.46508  -0.46178  -0.46123
 Alpha  occ. eigenvalues --   -0.45901  -0.45807  -0.45581  -0.45568  -0.45477
 Alpha  occ. eigenvalues --   -0.45117  -0.45065  -0.44895  -0.44715  -0.44431
 Alpha  occ. eigenvalues --   -0.44331  -0.44177  -0.44150  -0.43882  -0.43814
 Alpha  occ. eigenvalues --   -0.43575  -0.43451  -0.43420  -0.43173  -0.43005
 Alpha  occ. eigenvalues --   -0.42835  -0.42748  -0.42571  -0.42435  -0.42337
 Alpha  occ. eigenvalues --   -0.42271  -0.42243  -0.41792  -0.41698  -0.41392
 Alpha  occ. eigenvalues --   -0.41283  -0.40959  -0.40677  -0.40565  -0.40428
 Alpha  occ. eigenvalues --   -0.40356  -0.40278  -0.40105  -0.40086  -0.39935
 Alpha  occ. eigenvalues --   -0.39736  -0.39605  -0.39511  -0.39444  -0.39229
 Alpha  occ. eigenvalues --   -0.39206  -0.39170  -0.38909  -0.38698  -0.38593
 Alpha  occ. eigenvalues --   -0.38232  -0.38132  -0.38048  -0.37991  -0.37844
 Alpha  occ. eigenvalues --   -0.37756  -0.37686  -0.37647  -0.37169  -0.37060
 Alpha  occ. eigenvalues --   -0.36967  -0.36892  -0.36439  -0.36233  -0.36042
 Alpha  occ. eigenvalues --   -0.35644  -0.35311  -0.35215  -0.34620  -0.34480
 Alpha  occ. eigenvalues --   -0.34249  -0.33974  -0.33403  -0.33050  -0.32856
 Alpha  occ. eigenvalues --   -0.32616  -0.32370  -0.32325  -0.31754  -0.31722
 Alpha  occ. eigenvalues --   -0.31438  -0.31288  -0.31041  -0.31024  -0.30578
 Alpha  occ. eigenvalues --   -0.30407  -0.30265  -0.29828  -0.29703  -0.29638
 Alpha  occ. eigenvalues --   -0.29633  -0.29153  -0.28728  -0.28446  -0.28274
 Alpha  occ. eigenvalues --   -0.28112  -0.27916  -0.27360  -0.27091  -0.27083
 Alpha  occ. eigenvalues --   -0.26637  -0.26493  -0.26481  -0.26468  -0.25939
 Alpha  occ. eigenvalues --   -0.25800  -0.25481  -0.25391  -0.25302  -0.25168
 Alpha  occ. eigenvalues --   -0.24931  -0.24838  -0.24516  -0.24510  -0.24297
 Alpha  occ. eigenvalues --   -0.23747  -0.23663  -0.23231  -0.22661  -0.22597
 Alpha  occ. eigenvalues --   -0.22072  -0.21258  -0.21169  -0.20864  -0.20289
 Alpha  occ. eigenvalues --   -0.12974  -0.12450  -0.10552
 Alpha virt. eigenvalues --   -0.10035  -0.08059  -0.03921  -0.03378  -0.03110
 Alpha virt. eigenvalues --   -0.01946  -0.01858  -0.01764  -0.01298  -0.01093
 Alpha virt. eigenvalues --   -0.00808  -0.00043   0.00534   0.00907   0.01124
 Alpha virt. eigenvalues --    0.01259   0.01504   0.01682   0.02049   0.02171
 Alpha virt. eigenvalues --    0.02497   0.02669   0.02802   0.02979   0.03202
 Alpha virt. eigenvalues --    0.03438   0.03607   0.03771   0.03883   0.04630
 Alpha virt. eigenvalues --    0.04637   0.05051   0.05107   0.05210   0.05413
 Alpha virt. eigenvalues --    0.05618   0.06074   0.06307   0.06539   0.06685
 Alpha virt. eigenvalues --    0.06800   0.07211   0.07603   0.07630   0.07741
 Alpha virt. eigenvalues --    0.08078   0.08558   0.08736   0.08854   0.09357
 Alpha virt. eigenvalues --    0.09404   0.09706   0.09888   0.10001   0.10156
 Alpha virt. eigenvalues --    0.10269   0.10473   0.10653   0.10782   0.11003
 Alpha virt. eigenvalues --    0.11121   0.11306   0.11548   0.11742   0.11798
 Alpha virt. eigenvalues --    0.11937   0.12219   0.12338   0.12385   0.12799
 Alpha virt. eigenvalues --    0.12887   0.13126   0.13278   0.13399   0.13589
 Alpha virt. eigenvalues --    0.13631   0.13801   0.13989   0.14049   0.14249
 Alpha virt. eigenvalues --    0.14573   0.14838   0.15069   0.15139   0.15331
 Alpha virt. eigenvalues --    0.15400   0.15486   0.15497   0.15812   0.16133
 Alpha virt. eigenvalues --    0.16181   0.16391   0.16525   0.16703   0.16752
 Alpha virt. eigenvalues --    0.16860   0.16916   0.17037   0.17124   0.17597
 Alpha virt. eigenvalues --    0.17685   0.17793   0.17817   0.18132   0.18197
 Alpha virt. eigenvalues --    0.18406   0.18642   0.18756   0.18814   0.19141
 Alpha virt. eigenvalues --    0.19415   0.19628   0.19852   0.20092   0.20209
 Alpha virt. eigenvalues --    0.20414   0.20496   0.20853   0.20993   0.21247
 Alpha virt. eigenvalues --    0.21444   0.21922   0.22032   0.22302   0.22403
 Alpha virt. eigenvalues --    0.22584   0.22864   0.22991   0.23166   0.23559
 Alpha virt. eigenvalues --    0.24129   0.24381   0.24473   0.24504   0.24890
 Alpha virt. eigenvalues --    0.25194   0.25236   0.25596   0.25831   0.25938
 Alpha virt. eigenvalues --    0.26295   0.26390   0.26577   0.26898   0.27073
 Alpha virt. eigenvalues --    0.27211   0.27575   0.27854   0.28056   0.28164
 Alpha virt. eigenvalues --    0.28274   0.28329   0.28524   0.28747   0.29015
 Alpha virt. eigenvalues --    0.29293   0.29540   0.29757   0.29980   0.30123
 Alpha virt. eigenvalues --    0.30378   0.30772   0.31280   0.31384   0.31536
 Alpha virt. eigenvalues --    0.31865   0.31960   0.32236   0.32768   0.32844
 Alpha virt. eigenvalues --    0.33024   0.33216   0.33558   0.33735   0.33887
 Alpha virt. eigenvalues --    0.33976   0.34204   0.34678   0.34779   0.34899
 Alpha virt. eigenvalues --    0.34946   0.35498   0.35648   0.35826   0.36373
 Alpha virt. eigenvalues --    0.36556   0.36797   0.37177   0.37411   0.37633
 Alpha virt. eigenvalues --    0.37741   0.38883   0.38909   0.39183   0.39346
 Alpha virt. eigenvalues --    0.39775   0.40089   0.40269   0.40680   0.41453
 Alpha virt. eigenvalues --    0.41673   0.41746   0.41911   0.41989   0.42320
 Alpha virt. eigenvalues --    0.42427   0.42691   0.43097   0.43639   0.43823
 Alpha virt. eigenvalues --    0.43859   0.44013   0.44612   0.44680   0.44977
 Alpha virt. eigenvalues --    0.45193   0.45345   0.45404   0.45573   0.45941
 Alpha virt. eigenvalues --    0.46043   0.46074   0.46177   0.46306   0.46408
 Alpha virt. eigenvalues --    0.46450   0.46625   0.46731   0.46995   0.47206
 Alpha virt. eigenvalues --    0.47284   0.47514   0.47643   0.47766   0.48046
 Alpha virt. eigenvalues --    0.48282   0.48480   0.48806   0.49048   0.49181
 Alpha virt. eigenvalues --    0.49415   0.49589   0.49813   0.50238   0.50404
 Alpha virt. eigenvalues --    0.50633   0.50721   0.50843   0.50978   0.51204
 Alpha virt. eigenvalues --    0.51449   0.51560   0.51692   0.52027   0.52128
 Alpha virt. eigenvalues --    0.52282   0.52495   0.52803   0.52942   0.53349
 Alpha virt. eigenvalues --    0.53413   0.53600   0.53825   0.53897   0.54027
 Alpha virt. eigenvalues --    0.54098   0.54330   0.54402   0.54492   0.54773
 Alpha virt. eigenvalues --    0.54920   0.55210   0.55431   0.55528   0.55701
 Alpha virt. eigenvalues --    0.55822   0.56158   0.56255   0.56323   0.56658
 Alpha virt. eigenvalues --    0.56820   0.56956   0.57112   0.57324   0.57493
 Alpha virt. eigenvalues --    0.57755   0.57932   0.58115   0.58190   0.58666
 Alpha virt. eigenvalues --    0.59022   0.59239   0.59314   0.59413   0.59592
 Alpha virt. eigenvalues --    0.59657   0.59981   0.60093   0.60190   0.60248
 Alpha virt. eigenvalues --    0.60401   0.60546   0.60676   0.60766   0.60886
 Alpha virt. eigenvalues --    0.61024   0.61134   0.61267   0.61412   0.61479
 Alpha virt. eigenvalues --    0.61699   0.61715   0.61789   0.62049   0.62219
 Alpha virt. eigenvalues --    0.62333   0.62547   0.62685   0.62737   0.62844
 Alpha virt. eigenvalues --    0.62983   0.63150   0.63201   0.63246   0.63529
 Alpha virt. eigenvalues --    0.63619   0.63696   0.63759   0.63877   0.64000
 Alpha virt. eigenvalues --    0.64059   0.64326   0.64545   0.64594   0.64621
 Alpha virt. eigenvalues --    0.64754   0.64860   0.64909   0.65141   0.65318
 Alpha virt. eigenvalues --    0.65396   0.65450   0.65594   0.65702   0.65826
 Alpha virt. eigenvalues --    0.65866   0.65930   0.66019   0.66046   0.66349
 Alpha virt. eigenvalues --    0.66379   0.66457   0.66557   0.66830   0.66916
 Alpha virt. eigenvalues --    0.66979   0.67072   0.67252   0.67358   0.67452
 Alpha virt. eigenvalues --    0.67545   0.67645   0.67791   0.67919   0.68042
 Alpha virt. eigenvalues --    0.68111   0.68312   0.68385   0.68507   0.68603
 Alpha virt. eigenvalues --    0.68633   0.68864   0.68943   0.69003   0.69215
 Alpha virt. eigenvalues --    0.69261   0.69410   0.69697   0.69805   0.69862
 Alpha virt. eigenvalues --    0.69890   0.70003   0.70388   0.70675   0.70768
 Alpha virt. eigenvalues --    0.70905   0.71056   0.71294   0.71327   0.71618
 Alpha virt. eigenvalues --    0.71699   0.71803   0.71920   0.72066   0.72236
 Alpha virt. eigenvalues --    0.72287   0.72484   0.72640   0.72788   0.73002
 Alpha virt. eigenvalues --    0.73245   0.73488   0.73571   0.73689   0.73819
 Alpha virt. eigenvalues --    0.73955   0.73982   0.74314   0.74477   0.74497
 Alpha virt. eigenvalues --    0.74784   0.74893   0.75095   0.75239   0.75400
 Alpha virt. eigenvalues --    0.75462   0.75601   0.75845   0.76222   0.76445
 Alpha virt. eigenvalues --    0.76696   0.76751   0.76946   0.77081   0.77498
 Alpha virt. eigenvalues --    0.77854   0.77939   0.78249   0.78436   0.78741
 Alpha virt. eigenvalues --    0.78979   0.79289   0.79484   0.79568   0.79683
 Alpha virt. eigenvalues --    0.80204   0.80244   0.80624   0.80950   0.81101
 Alpha virt. eigenvalues --    0.81337   0.81667   0.81977   0.82128   0.82403
 Alpha virt. eigenvalues --    0.82543   0.82680   0.82941   0.83209   0.83607
 Alpha virt. eigenvalues --    0.83724   0.83849   0.83991   0.84018   0.84294
 Alpha virt. eigenvalues --    0.85005   0.85124   0.85377   0.86323   0.86559
 Alpha virt. eigenvalues --    0.86602   0.86792   0.87033   0.87380   0.87837
 Alpha virt. eigenvalues --    0.88192   0.88390   0.88519   0.88745   0.89054
 Alpha virt. eigenvalues --    0.89559   0.89912   0.90082   0.90136   0.90607
 Alpha virt. eigenvalues --    0.90742   0.91190   0.91399   0.91682   0.91907
 Alpha virt. eigenvalues --    0.92266   0.92510   0.92789   0.93005   0.93252
 Alpha virt. eigenvalues --    0.93523   0.93902   0.94463   0.94548   0.94865
 Alpha virt. eigenvalues --    0.95077   0.95152   0.95269   0.95860   0.95992
 Alpha virt. eigenvalues --    0.96349   0.96629   0.96805   0.97238   0.97404
 Alpha virt. eigenvalues --    0.97548   0.97809   0.98282   0.98525   0.98831
 Alpha virt. eigenvalues --    0.99036   0.99373   0.99710   1.00170   1.00622
 Alpha virt. eigenvalues --    1.00630   1.00780   1.01289   1.01418   1.01881
 Alpha virt. eigenvalues --    1.02100   1.02281   1.02374   1.02791   1.03309
 Alpha virt. eigenvalues --    1.03692   1.03835   1.04227   1.04563   1.04966
 Alpha virt. eigenvalues --    1.05310   1.05484   1.05665   1.06057   1.06152
 Alpha virt. eigenvalues --    1.06378   1.06525   1.06589   1.06955   1.07468
 Alpha virt. eigenvalues --    1.07577   1.08145   1.08336   1.08526   1.08781
 Alpha virt. eigenvalues --    1.09355   1.09526   1.09533   1.09921   1.10118
 Alpha virt. eigenvalues --    1.10237   1.10328   1.10674   1.11210   1.11473
 Alpha virt. eigenvalues --    1.11937   1.12051   1.12482   1.12883   1.12985
 Alpha virt. eigenvalues --    1.13263   1.13496   1.13535   1.13583   1.13844
 Alpha virt. eigenvalues --    1.14194   1.14267   1.14624   1.15359   1.15398
 Alpha virt. eigenvalues --    1.15676   1.16314   1.16464   1.16599   1.17094
 Alpha virt. eigenvalues --    1.17212   1.17574   1.17936   1.18111   1.18358
 Alpha virt. eigenvalues --    1.18573   1.18942   1.19054   1.19227   1.19486
 Alpha virt. eigenvalues --    1.19619   1.19782   1.20105   1.20434   1.20559
 Alpha virt. eigenvalues --    1.20639   1.21267   1.21382   1.21555   1.21815
 Alpha virt. eigenvalues --    1.21897   1.22386   1.22744   1.23198   1.23254
 Alpha virt. eigenvalues --    1.23482   1.23522   1.23991   1.24180   1.24233
 Alpha virt. eigenvalues --    1.24246   1.24937   1.25657   1.25755   1.26128
 Alpha virt. eigenvalues --    1.26538   1.26693   1.26974   1.27256   1.27580
 Alpha virt. eigenvalues --    1.27613   1.27657   1.28010   1.28185   1.28491
 Alpha virt. eigenvalues --    1.28590   1.28906   1.29112   1.29380   1.29954
 Alpha virt. eigenvalues --    1.30156   1.30240   1.30538   1.30797   1.30869
 Alpha virt. eigenvalues --    1.31260   1.31625   1.32214   1.32307   1.32742
 Alpha virt. eigenvalues --    1.32908   1.32963   1.33100   1.33579   1.34265
 Alpha virt. eigenvalues --    1.34391   1.34691   1.35169   1.35439   1.35543
 Alpha virt. eigenvalues --    1.36020   1.36437   1.36718   1.37223   1.37277
 Alpha virt. eigenvalues --    1.37607   1.37912   1.38010   1.38269   1.38680
 Alpha virt. eigenvalues --    1.38703   1.38989   1.39353   1.39738   1.40013
 Alpha virt. eigenvalues --    1.40049   1.40211   1.40656   1.40865   1.41199
 Alpha virt. eigenvalues --    1.41429   1.41876   1.42204   1.42334   1.42485
 Alpha virt. eigenvalues --    1.42849   1.43096   1.43462   1.44149   1.44454
 Alpha virt. eigenvalues --    1.45032   1.45341   1.45675   1.46032   1.46669
 Alpha virt. eigenvalues --    1.46793   1.46819   1.47205   1.47452   1.47621
 Alpha virt. eigenvalues --    1.47858   1.47916   1.48024   1.48252   1.48595
 Alpha virt. eigenvalues --    1.48923   1.49908   1.49933   1.50327   1.50654
 Alpha virt. eigenvalues --    1.51264   1.51425   1.51602   1.51991   1.52055
 Alpha virt. eigenvalues --    1.52600   1.52883   1.53665   1.53793   1.54036
 Alpha virt. eigenvalues --    1.54085   1.55010   1.55127   1.55441   1.55877
 Alpha virt. eigenvalues --    1.56284   1.56720   1.56914   1.56998   1.57655
 Alpha virt. eigenvalues --    1.57784   1.58071   1.58479   1.59014   1.59296
 Alpha virt. eigenvalues --    1.59431   1.59606   1.60167   1.60240   1.60657
 Alpha virt. eigenvalues --    1.61048   1.61314   1.61618   1.61813   1.62272
 Alpha virt. eigenvalues --    1.62627   1.63003   1.63064   1.63320   1.64357
 Alpha virt. eigenvalues --    1.64576   1.64820   1.65116   1.65368   1.65561
 Alpha virt. eigenvalues --    1.65661   1.66082   1.66110   1.66631   1.67102
 Alpha virt. eigenvalues --    1.67153   1.67817   1.67965   1.68274   1.68297
 Alpha virt. eigenvalues --    1.68384   1.68729   1.68923   1.69427   1.69789
 Alpha virt. eigenvalues --    1.69887   1.70294   1.70716   1.70788   1.70922
 Alpha virt. eigenvalues --    1.71114   1.71387   1.71626   1.71789   1.71952
 Alpha virt. eigenvalues --    1.72222   1.72413   1.72722   1.72818   1.73147
 Alpha virt. eigenvalues --    1.73226   1.73655   1.73755   1.74312   1.74379
 Alpha virt. eigenvalues --    1.74544   1.74714   1.74857   1.75084   1.75295
 Alpha virt. eigenvalues --    1.75616   1.75820   1.76256   1.76398   1.76562
 Alpha virt. eigenvalues --    1.77063   1.77210   1.77343   1.77558   1.77633
 Alpha virt. eigenvalues --    1.77891   1.77958   1.78283   1.78329   1.78450
 Alpha virt. eigenvalues --    1.78569   1.78605   1.78923   1.79112   1.79288
 Alpha virt. eigenvalues --    1.79477   1.79680   1.79762   1.79800   1.79959
 Alpha virt. eigenvalues --    1.80247   1.80379   1.80582   1.80595   1.80794
 Alpha virt. eigenvalues --    1.80966   1.81182   1.81546   1.81697   1.81811
 Alpha virt. eigenvalues --    1.81886   1.82024   1.82501   1.82678   1.82871
 Alpha virt. eigenvalues --    1.83003   1.83200   1.83328   1.83473   1.83562
 Alpha virt. eigenvalues --    1.83709   1.83834   1.83934   1.84203   1.84490
 Alpha virt. eigenvalues --    1.84633   1.84885   1.84941   1.85342   1.85553
 Alpha virt. eigenvalues --    1.85713   1.85943   1.86125   1.86288   1.86425
 Alpha virt. eigenvalues --    1.86596   1.86835   1.86915   1.87259   1.87523
 Alpha virt. eigenvalues --    1.87764   1.87921   1.88024   1.88050   1.88209
 Alpha virt. eigenvalues --    1.88291   1.88396   1.88583   1.88797   1.88817
 Alpha virt. eigenvalues --    1.88952   1.89236   1.89497   1.89694   1.89722
 Alpha virt. eigenvalues --    1.90225   1.90279   1.90595   1.90739   1.91064
 Alpha virt. eigenvalues --    1.91174   1.91581   1.91806   1.91992   1.92218
 Alpha virt. eigenvalues --    1.92259   1.92331   1.92551   1.92796   1.93029
 Alpha virt. eigenvalues --    1.93227   1.93496   1.93603   1.93761   1.94033
 Alpha virt. eigenvalues --    1.94373   1.94419   1.94864   1.95134   1.95400
 Alpha virt. eigenvalues --    1.95624   1.95856   1.96091   1.96147   1.96545
 Alpha virt. eigenvalues --    1.96614   1.96935   1.97027   1.97158   1.97439
 Alpha virt. eigenvalues --    1.97620   1.97800   1.97938   1.97982   1.98283
 Alpha virt. eigenvalues --    1.98517   1.98665   1.98824   1.98947   1.99414
 Alpha virt. eigenvalues --    1.99932   2.00293   2.00386   2.00534   2.00819
 Alpha virt. eigenvalues --    2.01050   2.01238   2.01509   2.01651   2.02119
 Alpha virt. eigenvalues --    2.02284   2.02597   2.02691   2.02850   2.02961
 Alpha virt. eigenvalues --    2.03760   2.03783   2.04048   2.04269   2.04769
 Alpha virt. eigenvalues --    2.05347   2.05440   2.05665   2.05906   2.06302
 Alpha virt. eigenvalues --    2.06534   2.06570   2.07079   2.07422   2.07776
 Alpha virt. eigenvalues --    2.08057   2.08135   2.08855   2.08881   2.09330
 Alpha virt. eigenvalues --    2.09745   2.09818   2.09876   2.10379   2.10572
 Alpha virt. eigenvalues --    2.10690   2.10844   2.10871   2.11183   2.11280
 Alpha virt. eigenvalues --    2.11337   2.11956   2.12502   2.12623   2.12777
 Alpha virt. eigenvalues --    2.12935   2.13382   2.13715   2.13826   2.14141
 Alpha virt. eigenvalues --    2.14379   2.14655   2.15235   2.15354   2.16082
 Alpha virt. eigenvalues --    2.16233   2.16464   2.16511   2.16665   2.17081
 Alpha virt. eigenvalues --    2.17403   2.17862   2.18118   2.18450   2.18503
 Alpha virt. eigenvalues --    2.18695   2.19129   2.19470   2.19609   2.19841
 Alpha virt. eigenvalues --    2.20084   2.20244   2.20410   2.20635   2.21377
 Alpha virt. eigenvalues --    2.21574   2.21650   2.22179   2.22574   2.23018
 Alpha virt. eigenvalues --    2.23262   2.23442   2.24213   2.24370   2.24797
 Alpha virt. eigenvalues --    2.25641   2.25870   2.26135   2.26238   2.26478
 Alpha virt. eigenvalues --    2.26767   2.27046   2.27111   2.27221   2.27509
 Alpha virt. eigenvalues --    2.28243   2.28433   2.28825   2.29050   2.29454
 Alpha virt. eigenvalues --    2.30221   2.30688   2.30904   2.30922   2.31356
 Alpha virt. eigenvalues --    2.31426   2.31700   2.31879   2.32100   2.32373
 Alpha virt. eigenvalues --    2.33030   2.33367   2.33973   2.34311   2.34630
 Alpha virt. eigenvalues --    2.34711   2.35131   2.35208   2.36216   2.36374
 Alpha virt. eigenvalues --    2.36472   2.37147   2.37235   2.37394   2.37603
 Alpha virt. eigenvalues --    2.37728   2.38162   2.38406   2.38702   2.38939
 Alpha virt. eigenvalues --    2.39077   2.39816   2.39891   2.40145   2.40762
 Alpha virt. eigenvalues --    2.40862   2.41153   2.41171   2.41344   2.41870
 Alpha virt. eigenvalues --    2.41939   2.42394   2.43380   2.43449   2.44212
 Alpha virt. eigenvalues --    2.44289   2.44478   2.44838   2.45782   2.45866
 Alpha virt. eigenvalues --    2.46298   2.46514   2.47121   2.47721   2.48020
 Alpha virt. eigenvalues --    2.48125   2.48471   2.48563   2.49075   2.49147
 Alpha virt. eigenvalues --    2.49498   2.49786   2.50299   2.50716   2.51081
 Alpha virt. eigenvalues --    2.51302   2.51360   2.52342   2.52979   2.53099
 Alpha virt. eigenvalues --    2.53219   2.53599   2.53686   2.54251   2.55248
 Alpha virt. eigenvalues --    2.55752   2.55910   2.56210   2.56343   2.56813
 Alpha virt. eigenvalues --    2.57089   2.57296   2.57671   2.58130   2.58557
 Alpha virt. eigenvalues --    2.58758   2.58980   2.59212   2.59548   2.59583
 Alpha virt. eigenvalues --    2.59695   2.60006   2.60044   2.60696   2.60983
 Alpha virt. eigenvalues --    2.61384   2.61478   2.62228   2.62297   2.62365
 Alpha virt. eigenvalues --    2.62605   2.63032   2.63165   2.63504   2.64049
 Alpha virt. eigenvalues --    2.64235   2.64593   2.64969   2.65179   2.65564
 Alpha virt. eigenvalues --    2.65839   2.65866   2.65911   2.66206   2.66400
 Alpha virt. eigenvalues --    2.66496   2.66893   2.67353   2.67928   2.68030
 Alpha virt. eigenvalues --    2.68418   2.68653   2.68912   2.68959   2.69151
 Alpha virt. eigenvalues --    2.69319   2.69629   2.69685   2.70233   2.70371
 Alpha virt. eigenvalues --    2.70431   2.70473   2.70831   2.71576   2.72071
 Alpha virt. eigenvalues --    2.72216   2.73120   2.73415   2.73882   2.74073
 Alpha virt. eigenvalues --    2.74547   2.74803   2.74963   2.75130   2.75535
 Alpha virt. eigenvalues --    2.75863   2.76146   2.76297   2.76414   2.76565
 Alpha virt. eigenvalues --    2.77712   2.77971   2.78183   2.78406   2.78468
 Alpha virt. eigenvalues --    2.78525   2.79152   2.79239   2.79430   2.79709
 Alpha virt. eigenvalues --    2.79746   2.79951   2.80377   2.80595   2.80866
 Alpha virt. eigenvalues --    2.80968   2.81639   2.81792   2.82163   2.82326
 Alpha virt. eigenvalues --    2.82441   2.82923   2.82987   2.83380   2.83486
 Alpha virt. eigenvalues --    2.83760   2.84302   2.84817   2.85297   2.86220
 Alpha virt. eigenvalues --    2.86344   2.86401   2.86771   2.87109   2.87469
 Alpha virt. eigenvalues --    2.87644   2.87911   2.87929   2.88299   2.89140
 Alpha virt. eigenvalues --    2.89353   2.89534   2.89807   2.90306   2.90498
 Alpha virt. eigenvalues --    2.90850   2.91127   2.91143   2.91672   2.91800
 Alpha virt. eigenvalues --    2.92067   2.92263   2.92691   2.92940   2.93053
 Alpha virt. eigenvalues --    2.93502   2.93866   2.94079   2.94269   2.94397
 Alpha virt. eigenvalues --    2.94536   2.94988   2.95149   2.95383   2.95677
 Alpha virt. eigenvalues --    2.95709   2.96032   2.96466   2.96693   2.97057
 Alpha virt. eigenvalues --    2.97207   2.97594   2.97723   2.97835   2.98569
 Alpha virt. eigenvalues --    2.98969   2.99480   3.00018   3.00178   3.00274
 Alpha virt. eigenvalues --    3.00797   3.01174   3.01460   3.01662   3.01911
 Alpha virt. eigenvalues --    3.02298   3.02585   3.02906   3.03346   3.03400
 Alpha virt. eigenvalues --    3.04623   3.04655   3.05219   3.05710   3.06819
 Alpha virt. eigenvalues --    3.06851   3.07084   3.07114   3.08776   3.09056
 Alpha virt. eigenvalues --    3.09077   3.09721   3.10541   3.11107   3.11250
 Alpha virt. eigenvalues --    3.11400   3.11626   3.11682   3.12081   3.12300
 Alpha virt. eigenvalues --    3.12509   3.13221   3.13518   3.13820   3.14199
 Alpha virt. eigenvalues --    3.14338   3.14611   3.14670   3.14996   3.15893
 Alpha virt. eigenvalues --    3.16561   3.17003   3.17441   3.17789   3.17999
 Alpha virt. eigenvalues --    3.18292   3.18582   3.18702   3.18921   3.19074
 Alpha virt. eigenvalues --    3.19159   3.20358   3.20942   3.21087   3.21436
 Alpha virt. eigenvalues --    3.21704   3.22213   3.22353   3.22819   3.23483
 Alpha virt. eigenvalues --    3.23493   3.23861   3.24316   3.24349   3.24624
 Alpha virt. eigenvalues --    3.27956   3.28258   3.28319   3.28788   3.29618
 Alpha virt. eigenvalues --    3.29672   3.30148   3.32563   3.32633   3.33369
 Alpha virt. eigenvalues --    3.34466   3.37090   3.38289   3.38557   3.39137
 Alpha virt. eigenvalues --    3.42394   3.43887   3.44025   3.44662   3.46278
 Alpha virt. eigenvalues --    3.49950   3.50314   3.52208   3.52496   3.54191
 Alpha virt. eigenvalues --    3.54638   3.55558   3.55609   3.56043   3.56909
 Alpha virt. eigenvalues --    3.58223   3.58597   3.59361   3.60114   3.60203
 Alpha virt. eigenvalues --    3.61871   3.63103   3.63993   3.64171   3.64918
 Alpha virt. eigenvalues --    3.66232   3.66462   3.67585   3.67971   3.68618
 Alpha virt. eigenvalues --    3.69471   3.69636   3.69871   3.70642   3.70911
 Alpha virt. eigenvalues --    3.71184   3.71349   3.71898   3.73407   3.74540
 Alpha virt. eigenvalues --    3.77835   3.79441   3.82090   3.82273
          Condensed to atoms (all electrons):
 Mulliken charges:
               1
     1  C    0.050674
     2  C    0.032052
     3  O   -0.322100
     4  H    0.012098
     5  H    0.044222
     6  H    0.023715
     7  N   -0.096262
     8  C    0.074598
     9  C    0.069341
    10  O   -0.281938
    11  C    0.168141
    12  C    0.024536
    13  O   -0.432769
    14  O   -0.394845
    15  H    0.133118
    16  H    0.023240
    17  H    0.017006
    18  H   -0.008965
    19  N   -0.124464
    20  C    0.074336
    21  C    0.071453
    22  O   -0.260749
    23  C    0.039281
    24  C    0.021228
    25  C   -0.011303
    26  C    0.064199
    27  N    0.109707
    28  H    0.143058
    29  H    0.033609
    30  H    0.025994
    31  H    0.001663
    32  H    0.017251
    33  H   -0.018312
    34  H    0.005758
    35  H    0.053166
    36  H    0.048176
    37  H    0.072280
    38  H    0.118634
    39  H    0.139530
    40  H    0.122204
    41  N   -0.148451
    42  C    0.077194
    43  C    0.084831
    44  O   -0.265829
    45  C    0.122522
    46  C    0.066636
    47  O   -0.440845
    48  O   -0.401912
    49  H    0.122558
    50  H    0.031701
    51  H   -0.004873
    52  H    0.040150
    53  N   -0.148246
    54  C    0.212758
    55  C    0.017689
    56  O   -0.295745
    57  H    0.138546
    58  H    0.037652
    59  H    0.031865
    60  N   -0.107970
    61  C    0.074868
    62  C    0.137963
    63  O   -0.383096
    64  C    0.132100
    65  C   -0.035992
    66  N   -0.036781
    67  O   -0.287615
    68  H    0.165133
    69  H    0.015634
    70  H    0.040892
    71  H    0.034764
    72  H    0.119749
    73  H    0.143481
    74  N   -0.124259
    75  C    0.218559
    76  C    0.020782
    77  O   -0.299923
    78  H    0.133558
    79  H    0.038520
    80  H    0.011872
    81  N   -0.105764
    82  C    0.174800
    83  C    0.096901
    84  O   -0.270746
    85  C    0.087953
    86  C   -0.087335
    87  C    0.040722
    88  C   -0.001734
    89  C   -0.009544
    90  C   -0.045027
    91  C    0.136184
    92  O   -0.185797
    93  H    0.125981
    94  H   -0.035264
    95  H    0.023675
    96  H   -0.034310
    97  H    0.026748
    98  H   -0.037437
    99  H   -0.013484
   100  H   -0.051318
   101  H    0.167877
   102  N   -0.108585
   103  C    0.152211
   104  C    0.077568
   105  O   -0.272716
   106  C   -0.086049
   107  C    0.009623
   108  C    0.078419
   109  C    0.035941
   110  H    0.126189
   111  H   -0.022795
   112  H    0.011237
   113  H   -0.016946
   114  H    0.003908
   115  H   -0.010897
   116  H    0.027095
   117  H    0.012887
   118  H   -0.017710
   119  H    0.027775
   120  H   -0.015058
   121  N   -0.163517
   122  C    0.167666
   123  C    0.037061
   124  O   -0.273934
   125  C    0.227210
   126  O   -0.296373
   127  H    0.121976
   128  H    0.034773
   129  H   -0.012294
   130  H    0.014983
   131  H    0.184316
   132  N   -0.134425
   133  C    0.040221
   134  C    0.041958
   135  O   -0.270332
   136  C    0.110182
   137  H    0.090530
   138  H    0.008561
   139  H    0.020696
   140  H   -0.015000
   141  H    0.034016
   142  N   -0.081341
   143  C    0.002748
   144  C    0.066558
   145  O   -0.289276
   146  C    0.075860
   147  H    0.131549
   148  H   -0.027809
   149  H    0.020939
   150  H    0.042974
   151  H    0.022135
   152  N   -0.098800
   153  C    0.061593
   154  C    0.050136
   155  O   -0.294387
   156  C    0.111654
   157  C   -0.012222
   158  C    0.078304
   159  O   -0.372183
   160  O   -0.356615
   161  H    0.122445
   162  H    0.006015
   163  H   -0.029781
   164  H    0.014581
   165  H   -0.006171
   166  H   -0.017222
   167  N   -0.148054
   168  C    0.138345
   169  H    0.018023
   170  H    0.008418
   171  H    0.035018
   172  H    0.103013
   173  Ca   1.383454
   174  O   -0.289311
   175  H    0.188226
   176  H    0.184734
 Sum of Mulliken charges =  -0.00000
 Mulliken charges with hydrogens summed into heavy atoms:
               1
     1  C    0.130709
     2  C    0.032052
     3  O   -0.322100
     7  N    0.036857
     8  C    0.097838
     9  C    0.069341
    10  O   -0.281938
    11  C    0.176182
    12  C    0.024536
    13  O   -0.432769
    14  O   -0.394845
    19  N    0.018594
    20  C    0.107945
    21  C    0.071453
    22  O   -0.260749
    23  C    0.066937
    24  C    0.020166
    25  C    0.047621
    26  C    0.184655
    27  N    0.490075
    41  N   -0.025892
    42  C    0.108895
    43  C    0.084831
    44  O   -0.265829
    45  C    0.157798
    46  C    0.066636
    47  O   -0.440845
    48  O   -0.401912
    53  N   -0.009701
    54  C    0.282275
    55  C    0.017689
    56  O   -0.295745
    60  N    0.057164
    61  C    0.090503
    62  C    0.137963
    63  O   -0.383096
    64  C    0.207756
    65  C   -0.035992
    66  N    0.226448
    67  O   -0.287615
    74  N    0.009299
    75  C    0.268951
    76  C    0.020782
    77  O   -0.299923
    81  N    0.020217
    82  C    0.139536
    83  C    0.096901
    84  O   -0.270746
    85  C    0.077319
    86  C   -0.087335
    87  C    0.067470
    88  C   -0.039171
    89  C   -0.023029
    90  C   -0.096345
    91  C    0.136184
    92  O   -0.017920
   102  N    0.017604
   103  C    0.129416
   104  C    0.077568
   105  O   -0.272716
   106  C   -0.074812
   107  C   -0.003415
   108  C    0.107505
   109  C    0.030948
   121  N   -0.041541
   122  C    0.202439
   123  C    0.037061
   124  O   -0.273934
   125  C    0.229898
   126  O   -0.112058
   132  N   -0.043895
   133  C    0.048782
   134  C    0.041958
   135  O   -0.270332
   136  C    0.149894
   142  N    0.050207
   143  C   -0.025060
   144  C    0.066558
   145  O   -0.289276
   146  C    0.161908
   152  N    0.023645
   153  C    0.067608
   154  C    0.050136
   155  O   -0.294387
   156  C    0.096453
   157  C   -0.035615
   158  C    0.078304
   159  O   -0.372183
   160  O   -0.356615
   167  N   -0.045041
   168  C    0.199804
   173  Ca   1.383454
   174  O    0.083649
 DipInt: DoE/N= T F RetVal/Mat= T F Init=T NMatP=  1 IDeriv=0 Min/MaxMlt=  0  4
 Entering OneElI...
 OneElI was handed  1333951383 working-precision words.
 Multipole integrals L=0 to 4 MinM= 0 MaxM= 0.
 Requested accuracy = 0.1000D-12
 PrtBox:  NBox=     1 Levels=  1 BoxLen=   98.75 SMaxX=       53.77
          Shift=           25.067193           12.563418            7.647287
 Box      1 Number                   0 centers from      1 to    809:
 ShPair: Thresh= 1.00D-13 NBox=     1 BxSize= 9.87D+01 RnKept= 3.35D+01
         NSMCal=               327645 NSMKep=              116975
 PrmmSu-InSpLW:  IPartL=    0 NPrtUS=    1 NPrtUL=    1 DoSpLW=F IThBeg=    0 IThEnd=    0 NThAct=    1.
 PrsmSu:  NPrtUS=   1 ThrOK=F IAlg=1 NPAlg=1 LenDen=           0 ISkipM=0 DoSpLW=F IThBeg=    0 IThEnd=    0.
 Prism:   IPart=     0 DynPar=F LinDyn=F Incr=         512.
 PRISM was handed  1325480609 working-precision words and116975 shell-pairs
 IPart=  0 NShTot=      116975 NBatch=         283 AvBLen=       413.3
 PrsmSu-ThDecC:  IPartSL=    0    0 NPrtUSL=    1    1 IThBeg=    0 IThEnd=    0 CPU=   -1 GPU=   -1 NThAct=    1.
 PrSmSu:  NxtVal=            513.
 Electronic moments (au):
       -716.00000000         23.44866149          0.33790622          5.15495107
    -158865.46744948     -28609.52722174      -8601.74293487       -228.46079622
        -82.90120250        -16.04411905    -188249.60817679     -15802.09511486
      -4036.38141958      60092.24148556     398579.52459327      80340.01337740
      -6088.82836343      12156.05088832     -21478.43793150      31574.71223585
  -58870857.72207738   -2561330.38190866    -243551.52564422    2581723.59540572
      24500.59470117     117724.17822763    -138507.01643609      37587.03339764
      70646.72895851   -6055176.71404650   -1978429.27274559    -333188.46200874
     355228.35187824     133842.78703768     -42082.05386901
 Electronic spatial extent (au):  <R**2>=         196076.7376
 DipInt: DoE/N= F T RetVal/Mat= T F Init=T NMatP=  1 IDeriv=0 Min/MaxMlt=  0  4
 Nuclear    moments (au):
        716.00000000         -0.00000000          0.00000000          0.00000000
     158689.40162973      28175.81671408       8200.92002860         -0.00000000
         -0.00000000         -0.00000000     204406.98369966      16727.84524215
       4151.03262434     -58534.21202001    -402850.17072838     -79739.11990058
       6385.32986730     -12261.28359937      21944.78820977     -31091.79261845
   58563556.95386520    2458681.68421808     216149.47574552   -2706479.96685337
     -73017.99724157    -137036.03345543     135472.14143724     -35290.58915171
     -71361.02325850    5969065.43215233    1888372.25226043     312622.27908904
    -351884.35114033    -142110.97442255      37894.06863394
 Total      moments (au):
         -0.00000000         23.44866149          0.33790622          5.15495107
       -176.06581975       -433.71050766       -400.82290628       -228.46079622
        -82.90120250        -16.04411905      16157.37552287        925.75012729
        114.65120477       1558.02946555      -4270.64613511        600.89347682
        296.50150386       -105.23271105        466.35027827        482.91961740
    -307300.76821218    -102648.69769058     -27402.04989871    -124756.37144765
     -48517.40254040     -19311.85522781      -3034.87499885       2296.44424593
       -714.29429999     -86111.28189417     -90057.02048515     -20566.18291970
       3344.00073791      -8268.18738487      -4187.98523507
 Traceless Quadrup. (au):
        160.80059148        -96.84409643        -63.95649505       -228.46079622
        -82.90120250        -16.04411905
 Charge=             -0.0000 electrons
 Dipole moment (field-independent basis, Debye):
    X=             59.6006    Y=              0.8589    Z=             13.1026  Tot=             61.0298
 Quadrupole moment (field-independent basis, Debye-Ang):
   XX=           -236.8146   YY=           -583.3555   ZZ=           -539.1205
   XY=           -307.2876   XZ=           -111.5050   YZ=            -21.5799
 Traceless Quadrupole moment (field-independent basis, Debye-Ang):
   XX=            216.2823   YY=           -130.2586   ZZ=            -86.0237
   XY=           -307.2876   XZ=           -111.5050   YZ=            -21.5799
 Octapole moment (field-independent basis, Debye-Ang**2):
  XXX=          11500.1974  YYY=            658.9133  ZZZ=             81.6043  XYY=           1108.9453
  XXY=          -3039.6814  XXZ=            427.6928  XZZ=            211.0383  YZZ=            -74.9006
  YYZ=            331.9302  XYZ=            343.7236
 Hexadecapole moment (field-independent basis, Debye-Ang**3):
 XXXX=        -115744.2049 YYYY=         -38662.4217 ZZZZ=         -10320.9260 XXXY=         -46989.2318
 XXXZ=         -18273.9803 YYYX=          -7273.7707 YYYZ=          -1143.0795 ZZZX=            864.9510
 ZZZY=           -269.0375 XXYY=         -32433.6379 XXZZ=         -33919.7923 YYZZ=          -7746.2107
 XXYZ=           1259.5110 YYXZ=          -3114.1958 ZZXY=          -1577.3961
 N-N= 1.832309638329D+04 E-N=-4.912295621783D+04  KE= 5.290698108185D+03
 Leave Link  601 at Wed Sep 18 11:31:25 2019, MaxMem=  1342177280 cpu:              47.5 elap:               1.2
 FitSet:  NAtFit=   176 NAtPot=   176 NAtFrz=     0 MDM=   180 TotChg=   0.00000
 Merz-Kollman atomic radii used.
 Read replacement radii for each type of atom:
 Rad(20) =   1.700000000000D+00
 Atom Element Radius
    1     6    1.50
    2     6    1.50
    3     8    1.40
    4     1    1.20
    5     1    1.20
    6     1    1.20
    7     7    1.50
    8     6    1.50
    9     6    1.50
   10     8    1.40
   11     6    1.50
   12     6    1.50
   13     8    1.40
   14     8    1.40
   15     1    1.20
   16     1    1.20
   17     1    1.20
   18     1    1.20
   19     7    1.50
   20     6    1.50
   21     6    1.50
   22     8    1.40
   23     6    1.50
   24     6    1.50
   25     6    1.50
   26     6    1.50
   27     7    1.50
   28     1    1.20
   29     1    1.20
   30     1    1.20
   31     1    1.20
   32     1    1.20
   33     1    1.20
   34     1    1.20
   35     1    1.20
   36     1    1.20
   37     1    1.20
   38     1    1.20
   39     1    1.20
   40     1    1.20
   41     7    1.50
   42     6    1.50
   43     6    1.50
   44     8    1.40
   45     6    1.50
   46     6    1.50
   47     8    1.40
   48     8    1.40
   49     1    1.20
[...]
 **** Fit      -0.000182
 **** Fit      -0.000958
 **** Fit      -0.002081
 **** Fit      -0.003538
 **** Fit      -0.005294
 **** Fit       0.000227
 **** Fit       0.000918
 **** Fit       0.001525
 **** Fit       0.001947
 **** Fit       0.002095
 **** Fit       0.001895
 **** Fit       0.001292
 **** Fit       0.000253
 **** Fit      -0.001233
 **** Fit      -0.003155
 **** Fit       0.004534
 **** Fit       0.005009
 **** Fit       0.005127
 **** Fit       0.004794
 **** Fit       0.003941
 **** Fit       0.002521
 **** Fit      -0.010143
 **** Fit      -0.009068
 **** Fit      -0.011762
 **** Fit      -0.012121
 **** Fit      -0.011562
 **** Fit      -0.008267
 **** Fit      -0.009605
 **** Fit      -0.010822
 **** Fit      -0.013654
 **** Fit      -0.014321
 **** Fit      -0.014408
 **** Fit      -0.013702
 **** Fit      -0.009056
 **** Fit      -0.010321
 **** Fit      -0.011525
 **** Fit      -0.012662
 **** Fit      -0.015947
 **** Fit      -0.016910
 **** Fit      -0.017443
 **** Fit      -0.017296
 **** Fit      -0.008358
 **** Fit      -0.009752
 **** Fit      -0.011048
 **** Fit      -0.012298
 **** Fit      -0.013540
 **** Fit      -0.014776
 **** Fit      -0.018775
 **** Fit      -0.020106
 **** Fit      -0.021098
 **** Fit      -0.021468
 **** Fit      -0.020948
 **** Fit      -0.008832
 **** Fit      -0.010364
 **** Fit      -0.011773
 **** Fit      -0.013127
 **** Fit      -0.014482
 **** Fit      -0.015878
 **** Fit      -0.017323
 **** Fit      -0.022278
 **** Fit      -0.024056
 **** Fit      -0.025606
 **** Fit      -0.026624
 **** Fit      -0.026765
 **** Fit      -0.011163
 **** Fit      -0.012707
 **** Fit      -0.014183
 **** Fit      -0.015650
 **** Fit      -0.017163
 **** Fit      -0.018767
 **** Fit      -0.020481
 **** Fit      -0.026608
 **** Fit      -0.029092
 **** Fit      -0.031467
 **** Fit      -0.033350
 **** Fit      -0.034235
 **** Fit      -0.011261
 **** Fit      -0.013136
 **** Fit      -0.014886
 **** Fit      -0.016586
 **** Fit      -0.018306
 **** Fit      -0.020114
 **** Fit      -0.022076
 **** Fit      -0.024240
 **** Fit      -0.031916
 **** Fit      -0.035362
 **** Fit      -0.013439
 **** Fit      -0.015536
 **** Fit      -0.017528
 **** Fit      -0.019494
 **** Fit      -0.021513
 **** Fit      -0.023674
 **** Fit      -0.026075
 **** Fit      -0.028805
 **** Fit      -0.038333
 **** Fit      -0.015488
 **** Fit      -0.017931
 **** Fit      -0.020269
 **** Fit      -0.022593
 **** Fit      -0.025004
 **** Fit      -0.027627
 **** Fit      -0.030616
 **** Fit      -0.034137
 **** Fit      -0.019554
 **** Fit      -0.022437
 **** Fit      -0.025281
 **** Fit      -0.028230
 **** Fit      -0.031477
 **** Fit      -0.035281
 **** Fit      -0.039972
 **** Fit      -0.023891
 **** Fit      -0.027380
 **** Fit      -0.030960
 **** Fit      -0.034922
 **** Fit      -0.039703
 **** Fit      -0.033058
 **** Fit      -0.037668
 **** Fit       0.000229
 **** Fit       0.001651
 **** Fit       0.003037
 **** Fit       0.004206
 **** Fit       0.004986
 **** Fit       0.005228
 **** Fit       0.004816
 **** Fit       0.003674
 **** Fit      -0.004074
 **** Fit      -0.002812
 **** Fit      -0.001286
 **** Fit       0.000315
 **** Fit       0.001789
 **** Fit       0.002945
 **** Fit       0.003619
 **** Fit       0.003680
 **** Fit       0.003034
 **** Fit       0.001619
 **** Fit      -0.000591
 **** Fit      -0.008259
 **** Fit      -0.007288
 **** Fit      -0.005725
 **** Fit      -0.003805
 **** Fit      -0.001795
 **** Fit       0.000049
 **** Fit       0.001504
 **** Fit       0.002393
 **** Fit       0.002585
 **** Fit       0.001986
 **** Fit       0.000540
 **** Fit      -0.001772
 **** Fit      -0.012822
 **** Fit      -0.011421
 **** Fit      -0.009122
 **** Fit      -0.006358
 **** Fit      -0.003557
 **** Fit      -0.001081
 **** Fit       0.000789
 **** Fit       0.001855
 **** Fit       0.001981
 **** Fit       0.001089
 **** Fit      -0.000849
 **** Fit      -0.003806
 **** Fit      -0.010444
 **** Fit      -0.006203
 **** Fit      -0.002450
 **** Fit       0.057754
 **** Fit       0.056315
 **** Fit       0.053703
 **** Fit       0.049333
 **** Fit       0.042510
 **** Fit       0.057408
 **** Fit       0.057595
 **** Fit       0.057715
 **** Fit       0.057569
 **** Fit       0.056956
 **** Fit       0.055621
 **** Fit       0.053225
 **** Fit       0.049341
 **** Fit       0.043442
 **** Fit       0.054612
 **** Fit       0.055317
 **** Fit       0.056013
 **** Fit       0.056498
 **** Fit       0.056627
 **** Fit       0.056254
 **** Fit       0.055190
 **** Fit       0.053189
 **** Fit       0.049938
 **** Fit       0.045049
 **** Fit       0.038040
 **** Fit       0.051321
 **** Fit       0.052709
 **** Fit       0.053932
 **** Fit       0.054873
 **** Fit       0.055441
 **** Fit       0.055540
 **** Fit       0.055042
 **** Fit       0.053775
 **** Fit       0.051511
 **** Fit       0.047974
 **** Fit       0.042828
 **** Fit       0.035667
 **** Fit       0.045048
 **** Fit       0.047561
 **** Fit       0.049689
 **** Fit       0.051456
 **** Fit       0.052845
 **** Fit       0.053827
 **** Fit       0.054355
 **** Fit       0.054358
 **** Fit       0.053719
 **** Fit       0.052279
 **** Fit       0.049836
 **** Fit       0.046157
 **** Fit       0.040970
 **** Fit       0.033969
 **** Fit       0.035747
 **** Fit       0.040011
 **** Fit       0.043539
 **** Fit       0.046448
 **** Fit       0.048806
 **** Fit       0.050653
 **** Fit       0.052007
 **** Fit       0.052868
 **** Fit       0.053196
 **** Fit       0.052908
 **** Fit       0.051874
 **** Fit       0.049924
 **** Fit       0.046862
 **** Fit       0.042474
 **** Fit       0.036534
 **** Fit       0.028822
 **** Fit       0.030433
 **** Fit       0.035327
 **** Fit       0.039551
 **** Fit       0.043093
 **** Fit       0.045981
 **** Fit       0.048258
 **** Fit       0.049966
 **** Fit       0.051133
 **** Fit       0.051753
 **** Fit       0.051773
 **** Fit       0.051093
 **** Fit       0.049574
 **** Fit       0.047053
 **** Fit       0.043357
 **** Fit       0.038318
 **** Fit       0.031796
 **** Fit       0.023710
 **** Fit       0.023721
 **** Fit       0.028727
 **** Fit       0.033571
 **** Fit       0.037890
 **** Fit       0.041562
 **** Fit       0.044559
 **** Fit       0.046901
 **** Fit       0.048623
 **** Fit       0.049754
 **** Fit       0.050284
 **** Fit       0.050155
 **** Fit       0.049261
 **** Fit       0.047469
 **** Fit       0.044625
 **** Fit       0.040586
 **** Fit       0.035233
 **** Fit       0.028505
 **** Fit       0.020447
 **** Fit       0.023308
 **** Fit       0.027896
 **** Fit       0.032493
 **** Fit       0.036689
 **** Fit       0.040300
 **** Fit       0.043253
 **** Fit       0.045542
 **** Fit       0.047185
 **** Fit       0.048194
 **** Fit       0.048549
 **** Fit       0.048182
 **** Fit       0.046987
 **** Fit       0.044832
 **** Fit       0.041582
 **** Fit       0.037119
 **** Fit       0.031367
 **** Fit       0.024324
 **** Fit       0.016108
 **** Fit       0.007013
 **** Fit       0.021925
 **** Fit       0.026572
 **** Fit       0.031198
 **** Fit       0.035430
 **** Fit       0.039060
 **** Fit       0.041988
 **** Fit       0.044185
 **** Fit       0.045650
 **** Fit       0.046369
 **** Fit       0.046293
 **** Fit       0.045325
 **** Fit       0.043331
 **** Fit       0.040164
 **** Fit       0.035685
 **** Fit       0.029790
 **** Fit       0.022432
 **** Fit       0.013648
 **** Fit       0.019182
 **** Fit       0.024618
 **** Fit       0.029561
 **** Fit       0.033920
 **** Fit       0.037566
 **** Fit       0.040417
 **** Fit       0.042434
 **** Fit       0.043593
 **** Fit       0.043848
 **** Fit       0.043111
 **** Fit       0.041246
 **** Fit       0.038083
 **** Fit       0.033443
 **** Fit       0.027154
 **** Fit       0.019054
 **** Fit       0.021548
 **** Fit       0.027211
 **** Fit       0.031861
 **** Fit       0.035562
 **** Fit       0.038295
 **** Fit       0.040029
 **** Fit       0.040716
 **** Fit       0.040269
 **** Fit       0.038546
 **** Fit       0.035352
 **** Fit       0.030446
 **** Fit       0.023547
 **** Fit       0.026462
 **** Fit       0.031053
 **** Fit       0.034316
 **** Fit       0.036268
 **** Fit       0.036851
 **** Fit       0.035935
 **** Fit       0.033308
 **** Fit       0.028660
 **** Fit       0.025202
 **** Fit       0.029302
 **** Fit       0.031618
 **** Fit       0.032089
 **** Fit       0.030519
 **** Fit       0.026565
 **** Fit       0.024886
 **** Fit       0.026546
 **** Fit       0.025251
 **** Fit       0.048698
 **** Fit       0.045119
 **** Fit       0.040856
 **** Fit       0.041107
 **** Fit       0.037272
 **** Fit       0.035734
 **** Fit       0.036718
 **** Fit       0.033881
 **** Fit       0.031229
 **** Fit       0.030538
 **** Fit       0.031993
 **** Fit       0.035448
 **** Fit       0.035102
 **** Fit       0.030460
 **** Fit       0.026963
 **** Fit       0.025148
 **** Fit       0.025300
 **** Fit       0.027445
 **** Fit       0.031424
 **** Fit       0.027005
 **** Fit       0.022631
 **** Fit       0.019867
 **** Fit       0.019076
 **** Fit       0.020289
 **** Fit       0.023388
 **** Fit       0.028202
 **** Fit       0.018184
 **** Fit       0.014389
 **** Fit       0.012738
 **** Fit       0.013163
 **** Fit       0.015429
 **** Fit       0.019356
 **** Fit       0.024822
 **** Fit       0.048782
 **** Fit       0.005568
 **** Fit       0.005779
 **** Fit       0.007830
 **** Fit       0.011370
 **** Fit       0.016310
 **** Fit       0.022638
 **** Fit       0.046677
 **** Fit       0.000511
 **** Fit       0.004548
 **** Fit       0.009656
 **** Fit       0.044702
 **** Fit       0.045321
 **** Fit       0.044186
 **** Fit       0.044371
 **** Fit       0.045058
 **** Fit       0.046102
 **** Fit       0.046080
 **** Fit       0.045593
 **** Fit       0.045683
 **** Fit       0.046176
 **** Fit       0.046878
 **** Fit       0.047518
 **** Fit       0.050627
 **** Fit       0.049764
 **** Fit       0.049566
 **** Fit       0.049762
 **** Fit       0.050118
 **** Fit       0.050332
 **** Fit       0.049987
 **** Fit       0.057615
 **** Fit       0.057232
 **** Fit       0.057223
 **** Fit       0.057331
 **** Fit       0.057242
 **** Fit       0.047203
 **** Fit       0.045862
 **** Fit       0.046346
 **** Fit       0.048328
 **** Fit       0.048598
 **** Fit       0.047499
 **** Fit       0.046594
 **** Fit       0.044566
 **** Fit       0.043925
 **** Fit       0.044780
 **** Fit       0.051200
 **** Fit       0.050047
 **** Fit       0.048465
 **** Fit       0.047354
 **** Fit       0.046710
 **** Fit       0.046213
 **** Fit       0.045531
 **** Fit       0.043309
 **** Fit       0.041918
 **** Fit       0.041266
 **** Fit       0.051542
 **** Fit       0.049314
 **** Fit       0.047770
 **** Fit       0.046865
 **** Fit       0.046376
 **** Fit       0.046087
 **** Fit       0.045826
 **** Fit       0.045403
 **** Fit       0.044591
 **** Fit       0.042080
 **** Fit       0.040011
 **** Fit       0.038201
 **** Fit       0.051406
 **** Fit       0.048867
 **** Fit       0.047256
 **** Fit       0.046327
 **** Fit       0.045818
 **** Fit       0.045536
 **** Fit       0.045362
 **** Fit       0.045234
 **** Fit       0.045066
 **** Fit       0.044659
 **** Fit       0.043714
 **** Fit       0.040881
 **** Fit       0.038101
 **** Fit       0.049110
 **** Fit       0.047085
 **** Fit       0.045893
 **** Fit       0.045214
 **** Fit       0.044808
 **** Fit       0.044527
 **** Fit       0.044309
 **** Fit       0.044166
 **** Fit       0.044128
 **** Fit       0.044131
 **** Fit       0.043875
 **** Fit       0.042880
 **** Fit       0.049357
 **** Fit       0.046953
 **** Fit       0.045504
 **** Fit       0.044638
 **** Fit       0.044083
 **** Fit       0.043654
 **** Fit       0.043242
 **** Fit       0.042826
 **** Fit       0.042466
 **** Fit       0.042294
 **** Fit       0.042438
 **** Fit       0.046686
 **** Fit       0.045053
 **** Fit       0.044047
 **** Fit       0.043351
 **** Fit       0.042743
 **** Fit       0.042076
 **** Fit       0.041289
 **** Fit       0.040419
 **** Fit       0.039628
 **** Fit       0.039215
 **** Fit       0.046794
 **** Fit       0.045008
 **** Fit       0.043849
 **** Fit       0.042979
 **** Fit       0.042147
 **** Fit       0.041173
 **** Fit       0.039940
 **** Fit       0.038416
 **** Fit       0.036691
 **** Fit       0.035043
 **** Fit       0.044845
 **** Fit       0.043669
 **** Fit       0.042567
 **** Fit       0.041296
 **** Fit       0.039661
 **** Fit       0.037514
 **** Fit       0.034789
 **** Fit       0.031553
 **** Fit       0.045387
 **** Fit       0.043854
 **** Fit       0.042050
 **** Fit       0.039685
 **** Fit       0.036489
 **** Fit       0.032216
 **** Fit       0.047828
 **** Fit       0.045454
 **** Fit       0.042418
 **** Fit       0.038271
 **** Fit       0.032498
 **** Fit       0.048557
 **** Fit       0.043517
 **** Fit       0.036469
 **** Fit       0.046528
 **** Fit       0.046668
 **** Fit       0.044657
 **** Fit       0.044816
 **** Fit       0.045871
 **** Fit       0.048142
 **** Fit       0.049180
 **** Fit       0.043225
 **** Fit       0.042498
 **** Fit       0.043193
 **** Fit       0.043910
 **** Fit       0.044119
 **** Fit       0.044710
 **** Fit       0.046563
 **** Fit       0.049506
 **** Fit       0.039630
 **** Fit       0.040005
 **** Fit       0.041481
 **** Fit       0.043078
 **** Fit       0.043866
 **** Fit       0.043536
 **** Fit       0.042874
 **** Fit       0.043019
 **** Fit       0.044451
 **** Fit       0.047068
 **** Fit       0.050605
 **** Fit       0.035879
 **** Fit       0.037467
 **** Fit       0.039944
 **** Fit       0.042593
 **** Fit       0.041599
 **** Fit       0.040665
 **** Fit       0.041247
 **** Fit       0.043149
 **** Fit       0.046077
 **** Fit       0.049921
 **** Fit       0.032444
 **** Fit       0.035385
 **** Fit       0.039062
 **** Fit       0.037921
 **** Fit       0.038533
 **** Fit       0.040543
 **** Fit       0.043469
 **** Fit       0.047192
 **** Fit       0.033487
 **** Fit       0.038318
 **** Fit       0.035676
 **** Fit       0.037912
 **** Fit       0.040867
 **** Fit       0.044376
 **** Fit       0.048604
 **** Fit       0.028209
 **** Fit       0.033988
 **** Fit       0.033372
 **** Fit       0.036002
 **** Fit       0.039182
 **** Fit       0.042723
 **** Fit       0.046810
 **** Fit       0.035254
 **** Fit       0.038381
 **** Fit       0.041748
 **** Fit       0.045483
 **** Fit       0.037841
 **** Fit       0.040742
 **** Fit       0.043931
 **** Fit       0.042375
 **** Fit       0.047816
 -----------------------------------------------------------------
 Leave Link  602 at Wed Sep 18 11:31:29 2019, MaxMem=  1342177280 cpu:             131.0 elap:               2.8

 Test job not archived.
 1\1\GINC-C489-111\SP\RB3LYP\SVP\C54H83Ca1N15O23\PENGZHI\18-Sep-2019\0\
 \#b3lyp/svp scf=(tight,noincore) Test #IOP(5/87=12) Density=Current Po
 p=(MK,readradii) iop(6/33=2) iop(6/42=6)\\Ng-295_loop3_37.0\\0,1\C,0,8
 .558,73.162,67.75\C,0,7.828,72.002,67.1\O,0,6.598,71.952,67.2\H,0,9.48
 4,73.356,67.209\H,0,7.928,74.051,67.721\H,0,8.788,72.913,68.786\N,0,8.
 598,71.192,66.38\C,0,7.988,70.192,65.51\C,0,7.968,68.872,66.26\O,0,8.9
 88,68.522,66.85\C,0,8.878,70.052,64.29\C,0,8.048,69.242,63.3\O,0,7.168
 ,69.832,62.65\O,0,8.248,68.022,63.14\H,0,9.588,71.372,66.37\H,0,6.968,
 70.472,65.23\H,0,9.858,69.582,64.41\H,0,9.088,71.012,63.81\N,0,6.838,6
 8.162,66.24\C,0,6.668,67.012,67.11\C,0,6.578,65.622,66.49\O,0,6.718,64
 .602,67.16\C,0,5.428,67.252,67.97\C,0,5.668,68.352,69.\C,0,4.678,69.51
 2,68.96\C,0,4.938,70.772,69.78\N,0,5.368,70.422,71.14\H,0,6.078,68.552
 ,65.7\H,0,7.538,67.002,67.77\H,0,5.118,66.362,68.51\H,0,4.678,67.502,6
 7.22\H,0,6.718,68.602,68.91\H,0,5.638,67.832,69.96\H,0,3.728,69.172,69
 .37\H,0,4.418,69.842,67.96\H,0,4.008,71.322,69.93\H,0,5.688,71.382,69.
 29\H,0,4.688,69.842,71.62\H,0,6.228,69.882,71.16\H,0,5.538,71.232,71.7
 2\N,0,6.308,65.572,65.19\C,0,5.938,64.372,64.46\C,0,7.138,63.592,63.93
 \O,0,7.058,62.482,63.43\C,0,4.968,64.682,63.32\C,0,5.528,65.832,62.51\
 O,0,6.418,65.582,61.66\O,0,5.158,67.002,62.75\H,0,6.038,66.412,64.71\H
 ,0,5.288,63.772,65.1\H,0,4.038,65.062,63.74\H,0,4.728,63.882,62.61\N,0
 ,8.298,64.222,64.15\C,0,9.588,63.682,63.76\C,0,9.998,63.662,62.29\O,0,
 11.158,63.372,62.04\H,0,8.288,65.112,64.62\H,0,9.698,62.642,64.07\H,0,
 10.358,64.252,64.28\N,0,9.138,64.022,61.34\C,0,9.388,63.952,59.91\C,0,
 9.318,65.292,59.19\O,0,8.698,66.222,59.73\C,0,8.278,63.012,59.46\C,0,8
 .338,62.622,57.99\N,0,8.858,61.472,57.56\O,0,8.028,63.402,57.09\H,0,8.
 168,64.162,61.58\H,0,10.378,63.552,59.69\H,0,7.358,63.602,59.46\H,0,8.
 218,62.102,60.05\H,0,9.268,60.772,58.16\H,0,8.688,61.222,56.6\N,0,9.90
 8,65.412,58.01\C,0,9.948,66.612,57.19\C,0,9.678,66.372,55.7\O,0,9.978,
 67.342,55.01\H,0,10.408,64.602,57.67\H,0,10.908,67.082,57.36\H,0,9.198
 ,67.312,57.54\N,0,9.228,65.212,55.24\C,0,9.158,64.892,53.82\C,0,7.868,
 65.332,53.16\O,0,6.808,64.982,53.69\C,0,9.418,63.392,53.69\C,0,9.688,6
 2.872,52.3\C,0,8.618,62.582,51.44\C,0,11.028,62.652,51.96\C,0,8.838,62
 .162,50.13\C,0,11.248,62.182,50.66\C,0,10.188,61.902,49.78\O,0,10.568,
 61.332,48.6\H,0,9.048,64.492,55.92\H,0,9.988,65.432,53.38\H,0,8.588,62
 .842,54.15\H,0,10.328,63.232,54.27\H,0,7.658,62.832,51.88\H,0,11.838,6
 2.922,52.62\H,0,8.098,61.852,49.41\H,0,12.258,62.042,50.3\H,0,11.528,6
 1.242,48.66\N,0,7.918,66.132,52.09\C,0,6.838,66.642,51.26\C,0,6.168,65
 .632,50.35\O,0,6.028,64.482,50.77\C,0,5.908,67.612,51.98\C,0,6.688,68.
 532,52.91\C,0,4.718,66.932,52.64\C,0,7.858,69.322,52.33\H,0,8.838,66.4
 62,51.83\H,0,7.318,67.292,50.53\H,0,5.458,68.322,51.28\H,0,7.068,68.05
 2,53.81\H,0,5.918,69.182,53.34\H,0,4.958,66.762,53.69\H,0,3.848,67.582
 ,52.65\H,0,4.428,65.992,52.16\H,0,8.708,68.702,52.07\H,0,7.508,70.032,
 51.58\H,0,8.248,70.032,53.06\N,0,5.628,65.972,49.17\C,0,4.728,65.112,4
 8.42\C,0,4.808,65.402,46.92\O,0,3.988,64.852,46.18\C,0,3.308,65.082,48
 .98\O,0,2.788,66.262,49.55\H,0,5.738,66.932,48.91\H,0,5.138,64.122,48.
 56\H,0,3.308,64.372,49.8\H,0,2.568,64.662,48.29\H,0,1.878,66.072,49.81
 \N,0,5.668,66.302,46.43\C,0,5.908,66.692,45.06\C,0,4.558,66.972,44.4\O
 ,0,4.398,66.452,43.3\C,0,6.858,65.672,44.45\H,0,6.238,66.722,47.14\H,0
 ,6.418,67.652,45.1\H,0,7.028,65.902,43.4\H,0,7.778,65.752,45.02\H,0,6.
 478,64.652,44.49\N,0,3.588,67.732,44.9\C,0,3.538,68.502,46.13\C,0,3.24
 8,69.972,45.85\O,0,2.538,70.232,44.88\C,0,2.428,67.832,46.93\H,0,2.828
 ,67.902,44.25\H,0,4.508,68.432,46.62\H,0,1.428,68.202,46.71\H,0,2.508,
 66.752,46.78\H,0,2.708,68.052,47.96\N,0,3.458,70.942,46.74\C,0,4.278,7
 0.772,47.92\C,0,5.628,71.452,47.78\O,0,6.498,71.282,48.64\C,0,3.538,71
 .372,49.12\C,0,2.498,70.392,49.67\C,0,1.918,70.812,51.01\O,0,1.808,72.
 052,51.15\O,0,1.688,69.962,51.9\H,0,3.268,71.862,46.35\H,0,4.488,69.72
 2,48.12\H,0,3.018,72.222,48.69\H,0,4.198,71.782,49.88\H,0,2.908,69.392
 ,49.83\H,0,1.738,70.202,48.91\N,0,5.828,72.342,46.81\C,0,7.078,73.032,
 46.62\H,0,7.844,72.318,46.316\H,0,6.961,73.79,45.846\H,0,7.376,73.508,
 47.554\H,0,5.128,72.572,46.12\Ca,0,6.96,67.93,60.8\O,0,9.11,69.35,60.1
 3\H,0,9.22,70.28,60.29\H,0,9.65,69.17,59.36\\Version=ES64L-G16RevA.03\
 State=1-A\HF=-5333.3979441\RMSD=1.537e-10\Dipole=7.1424476,2.5793418,2
 2.7784956\Quadrupole=-121.2678647,-70.2730416,191.5409063,36.7818534,-
 153.6468965,160.8137095\PG=C01 [X(C54H83Ca1N15O23)]\\@


 Ideas are like rabbits. You get a couple and learn
 how to handle them, and pretty soon you have a dozen.
                                    -- John Steinbeck
 Job cpu time:       0 days 20 hours 38 minutes 45.1 seconds.
 Elapsed time:       0 days  0 hours 26 minutes  7.1 seconds.
 File lengths (MBytes):  RWF=   1517 Int=      0 D2E=      0 Chk=    171 Scr=      1
 Normal termination of Gaussian 16 at Wed Sep 18 11:31:30 2019.
