 Entering Gaussian System, Link 0=g16
 Initial command:
 /home1/apps/gaussian/16rA.03/g16/l1.exe "/scratch/01990/pengzhi/4353674/Gau-412855.inp" -scrdir="/scratch/01990/pengzhi/4353674/"
 Entering Link 1 = /home1/apps/gaussian/16rA.03/g16/l1.exe PID=    412856.
  
 Copyright (c) 1988,1990,1992,1993,1995,1998,2003,2009,2016,
            Gaussian, Inc.  All Rights Reserved.
  
 This is part of the Gaussian(R) 16 program.  It is based on
 the Gaussian(R) 09 system (copyright 2009, Gaussian, Inc.),
 the Gaussian(R) 03 system (copyright 2003, Gaussian, Inc.),
 the Gaussian(R) 98 system (copyright 1998, Gaussian, Inc.),
 the Gaussian(R) 94 system (copyright 1995, Gaussian, Inc.),
 the Gaussian 92(TM) system (copyright 1992, Gaussian, Inc.),
 the Gaussian 90(TM) system (copyright 1990, Gaussian, Inc.),
 the Gaussian 88(TM) system (copyright 1988, Gaussian, Inc.),
 the Gaussian 86(TM) system (copyright 1986, Carnegie Mellon
 University), and the Gaussian 82(TM) system (copyright 1983,
 Carnegie Mellon University). Gaussian is a federally registered
 trademark of Gaussian, Inc.
  
 This software contains proprietary and confidential information,
 including trade secrets, belonging to Gaussian, Inc.
  
 This software is provided under written license and may be
 used, copied, transmitted, or stored only in accord with that
 written license.
  
 The following legend is applicable only to US Government
 contracts under FAR:
  
                    RESTRICTED RIGHTS LEGEND
  
 Use, reproduction and disclosure by the US Government is
 subject to restrictions as set forth in subparagraphs (a)
 and (c) of the Commercial Computer Software - Restricted
 Rights clause in FAR 52.227-19.
  
 Gaussian, Inc.
 340 Quinnipiac St., Bldg. 40, Wallingford CT 06492
  
  
 ---------------------------------------------------------------
 Warning -- This program may not be used in any manner that
 competes with the business of Gaussian, Inc. or will provide
 assistance to any competitor of Gaussian, Inc.  The licensee
 of this program is prohibited from giving any competitor of
 Gaussian, Inc. access to this program.  By using this program,
 the user acknowledges that Gaussian, Inc. is engaged in the
 business of creating and licensing software in the field of
 computational chemistry and represents and warrants to the
 licensee that it is not a competitor of Gaussian, Inc. and that
 it will not use this program in any manner prohibited above.
 ---------------------------------------------------------------
  

 Cite this work as:
 Gaussian 16, Revision A.03,
 M. J. Frisch, G. W. Trucks, H. B. Schlegel, G. E. Scuseria, 
 M. A. Robb, J. R. Cheeseman, G. Scalmani, V. Barone, 
 G. A. Petersson, H. Nakatsuji, X. Li, M. Caricato, A. V. Marenich, 
 J. Bloino, B. G. Janesko, R. Gomperts, B. Mennucci, H. P. Hratchian, 
 J. V. Ortiz, A. F. Izmaylov, J. L. Sonnenberg, D. Williams-Young, 
 F. Ding, F. Lipparini, F. Egidi, J. Goings, B. Peng, A. Petrone, 
 T. Henderson, D. Ranasinghe, V. G. Zakrzewski, J. Gao, N. Rega, 
 G. Zheng, W. Liang, M. Hada, M. Ehara, K. Toyota, R. Fukuda, 
 J. Hasegawa, M. Ishida, T. Nakajima, Y. Honda, O. Kitao, H. Nakai, 
 T. Vreven, K. Throssell, J. A. Montgomery, Jr., J. E. Peralta, 
 F. Ogliaro, M. J. Bearpark, J. J. Heyd, E. N. Brothers, K. N. Kudin, 
 V. N. Staroverov, T. A. Keith, R. Kobayashi, J. Normand, 
 K. Raghavachari, A. P. Rendell, J. C. Burant, S. S. Iyengar, 
 J. Tomasi, M. Cossi, J. M. Millam, M. Klene, C. Adamo, R. Cammi, 
 J. W. Ochterski, R. L. Martin, K. Morokuma, O. Farkas, 
 J. B. Foresman, and D. J. Fox, Gaussian, Inc., Wallingford CT, 2016.
 
 ******************************************
 Gaussian 16:  ES64L-G16RevA.03 25-Dec-2016
                18-Sep-2019 
 ******************************************
 %chk=Ng-295_loop3_29.0.chk
 %nprocshared=48
 Will use up to   48 processors via shared memory.
 %mem=10GB
 %nosave
 ----------------------------------------------------------------------
 #b3lyp/svp scf=(tight,noincore) Test #IOP(5/87=12) Density=Current Pop
 =(MK,readradii) iop(6/33=2) iop(6/42=6)
 ----------------------------------------------------------------------
 1/30=1,38=1,172=1/1;
 2/12=2,17=6,18=5,40=1/2;
 3/5=18,7=101,11=2,25=1,30=1,74=-5/1,2,3;
 4//1;
 5/5=4,32=2,38=5,87=12/2;
 6/7=2,8=2,9=2,10=2,15=8,20=101,22=-1,28=1,33=2,42=6/1,2;
 99/5=1,9=1/99;
 -----------------
 Ng-295_loop3_29.0
 -----------------
 Symbolic Z-matrix:
 Charge =  0 Multiplicity = 1
 C                     99.511    77.781    29.77 
 C                     98.661    76.561    29.47 
 O                     97.591    76.401    30.04 
 H                     100.44    77.724    29.203 
 H                     98.967    78.682    29.486 
 H                     99.738    77.813    30.836 
 N                     99.081    75.621    28.62 
 C                     98.431    74.361    28.32 
 C                     99.361    73.271    27.79 
 O                     100.261   73.551    27.01 
 C                     97.251    74.641    27.39 
 C                     96.231    73.511    27.4 
 O                     96.471    72.381    26.93 
 O                     95.131    73.731    27.94 
 H                     100.001   75.681    28.21 
 H                     98.031    73.921    29.23 
 H                     97.501    74.841    26.35 
 H                     96.751    75.551    27.7 
 N                     99.101    72.011    28.14 
 C                     99.881    70.881    27.68 
 C                     99.571    70.401    26.26 
 O                     100.451   69.881    25.58 
 C                     99.571    69.741    28.65 
 C                     98.101    69.311    28.66 
 C                     97.801    68.331    29.79 
 C                     97.561    69.131    31.06 
 N                     97.511    68.221    32.22 
 H                     98.331    71.791    28.76 
 H                     100.951   71.071    27.7 
 H                     99.971    70.091    29.6 
 H                     100.131   68.841    28.39 
 H                     97.961    68.681    27.78 
 H                     97.411    70.151    28.63 
 H                     98.661    67.671    29.92 
 H                     96.981    67.631    29.59 
 H                     96.571    69.541    30.92 
 H                     98.311    69.911    31.21 
 H                     97.191    68.721    33.03 
 H                     96.901    67.431    32.11 
 H                     98.401    67.831    32.51 
 N                     98.351    70.591    25.75 
 C                     97.881    70.261    24.43 
 C                     97.521    71.441    23.53 
 O                     97.371    71.351    22.32 
 C                     96.751    69.271    24.66 
 C                     95.761    69.881    25.64 
 O                     94.931    70.701    25.19 
 O                     95.511    69.341    26.73 
 H                     97.751    71.081    26.41 
 H                     98.661    69.761    23.86 
 H                     97.271    68.401    25.06 
 H                     96.271    68.991    23.71 
 N                     97.361    72.641    24.1 
 C                     96.851    73.821    23.44 
 C                     95.391    73.881    23.03 
 O                     94.971    74.791    22.32 
 H                     97.431    72.601    25.11 
 H                     97.331    73.901    22.46 
 H                     97.061    74.711    24.04 
 N                     94.551    72.951    23.49 
 C                     93.101    73.011    23.41 
 C                     92.601    73.591    24.73 
 O                     92.821    72.961    25.77 
 C                     92.461    71.631    23.26 
 C                     90.971    71.671    22.95 
 N                     90.351    70.581    22.5 
 O                     90.211    72.621    23.1 
 H                     94.871    72.231    24.12 
 H                     92.861    73.651    22.57 
 H                     92.551    71.021    24.16 
 H                     92.991    71.101    22.48 
 H                     90.871    69.721    22.41 
 H                     89.351    70.631    22.39 
 N                     91.751    74.621    24.68 
 C                     91.091    75.221    25.82 
 C                     89.821    74.621    26.41 
 O                     89.301    75.211    27.36 
 H                     91.491    74.941    23.76 
 H                     90.871    76.231    25.51 
 H                     91.811    75.241    26.65 
 N                     89.351    73.501    25.86 
 C                     88.151    72.871    26.37 
 C                     88.161    72.471    27.83 
 O                     89.211    72.101    28.34 
 C                     87.811    71.711    25.44 
 C                     86.521    70.981    25.72 
 C                     86.461    70.121    26.82 
 C                     85.481    71.051    24.79 
 C                     85.321    69.341    27.03 
 C                     84.301    70.321    25. 
 C                     84.241    69.491    26.14 
 O                     83.181    68.661    26.35 
 H                     89.861    73.051    25.11 
 H                     87.331    73.581    26.23 
 H                     88.621    70.981    25.44 
 H                     87.671    72.091    24.43 
 H                     87.291    70.001    27.51 
 H                     85.551    71.731    23.95 
 H                     85.211    68.681    27.88 
 H                     83.451    70.351    24.34 
 H                     82.461    68.861    25.75 
 N                     87.001    72.681    28.47 
 C                     86.631    72.391    29.84 
 C                     86.481    70.931    30.25 
 O                     87.331    70.121    29.88 
 C                     87.551    73.141    30.8 
 C                     87.351    72.961    32.3 
 C                     87.611    74.621    30.42 
 C                     85.971    73.421    32.76 
 H                     86.261    73.011    27.87 
 H                     85.631    72.811    29.92 
 H                     88.581    72.851    30.61 
 H                     88.061    73.631    32.79 
 H                     87.491    71.931    32.62 
 H                     88.221    74.761    29.53 
 H                     86.601    75.011    30.35 
 H                     88.091    75.251    31.17 
 H                     85.751    74.381    32.28 
 H                     85.161    72.721    32.59 
 H                     86.041    73.521    33.84 
 N                     85.461    70.581    31.04 
 C                     85.351    69.321    31.76 
 C                     83.941    68.761    31.74 
 O                     83.851    67.541    31.88 
 C                     85.891    69.551    33.17 
 O                     85.141    70.471    33.93 
 H                     84.791    71.311    31.22 
 H                     86.091    68.661    31.31 
 H                     86.951    69.741    32.98 
 H                     85.831    68.611    33.71 
 H                     85.451    70.401    34.84 
 N                     82.891    69.561    31.53 
 C                     81.561    69.011    31.3 
 C                     80.981    68.131    32.4 
 O                     80.291    67.171    32.09 
 C                     81.441    68.371    29.92 
 H                     83.031    70.521    31.29 
 H                     80.801    69.791    31.25 
 H                     81.901    67.381    29.81 
 H                     80.371    68.291    29.77 
 H                     81.971    69.071    29.27 
 N                     80.941    68.461    33.69 
 C                     81.711    69.461    34.4 
 C                     80.811    70.401    35.2 
 O                     79.711    70.041    35.6 
 C                     82.661    68.681    35.3 
 H                     80.461    67.781    34.27 
 H                     82.301    70.091    33.73 
 H                     83.461    68.251    34.68 
 H                     83.121    69.331    36.04 
 H                     82.101    67.921    35.84 
 N                     81.211    71.641    35.45 
 C                     82.451    72.361    35.2 
 C                     82.201    73.821    34.82 
 O                     82.971    74.431    34.08 
 C                     83.361    72.321    36.43 
 C                     82.781    72.951    37.69 
 C                     83.791    72.911    38.83 
 O                     83.871    71.891    39.55 
 O                     84.521    73.881    39.13 
 H                     80.601    72.181    36.05 
 H                     83.091    71.911    34.45 
 H                     84.221    72.911    36.12 
 H                     83.561    71.271    36.62 
 H                     81.871    72.411    37.94 
 H                     82.611    74.011    37.48 
 N                     81.071    74.381    35.25 
 C                     80.661    75.731    34.9 
 H                     79.729    75.971    35.412 
 H                     81.434    76.436    35.204 
 H                     80.51     75.798    33.823 
 H                     80.451    73.851    35.84 
 Ca                    94.06     71.45     27.5 
 O                     91.89     70.17     26.58 
 H                     91.08     69.77     26.91 
 H                     92.01     69.78     25.72 
 
 Stoichiometry    C54H83CaN15O23
 Framework group  C1[X(C54H83CaN15O23)]
 Deg. of freedom   522
 Full point group                 C1      NOp   1
 Largest Abelian subgroup         C1      NOp   1
 Largest concise Abelian subgroup C1      NOp   1
                         Standard orientation:                         
 ---------------------------------------------------------------------
 Center     Atomic      Atomic             Coordinates (Angstroms)
 Number     Number       Type             X           Y           Z
 ---------------------------------------------------------------------
      1          6           0        8.396760    5.958085   -4.322050
      2          6           0        7.688803    5.081224   -3.306762
      3          8           0        6.467908    5.082470   -3.237371
      4          1           0        9.474952    5.854773   -4.201184
      5          1           0        8.113135    5.650573   -5.328721
      6          1           0        8.112200    6.998895   -4.165051
      7          7           0        8.378830    4.331830   -2.443760
      8          6           0        7.845004    3.534320   -1.357893
      9          6           0        8.828922    3.258512   -0.222228
     10          8           0       10.004464    3.022653   -0.465688
     11          6           0        7.246752    2.258870   -1.950365
     12          6           0        6.253092    1.597702   -1.005434
     13          8           0        6.595307    1.065384    0.069241
     14          8           0        5.048132    1.635088   -1.316359
     15          1           0        9.386027    4.385612   -2.416170
     16          1           0        7.040729    4.070696   -0.860758
     17          1           0        7.959504    1.495227   -2.255216
     18          1           0        6.730825    2.493557   -2.873913
     19          7           0        8.342961    3.201586    1.018054
     20          6           0        9.158932    2.913766    2.179197
     21          6           0        9.498124    1.437030    2.396220
     22          8           0       10.549590    1.121115    2.945601
     23          6           0        8.353904    3.402890    3.383061
     24          6           0        7.014637    2.684471    3.573156
     25          6           0        6.157328    3.350165    4.645151
     26          6           0        5.423850    4.518823    4.007381
     27          7           0        4.779557    5.333890    5.054640
     28          1           0        7.360372    3.365732    1.200468
     29          1           0       10.111970    3.436177    2.164908
     30          1           0        8.299776    4.480665    3.239988
     31          1           0        8.900845    3.240255    4.313441
     32          1           0        7.245823    1.725939    4.040777
     33          1           0        6.480773    2.523968    2.639439
     34          1           0        6.809623    3.708413    5.444068
     35          1           0        5.469534    2.677539    5.171377
     36          1           0        4.642049    4.045343    3.430837
     37          1           0        6.078587    5.132927    3.384810
     38          1           0        4.163107    6.004351    4.631588
     39          1           0        4.229761    4.814009    5.714753
     40          1           0        5.405616    5.899311    5.617356
     41          7           0        8.665332    0.494750    1.945480
     42          6           0        8.828370   -0.934260    2.005050
     43          6           0        9.010890   -1.646482    0.666608
     44          8           0        9.425195   -2.791564    0.557803
     45          6           0        7.647147   -1.422571    2.827341
     46          6           0        6.367705   -0.873546    2.215622
     47          8           0        5.900609   -1.467666    1.219308
     48          8           0        5.606317   -0.133635    2.859842
     49          1           0        7.868777    0.909378    1.466645
     50          1           0        9.742407   -1.193331    2.534879
     51          1           0        7.858750   -1.017588    3.816539
     52          1           0        7.635711   -2.521350    2.889419
     53          7           0        8.699055   -0.977578   -0.449559
     54          6           0        8.638821   -1.544692   -1.777284
     55          6           0        7.537808   -2.529842   -2.124486
     56          8           0        7.559745   -3.155227   -3.181374
     57          1           0        8.295610   -0.068756   -0.254944
     58          1           0        9.518750   -2.179148   -1.920078
     59          1           0        8.617525   -0.749590   -2.527989
     60          7           0        6.512707   -2.677818   -1.282245
     61          6           0        5.269464   -3.369046   -1.580658
     62          6           0        4.266127   -2.313757   -2.037255
     63          8           0        3.937143   -1.430447   -1.238235
     64          6           0        4.666733   -4.054435   -0.354502
     65          6           0        3.491847   -4.968913   -0.672579
     66          7           0        3.066144   -5.851142    0.230443
     67          8           0        2.821895   -4.980161   -1.699048
     68          1           0        6.453204   -2.128502   -0.438200
     69          1           0        5.489920   -4.083610   -2.363983
     70          1           0        4.288207   -3.346738    0.384473
     71          1           0        5.453194   -4.612866    0.135225
     72          1           0        3.502849   -5.874118    1.139762
     73          1           0        2.234491   -6.374245    0.008373
     74          7           0        3.614079   -2.523875   -3.184680
     75          6           0        2.552940   -1.692393   -3.711768
     76          6           0        1.112411   -1.848391   -3.241086
     77          8           0        0.261518   -1.124499   -3.763542
     78          1           0        3.829216   -3.380992   -3.669927
     79          1           0        2.576472   -1.859611   -4.777641
     80          1           0        2.812222   -0.645839   -3.499174
     81          7           0        0.863091   -2.758850   -2.299437
     82          6           0       -0.481075   -2.960452   -1.799864
     83          6           0       -1.170956   -1.754553   -1.198556
     84          8           0       -0.502380   -0.922273   -0.598709
     85          6           0       -0.444289   -4.155545   -0.853028
     86          6           0       -1.770446   -4.618131   -0.302825
     87          6           0       -2.392341   -3.850133    0.685419
     88          6           0       -2.260586   -5.874223   -0.668059
     89          6           0       -3.557364   -4.318602    1.298083
     90          6           0       -3.457256   -6.350211   -0.110550
     91          6           0       -4.095193   -5.541151    0.854105
     92          8           0       -5.193138   -5.984640    1.528222
     93          1           0        1.624159   -3.283782   -1.886735
     94          1           0       -1.089574   -3.300072   -2.642768
     95          1           0        0.217935   -3.947110   -0.012187
     96          1           0       -0.077107   -5.027320   -1.390881
     97          1           0       -1.982123   -2.906240    1.032099
     98          1           0       -1.762502   -6.445510   -1.441650
     99          1           0       -4.093945   -3.752025    2.047263
    100          1           0       -3.905740   -7.294407   -0.368148
    101          1           0       -5.541066   -6.785638    1.133572
    102          7           0       -2.475606   -1.657603   -1.494851
    103          6           0       -3.452556   -0.674681   -1.073743
    104          6           0       -3.883694   -0.670710    0.387868
    105          8           0       -3.022693   -0.785375    1.260238
    106          6           0       -3.020357    0.718397   -1.524338
    107          6           0       -3.897912    1.911468   -1.165340
    108          6           0       -2.681163    0.705438   -3.015371
    109          6           0       -5.296096    1.804151   -1.766309
    110          1           0       -2.831406   -2.441483   -2.019674
    111          1           0       -4.343184   -0.957501   -1.630156
    112          1           0       -2.042949    0.943642   -1.105963
    113          1           0       -3.442603    2.784570   -1.638084
    114          1           0       -3.998401    2.048562   -0.091093
    115          1           0       -1.722743    0.218631   -3.183443
    116          1           0       -3.514244    0.280672   -3.565508
    117          1           0       -2.551657    1.698322   -3.448050
    118          1           0       -5.198517    1.477826   -2.807650
    119          1           0       -5.988767    1.162214   -1.234216
    120          1           0       -5.720989    2.802232   -1.698474
    121          7           0       -5.175410   -0.492379    0.682259
    122          6           0       -5.697903   -0.159171    1.999101
    123          6           0       -6.980131   -0.903571    2.321376
    124          8           0       -7.216329   -1.062597    3.519299
    125          6           0       -5.847712    1.359482    2.061143
    126          8           0       -6.790363    1.881875    1.152839
    127          1           0       -5.796034   -0.481760   -0.110782
    128          1           0       -4.886354   -0.362224    2.696137
    129          1           0       -4.807385    1.693264    2.015233
    130          1           0       -6.219273    1.620204    3.047432
    131          1           0       -6.937702    2.801754    1.400253
    132          7           0       -7.753500   -1.387117    1.344297
    133          6           0       -8.867960   -2.278869    1.639353
    134          6           0       -9.951986   -1.741842    2.565252
    135          8           0      -10.493950   -2.505936    3.350258
    136          6           0       -8.390893   -3.669381    2.048356
    137          1           0       -7.446914   -1.345706    0.393987
    138          1           0       -9.459216   -2.499408    0.750377
    139          1           0       -8.008024   -3.761947    3.072389
    140          1           0       -9.276083   -4.283988    1.936563
    141          1           0       -7.570816   -3.869175    1.354847
    142          7           0      -10.553048   -0.561783    2.421078
    143          6           0      -10.120329    0.596164    1.666816
    144          6           0      -11.212649    1.092153    0.721071
    145          8           0      -12.397428    0.891371    0.956835
    146          6           0       -9.749937    1.645471    2.707327
    147          1           0      -11.295272   -0.397607    3.092904
    148          1           0       -9.243247    0.391094    1.048290
    149          1           0       -8.789992    1.365177    3.164755
    150          1           0       -9.632054    2.624826    2.250526
    151          1           0      -10.550769    1.723721    3.439000
    152          7           0      -10.878896    1.732683   -0.391777
    153          6           0       -9.611522    2.197777   -0.935790
    154          6           0       -9.548441    2.045518   -2.456098
    155          8           0       -8.481380    1.853625   -3.036751
    156          6           0       -9.371617    3.666319   -0.577418
    157          6           0      -10.414561    4.643981   -1.104052
    158          6           0      -10.044871    6.077205   -0.742810
    159          8           0      -10.380888    6.541074    0.369448
    160          8           0       -9.462139    6.851975   -1.532719
    161          1           0      -11.653053    2.100240   -0.929627
    162          1           0       -8.735300    1.729593   -0.502616
    163          1           0       -8.423221    3.887037   -1.062833
    164          1           0       -9.360953    3.711559    0.507220
    165          1           0      -11.375991    4.358731   -0.683951
    166          1           0      -10.388738    4.596275   -2.196599
    167          7           0      -10.703867    2.040893   -3.119701
    168          6           0      -10.804579    1.823242   -4.553432
    169          1           0      -11.846390    1.913372   -4.861449
    170          1           0      -10.205656    2.567600   -5.077065
    171          1           0      -10.440165    0.825641   -4.796770
    172          1           0      -11.563324    2.182556   -2.615056
    173         20           0        4.128171    0.327945    0.680803
    174          8           0        2.530274   -1.681076    1.458141
    175          1           0        1.631398   -1.824641    1.768642
    176          1           0        3.000784   -2.460842    1.735062
 ---------------------------------------------------------------------
 Rotational constants (GHZ):           0.0259315           0.0068337           0.0062784
 Standard basis: SVP (5D, 7F)
 There are  1809 symmetry adapted cartesian basis functions of A   symmetry.
 There are  1717 symmetry adapted basis functions of A   symmetry.
  1717 basis functions,  2922 primitive gaussians,  1809 cartesian basis functions
   358 alpha electrons      358 beta electrons
       nuclear repulsion energy     19064.5139441457 Hartrees.
 NAtoms=  176 NActive=  176 NUniq=  176 SFac= 1.00D+00 NAtFMM=   60 NAOKFM=T Big=T
 Integral buffers will be    131072 words long.
 Raffenetti 2 integral format.
 Two-electron integral symmetry is turned on.
 One-electron integrals computed using PRISM.
 NBasis=  1717 RedAO= T EigKep=  2.75D-04  NBF=  1717
 NBsUse=  1717 1.00D-06 EigRej= -1.00D+00 NBFU=  1717
 ExpMin= 1.98D-02 ExpMax= 3.51D+04 ExpMxC= 5.28D+03 IAcc=3 IRadAn=         5 AccDes= 0.00D+00
 Harris functional with IExCor=  402 and IRadAn=       5 diagonalized for initial guess.
 HarFok:  IExCor=  402 AccDes= 0.00D+00 IRadAn=         5 IDoV= 1 UseB2=F ITyADJ=14
 ICtDFT=  3500011 ScaDFX=  1.000000  1.000000  1.000000  1.000000
 FoFCou: FMM=F IPFlag=           0 FMFlag=      100000 FMFlg1=        2001
         NFxFlg=           0 DoJE=T BraDBF=F KetDBF=T FulRan=T
         wScrn=  0.000000 ICntrl=       500 IOpCl=  0 I1Cent=   200000004 NGrid=           0
         NMat0=    1 NMatS0=      1 NMatT0=    0 NMatD0=    1 NMtDS0=    0 NMtDT0=    0
 Petite list used in FoFCou.
 Requested convergence on RMS density matrix=1.00D-08 within 128 cycles.
 Requested convergence on MAX density matrix=1.00D-06.
 Requested convergence on             energy=1.00D-06.
 No special actions if energy rises.
 EnCoef did     4 forward-backward iterations
 EnCoef did     4 forward-backward iterations
 EnCoef did     2 forward-backward iterations
 EnCoef did     2 forward-backward iterations
 EnCoef did     3 forward-backward iterations
 EnCoef did    34 forward-backward iterations
 EnCoef did    39 forward-backward iterations
 EnCoef did    82 forward-backward iterations
 EnCoef did   100 forward-backward iterations
 EnCoef did   100 forward-backward iterations
 EnCoef did   100 forward-backward iterations
 EnCoef did    17 forward-backward iterations
 Rare condition: small coef for last iteration: -0.179D-14
 EnCoef did   100 forward-backward iterations
 EnCoef did   100 forward-backward iterations
 Restarting incremental Fock formation.
 EnCoef did    77 forward-backward iterations
 Rare condition: small coef for last iteration:  0.333D-15
 EnCoef did   100 forward-backward iterations
 Rare condition: small coef for last iteration:  0.000D+00
 EnCoef did    25 forward-backward iterations
 Rare condition: small coef for last iteration: -0.888D-15
 EnCoef did   100 forward-backward iterations
 SCF Done:  E(RB3LYP) =  -5333.41324101     A.U. after   35 cycles
            NFock= 35  Conv=0.11D-08     -V/T= 2.0080
 SCF density gives NOpUse=  1 NOpAll=  1.
 Hyperfine terms turned off by default for NAtoms > 100.

 **********************************************************************

            Population analysis using the SCF density.

 **********************************************************************

 Orbital symmetries:
 BldTbl:  Degeneracy threshold= 1.00D-02
       Occupied  (A) (A) (A) (A) (A) (A) (A) (A) (A) (A) (A) (A)
                 (A) (A) (A) (A) (A) (A) (A) (A) (A) (A) (A) (A)
                 (A) (A) (A) (A) (A) (A) (A) (A) (A) (A) (A) (A)
                 (A) (A) (A) (A) (A) (A) (A) (A) (A) (A) (A) (A)
                 (A) (A) (A) (A) (A) (A) (A) (A) (A) (A) (A) (A)
                 (A) (A) (A) (A) (A) (A) (A) (A) (A) (A) (A) (A)
                 (A) (A) (A) (A) (A) (A) (A) (A) (A) (A) (A) (A)
                 (A) (A) (A) (A) (A) (A) (A) (A) (A) (A) (A) (A)
                 (A) (A) (A) (A) (A) (A) (A) (A) (A) (A) (A) (A)
                 (A) (A) (A) (A) (A) (A) (A) (A) (A) (A) (A) (A)
                 (A) (A) (A) (A) (A) (A) (A) (A) (A) (A) (A) (A)
                 (A) (A) (A) (A) (A) (A) (A) (A) (A) (A) (A) (A)
                 (A) (A) (A) (A) (A) (A) (A) (A) (A) (A) (A) (A)
                 (A) (A) (A) (A) (A) (A) (A) (A) (A) (A) (A) (A)
                 (A) (A) (A) (A) (A) (A) (A) (A) (A) (A) (A) (A)
                 (A) (A) (A) (A) (A) (A) (A) (A) (A) (A) (A) (A)
                 (A) (A) (A) (A) (A) (A) (A) (A) (A) (A) (A) (A)
                 (A) (A) (A) (A) (A) (A) (A) (A) (A) (A) (A) (A)
                 (A) (A) (A) (A) (A) (A) (A) (A) (A) (A) (A) (A)
                 (A) (A) (A) (A) (A) (A) (A) (A) (A) (A) (A) (A)
                 (A) (A) (A) (A) (A) (A) (A) (A) (A) (A) (A) (A)
                 (A) (A) (A) (A) (A) (A) (A) (A) (A) (A) (A) (A)
                 (A) (A) (A) (A) (A) (A) (A) (A) (A) (A) (A) (A)
                 (A) (A) (A) (A) (A) (A) (A) (A) (A) (A) (A) (A)
                 (A) (A) (A) (A) (A) (A) (A) (A) (A) (A) (A) (A)
                 (A) (A) (A) (A) (A) (A) (A) (A) (A) (A) (A) (A)
                 (A) (A) (A) (A) (A) (A) (A) (A) (A) (A) (A) (A)
                 (A) (A) (A) (A) (A) (A) (A) (A) (A) (A) (A) (A)
                 (A) (A) (A) (A) (A) (A) (A) (A) (A) (A) (A) (A)
                 (A) (A) (A) (A) (A) (A) (A) (A) (A) (A)
       Virtual   (A) (A) (A) (A) (A) (A) (A) (A) (A) (A) (A) (A)
                 (A) (A) (A) (A) (A) (A) (A) (A) (A) (A) (A) (A)
                 (A) (A) (A) (A) (A) (A) (A) (A) (A) (A) (A) (A)
                 (A) (A) (A) (A) (A) (A) (A) (A) (A) (A) (A) (A)
                 (A) (A) (A) (A) (A) (A) (A) (A) (A) (A) (A) (A)
                 (A) (A) (A) (A) (A) (A) (A) (A) (A) (A) (A) (A)
                 (A) (A) (A) (A) (A) (A) (A) (A) (A) (A) (A) (A)
                 (A) (A) (A) (A) (A) (A) (A) (A) (A) (A) (A) (A)
                 (A) (A) (A) (A) (A) (A) (A) (A) (A) (A) (A) (A)
                 (A) (A) (A) (A) (A) (A) (A) (A) (A) (A) (A) (A)
                 (A) (A) (A) (A) (A) (A) (A) (A) (A) (A) (A) (A)
                 (A) (A) (A) (A) (A) (A) (A) (A) (A) (A) (A) (A)
                 (A) (A) (A) (A) (A) (A) (A) (A) (A) (A) (A) (A)
                 (A) (A) (A) (A) (A) (A) (A) (A) (A) (A) (A) (A)
                 (A) (A) (A) (A) (A) (A) (A) (A) (A) (A) (A) (A)
                 (A) (A) (A) (A) (A) (A) (A) (A) (A) (A) (A) (A)
                 (A) (A) (A) (A) (A) (A) (A) (A) (A) (A) (A) (A)
                 (A) (A) (A) (A) (A) (A) (A) (A) (A) (A) (A) (A)
                 (A) (A) (A) (A) (A) (A) (A) (A) (A) (A) (A) (A)
                 (A) (A) (A) (A) (A) (A) (A) (A) (A) (A) (A) (A)
                 (A) (A) (A) (A) (A) (A) (A) (A) (A) (A) (A) (A)
                 (A) (A) (A) (A) (A) (A) (A) (A) (A) (A) (A) (A)
                 (A) (A) (A) (A) (A) (A) (A) (A) (A) (A) (A) (A)
                 (A) (A) (A) (A) (A) (A) (A) (A) (A) (A) (A) (A)
                 (A) (A) (A) (A) (A) (A) (A) (A) (A) (A) (A) (A)
                 (A) (A) (A) (A) (A) (A) (A) (A) (A) (A) (A) (A)
                 (A) (A) (A) (A) (A) (A) (A) (A) (A) (A) (A) (A)
                 (A) (A) (A) (A) (A) (A) (A) (A) (A) (A) (A) (A)
                 (A) (A) (A) (A) (A) (A) (A) (A) (A) (A) (A) (A)
                 (A) (A) (A) (A) (A) (A) (A) (A) (A) (A) (A) (A)
                 (A) (A) (A) (A) (A) (A) (A) (A) (A) (A) (A) (A)
                 (A) (A) (A) (A) (A) (A) (A) (A) (A) (A) (A) (A)
                 (A) (A) (A) (A) (A) (A) (A) (A) (A) (A) (A) (A)
                 (A) (A) (A) (A) (A) (A) (A) (A) (A) (A) (A) (A)
                 (A) (A) (A) (A) (A) (A) (A) (A) (A) (A) (A) (A)
                 (A) (A) (A) (A) (A) (A) (A) (A) (A) (A) (A) (A)
                 (A) (A) (A) (A) (A) (A) (A) (A) (A) (A) (A) (A)
                 (A) (A) (A) (A) (A) (A) (A) (A) (A) (A) (A) (A)
                 (A) (A) (A) (A) (A) (A) (A) (A) (A) (A) (A) (A)
                 (A) (A) (A) (A) (A) (A) (A) (A) (A) (A) (A) (A)
                 (A) (A) (A) (A) (A) (A) (A) (A) (A) (A) (A) (A)
                 (A) (A) (A) (A) (A) (A) (A) (A) (A) (A) (A) (A)
                 (A) (A) (A) (A) (A) (A) (A) (A) (A) (A) (A) (A)
                 (A) (A) (A) (A) (A) (A) (A) (A) (A) (A) (A) (A)
                 (A) (A) (A) (A) (A) (A) (A) (A) (A) (A) (A) (A)
                 (A) (A) (A) (A) (A) (A) (A) (A) (A) (A) (A) (A)
                 (A) (A) (A) (A) (A) (A) (A) (A) (A) (A) (A) (A)
                 (A) (A) (A) (A) (A) (A) (A) (A) (A) (A) (A) (A)
                 (A) (A) (A) (A) (A) (A) (A) (A) (A) (A) (A) (A)
                 (A) (A) (A) (A) (A) (A) (A) (A) (A) (A) (A) (A)
                 (A) (A) (A) (A) (A) (A) (A) (A) (A) (A) (A) (A)
                 (A) (A) (A) (A) (A) (A) (A) (A) (A) (A) (A) (A)
                 (A) (A) (A) (A) (A) (A) (A) (A) (A) (A) (A) (A)
                 (A) (A) (A) (A) (A) (A) (A) (A) (A) (A) (A) (A)
                 (A) (A) (A) (A) (A) (A) (A) (A) (A) (A) (A) (A)
                 (A) (A) (A) (A) (A) (A) (A) (A) (A) (A) (A) (A)
                 (A) (A) (A) (A) (A) (A) (A) (A) (A) (A) (A) (A)
                 (A) (A) (A) (A) (A) (A) (A) (A) (A) (A) (A) (A)
                 (A) (A) (A) (A) (A) (A) (A) (A) (A) (A) (A) (A)
                 (A) (A) (A) (A) (A) (A) (A) (A) (A) (A) (A) (A)
                 (A) (A) (A) (A) (A) (A) (A) (A) (A) (A) (A) (A)
                 (A) (A) (A) (A) (A) (A) (A) (A) (A) (A) (A) (A)
                 (A) (A) (A) (A) (A) (A) (A) (A) (A) (A) (A) (A)
                 (A) (A) (A) (A) (A) (A) (A) (A) (A) (A) (A) (A)
                 (A) (A) (A) (A) (A) (A) (A) (A) (A) (A) (A) (A)
                 (A) (A) (A) (A) (A) (A) (A) (A) (A) (A) (A) (A)
                 (A) (A) (A) (A) (A) (A) (A) (A) (A) (A) (A) (A)
                 (A) (A) (A) (A) (A) (A) (A) (A) (A) (A) (A) (A)
                 (A) (A) (A) (A) (A) (A) (A) (A) (A) (A) (A) (A)
                 (A) (A) (A) (A) (A) (A) (A) (A) (A) (A) (A) (A)
                 (A) (A) (A) (A) (A) (A) (A) (A) (A) (A) (A) (A)
                 (A) (A) (A) (A) (A) (A) (A) (A) (A) (A) (A) (A)
                 (A) (A) (A) (A) (A) (A) (A) (A) (A) (A) (A) (A)
                 (A) (A) (A) (A) (A) (A) (A) (A) (A) (A) (A) (A)
                 (A) (A) (A) (A) (A) (A) (A) (A) (A) (A) (A) (A)
                 (A) (A) (A) (A) (A) (A) (A) (A) (A) (A) (A) (A)
                 (A) (A) (A) (A) (A) (A) (A) (A) (A) (A) (A) (A)
                 (A) (A) (A) (A) (A) (A) (A) (A) (A) (A) (A) (A)
                 (A) (A) (A) (A) (A) (A) (A) (A) (A) (A) (A) (A)
                 (A) (A) (A) (A) (A) (A) (A) (A) (A) (A) (A) (A)
                 (A) (A) (A) (A) (A) (A) (A) (A) (A) (A) (A) (A)
                 (A) (A) (A) (A) (A) (A) (A) (A) (A) (A) (A) (A)
                 (A) (A) (A) (A) (A) (A) (A) (A) (A) (A) (A) (A)
                 (A) (A) (A) (A) (A) (A) (A) (A) (A) (A) (A) (A)
                 (A) (A) (A) (A) (A) (A) (A) (A) (A) (A) (A) (A)
                 (A) (A) (A) (A) (A) (A) (A) (A) (A) (A) (A) (A)
                 (A) (A) (A) (A) (A) (A) (A) (A) (A) (A) (A) (A)
                 (A) (A) (A) (A) (A) (A) (A) (A) (A) (A) (A) (A)
                 (A) (A) (A) (A) (A) (A) (A) (A) (A) (A) (A) (A)
                 (A) (A) (A) (A) (A) (A) (A) (A) (A) (A) (A) (A)
                 (A) (A) (A) (A) (A) (A) (A) (A) (A) (A) (A) (A)
                 (A) (A) (A) (A) (A) (A) (A) (A) (A) (A) (A) (A)
                 (A) (A) (A) (A) (A) (A) (A) (A) (A) (A) (A) (A)
                 (A) (A) (A) (A) (A) (A) (A) (A) (A) (A) (A) (A)
                 (A) (A) (A) (A) (A) (A) (A) (A) (A) (A) (A) (A)
                 (A) (A) (A) (A) (A) (A) (A) (A) (A) (A) (A) (A)
                 (A) (A) (A) (A) (A) (A) (A) (A) (A) (A) (A) (A)
                 (A) (A) (A) (A) (A) (A) (A) (A) (A) (A) (A) (A)
                 (A) (A) (A) (A) (A) (A) (A) (A) (A) (A) (A) (A)
                 (A) (A) (A) (A) (A) (A) (A) (A) (A) (A) (A) (A)
                 (A) (A) (A) (A) (A) (A) (A) (A) (A) (A) (A) (A)
                 (A) (A) (A) (A) (A) (A) (A) (A) (A) (A) (A) (A)
                 (A) (A) (A) (A) (A) (A) (A) (A) (A) (A) (A) (A)
                 (A) (A) (A) (A) (A) (A) (A) (A) (A) (A) (A) (A)
                 (A) (A) (A) (A) (A) (A) (A) (A) (A) (A) (A) (A)
                 (A) (A) (A) (A) (A) (A) (A) (A) (A) (A) (A) (A)
                 (A) (A) (A) (A) (A) (A) (A) (A) (A) (A) (A) (A)
                 (A) (A) (A) (A) (A) (A) (A) (A) (A) (A) (A) (A)
                 (A) (A) (A) (A) (A) (A) (A) (A) (A) (A) (A) (A)
                 (A) (A) (A) (A) (A) (A) (A) (A) (A) (A) (A) (A)
                 (A) (A) (A) (A) (A) (A) (A) (A) (A) (A) (A) (A)
                 (A) (A) (A) (A) (A) (A) (A) (A) (A) (A) (A) (A)
                 (A) (A) (A) (A) (A) (A) (A) (A) (A) (A) (A) (A)
                 (A) (A) (A)
 The electronic state is 1-A.
 Alpha  occ. eigenvalues -- -145.45779 -19.22248 -19.17437 -19.15826 -19.14817
 Alpha  occ. eigenvalues --  -19.13848 -19.13300 -19.13072 -19.12025 -19.11896
 Alpha  occ. eigenvalues --  -19.11379 -19.10744 -19.10709 -19.10641 -19.10545
 Alpha  occ. eigenvalues --  -19.10457 -19.09777 -19.09305 -19.09250 -19.07995
 Alpha  occ. eigenvalues --  -19.07173 -19.06488 -18.98554 -18.98427 -15.51646
 Alpha  occ. eigenvalues --  -14.57171 -14.40017 -14.39329 -14.39211 -14.37517
 Alpha  occ. eigenvalues --  -14.37367 -14.37162 -14.36910 -14.36638 -14.36317
 Alpha  occ. eigenvalues --  -14.35049 -14.35030 -14.34571 -14.34086 -14.32862
 Alpha  occ. eigenvalues --  -12.65244 -12.65215 -12.65172 -10.35636 -10.33108
 Alpha  occ. eigenvalues --  -10.32491 -10.32024 -10.31108 -10.30491 -10.29685
 Alpha  occ. eigenvalues --  -10.29663 -10.29616 -10.29556 -10.29509 -10.29348
 Alpha  occ. eigenvalues --  -10.28699 -10.28465 -10.28143 -10.27207 -10.26754
 Alpha  occ. eigenvalues --  -10.26690 -10.26427 -10.26411 -10.26355 -10.26336
 Alpha  occ. eigenvalues --  -10.25753 -10.25189 -10.25028 -10.24947 -10.24767
 Alpha  occ. eigenvalues --  -10.24747 -10.24703 -10.24636 -10.24163 -10.23724
 Alpha  occ. eigenvalues --  -10.23486 -10.21945 -10.21444 -10.21385 -10.21287
 Alpha  occ. eigenvalues --  -10.21173 -10.21035 -10.20891 -10.20782 -10.20721
 Alpha  occ. eigenvalues --  -10.20452 -10.20095 -10.19824 -10.18219 -10.17736
 Alpha  occ. eigenvalues --  -10.17351 -10.17346 -10.17162 -10.15940 -10.15761
 Alpha  occ. eigenvalues --  -10.15711 -10.12921  -1.88500  -1.15996  -1.15858
 Alpha  occ. eigenvalues --   -1.15642  -1.13090  -1.08175  -1.07963  -1.07787
 Alpha  occ. eigenvalues --   -1.07224  -1.06993  -1.06782  -1.06248  -1.04618
 Alpha  occ. eigenvalues --   -1.04059  -1.04029  -1.03698  -1.03447  -1.03232
 Alpha  occ. eigenvalues --   -1.03035  -1.02641  -1.02306  -1.01477  -1.00928
 Alpha  occ. eigenvalues --   -1.00422  -0.97349  -0.96862  -0.96155  -0.95745
 Alpha  occ. eigenvalues --   -0.94550  -0.93919  -0.93869  -0.93693  -0.93574
 Alpha  occ. eigenvalues --   -0.93369  -0.93146  -0.93071  -0.92666  -0.91670
 Alpha  occ. eigenvalues --   -0.91107  -0.90478  -0.89740  -0.89677  -0.86630
 Alpha  occ. eigenvalues --   -0.84499  -0.82184  -0.82050  -0.81787  -0.81039
 Alpha  occ. eigenvalues --   -0.80299  -0.80053  -0.78928  -0.78044  -0.76974
 Alpha  occ. eigenvalues --   -0.76683  -0.76554  -0.75987  -0.75034  -0.74821
 Alpha  occ. eigenvalues --   -0.74578  -0.74441  -0.73475  -0.72766  -0.71509
 Alpha  occ. eigenvalues --   -0.70854  -0.70482  -0.70252  -0.70184  -0.69048
 Alpha  occ. eigenvalues --   -0.67700  -0.67406  -0.67181  -0.66493  -0.65562
 Alpha  occ. eigenvalues --   -0.64728  -0.64697  -0.64344  -0.63825  -0.63751
 Alpha  occ. eigenvalues --   -0.63412  -0.62970  -0.62141  -0.61983  -0.61454
 Alpha  occ. eigenvalues --   -0.61237  -0.60984  -0.60962  -0.60533  -0.60369
 Alpha  occ. eigenvalues --   -0.59844  -0.59724  -0.59334  -0.59117  -0.58689
 Alpha  occ. eigenvalues --   -0.58521  -0.58340  -0.58109  -0.57573  -0.57284
 Alpha  occ. eigenvalues --   -0.56430  -0.56324  -0.56024  -0.55545  -0.55209
 Alpha  occ. eigenvalues --   -0.54782  -0.54258  -0.54092  -0.54037  -0.53567
 Alpha  occ. eigenvalues --   -0.53360  -0.53184  -0.52673  -0.52483  -0.52432
 Alpha  occ. eigenvalues --   -0.51957  -0.51683  -0.51301  -0.50955  -0.50560
 Alpha  occ. eigenvalues --   -0.50490  -0.50241  -0.50069  -0.49757  -0.49468
 Alpha  occ. eigenvalues --   -0.49279  -0.49231  -0.48817  -0.48579  -0.48367
 Alpha  occ. eigenvalues --   -0.48121  -0.47981  -0.47728  -0.47628  -0.47396
 Alpha  occ. eigenvalues --   -0.47258  -0.46979  -0.46953  -0.46723  -0.46653
 Alpha  occ. eigenvalues --   -0.46503  -0.46293  -0.46129  -0.46088  -0.45716
 Alpha  occ. eigenvalues --   -0.45586  -0.45504  -0.45356  -0.45154  -0.45117
 Alpha  occ. eigenvalues --   -0.44902  -0.44764  -0.44710  -0.44524  -0.44124
 Alpha  occ. eigenvalues --   -0.43902  -0.43735  -0.43672  -0.43519  -0.43307
 Alpha  occ. eigenvalues --   -0.43089  -0.42937  -0.42831  -0.42714  -0.42674
 Alpha  occ. eigenvalues --   -0.42521  -0.42353  -0.42204  -0.42148  -0.42003
 Alpha  occ. eigenvalues --   -0.41964  -0.41769  -0.41553  -0.41390  -0.41235
 Alpha  occ. eigenvalues --   -0.40903  -0.40810  -0.40714  -0.40649  -0.40436
 Alpha  occ. eigenvalues --   -0.40354  -0.40331  -0.40276  -0.39884  -0.39813
 Alpha  occ. eigenvalues --   -0.39716  -0.39595  -0.39374  -0.39248  -0.38931
 Alpha  occ. eigenvalues --   -0.38870  -0.38844  -0.38352  -0.38223  -0.38206
 Alpha  occ. eigenvalues --   -0.38084  -0.38010  -0.37690  -0.37469  -0.37408
 Alpha  occ. eigenvalues --   -0.37089  -0.36971  -0.36814  -0.36748  -0.36524
 Alpha  occ. eigenvalues --   -0.36246  -0.36170  -0.36113  -0.35734  -0.35638
 Alpha  occ. eigenvalues --   -0.35531  -0.34795  -0.34466  -0.34381  -0.34293
 Alpha  occ. eigenvalues --   -0.33373  -0.33293  -0.32973  -0.32299  -0.32230
 Alpha  occ. eigenvalues --   -0.31916  -0.31813  -0.31525  -0.31341  -0.31007
 Alpha  occ. eigenvalues --   -0.30644  -0.30588  -0.29884  -0.29726  -0.29561
 Alpha  occ. eigenvalues --   -0.29086  -0.29017  -0.29008  -0.28991  -0.28680
 Alpha  occ. eigenvalues --   -0.28606  -0.28108  -0.27986  -0.27869  -0.27764
 Alpha  occ. eigenvalues --   -0.27440  -0.27252  -0.27203  -0.26953  -0.26323
 Alpha  occ. eigenvalues --   -0.26178  -0.26073  -0.25915  -0.25846  -0.25707
 Alpha  occ. eigenvalues --   -0.25298  -0.24714  -0.24654  -0.24641  -0.24232
 Alpha  occ. eigenvalues --   -0.23928  -0.23638  -0.22775  -0.22573  -0.22215
 Alpha  occ. eigenvalues --   -0.16137  -0.15197  -0.11783
 Alpha virt. eigenvalues --   -0.11102  -0.10066  -0.04829  -0.04573  -0.03982
 Alpha virt. eigenvalues --   -0.03170  -0.03076  -0.02734  -0.01924  -0.01616
 Alpha virt. eigenvalues --   -0.01460  -0.00390  -0.00324  -0.00107   0.00066
 Alpha virt. eigenvalues --    0.00122   0.00338   0.00412   0.00769   0.00987
 Alpha virt. eigenvalues --    0.01235   0.01417   0.01851   0.01956   0.02147
 Alpha virt. eigenvalues --    0.02353   0.02986   0.03158   0.03487   0.03572
 Alpha virt. eigenvalues --    0.03640   0.03985   0.04254   0.04358   0.04536
 Alpha virt. eigenvalues --    0.04740   0.04915   0.05125   0.05216   0.05532
 Alpha virt. eigenvalues --    0.06299   0.06485   0.06660   0.06749   0.07062
 Alpha virt. eigenvalues --    0.07173   0.07495   0.07738   0.07915   0.08275
 Alpha virt. eigenvalues --    0.08495   0.08625   0.08648   0.08919   0.09254
 Alpha virt. eigenvalues --    0.09516   0.09679   0.10175   0.10582   0.10632
 Alpha virt. eigenvalues --    0.10782   0.10870   0.11302   0.11601   0.11745
 Alpha virt. eigenvalues --    0.11878   0.11939   0.12076   0.12103   0.12282
 Alpha virt. eigenvalues --    0.12313   0.12495   0.12682   0.12754   0.13003
 Alpha virt. eigenvalues --    0.13053   0.13219   0.13357   0.13445   0.13645
 Alpha virt. eigenvalues --    0.13816   0.13896   0.13963   0.14020   0.14307
 Alpha virt. eigenvalues --    0.14515   0.14597   0.14772   0.14929   0.15083
 Alpha virt. eigenvalues --    0.15323   0.15455   0.15582   0.15692   0.15966
 Alpha virt. eigenvalues --    0.16220   0.16412   0.16574   0.16616   0.16742
 Alpha virt. eigenvalues --    0.16821   0.17029   0.17213   0.17479   0.17559
 Alpha virt. eigenvalues --    0.17666   0.18303   0.18481   0.18547   0.18670
 Alpha virt. eigenvalues --    0.18892   0.19255   0.19361   0.19573   0.19730
 Alpha virt. eigenvalues --    0.20173   0.20248   0.20478   0.20608   0.20688
 Alpha virt. eigenvalues --    0.20856   0.21046   0.21197   0.21333   0.21567
 Alpha virt. eigenvalues --    0.21658   0.22017   0.22086   0.22383   0.22427
 Alpha virt. eigenvalues --    0.22784   0.23082   0.23174   0.23603   0.23620
 Alpha virt. eigenvalues --    0.23754   0.23838   0.23951   0.24320   0.24768
 Alpha virt. eigenvalues --    0.24979   0.25166   0.25327   0.25385   0.25669
 Alpha virt. eigenvalues --    0.26079   0.26365   0.26390   0.26840   0.26900
 Alpha virt. eigenvalues --    0.27125   0.27535   0.27733   0.27847   0.28028
 Alpha virt. eigenvalues --    0.28241   0.28423   0.28568   0.28854   0.29046
 Alpha virt. eigenvalues --    0.29259   0.29380   0.29696   0.29877   0.29958
 Alpha virt. eigenvalues --    0.30053   0.30299   0.30448   0.30723   0.31123
 Alpha virt. eigenvalues --    0.31632   0.31925   0.32051   0.32338   0.32944
 Alpha virt. eigenvalues --    0.33350   0.33424   0.33758   0.34126   0.34190
 Alpha virt. eigenvalues --    0.34530   0.34716   0.34791   0.34983   0.35251
 Alpha virt. eigenvalues --    0.35553   0.36235   0.36443   0.36640   0.37024
 Alpha virt. eigenvalues --    0.37400   0.37658   0.38267   0.38449   0.38572
 Alpha virt. eigenvalues --    0.39004   0.39250   0.39495   0.39724   0.39887
 Alpha virt. eigenvalues --    0.40066   0.40427   0.40582   0.40870   0.41135
 Alpha virt. eigenvalues --    0.41468   0.41589   0.42181   0.42361   0.42542
 Alpha virt. eigenvalues --    0.42754   0.42948   0.43157   0.43216   0.43512
 Alpha virt. eigenvalues --    0.43821   0.43866   0.44094   0.44349   0.44646
 Alpha virt. eigenvalues --    0.45008   0.45032   0.45152   0.45241   0.45523
 Alpha virt. eigenvalues --    0.45628   0.46038   0.46111   0.46139   0.46337
 Alpha virt. eigenvalues --    0.46451   0.46722   0.46850   0.47164   0.47332
 Alpha virt. eigenvalues --    0.47515   0.47685   0.47802   0.48234   0.48288
 Alpha virt. eigenvalues --    0.48356   0.48643   0.48729   0.48897   0.49264
 Alpha virt. eigenvalues --    0.49453   0.49668   0.49894   0.50072   0.50190
 Alpha virt. eigenvalues --    0.50456   0.50786   0.50925   0.51016   0.51300
 Alpha virt. eigenvalues --    0.51395   0.51572   0.51672   0.51845   0.52009
 Alpha virt. eigenvalues --    0.52085   0.52166   0.52397   0.52516   0.53001
 Alpha virt. eigenvalues --    0.53102   0.53296   0.53398   0.53711   0.53921
 Alpha virt. eigenvalues --    0.54081   0.54297   0.54349   0.54427   0.54691
 Alpha virt. eigenvalues --    0.54849   0.55126   0.55338   0.55533   0.55865
 Alpha virt. eigenvalues --    0.55938   0.56013   0.56207   0.56489   0.56556
 Alpha virt. eigenvalues --    0.56681   0.57164   0.57224   0.57393   0.57515
 Alpha virt. eigenvalues --    0.58005   0.58140   0.58178   0.58403   0.58462
 Alpha virt. eigenvalues --    0.58677   0.58765   0.58963   0.59083   0.59230
 Alpha virt. eigenvalues --    0.59304   0.59602   0.59704   0.59959   0.60043
 Alpha virt. eigenvalues --    0.60169   0.60345   0.60437   0.60586   0.60782
 Alpha virt. eigenvalues --    0.60968   0.61100   0.61239   0.61331   0.61416
 Alpha virt. eigenvalues --    0.61752   0.61819   0.61907   0.62003   0.62105
 Alpha virt. eigenvalues --    0.62254   0.62423   0.62519   0.62598   0.62678
 Alpha virt. eigenvalues --    0.62902   0.62950   0.63109   0.63132   0.63440
 Alpha virt. eigenvalues --    0.63628   0.63727   0.63824   0.63894   0.64132
 Alpha virt. eigenvalues --    0.64179   0.64202   0.64256   0.64432   0.64470
 Alpha virt. eigenvalues --    0.64594   0.64697   0.64779   0.64959   0.65076
 Alpha virt. eigenvalues --    0.65153   0.65214   0.65531   0.65611   0.65656
 Alpha virt. eigenvalues --    0.65705   0.65812   0.65980   0.66125   0.66142
 Alpha virt. eigenvalues --    0.66287   0.66357   0.66519   0.66638   0.66671
 Alpha virt. eigenvalues --    0.66707   0.66780   0.66903   0.67059   0.67166
 Alpha virt. eigenvalues --    0.67318   0.67469   0.67722   0.67920   0.67948
 Alpha virt. eigenvalues --    0.68030   0.68212   0.68453   0.68522   0.68585
 Alpha virt. eigenvalues --    0.68613   0.68719   0.68919   0.69033   0.69068
 Alpha virt. eigenvalues --    0.69229   0.69521   0.69678   0.69842   0.69908
 Alpha virt. eigenvalues --    0.70035   0.70223   0.70549   0.70690   0.70705
 Alpha virt. eigenvalues --    0.70813   0.71058   0.71191   0.71381   0.71567
 Alpha virt. eigenvalues --    0.71780   0.71870   0.72110   0.72187   0.72376
 Alpha virt. eigenvalues --    0.72642   0.72780   0.72976   0.73183   0.73491
 Alpha virt. eigenvalues --    0.73627   0.73872   0.73923   0.74035   0.74285
 Alpha virt. eigenvalues --    0.74731   0.74745   0.74929   0.74988   0.75162
 Alpha virt. eigenvalues --    0.75257   0.75558   0.75666   0.76034   0.76091
 Alpha virt. eigenvalues --    0.76268   0.76485   0.76711   0.76872   0.77060
 Alpha virt. eigenvalues --    0.77312   0.77752   0.78079   0.78276   0.78532
 Alpha virt. eigenvalues --    0.78626   0.79119   0.79331   0.79433   0.79689
 Alpha virt. eigenvalues --    0.79995   0.80252   0.80429   0.80896   0.80936
 Alpha virt. eigenvalues --    0.81395   0.81628   0.82057   0.82239   0.82497
 Alpha virt. eigenvalues --    0.82640   0.82735   0.83317   0.83476   0.83618
 Alpha virt. eigenvalues --    0.84150   0.84277   0.84479   0.84730   0.84860
 Alpha virt. eigenvalues --    0.85135   0.85265   0.85500   0.85857   0.86216
 Alpha virt. eigenvalues --    0.86298   0.86707   0.86949   0.86957   0.87555
 Alpha virt. eigenvalues --    0.88003   0.88443   0.88731   0.88924   0.89095
 Alpha virt. eigenvalues --    0.89543   0.89883   0.90003   0.90220   0.90502
 Alpha virt. eigenvalues --    0.90774   0.90928   0.91164   0.91274   0.91742
 Alpha virt. eigenvalues --    0.91867   0.92135   0.92524   0.92932   0.93095
 Alpha virt. eigenvalues --    0.93256   0.93485   0.93647   0.93741   0.94151
 Alpha virt. eigenvalues --    0.94215   0.94389   0.95171   0.95271   0.95483
 Alpha virt. eigenvalues --    0.95658   0.96088   0.96617   0.96675   0.97116
 Alpha virt. eigenvalues --    0.97400   0.97452   0.97884   0.98310   0.98533
 Alpha virt. eigenvalues --    0.98825   0.99038   0.99189   0.99453   0.99582
 Alpha virt. eigenvalues --    1.00177   1.00601   1.00924   1.01033   1.01848
 Alpha virt. eigenvalues --    1.01928   1.02472   1.02642   1.02799   1.03194
 Alpha virt. eigenvalues --    1.03548   1.03666   1.03947   1.04149   1.04259
 Alpha virt. eigenvalues --    1.04456   1.04630   1.04908   1.05268   1.05703
 Alpha virt. eigenvalues --    1.05925   1.06010   1.06488   1.06823   1.06873
 Alpha virt. eigenvalues --    1.07270   1.07660   1.07813   1.08029   1.08297
 Alpha virt. eigenvalues --    1.08431   1.08723   1.09037   1.09399   1.09759
 Alpha virt. eigenvalues --    1.10158   1.10250   1.10843   1.10925   1.11050
 Alpha virt. eigenvalues --    1.11273   1.11381   1.11901   1.11975   1.12346
 Alpha virt. eigenvalues --    1.12531   1.12761   1.13168   1.13332   1.13517
 Alpha virt. eigenvalues --    1.13699   1.13858   1.14061   1.14189   1.14394
 Alpha virt. eigenvalues --    1.14702   1.15301   1.15845   1.15861   1.16110
 Alpha virt. eigenvalues --    1.16476   1.16537   1.16679   1.17253   1.17386
 Alpha virt. eigenvalues --    1.17731   1.17897   1.18271   1.18366   1.18751
 Alpha virt. eigenvalues --    1.19036   1.19339   1.19645   1.20230   1.20237
 Alpha virt. eigenvalues --    1.20906   1.21132   1.21157   1.21630   1.21970
 Alpha virt. eigenvalues --    1.22064   1.22500   1.22749   1.23199   1.23347
 Alpha virt. eigenvalues --    1.23536   1.23793   1.23986   1.24188   1.24551
 Alpha virt. eigenvalues --    1.24625   1.24861   1.25125   1.25529   1.25544
 Alpha virt. eigenvalues --    1.25857   1.25998   1.26038   1.26518   1.26707
 Alpha virt. eigenvalues --    1.27087   1.27224   1.27709   1.27999   1.28142
 Alpha virt. eigenvalues --    1.28638   1.28985   1.29141   1.29490   1.29756
 Alpha virt. eigenvalues --    1.30228   1.30489   1.30734   1.30951   1.31114
 Alpha virt. eigenvalues --    1.31428   1.31510   1.32206   1.32314   1.32487
 Alpha virt. eigenvalues --    1.32784   1.32881   1.33175   1.33778   1.33881
 Alpha virt. eigenvalues --    1.33953   1.34187   1.34565   1.34722   1.34915
 Alpha virt. eigenvalues --    1.35447   1.36041   1.36195   1.36385   1.36633
 Alpha virt. eigenvalues --    1.36702   1.36906   1.37166   1.37548   1.37892
 Alpha virt. eigenvalues --    1.38229   1.38875   1.38903   1.39442   1.39719
 Alpha virt. eigenvalues --    1.39955   1.39996   1.40417   1.40809   1.41159
 Alpha virt. eigenvalues --    1.41340   1.41627   1.41949   1.42046   1.42075
 Alpha virt. eigenvalues --    1.42262   1.43053   1.43219   1.43360   1.43752
 Alpha virt. eigenvalues --    1.43869   1.44464   1.44617   1.44867   1.45027
 Alpha virt. eigenvalues --    1.45520   1.45763   1.46333   1.46741   1.46875
 Alpha virt. eigenvalues --    1.47179   1.47594   1.47747   1.48047   1.48385
 Alpha virt. eigenvalues --    1.48662   1.49223   1.49373   1.49704   1.50074
 Alpha virt. eigenvalues --    1.50336   1.50474   1.50980   1.51309   1.51478
 Alpha virt. eigenvalues --    1.51657   1.51784   1.52076   1.52190   1.52825
 Alpha virt. eigenvalues --    1.52852   1.53562   1.53961   1.54279   1.54535
 Alpha virt. eigenvalues --    1.54705   1.54919   1.55113   1.55282   1.55621
 Alpha virt. eigenvalues --    1.55884   1.56009   1.56343   1.56812   1.57194
 Alpha virt. eigenvalues --    1.57378   1.57640   1.58191   1.58805   1.59129
 Alpha virt. eigenvalues --    1.59213   1.59488   1.59654   1.59921   1.60407
 Alpha virt. eigenvalues --    1.60607   1.60741   1.60925   1.61217   1.61557
 Alpha virt. eigenvalues --    1.62142   1.62558   1.62912   1.63499   1.63656
 Alpha virt. eigenvalues --    1.64215   1.64516   1.64831   1.65028   1.65279
 Alpha virt. eigenvalues --    1.65375   1.65721   1.66355   1.66789   1.67769
 Alpha virt. eigenvalues --    1.68163   1.68358   1.68592   1.68883   1.69356
 Alpha virt. eigenvalues --    1.69443   1.69752   1.70050   1.70237   1.70677
 Alpha virt. eigenvalues --    1.70889   1.71093   1.71268   1.71494   1.71835
 Alpha virt. eigenvalues --    1.72024   1.72297   1.72570   1.72750   1.73084
 Alpha virt. eigenvalues --    1.73342   1.73464   1.73797   1.73966   1.74072
 Alpha virt. eigenvalues --    1.74213   1.74387   1.74488   1.75172   1.75319
 Alpha virt. eigenvalues --    1.75426   1.75605   1.75656   1.75941   1.75992
 Alpha virt. eigenvalues --    1.76191   1.76253   1.76484   1.76736   1.77138
 Alpha virt. eigenvalues --    1.77331   1.77508   1.77570   1.77655   1.78140
 Alpha virt. eigenvalues --    1.78288   1.78451   1.78596   1.78850   1.78973
 Alpha virt. eigenvalues --    1.79059   1.79125   1.79199   1.79504   1.79771
 Alpha virt. eigenvalues --    1.79839   1.80134   1.80462   1.80491   1.80529
 Alpha virt. eigenvalues --    1.80638   1.80929   1.81161   1.81270   1.81519
 Alpha virt. eigenvalues --    1.81689   1.81804   1.81993   1.82097   1.82401
 Alpha virt. eigenvalues --    1.82809   1.82869   1.82950   1.83038   1.83183
 Alpha virt. eigenvalues --    1.83279   1.83434   1.83561   1.83895   1.84067
 Alpha virt. eigenvalues --    1.84259   1.84438   1.84477   1.84775   1.84932
 Alpha virt. eigenvalues --    1.85109   1.85449   1.85630   1.85888   1.85998
 Alpha virt. eigenvalues --    1.86125   1.86162   1.86322   1.86427   1.86491
 Alpha virt. eigenvalues --    1.86693   1.86856   1.87112   1.87160   1.87195
 Alpha virt. eigenvalues --    1.87510   1.87785   1.87818   1.87857   1.88273
 Alpha virt. eigenvalues --    1.88350   1.88415   1.88668   1.88924   1.89108
 Alpha virt. eigenvalues --    1.89209   1.89671   1.89851   1.90019   1.90064
 Alpha virt. eigenvalues --    1.90182   1.90402   1.90584   1.90754   1.90991
 Alpha virt. eigenvalues --    1.91154   1.91506   1.91562   1.91875   1.92072
 Alpha virt. eigenvalues --    1.92197   1.92581   1.92966   1.93068   1.93127
 Alpha virt. eigenvalues --    1.93332   1.93603   1.93832   1.94115   1.94238
 Alpha virt. eigenvalues --    1.94349   1.94502   1.94843   1.95133   1.95291
 Alpha virt. eigenvalues --    1.95456   1.95500   1.95951   1.96200   1.96683
 Alpha virt. eigenvalues --    1.96740   1.96844   1.97081   1.97254   1.97552
 Alpha virt. eigenvalues --    1.97603   1.97961   1.98234   1.98548   1.98815
 Alpha virt. eigenvalues --    1.98937   1.99167   1.99283   1.99394   1.99459
 Alpha virt. eigenvalues --    2.00104   2.00155   2.00487   2.00694   2.01055
 Alpha virt. eigenvalues --    2.01161   2.01267   2.01506   2.01592   2.02205
 Alpha virt. eigenvalues --    2.02305   2.02397   2.02619   2.02827   2.03079
 Alpha virt. eigenvalues --    2.03111   2.03674   2.04048   2.04170   2.04444
 Alpha virt. eigenvalues --    2.04611   2.05358   2.05411   2.06223   2.06421
 Alpha virt. eigenvalues --    2.06474   2.06689   2.06742   2.06823   2.07414
 Alpha virt. eigenvalues --    2.07885   2.08104   2.08251   2.08478   2.08530
 Alpha virt. eigenvalues --    2.08968   2.09363   2.09510   2.09779   2.10059
 Alpha virt. eigenvalues --    2.10339   2.10588   2.10939   2.11223   2.11480
 Alpha virt. eigenvalues --    2.12093   2.12162   2.12425   2.12637   2.13132
 Alpha virt. eigenvalues --    2.13222   2.13528   2.13862   2.14109   2.14408
 Alpha virt. eigenvalues --    2.14551   2.15006   2.15309   2.15585   2.15630
 Alpha virt. eigenvalues --    2.15984   2.16021   2.16162   2.16177   2.16431
 Alpha virt. eigenvalues --    2.16924   2.17377   2.17757   2.17985   2.18645
 Alpha virt. eigenvalues --    2.18819   2.19359   2.19668   2.19936   2.20125
 Alpha virt. eigenvalues --    2.20525   2.21534   2.22106   2.22322   2.22969
 Alpha virt. eigenvalues --    2.23245   2.23292   2.23623   2.24195   2.24706
 Alpha virt. eigenvalues --    2.25066   2.25137   2.25588   2.25808   2.26027
 Alpha virt. eigenvalues --    2.26340   2.26666   2.26762   2.27449   2.28001
 Alpha virt. eigenvalues --    2.28183   2.28452   2.28737   2.29013   2.29117
 Alpha virt. eigenvalues --    2.29385   2.29464   2.29891   2.30278   2.30376
 Alpha virt. eigenvalues --    2.30703   2.31039   2.31457   2.31821   2.32139
 Alpha virt. eigenvalues --    2.32364   2.32874   2.33149   2.33466   2.33779
 Alpha virt. eigenvalues --    2.33934   2.34232   2.34860   2.34894   2.35162
 Alpha virt. eigenvalues --    2.35508   2.35878   2.36089   2.36244   2.36720
 Alpha virt. eigenvalues --    2.36802   2.37097   2.37380   2.37781   2.38539
 Alpha virt. eigenvalues --    2.38749   2.38975   2.39075   2.39098   2.39441
 Alpha virt. eigenvalues --    2.40107   2.40417   2.40628   2.41230   2.41320
 Alpha virt. eigenvalues --    2.41487   2.42089   2.42571   2.42747   2.42851
 Alpha virt. eigenvalues --    2.43355   2.43601   2.43839   2.44143   2.44288
 Alpha virt. eigenvalues --    2.44512   2.45408   2.45990   2.46500   2.46889
 Alpha virt. eigenvalues --    2.47386   2.47481   2.47760   2.48111   2.48209
 Alpha virt. eigenvalues --    2.48672   2.48707   2.48820   2.49287   2.50153
 Alpha virt. eigenvalues --    2.50584   2.51575   2.51795   2.52137   2.52189
 Alpha virt. eigenvalues --    2.52328   2.52957   2.53151   2.53369   2.54104
 Alpha virt. eigenvalues --    2.54210   2.54381   2.54586   2.54834   2.54972
 Alpha virt. eigenvalues --    2.55124   2.56142   2.56259   2.56351   2.56466
 Alpha virt. eigenvalues --    2.56979   2.57035   2.57261   2.57491   2.57805
 Alpha virt. eigenvalues --    2.58115   2.58680   2.59090   2.59462   2.59669
 Alpha virt. eigenvalues --    2.59840   2.59921   2.60126   2.60517   2.60679
 Alpha virt. eigenvalues --    2.61441   2.61555   2.61754   2.62312   2.62367
 Alpha virt. eigenvalues --    2.62617   2.63130   2.63667   2.64030   2.64370
 Alpha virt. eigenvalues --    2.64550   2.65088   2.65245   2.65441   2.65772
 Alpha virt. eigenvalues --    2.66053   2.66115   2.66702   2.66948   2.66981
 Alpha virt. eigenvalues --    2.67062   2.67529   2.67777   2.68146   2.68222
 Alpha virt. eigenvalues --    2.68932   2.68940   2.69437   2.69556   2.69851
 Alpha virt. eigenvalues --    2.70355   2.70435   2.70613   2.70887   2.71390
 Alpha virt. eigenvalues --    2.71549   2.71740   2.72563   2.73009   2.73061
 Alpha virt. eigenvalues --    2.73428   2.73524   2.74079   2.74150   2.74250
 Alpha virt. eigenvalues --    2.74751   2.74884   2.75530   2.75580   2.76066
 Alpha virt. eigenvalues --    2.76213   2.76275   2.76551   2.76820   2.76977
 Alpha virt. eigenvalues --    2.77328   2.77488   2.77821   2.77885   2.78191
 Alpha virt. eigenvalues --    2.78735   2.78817   2.79051   2.79239   2.79659
 Alpha virt. eigenvalues --    2.79952   2.79993   2.80007   2.80881   2.81093
 Alpha virt. eigenvalues --    2.81203   2.81374   2.81649   2.81755   2.82694
 Alpha virt. eigenvalues --    2.82698   2.83917   2.83984   2.84696   2.84957
 Alpha virt. eigenvalues --    2.85449   2.85769   2.85960   2.86196   2.86295
 Alpha virt. eigenvalues --    2.86560   2.86922   2.87209   2.87271   2.87335
 Alpha virt. eigenvalues --    2.87827   2.87905   2.88118   2.88375   2.88690
 Alpha virt. eigenvalues --    2.89123   2.89145   2.89221   2.89303   2.90252
 Alpha virt. eigenvalues --    2.90795   2.91027   2.91363   2.91642   2.92211
 Alpha virt. eigenvalues --    2.92322   2.92923   2.93091   2.93196   2.93473
 Alpha virt. eigenvalues --    2.93494   2.93721   2.94128   2.94606   2.94940
 Alpha virt. eigenvalues --    2.95114   2.95371   2.95597   2.95898   2.96152
 Alpha virt. eigenvalues --    2.96978   2.97077   2.97257   2.97781   2.97884
 Alpha virt. eigenvalues --    2.98809   2.98951   2.99177   2.99325   2.99363
 Alpha virt. eigenvalues --    2.99850   3.00046   3.00468   3.00572   3.00977
 Alpha virt. eigenvalues --    3.01220   3.01489   3.02091   3.02233   3.02505
 Alpha virt. eigenvalues --    3.02637   3.03258   3.03759   3.04097   3.06062
 Alpha virt. eigenvalues --    3.06107   3.06830   3.07205   3.07556   3.07584
 Alpha virt. eigenvalues --    3.08073   3.08481   3.09144   3.09269   3.09760
 Alpha virt. eigenvalues --    3.10987   3.11547   3.11645   3.11956   3.12183
 Alpha virt. eigenvalues --    3.12258   3.12738   3.13507   3.13733   3.13826
 Alpha virt. eigenvalues --    3.14159   3.14383   3.14810   3.14840   3.15197
 Alpha virt. eigenvalues --    3.15573   3.16109   3.16447   3.17299   3.17402
 Alpha virt. eigenvalues --    3.17787   3.17898   3.18092   3.18120   3.18387
 Alpha virt. eigenvalues --    3.18669   3.18897   3.19024   3.19842   3.19962
 Alpha virt. eigenvalues --    3.20354   3.20616   3.20986   3.21329   3.21648
 Alpha virt. eigenvalues --    3.21739   3.22371   3.22770   3.23294   3.24126
 Alpha virt. eigenvalues --    3.25550   3.26467   3.26663   3.26879   3.27990
 Alpha virt. eigenvalues --    3.29849   3.29853   3.30421   3.30796   3.31558
 Alpha virt. eigenvalues --    3.31879   3.34338   3.35572   3.38209   3.40473
 Alpha virt. eigenvalues --    3.40988   3.42363   3.43540   3.43886   3.44996
 Alpha virt. eigenvalues --    3.51266   3.52775   3.53233   3.53668   3.54193
 Alpha virt. eigenvalues --    3.54507   3.55558   3.55928   3.57008   3.57186
 Alpha virt. eigenvalues --    3.57470   3.58475   3.58583   3.59000   3.59345
 Alpha virt. eigenvalues --    3.61302   3.63395   3.64902   3.65148   3.65714
 Alpha virt. eigenvalues --    3.66161   3.66671   3.66944   3.67424   3.67747
 Alpha virt. eigenvalues --    3.67796   3.69077   3.69170   3.69417   3.69658
 Alpha virt. eigenvalues --    3.69904   3.70265   3.70809   3.71471   3.73788
 Alpha virt. eigenvalues --    3.75477   3.76342   3.77486   3.80406
          Condensed to atoms (all electrons):
 Mulliken charges:
               1
     1  C    0.083539
     2  C    0.000164
     3  O   -0.289742
     4  H   -0.004363
     5  H    0.050092
     6  H    0.044102
     7  N   -0.114329
     8  C    0.092209
     9  C    0.073983
    10  O   -0.259157
    11  C    0.183019
    12  C    0.068835
    13  O   -0.444631
    14  O   -0.410813
    15  H    0.117462
    16  H   -0.019447
    17  H   -0.000044
    18  H    0.028076
    19  N   -0.118681
    20  C    0.154029
    21  C    0.031592
    22  O   -0.262118
    23  C   -0.008586
    24  C   -0.003516
    25  C   -0.013849
    26  C    0.062514
    27  N    0.162636
    28  H    0.106370
    29  H    0.025620
    30  H   -0.003568
    31  H    0.024847
    32  H    0.055655
    33  H   -0.005141
    34  H    0.005790
    35  H    0.030844
    36  H    0.025324
    37  H    0.063370
    38  H    0.099758
    39  H    0.103783
    40  H    0.113695
    41  N   -0.193693
    42  C    0.081913
    43  C    0.059837
    44  O   -0.267573
    45  C    0.172103
    46  C    0.081527
    47  O   -0.430633
    48  O   -0.419582
    49  H    0.185662
    50  H    0.033929
    51  H   -0.006384
    52  H    0.029074
    53  N   -0.161314
    54  C    0.214694
    55  C    0.019562
    56  O   -0.294287
    57  H    0.124020
    58  H    0.041862
    59  H    0.044444
    60  N   -0.135360
    61  C    0.114934
    62  C    0.125790
    63  O   -0.390802
    64  C    0.109601
    65  C    0.000535
    66  N   -0.022589
    67  O   -0.303401
    68  H    0.141991
    69  H    0.004537
    70  H   -0.000863
    71  H    0.038549
    72  H    0.110858
    73  H    0.141854
    74  N   -0.113038
    75  C    0.187467
    76  C    0.049336
    77  O   -0.279128
    78  H    0.140546
    79  H    0.036448
    80  H    0.058682
    81  N   -0.107390
    82  C    0.128728
    83  C    0.094874
    84  O   -0.283301
    85  C    0.121414
    86  C   -0.070930
    87  C   -0.017983
    88  C   -0.012520
    89  C   -0.030714
    90  C   -0.030763
    91  C    0.152215
    92  O   -0.191568
    93  H    0.144898
    94  H   -0.016210
    95  H   -0.020430
    96  H    0.001744
    97  H    0.010330
    98  H   -0.027690
    99  H   -0.007479
   100  H   -0.042202
   101  H    0.172331
   102  N   -0.116235
   103  C    0.182193
   104  C    0.070321
   105  O   -0.285782
   106  C   -0.114515
   107  C    0.039192
   108  C    0.046692
   109  C    0.023725
   110  H    0.125460
   111  H   -0.034924
   112  H    0.007212
   113  H   -0.002271
   114  H   -0.013376
   115  H    0.040089
   116  H   -0.010650
   117  H   -0.004955
   118  H    0.010496
   119  H   -0.021907
   120  H    0.020802
   121  N   -0.149451
   122  C    0.111318
   123  C    0.117869
   124  O   -0.268239
   125  C    0.212536
   126  O   -0.303714
   127  H    0.127258
   128  H    0.029228
   129  H    0.013143
   130  H    0.006239
   131  H    0.196897
   132  N   -0.123227
   133  C   -0.008329
   134  C    0.067176
   135  O   -0.271851
   136  C    0.092155
   137  H    0.111769
   138  H    0.027368
   139  H    0.042263
   140  H    0.021712
   141  H   -0.019695
   142  N   -0.074118
   143  C    0.016200
   144  C    0.054408
   145  O   -0.269415
   146  C    0.064001
   147  H    0.130997
   148  H    0.000089
   149  H    0.028938
   150  H    0.002380
   151  H    0.014639
   152  N   -0.096188
   153  C    0.088433
   154  C    0.062436
   155  O   -0.274019
   156  C    0.008850
   157  C    0.047787
   158  C    0.037165
   159  O   -0.334780
   160  O   -0.322701
   161  H    0.117337
   162  H    0.008474
   163  H    0.019455
   164  H   -0.002668
   165  H   -0.025350
   166  H   -0.018364
   167  N   -0.156303
   168  C    0.141181
   169  H    0.016052
   170  H    0.041548
   171  H    0.022363
   172  H    0.104249
   173  Ca   1.311555
   174  O   -0.287667
   175  H    0.198656
   176  H    0.182604
 Sum of Mulliken charges =  -0.00000
 Mulliken charges with hydrogens summed into heavy atoms:
               1
     1  C    0.173370
     2  C    0.000164
     3  O   -0.289742
     7  N    0.003132
     8  C    0.072762
     9  C    0.073983
    10  O   -0.259157
    11  C    0.211051
    12  C    0.068835
    13  O   -0.444631
    14  O   -0.410813
    19  N   -0.012311
    20  C    0.179649
    21  C    0.031592
    22  O   -0.262118
    23  C    0.012693
    24  C    0.046998
    25  C    0.022786
    26  C    0.151208
    27  N    0.479872
    41  N   -0.008031
    42  C    0.115841
    43  C    0.059837
    44  O   -0.267573
    45  C    0.194792
    46  C    0.081527
    47  O   -0.430633
    48  O   -0.419582
    53  N   -0.037295
    54  C    0.301000
    55  C    0.019562
    56  O   -0.294287
    60  N    0.006630
    61  C    0.119470
    62  C    0.125790
    63  O   -0.390802
    64  C    0.147287
    65  C    0.000535
    66  N    0.230122
    67  O   -0.303401
    74  N    0.027508
    75  C    0.282597
    76  C    0.049336
    77  O   -0.279128
    81  N    0.037508
    82  C    0.112518
    83  C    0.094874
    84  O   -0.283301
    85  C    0.102727
    86  C   -0.070930
    87  C   -0.007654
    88  C   -0.040210
    89  C   -0.038193
    90  C   -0.072965
    91  C    0.152215
    92  O   -0.019237
   102  N    0.009225
   103  C    0.147268
   104  C    0.070321
   105  O   -0.285782
   106  C   -0.107304
   107  C    0.023544
   108  C    0.071176
   109  C    0.033116
   121  N   -0.022192
   122  C    0.140545
   123  C    0.117869
   124  O   -0.268239
   125  C    0.231918
   126  O   -0.106817
   132  N   -0.011458
   133  C    0.019039
   134  C    0.067176
   135  O   -0.271851
   136  C    0.136435
   142  N    0.056880
   143  C    0.016290
   144  C    0.054408
   145  O   -0.269415
   146  C    0.109958
   152  N    0.021149
   153  C    0.096907
   154  C    0.062436
   155  O   -0.274019
   156  C    0.025637
   157  C    0.004073
   158  C    0.037165
   159  O   -0.334780
   160  O   -0.322701
   167  N   -0.052054
   168  C    0.221144
   173  Ca   1.311555
   174  O    0.093593
 DipInt: DoE/N= T F RetVal/Mat= T F Init=T NMatP=  1 IDeriv=0 Min/MaxMlt=  0  4
 Entering OneElI...
 OneElI was handed  1333951383 working-precision words.
 Multipole integrals L=0 to 4 MinM= 0 MaxM= 0.
 Requested accuracy = 0.1000D-12
 ShPair: Thresh= 1.00D-13 NBox=     0 BxSize= 0.00D+00 RnKept= 3.21D+01
         NSMCal=               327645 NSMKep=              124724
 PrmmSu-InSpLW:  IPartL=    0 NPrtUS=    1 NPrtUL=    1 DoSpLW=F IThBeg=    0 IThEnd=    0 NThAct=    1.
 PrsmSu:  NPrtUS=   1 ThrOK=F IAlg=1 NPAlg=1 LenDen=           0 ISkipM=0 DoSpLW=F IThBeg=    0 IThEnd=    0.
 Prism:   IPart=     0 DynPar=F LinDyn=F Incr=         512.
 PRISM was handed  1325185909 working-precision words and124724 shell-pairs
 IPart=  0 NShTot=      124724 NBatch=         298 AvBLen=       418.5
 PrsmSu-ThDecC:  IPartSL=    0    0 NPrtUSL=    1    1 IThBeg=    0 IThEnd=    0 CPU=   -1 GPU=   -1 NThAct=    1.
 PrSmSu:  NxtVal=            513.
 Electronic moments (au):
       -716.00000000         12.29891317         -1.55728150          5.62109553
    -128489.93137695     -25395.10684941     -13096.76878067        206.46577522
         96.34167135         83.96517590     357058.93997369     -12071.34077374
      -2995.43634701      13438.47796081    -268170.86586282     -56820.51013685
     -22241.70143390     -27397.17988147      11672.14041281     -51800.81945004
  -36943533.28738230   -2241914.66494360    -579406.98490939    1487096.21982272
    -223658.72247648      47260.43104120     103534.23710013    -169527.42743605
     -70789.96634676   -4382052.90388709   -2470602.57233716    -489580.45108023
     654398.25540138     104362.29700247    -321350.92513055
 Electronic spatial extent (au):  <R**2>=         166981.8070
 DipInt: DoE/N= F T RetVal/Mat= T F Init=T NMatP=  1 IDeriv=0 Min/MaxMlt=  0  4
 Nuclear    moments (au):
        716.00000000         -0.00000000         -0.00000000          0.00000000
     127783.31406709      24980.33872876      12719.12009254         -0.00000000
         -0.00000000          0.00000000    -354449.27443934      10905.51171834
       3451.65376053     -10888.06902363     267099.29927010      55959.92938224
      23012.69635675      28113.97817032     -10859.67897532      51881.53483287
   36347843.11603419    2149679.15346996     539909.82023454   -1433944.24127563
     243301.62812012      -9823.91445092     -95661.89995107     176708.23905148
      77170.91147492    4264066.23617807    2390343.58377773     473148.15639459
    -647519.16217089     -98530.13607140     326547.49783545
 Total      moments (au):
         -0.00000000         12.29891317         -1.55728150          5.62109553
       -706.61730986       -414.76812065       -377.64868814        206.46577522
         96.34167135         83.96517590       2609.66553435      -1165.82905540
        456.21741352       2550.40893718      -1071.56659272       -860.58075461
        770.99492286        716.79828886        812.46143749         80.71538283
    -595690.17134811     -92235.51147364     -39497.16467485      53151.97854709
      19642.90564364      37436.51659028       7872.33714906       7180.81161543
       6380.94512817    -117986.66770902     -80258.98855943     -16432.29468563
       6879.09323049       5832.16093107       5196.57270489
 Traceless Quadrup. (au):
       -206.93927031         84.90991890        122.02935141        206.46577522
         96.34167135         83.96517590
 Charge=             -0.0000 electrons
 Dipole moment (field-independent basis, Debye):
    X=             31.2607    Y=             -3.9582    Z=             14.2874  Tot=             34.5981
 Quadrupole moment (field-independent basis, Debye-Ang):
   XX=           -950.4245   YY=           -557.8773   ZZ=           -507.9504
   XY=            277.7035   XZ=            129.5828   YZ=            112.9360
 Traceless Quadrupole moment (field-independent basis, Debye-Ang):
   XX=           -278.3404   YY=            114.2067   ZZ=            164.1337
   XY=            277.7035   XZ=            129.5828   YZ=            112.9360
 Octapole moment (field-independent basis, Debye-Ang**2):
  XXX=           1857.4594  YYY=           -829.7922  ZZZ=            324.7180  XYY=           1815.2828
  XXY=           -762.6998  XXZ=           -612.5282  XZZ=            548.7645  YZZ=            510.1894
  YYZ=            578.2788  XYZ=             57.4501
 Hexadecapole moment (field-independent basis, Debye-Ang**3):
 XXXX=        -224365.4828 YYYY=         -34740.3165 ZZZZ=         -14876.5262 XXXY=          20019.5838
 XXXZ=           7398.4602 YYYX=          14100.3873 YYYZ=           2965.0997 ZZZX=           2704.6380
 ZZZY=           2403.3699 XXYY=         -44439.4367 XXZZ=         -30229.3836 YYZZ=          -6189.1901
 XXYZ=           2590.9964 YYXZ=           2196.6715 ZZXY=           1957.2785
 N-N= 1.906451394415D+04 E-N=-5.059657629516D+04  KE= 5.290891612999D+03
 Leave Link  601 at Wed Sep 18 11:20:16 2019, MaxMem=  1342177280 cpu:              38.9 elap:               1.0
 FitSet:  NAtFit=   176 NAtPot=   176 NAtFrz=     0 MDM=   180 TotChg=   0.00000
 Merz-Kollman atomic radii used.
 Read replacement radii for each type of atom:
 Rad(20) =   1.700000000000D+00
 Atom Element Radius
    1     6    1.50
    2     6    1.50
    3     8    1.40
    4     1    1.20
    5     1    1.20
    6     1    1.20
    7     7    1.50
    8     6    1.50
    9     6    1.50
   10     8    1.40
   11     6    1.50
   12     6    1.50
   13     8    1.40
   14     8    1.40
   15     1    1.20
   16     1    1.20
   17     1    1.20
   18     1    1.20
   19     7    1.50
   20     6    1.50
   21     6    1.50
   22     8    1.40
   23     6    1.50
   24     6    1.50
   25     6    1.50
   26     6    1.50
   27     7    1.50
   28     1    1.20
   29     1    1.20
   30     1    1.20
   31     1    1.20
   32     1    1.20
   33     1    1.20
   34     1    1.20
   35     1    1.20
   36     1    1.20
   37     1    1.20
   38     1    1.20
   39     1    1.20
   40     1    1.20
   41     7    1.50
   42     6    1.50
   43     6    1.50
   44     8    1.40
   45     6    1.50
   46     6    1.50
   47     8    1.40
   48     8    1.40
   49     1    1.20
   50     1    1.20
   51     1    1.20
   52     1    1.20
   53     7    1.50
   54     6    1.50
   55     6    1.50
   56     8    1.40
   57     1    1.20
   58     1    1.20
   59     1    1.20
   60     7    1.50
   61     6    1.50
   62     6    1.50
   63     8    1.40
   64     6    1.50
   65     6    1.50
   66     7    1.50
   67     8    1.40
   68     1    1.20
   69     1    1.20
   70     1    1.20
   71     1    1.20
   72     1    1.20
   73     1    1.20
   74     7    1.50
   75     6    1.50
   76     6    1.50
   77     8    1.40
   78     1    1.20
   79     1    1.20
   80     1    1.20
   81     7    1.50
   82     6    1.50
   83     6    1.50
   84     8    1.40
   85     6    1.50
   86     6    1.50
   87     6    1.50
   88     6    1.50
   89     6    1.50
   90     6    1.50
   91     6    1.50
   92     8    1.40
   93     1    1.20
   94     1    1.20
   95     1    1.20
   96     1    1.20
   97     1    1.20
   98     1    1.20
   99     1    1.20
  100     1    1.20
  101     1    1.20
  102     7    1.50
  103     6    1.50
  104     6    1.50
  105     8    1.40
  106     6    1.50
  107     6    1.50
  108     6    1.50
  109     6    1.50
  110     1    1.20
  111     1    1.20
  112     1    1.20
  113     1    1.20
  114     1    1.20
  115     1    1.20
  116     1    1.20
  117     1    1.20
  118     1    1.20
  119     1    1.20
  120     1    1.20
  121     7    1.50
[...]
 **** Fit      -0.010565
 **** Fit      -0.008497
 **** Fit      -0.006542
 **** Fit      -0.004803
 **** Fit      -0.003332
 **** Fit      -0.002147
 **** Fit      -0.001239
 **** Fit      -0.000586
 **** Fit      -0.000151
 **** Fit       0.000105
 **** Fit       0.000229
 **** Fit       0.000267
 **** Fit       0.000269
 **** Fit      -0.010448
 **** Fit      -0.008622
 **** Fit      -0.006804
 **** Fit      -0.005126
 **** Fit      -0.003667
 **** Fit      -0.002463
 **** Fit      -0.001523
 **** Fit      -0.000831
 **** Fit      -0.000359
 **** Fit      -0.000070
 **** Fit       0.000081
 **** Fit       0.000141
 **** Fit       0.000163
 **** Fit      -0.009871
 **** Fit      -0.008376
 **** Fit      -0.006778
 **** Fit      -0.005234
 **** Fit      -0.003847
 **** Fit      -0.002674
 **** Fit      -0.001739
 **** Fit      -0.001038
 **** Fit      -0.000551
 **** Fit      -0.000245
 **** Fit      -0.000079
 **** Fit      -0.000006
 **** Fit       0.000028
 **** Fit      -0.008330
 **** Fit      -0.006980
 **** Fit      -0.005533
 **** Fit      -0.004155
 **** Fit      -0.002951
 **** Fit      -0.001975
 **** Fit      -0.001242
 **** Fit      -0.000738
 **** Fit      -0.000429
 **** Fit      -0.000269
 **** Fit      -0.000203
 **** Fit      -0.006886
 **** Fit      -0.005683
 **** Fit      -0.004404
 **** Fit      -0.003220
 **** Fit      -0.002233
 **** Fit      -0.001487
 **** Fit      -0.000981
 **** Fit      -0.000684
 **** Fit      -0.000543
 **** Fit      -0.005258
 **** Fit      -0.004119
 **** Fit      -0.003019
 **** Fit      -0.002118
 **** Fit      -0.001485
 **** Fit      -0.001113
 **** Fit      -0.000953
 **** Fit      -0.004469
 **** Fit      -0.003409
 **** Fit      -0.002437
 **** Fit      -0.001793
 **** Fit      -0.001516
 **** Fit      -0.002765
 **** Fit      -0.042781
 **** Fit      -0.039863
 **** Fit      -0.038945
 **** Fit      -0.038033
 **** Fit      -0.036446
 **** Fit      -0.033877
 **** Fit      -0.030376
 **** Fit      -0.038822
 **** Fit      -0.036768
 **** Fit      -0.035597
 **** Fit      -0.034916
 **** Fit      -0.034223
 **** Fit      -0.033060
 **** Fit      -0.031159
 **** Fit      -0.028480
 **** Fit      -0.025134
 **** Fit      -0.034469
 **** Fit      -0.032825
 **** Fit      -0.031675
 **** Fit      -0.030957
 **** Fit      -0.030420
 **** Fit      -0.029729
 **** Fit      -0.028587
 **** Fit      -0.026827
 **** Fit      -0.024436
 **** Fit      -0.021496
 **** Fit      -0.030003
 **** Fit      -0.029409
 **** Fit      -0.028527
 **** Fit      -0.027698
 **** Fit      -0.027066
 **** Fit      -0.026583
 **** Fit      -0.026065
 **** Fit      -0.025281
 **** Fit      -0.024045
 **** Fit      -0.022276
 **** Fit      -0.019993
 **** Fit      -0.017266
 **** Fit      -0.028498
 **** Fit      -0.029845
 **** Fit      -0.024123
 **** Fit      -0.024132
 **** Fit      -0.023836
 **** Fit      -0.023459
 **** Fit      -0.023093
 **** Fit      -0.022696
 **** Fit      -0.022140
 **** Fit      -0.021277
 **** Fit      -0.020002
 **** Fit      -0.018283
 **** Fit      -0.016152
 **** Fit      -0.013657
 **** Fit      -0.022058
 **** Fit      -0.023518
 **** Fit      -0.019744
 **** Fit      -0.020070
 **** Fit      -0.020067
 **** Fit      -0.019894
 **** Fit      -0.019598
 **** Fit      -0.019119
 **** Fit      -0.018347
 **** Fit      -0.017191
 **** Fit      -0.015615
 **** Fit      -0.013644
 **** Fit      -0.011325
 **** Fit      -0.017277
 **** Fit      -0.018872
 **** Fit      -0.016411
 **** Fit      -0.016907
 **** Fit      -0.017039
 **** Fit      -0.016915
 **** Fit      -0.016544
 **** Fit      -0.015866
 **** Fit      -0.014810
 **** Fit      -0.013350
 **** Fit      -0.011514
 **** Fit      -0.013769
 **** Fit      -0.015399
 **** Fit      -0.013827
 **** Fit      -0.014405
 **** Fit      -0.014530
 **** Fit      -0.014266
 **** Fit      -0.013596
 **** Fit      -0.012481
 **** Fit      -0.010935
 **** Fit      -0.009054
 **** Fit      -0.010981
 **** Fit      -0.012693
 **** Fit      -0.011788
 **** Fit      -0.012369
 **** Fit      -0.012230
 **** Fit      -0.011407
 **** Fit      -0.009961
 **** Fit      -0.008127
 **** Fit      -0.010456
 **** Fit      -0.010141
 **** Fit      -0.010428
 **** Fit      -0.009238
 **** Fit      -0.008540
 **** Fit      -0.008764
 **** Fit      -0.002959
 **** Fit      -0.003600
 **** Fit      -0.005656
 **** Fit      -0.002148
 **** Fit      -0.002057
 **** Fit      -0.002082
 **** Fit      -0.002630
 **** Fit      -0.004191
 **** Fit      -0.007418
 **** Fit      -0.001539
 **** Fit      -0.001486
 **** Fit      -0.001437
 **** Fit      -0.001686
 **** Fit      -0.002563
 **** Fit      -0.004477
 **** Fit      -0.007968
 **** Fit      -0.001107
 **** Fit      -0.001103
 **** Fit      -0.001052
 **** Fit      -0.001162
 **** Fit      -0.001660
 **** Fit      -0.002807
 **** Fit      -0.004916
 **** Fit      -0.008381
 **** Fit      -0.013699
 **** Fit      -0.000749
 **** Fit      -0.000856
 **** Fit      -0.000840
 **** Fit      -0.000864
 **** Fit      -0.001095
 **** Fit      -0.001713
 **** Fit      -0.002922
 **** Fit      -0.004954
 **** Fit      -0.008075
 **** Fit      -0.012586
 **** Fit      -0.018785
 **** Fit      -0.000532
 **** Fit      -0.000705
 **** Fit      -0.000742
 **** Fit      -0.000794
 **** Fit      -0.001013
 **** Fit      -0.001558
 **** Fit      -0.002596
 **** Fit      -0.004310
 **** Fit      -0.006891
 **** Fit      -0.010524
 **** Fit      -0.015348
 **** Fit      -0.021387
 **** Fit      -0.000587
 **** Fit      -0.000725
 **** Fit      -0.000809
 **** Fit      -0.000988
 **** Fit      -0.001411
 **** Fit      -0.002229
 **** Fit      -0.003595
 **** Fit      -0.005656
 **** Fit      -0.008533
 **** Fit      -0.012285
 **** Fit      -0.016844
 **** Fit      -0.021923
 **** Fit      -0.020561
 **** Fit      -0.000465
 **** Fit      -0.000745
 **** Fit      -0.000902
 **** Fit      -0.001084
 **** Fit      -0.001432
 **** Fit      -0.002083
 **** Fit      -0.003170
 **** Fit      -0.004807
 **** Fit      -0.007076
 **** Fit      -0.009986
 **** Fit      -0.013431
 **** Fit      -0.017125
 **** Fit      -0.015893
 **** Fit      -0.000861
 **** Fit      -0.001113
 **** Fit      -0.001373
 **** Fit      -0.001801
 **** Fit      -0.002545
 **** Fit      -0.003736
 **** Fit      -0.005463
 **** Fit      -0.007740
 **** Fit      -0.010460
 **** Fit      -0.013339
 **** Fit      -0.001393
 **** Fit      -0.001738
 **** Fit      -0.002247
 **** Fit      -0.003078
 **** Fit      -0.004348
 **** Fit      -0.006094
 **** Fit      -0.008226
 **** Fit      -0.010476
 **** Fit      -0.002015
 **** Fit      -0.002557
 **** Fit      -0.003405
 **** Fit      -0.004681
 **** Fit      -0.006358
 **** Fit      -0.008187
 **** Fit      -0.002658
 **** Fit      -0.003454
 **** Fit      -0.004702
 **** Fit      -0.006269
 **** Fit      -0.009695
 **** Fit      -0.005606
 **** Fit      -0.002712
 **** Fit      -0.000922
 **** Fit      -0.000115
 **** Fit      -0.000132
 **** Fit      -0.000770
 **** Fit      -0.001793
 **** Fit      -0.002954
 **** Fit      -0.004040
 **** Fit      -0.010711
 **** Fit      -0.006290
 **** Fit      -0.002882
 **** Fit      -0.000438
 **** Fit       0.001125
 **** Fit       0.001915
 **** Fit       0.002062
 **** Fit       0.001716
 **** Fit       0.001036
 **** Fit       0.000174
 **** Fit      -0.012419
 **** Fit      -0.007558
 **** Fit      -0.003554
 **** Fit      -0.000438
 **** Fit       0.001825
 **** Fit       0.003301
 **** Fit       0.004081
 **** Fit       0.004274
 **** Fit       0.003999
 **** Fit       0.003382
 **** Fit      -0.002660
 **** Fit       0.000716
 **** Fit       0.003285
 **** Fit       0.005071
 **** Fit       0.006129
 **** Fit       0.073723
 **** Fit       0.068386
 **** Fit       0.061644
 **** Fit       0.088315
 **** Fit       0.084194
 **** Fit       0.078817
 **** Fit       0.072879
 **** Fit       0.066725
 **** Fit       0.095499
 **** Fit       0.089933
 **** Fit       0.084011
 **** Fit       0.078082
 **** Fit       0.072385
 **** Fit       0.098969
 **** Fit       0.092853
 **** Fit       0.086797
 **** Fit       0.080973
 **** Fit       0.075608
 **** Fit       0.103558
 **** Fit       0.097233
 **** Fit       0.091059
 **** Fit       0.085075
 **** Fit       0.079447
 **** Fit       0.074510
 **** Fit       0.105489
 **** Fit       0.099380
 **** Fit       0.093403
 **** Fit       0.087495
 **** Fit       0.081716
 **** Fit       0.076298
 **** Fit       0.071737
 **** Fit       0.104610
 **** Fit       0.099190
 **** Fit       0.093765
 **** Fit       0.088249
 **** Fit       0.082619
 **** Fit       0.076967
 **** Fit       0.071587
 **** Fit       0.067125
 **** Fit       0.102698
 **** Fit       0.098190
 **** Fit       0.093495
 **** Fit       0.088540
 **** Fit       0.083254
 **** Fit       0.077604
 **** Fit       0.071668
 **** Fit       0.065760
 **** Fit       0.060632
 **** Fit       0.097657
 **** Fit       0.094469
 **** Fit       0.090904
 **** Fit       0.086917
 **** Fit       0.082432
 **** Fit       0.077358
 **** Fit       0.071624
 **** Fit       0.065252
 **** Fit       0.058500
 **** Fit       0.052102
 **** Fit       0.091874
 **** Fit       0.090716
 **** Fit       0.089243
 **** Fit       0.087344
 **** Fit       0.084945
 **** Fit       0.081968
 **** Fit       0.078319
 **** Fit       0.073876
 **** Fit       0.068495
 **** Fit       0.062051
 **** Fit       0.054526
 **** Fit       0.046220
 **** Fit       0.079764
 **** Fit       0.079253
 **** Fit       0.079120
 **** Fit       0.078929
 **** Fit       0.078386
 **** Fit       0.077297
 **** Fit       0.075525
 **** Fit       0.072944
 **** Fit       0.069414
 **** Fit       0.064756
 **** Fit       0.058751
 **** Fit       0.051173
 **** Fit       0.066096
 **** Fit       0.067223
 **** Fit       0.067865
 **** Fit       0.067754
 **** Fit       0.066705
 **** Fit       0.064555
 **** Fit       0.061117
 **** Fit       0.056143
 **** Fit       0.049295
 **** Fit       0.040171
 **** Fit       0.055158
 **** Fit       0.057138
 **** Fit       0.058057
 **** Fit       0.057723
 **** Fit       0.055964
 **** Fit       0.052566
 **** Fit       0.047217
 **** Fit       0.039477
 **** Fit       0.044180
 **** Fit       0.047209
 **** Fit       0.048664
 **** Fit       0.048398
 **** Fit       0.046239
 **** Fit       0.041926
 **** Fit       0.035069
 **** Fit       0.038089
 **** Fit       0.039730
 **** Fit       0.039198
 **** Fit       0.036355
 **** Fit       0.030974
 **** Fit       0.028942
 **** Fit       0.031166
 **** Fit       0.030667
 **** Fit       0.027450
 **** Fit       0.021552
 **** Fit       0.023425
 **** Fit       0.022933
 **** Fit       0.019702
 **** Fit       0.014428
 **** Fit       0.017033
 **** Fit       0.016877
 **** Fit       0.048712
 **** Fit       0.045446
 **** Fit       0.046395
 **** Fit       0.049566
 **** Fit       0.051190
 **** Fit       0.051444
 **** Fit       0.049084
 **** Fit       0.041024
 **** Fit       0.040381
 **** Fit       0.044690
 **** Fit       0.049332
 **** Fit       0.051458
 **** Fit       0.052266
 **** Fit       0.054413
 **** Fit       0.053647
 **** Fit       0.050786
 **** Fit       0.045807
 **** Fit       0.050822
 **** Fit       0.053860
 **** Fit       0.054125
 **** Fit       0.057411
 **** Fit       0.059165
 **** Fit       0.059177
 **** Fit       0.057259
 **** Fit       0.067522
 **** Fit       0.063498
 **** Fit       0.059127
 **** Fit       0.071007
 **** Fit       0.063604
 **** Fit       0.069487
 **** Fit       0.060242
 **** Fit       0.060079
 **** Fit       0.049349
 **** Fit       0.052663
 **** Fit       0.051912
 **** Fit       0.051224
 **** Fit       0.052755
 **** Fit       0.054192
 **** Fit       0.053287
 **** Fit       0.051604
 **** Fit       0.049543
 **** Fit       0.048918
 **** Fit       0.050225
 **** Fit       0.052805
 **** Fit       0.055497
 **** Fit       0.054421
 **** Fit       0.051403
 **** Fit       0.048187
 **** Fit       0.046073
 **** Fit       0.045716
 **** Fit       0.047033
 **** Fit       0.049539
 **** Fit       0.052742
 **** Fit       0.056173
 **** Fit       0.059210
 **** Fit       0.054152
 **** Fit       0.049385
 **** Fit       0.045095
 **** Fit       0.042226
 **** Fit       0.041298
 **** Fit       0.042231
 **** Fit       0.044496
 **** Fit       0.047582
 **** Fit       0.051215
 **** Fit       0.055228
 **** Fit       0.059409
 **** Fit       0.056643
 **** Fit       0.050003
 **** Fit       0.043817
 **** Fit       0.038947
 **** Fit       0.036135
 **** Fit       0.035747
 **** Fit       0.037434
 **** Fit       0.040360
 **** Fit       0.043872
 **** Fit       0.047783
 **** Fit       0.052103
 **** Fit       0.056830
 **** Fit       0.061915
 **** Fit       0.051000
 **** Fit       0.042812
 **** Fit       0.035823
 **** Fit       0.030742
 **** Fit       0.028338
 **** Fit       0.028926
 **** Fit       0.031834
 **** Fit       0.035757
 **** Fit       0.039809
 **** Fit       0.043919
 **** Fit       0.048321
 **** Fit       0.053141
 **** Fit       0.058430
 **** Fit       0.064271
 **** Fit       0.056480
 **** Fit       0.045183
 **** Fit       0.035140
 **** Fit       0.026758
 **** Fit       0.020915
 **** Fit       0.018776
 **** Fit       0.020849
 **** Fit       0.040964
 **** Fit       0.045611
 **** Fit       0.050720
 **** Fit       0.056312
 **** Fit       0.062512
 **** Fit       0.049759
 **** Fit       0.036422
 **** Fit       0.024736
 **** Fit       0.015126
 **** Fit       0.034213
 **** Fit       0.050644
 **** Fit       0.047136
 **** Fit       0.053913
 **** Fit       0.051190
 **** Fit       0.043245
 **** Fit       0.040310
 **** Fit       0.057463
 **** Fit       0.056730
 **** Fit       0.055269
 **** Fit       0.052394
 **** Fit       0.048036
 **** Fit       0.039004
 **** Fit       0.059870
 **** Fit       0.059224
 **** Fit       0.058549
 **** Fit       0.057077
 **** Fit       0.054218
 **** Fit       0.049954
 **** Fit       0.044701
 **** Fit       0.062105
 **** Fit       0.061497
 **** Fit       0.061493
 **** Fit       0.061327
 **** Fit       0.060126
 **** Fit       0.057339
 **** Fit       0.053010
 **** Fit       0.047564
 **** Fit       0.041415
 **** Fit       0.063296
 **** Fit       0.063438
 **** Fit       0.064344
 **** Fit       0.065108
 **** Fit       0.064619
 **** Fit       0.062099
 **** Fit       0.057597
 **** Fit       0.051697
 **** Fit       0.044987
 **** Fit       0.064368
 **** Fit       0.065587
 **** Fit       0.067763
 **** Fit       0.063614
 **** Fit       0.056980
 **** Fit       0.049348
 **** Fit       0.064593
 -----------------------------------------------------------------
 Leave Link  602 at Wed Sep 18 11:20:19 2019, MaxMem=  1342177280 cpu:             126.4 elap:               2.7

 Test job not archived.
 1\1\GINC-C479-001\SP\RB3LYP\SVP\C54H83Ca1N15O23\PENGZHI\18-Sep-2019\0\
 \#b3lyp/svp scf=(tight,noincore) Test #IOP(5/87=12) Density=Current Po
 p=(MK,readradii) iop(6/33=2) iop(6/42=6)\\Ng-295_loop3_29.0\\0,1\C,0,9
 9.511,77.781,29.77\C,0,98.661,76.561,29.47\O,0,97.591,76.401,30.04\H,0
 ,100.44,77.724,29.203\H,0,98.967,78.682,29.486\H,0,99.738,77.813,30.83
 6\N,0,99.081,75.621,28.62\C,0,98.431,74.361,28.32\C,0,99.361,73.271,27
 .79\O,0,100.261,73.551,27.01\C,0,97.251,74.641,27.39\C,0,96.231,73.511
 ,27.4\O,0,96.471,72.381,26.93\O,0,95.131,73.731,27.94\H,0,100.001,75.6
 81,28.21\H,0,98.031,73.921,29.23\H,0,97.501,74.841,26.35\H,0,96.751,75
 .551,27.7\N,0,99.101,72.011,28.14\C,0,99.881,70.881,27.68\C,0,99.571,7
 0.401,26.26\O,0,100.451,69.881,25.58\C,0,99.571,69.741,28.65\C,0,98.10
 1,69.311,28.66\C,0,97.801,68.331,29.79\C,0,97.561,69.131,31.06\N,0,97.
 511,68.221,32.22\H,0,98.331,71.791,28.76\H,0,100.951,71.071,27.7\H,0,9
 9.971,70.091,29.6\H,0,100.131,68.841,28.39\H,0,97.961,68.681,27.78\H,0
 ,97.411,70.151,28.63\H,0,98.661,67.671,29.92\H,0,96.981,67.631,29.59\H
 ,0,96.571,69.541,30.92\H,0,98.311,69.911,31.21\H,0,97.191,68.721,33.03
 \H,0,96.901,67.431,32.11\H,0,98.401,67.831,32.51\N,0,98.351,70.591,25.
 75\C,0,97.881,70.261,24.43\C,0,97.521,71.441,23.53\O,0,97.371,71.351,2
 2.32\C,0,96.751,69.271,24.66\C,0,95.761,69.881,25.64\O,0,94.931,70.701
 ,25.19\O,0,95.511,69.341,26.73\H,0,97.751,71.081,26.41\H,0,98.661,69.7
 61,23.86\H,0,97.271,68.401,25.06\H,0,96.271,68.991,23.71\N,0,97.361,72
 .641,24.1\C,0,96.851,73.821,23.44\C,0,95.391,73.881,23.03\O,0,94.971,7
 4.791,22.32\H,0,97.431,72.601,25.11\H,0,97.331,73.901,22.46\H,0,97.061
 ,74.711,24.04\N,0,94.551,72.951,23.49\C,0,93.101,73.011,23.41\C,0,92.6
 01,73.591,24.73\O,0,92.821,72.961,25.77\C,0,92.461,71.631,23.26\C,0,90
 .971,71.671,22.95\N,0,90.351,70.581,22.5\O,0,90.211,72.621,23.1\H,0,94
 .871,72.231,24.12\H,0,92.861,73.651,22.57\H,0,92.551,71.021,24.16\H,0,
 92.991,71.101,22.48\H,0,90.871,69.721,22.41\H,0,89.351,70.631,22.39\N,
 0,91.751,74.621,24.68\C,0,91.091,75.221,25.82\C,0,89.821,74.621,26.41\
 O,0,89.301,75.211,27.36\H,0,91.491,74.941,23.76\H,0,90.871,76.231,25.5
 1\H,0,91.811,75.241,26.65\N,0,89.351,73.501,25.86\C,0,88.151,72.871,26
 .37\C,0,88.161,72.471,27.83\O,0,89.211,72.101,28.34\C,0,87.811,71.711,
 25.44\C,0,86.521,70.981,25.72\C,0,86.461,70.121,26.82\C,0,85.481,71.05
 1,24.79\C,0,85.321,69.341,27.03\C,0,84.301,70.321,25.\C,0,84.241,69.49
 1,26.14\O,0,83.181,68.661,26.35\H,0,89.861,73.051,25.11\H,0,87.331,73.
 581,26.23\H,0,88.621,70.981,25.44\H,0,87.671,72.091,24.43\H,0,87.291,7
 0.001,27.51\H,0,85.551,71.731,23.95\H,0,85.211,68.681,27.88\H,0,83.451
 ,70.351,24.34\H,0,82.461,68.861,25.75\N,0,87.001,72.681,28.47\C,0,86.6
 31,72.391,29.84\C,0,86.481,70.931,30.25\O,0,87.331,70.121,29.88\C,0,87
 .551,73.141,30.8\C,0,87.351,72.961,32.3\C,0,87.611,74.621,30.42\C,0,85
 .971,73.421,32.76\H,0,86.261,73.011,27.87\H,0,85.631,72.811,29.92\H,0,
 88.581,72.851,30.61\H,0,88.061,73.631,32.79\H,0,87.491,71.931,32.62\H,
 0,88.221,74.761,29.53\H,0,86.601,75.011,30.35\H,0,88.091,75.251,31.17\
 H,0,85.751,74.381,32.28\H,0,85.161,72.721,32.59\H,0,86.041,73.521,33.8
 4\N,0,85.461,70.581,31.04\C,0,85.351,69.321,31.76\C,0,83.941,68.761,31
 .74\O,0,83.851,67.541,31.88\C,0,85.891,69.551,33.17\O,0,85.141,70.471,
 33.93\H,0,84.791,71.311,31.22\H,0,86.091,68.661,31.31\H,0,86.951,69.74
 1,32.98\H,0,85.831,68.611,33.71\H,0,85.451,70.401,34.84\N,0,82.891,69.
 561,31.53\C,0,81.561,69.011,31.3\C,0,80.981,68.131,32.4\O,0,80.291,67.
 171,32.09\C,0,81.441,68.371,29.92\H,0,83.031,70.521,31.29\H,0,80.801,6
 9.791,31.25\H,0,81.901,67.381,29.81\H,0,80.371,68.291,29.77\H,0,81.971
 ,69.071,29.27\N,0,80.941,68.461,33.69\C,0,81.711,69.461,34.4\C,0,80.81
 1,70.401,35.2\O,0,79.711,70.041,35.6\C,0,82.661,68.681,35.3\H,0,80.461
 ,67.781,34.27\H,0,82.301,70.091,33.73\H,0,83.461,68.251,34.68\H,0,83.1
 21,69.331,36.04\H,0,82.101,67.921,35.84\N,0,81.211,71.641,35.45\C,0,82
 .451,72.361,35.2\C,0,82.201,73.821,34.82\O,0,82.971,74.431,34.08\C,0,8
 3.361,72.321,36.43\C,0,82.781,72.951,37.69\C,0,83.791,72.911,38.83\O,0
 ,83.871,71.891,39.55\O,0,84.521,73.881,39.13\H,0,80.601,72.181,36.05\H
 ,0,83.091,71.911,34.45\H,0,84.221,72.911,36.12\H,0,83.561,71.271,36.62
 \H,0,81.871,72.411,37.94\H,0,82.611,74.011,37.48\N,0,81.071,74.381,35.
 25\C,0,80.661,75.731,34.9\H,0,79.729,75.971,35.412\H,0,81.434,76.436,3
 5.204\H,0,80.51,75.798,33.823\H,0,80.451,73.851,35.84\Ca,0,94.06,71.45
 ,27.5\O,0,91.89,70.17,26.58\H,0,91.08,69.77,26.91\H,0,92.01,69.78,25.7
 2\\Version=ES64L-G16RevA.03\State=1-A\HF=-5333.413241\RMSD=1.137e-09\D
 ipole=11.0998035,-4.8707617,-6.1931534\Quadrupole=54.9246756,78.010589
 5,-132.9352651,-97.5189323,260.5180754,-25.6057776\PG=C01 [X(C54H83Ca1
 N15O23)]\\@


 WHEN ALL ELSE FAILS, LOOK AT THE SCHRODINGER EQUATION.
     -- RUSSELL T. PACK, APRIL 1978
 Job cpu time:       0 days 11 hours 49 minutes  4.6 seconds.
 Elapsed time:       0 days  0 hours 14 minutes 57.5 seconds.
 File lengths (MBytes):  RWF=   1517 Int=      0 D2E=      0 Chk=    171 Scr=      1
 Normal termination of Gaussian 16 at Wed Sep 18 11:20:20 2019.
