 Entering Gaussian System, Link 0=g16
 Initial command:
 /home1/apps/gaussian/16rA.03/g16/l1.exe "/scratch/01990/pengzhi/4353670/Gau-174104.inp" -scrdir="/scratch/01990/pengzhi/4353670/"
 Entering Link 1 = /home1/apps/gaussian/16rA.03/g16/l1.exe PID=    174105.
  
 Copyright (c) 1988,1990,1992,1993,1995,1998,2003,2009,2016,
            Gaussian, Inc.  All Rights Reserved.
  
 This is part of the Gaussian(R) 16 program.  It is based on
 the Gaussian(R) 09 system (copyright 2009, Gaussian, Inc.),
 the Gaussian(R) 03 system (copyright 2003, Gaussian, Inc.),
 the Gaussian(R) 98 system (copyright 1998, Gaussian, Inc.),
 the Gaussian(R) 94 system (copyright 1995, Gaussian, Inc.),
 the Gaussian 92(TM) system (copyright 1992, Gaussian, Inc.),
 the Gaussian 90(TM) system (copyright 1990, Gaussian, Inc.),
 the Gaussian 88(TM) system (copyright 1988, Gaussian, Inc.),
 the Gaussian 86(TM) system (copyright 1986, Carnegie Mellon
 University), and the Gaussian 82(TM) system (copyright 1983,
 Carnegie Mellon University). Gaussian is a federally registered
 trademark of Gaussian, Inc.
  
 This software contains proprietary and confidential information,
 including trade secrets, belonging to Gaussian, Inc.
  
 This software is provided under written license and may be
 used, copied, transmitted, or stored only in accord with that
 written license.
  
 The following legend is applicable only to US Government
 contracts under FAR:
  
                    RESTRICTED RIGHTS LEGEND
  
 Use, reproduction and disclosure by the US Government is
 subject to restrictions as set forth in subparagraphs (a)
 and (c) of the Commercial Computer Software - Restricted
 Rights clause in FAR 52.227-19.
  
 Gaussian, Inc.
 340 Quinnipiac St., Bldg. 40, Wallingford CT 06492
  
  
 ---------------------------------------------------------------
 Warning -- This program may not be used in any manner that
 competes with the business of Gaussian, Inc. or will provide
 assistance to any competitor of Gaussian, Inc.  The licensee
 of this program is prohibited from giving any competitor of
 Gaussian, Inc. access to this program.  By using this program,
 the user acknowledges that Gaussian, Inc. is engaged in the
 business of creating and licensing software in the field of
 computational chemistry and represents and warrants to the
 licensee that it is not a competitor of Gaussian, Inc. and that
 it will not use this program in any manner prohibited above.
 ---------------------------------------------------------------
  

 Cite this work as:
 Gaussian 16, Revision A.03,
 M. J. Frisch, G. W. Trucks, H. B. Schlegel, G. E. Scuseria, 
 M. A. Robb, J. R. Cheeseman, G. Scalmani, V. Barone, 
 G. A. Petersson, H. Nakatsuji, X. Li, M. Caricato, A. V. Marenich, 
 J. Bloino, B. G. Janesko, R. Gomperts, B. Mennucci, H. P. Hratchian, 
 J. V. Ortiz, A. F. Izmaylov, J. L. Sonnenberg, D. Williams-Young, 
 F. Ding, F. Lipparini, F. Egidi, J. Goings, B. Peng, A. Petrone, 
 T. Henderson, D. Ranasinghe, V. G. Zakrzewski, J. Gao, N. Rega, 
 G. Zheng, W. Liang, M. Hada, M. Ehara, K. Toyota, R. Fukuda, 
 J. Hasegawa, M. Ishida, T. Nakajima, Y. Honda, O. Kitao, H. Nakai, 
 T. Vreven, K. Throssell, J. A. Montgomery, Jr., J. E. Peralta, 
 F. Ogliaro, M. J. Bearpark, J. J. Heyd, E. N. Brothers, K. N. Kudin, 
 V. N. Staroverov, T. A. Keith, R. Kobayashi, J. Normand, 
 K. Raghavachari, A. P. Rendell, J. C. Burant, S. S. Iyengar, 
 J. Tomasi, M. Cossi, J. M. Millam, M. Klene, C. Adamo, R. Cammi, 
 J. W. Ochterski, R. L. Martin, K. Morokuma, O. Farkas, 
 J. B. Foresman, and D. J. Fox, Gaussian, Inc., Wallingford CT, 2016.
 
 ******************************************
 Gaussian 16:  ES64L-G16RevA.03 25-Dec-2016
                18-Sep-2019 
 ******************************************
 %chk=Ng-295_loop3_26.0.chk
 %nprocshared=48
 Will use up to   48 processors via shared memory.
 %mem=10GB
 %nosave
 ----------------------------------------------------------------------
 #b3lyp/svp scf=(tight,noincore) Test #IOP(5/87=12) Density=Current Pop
 =(MK,readradii) iop(6/33=2) iop(6/42=6)
 ----------------------------------------------------------------------
 1/30=1,38=1,172=1/1;
 2/12=2,17=6,18=5,40=1/2;
 3/5=18,7=101,11=2,25=1,30=1,74=-5/1,2,3;
 4//1;
 5/5=4,32=2,38=5,87=12/2;
 6/7=2,8=2,9=2,10=2,15=8,20=101,22=-1,28=1,33=2,42=6/1,2;
 99/5=1,9=1/99;
 -----------------
 Ng-295_loop3_26.0
 -----------------
 Symbolic Z-matrix:
 Charge =  0 Multiplicity = 1
 C                     89.329    72.769    58.26 
 C                     88.859    71.329    58.41 
 O                     87.669    71.109    58.66 
 H                     90.297    72.784    57.759 
 H                     88.605    73.328    57.667 
 H                     89.423    73.226    59.245 
 N                     89.769    70.369    58.22 
 C                     89.479    68.959    58.37 
 C                     89.169    68.599    59.82 
 O                     89.879    69.009    60.74 
 C                     90.679    68.229    57.78 
 C                     90.399    66.729    57.7 
 O                     90.369    66.099    56.62 
 O                     90.229    66.039    58.73 
 H                     90.669    70.749    57.94 
 H                     88.579    68.639    57.84 
 H                     91.529    68.389    58.44 
 H                     90.959    68.749    56.86 
 N                     88.129    67.799    60.05 
 C                     87.589    67.549    61.37 
 C                     88.499    66.819    62.35 
 O                     88.449    67.069    63.55 
 C                     86.269    66.809    61.21 
 C                     86.409    65.379    60.69 
 C                     85.099    64.619    60.51 
 C                     85.239    63.509    59.47 
 N                     86.209    62.459    59.84 
 H                     87.559    67.459    59.29 
 H                     87.369    68.539    61.78 
 H                     85.599    67.369    60.56 
 H                     85.689    66.839    62.14 
 H                     87.079    64.789    61.32 
 H                     86.829    65.469    59.69 
 H                     84.359    65.359    60.21 
 H                     84.869    64.199    61.49 
 H                     85.569    63.899    58.51 
 H                     84.219    63.139    59.37 
 H                     87.149    62.819    59.88 
 H                     86.059    62.099    60.78 
 H                     86.249    61.729    59.14 
 N                     89.339    65.949    61.79 
 C                     90.189    65.019    62.51 
 C                     91.679    65.239    62.32 
 O                     92.529    64.769    63.09 
 C                     89.919    63.589    62.03 
 C                     89.829    63.479    60.52 
 O                     88.719    63.609    59.95 
 O                     90.869    63.289    59.86 
 H                     89.339    65.839    60.79 
 H                     90.019    65.179    63.58 
 H                     88.989    63.309    62.51 
 H                     90.659    62.899    62.44 
 N                     92.049    65.949    61.25 
 C                     93.409    66.339    60.95 
 C                     93.929    65.659    59.69 
 O                     94.609    66.319    58.91 
 H                     91.349    66.059    60.53 
 H                     94.059    66.159    61.81 
 H                     93.399    67.409    60.74 
 N                     93.589    64.409    59.34 
 C                     94.079    63.569    58.26 
 C                     93.349    63.769    56.94 
 O                     92.129    63.639    56.96 
 C                     93.949    62.129    58.75 
 C                     94.839    61.189    57.95 
 N                     95.769    60.479    58.58 
 O                     94.619    61.049    56.75 
 H                     92.919    63.949    59.93 
 H                     95.139    63.799    58.16 
 H                     92.909    61.859    58.56 
 H                     94.169    62.069    59.82 
 H                     95.839    60.579    59.58 
 H                     96.469    59.939    58.08 
 N                     94.069    63.979    55.83 
 C                     93.419    64.209    54.56 
 C                     92.699    63.029    53.94 
 O                     92.129    63.159    52.86 
 H                     95.069    63.839    55.88 
 H                     94.319    64.379    53.97 
 H                     92.759    65.069    54.7 
 N                     92.649    61.869    54.6 
 C                     91.769    60.769    54.27 
 C                     90.279    61.089    54.39 
 O                     89.839    61.709    55.36 
 C                     92.059    59.449    54.99 
 C                     91.179    58.229    55.08 
 C                     90.509    58.049    56.29 
 C                     91.039    57.369    53.98 
 C                     89.559    57.019    56.38 
 C                     90.149    56.289    54.12 
 C                     89.429    56.109    55.32 
 O                     88.489    55.119    55.39 
 H                     93.159    61.769    55.47 
 H                     91.919    60.439    53.24 
 H                     92.139    59.729    56.04 
 H                     93.039    59.109    54.67 
 H                     90.649    58.509    57.26 
 H                     91.479    57.669    53.04 
 H                     88.979    56.869    57.28 
 H                     89.939    55.679    53.26 
 H                     88.629    54.509    54.66 
 N                     89.529    60.689    53.37 
 C                     88.089    60.799    53.2 
 C                     87.399    59.979    54.28 
 O                     87.609    60.059    55.49 
 C                     87.679    62.249    52.96 
 C                     86.159    62.249    52.89 
 C                     88.349    62.779    51.7 
 C                     85.579    63.649    53.04 
 H                     90.059    60.299    52.61 
 H                     87.829    60.189    52.33 
 H                     87.949    62.839    53.83 
 H                     85.649    61.709    53.7 
 H                     85.749    61.859    51.96 
 H                     89.419    62.599    51.76 
 H                     87.879    62.419    50.78 
 H                     88.349    63.869    51.59 
 H                     84.489    63.659    53.1 
 H                     86.049    64.079    53.92 
 H                     85.899    64.269    52.2 
 N                     86.449    59.199    53.76 
 C                     85.499    58.389    54.5 
 C                     84.779    57.289    53.74 
 O                     84.169    56.429    54.37 
 C                     84.389    59.269    55.05 
 O                     83.649    59.879    54.01 
 H                     86.239    59.239    52.77 
 H                     86.119    58.029    55.33 
 H                     84.809    60.099    55.61 
 H                     83.709    58.659    55.65 
 H                     83.469    60.759    54.36 
 N                     84.789    57.379    52.4 
 C                     84.249    56.459    51.42 
 C                     82.859    55.909    51.72 
 O                     82.729    54.699    51.87 
 C                     85.349    55.439    51.12 
 H                     85.349    58.099    51.97 
 H                     84.179    57.049    50.5 
 H                     85.849    55.139    52.04 
 H                     85.029    54.599    50.51 
 H                     86.109    55.959    50.54 
 N                     81.769    56.659    51.86 
 C                     81.599    58.079    51.63 
 C                     81.069    58.429    50.24 
 O                     80.139    57.809    49.74 
 C                     80.719    58.479    52.81 
 H                     80.949    56.129    52.12 
 H                     82.569    58.519    51.83 
 H                     79.659    58.289    52.66 
 H                     80.959    58.039    53.78 
 H                     80.709    59.559    52.93 
 N                     81.499    59.569    49.69 
 C                     82.299    60.629    50.27 
 C                     83.239    61.139    49.19 
 O                     84.379    61.409    49.55 
 C                     81.469    61.769    50.86 
 C                     82.229    62.839    51.63 
 C                     81.389    63.879    52.36 
 O                     80.909    64.829    51.71 
 O                     81.049    63.699    53.55 
 H                     81.239    59.759    48.74 
 H                     83.009    60.299    51.04 
 H                     80.669    61.399    51.49 
 H                     80.969    62.279    50.04 
 H                     82.879    63.299    50.88 
 H                     82.729    62.249    52.4 
 N                     82.789    61.329    47.94 
 C                     83.509    61.719    46.75 
 H                     84.507    61.28     46.769 
 H                     82.974    61.365    45.869 
 H                     83.591    62.805    46.714 
 H                     81.779    61.319    47.87 
 Ca                    89.67     63.64     57.45 
 O                     89.52     60.97     57.93 
 H                     88.91     60.55     58.53 
 H                     89.48     60.44     57.14 
 
 Stoichiometry    C54H83CaN15O23
 Framework group  C1[X(C54H83CaN15O23)]
 Deg. of freedom   522
 Full point group                 C1      NOp   1
 Largest Abelian subgroup         C1      NOp   1
 Largest concise Abelian subgroup C1      NOp   1
                         Standard orientation:                         
 ---------------------------------------------------------------------
 Center     Atomic      Atomic             Coordinates (Angstroms)
 Number     Number       Type             X           Y           Z
 ---------------------------------------------------------------------
      1          6           0       -7.724309    6.414792    3.437973
      2          6           0       -6.768866    5.743420    2.461557
      3          8           0       -6.132683    6.443863    1.666792
      4          1           0       -7.967828    5.720390    4.242183
      5          1           0       -7.251500    7.303283    3.856712
      6          1           0       -8.637515    6.700274    2.915992
      7          7           0       -6.642401    4.415987    2.549461
      8          6           0       -5.804884    3.637580    1.662136
      9          6           0       -6.334352    3.652084    0.231174
     10          8           0       -7.529358    3.464139   -0.003849
     11          6           0       -5.718873    2.252356    2.290432
     12          6           0       -4.695244    1.396281    1.546041
     13          8           0       -3.665080    0.940787    2.089629
     14          8           0       -4.863472    1.066065    0.350819
     15          1           0       -7.183287    4.033242    3.320013
     16          1           0       -4.793722    4.036422    1.553613
     17          1           0       -6.695495    1.780975    2.202627
     18          1           0       -5.588566    2.388515    3.367317
     19          7           0       -5.454942    3.838077   -0.751956
     20          6           0       -5.833697    4.089279   -2.126708
     21          6           0       -6.558767    2.960843   -2.849414
     22          8           0       -7.411582    3.210420   -3.695238
     23          6           0       -4.586724    4.504109   -2.893895
     24          6           0       -3.565067    3.384155   -3.085779
     25          6           0       -2.300443    3.777189   -3.842317
     26          6           0       -1.129988    2.865124   -3.479727
     27          7           0       -1.336131    1.449812   -3.846741
     28          1           0       -4.476379    3.980664   -0.551497
     29          1           0       -6.502567    4.953821   -2.084509
     30          1           0       -4.109552    5.353044   -2.407463
     31          1           0       -4.853059    4.967765   -3.851124
     32          1           0       -4.013504    2.513522   -3.570345
     33          1           0       -3.230225    3.116328   -2.085454
     34          1           0       -2.098973    4.813508   -3.576511
     35          1           0       -2.550620    3.677560   -4.899287
     36          1           0       -0.932358    2.873179   -2.410392
     37          1           0       -0.290869    3.328077   -3.998240
     38          1           0       -2.087398    1.034843   -3.319296
     39          1           0       -1.639268    1.334080   -4.811320
     40          1           0       -0.527022    0.886526   -3.617502
     41          7           0       -6.212017    1.734505   -2.459593
     42          6           0       -6.633002    0.500048   -3.095743
     43          6           0       -7.475783   -0.411952   -2.222486
     44          8           0       -8.178022   -1.321958   -2.686220
     45          6           0       -5.404742   -0.326861   -3.490455
     46          6           0       -4.356577   -0.388511   -2.395992
     47          8           0       -3.446810    0.474312   -2.354047
     48          8           0       -4.430513   -1.283132   -1.531419
     49          1           0       -5.531305    1.625188   -1.726940
     50          1           0       -7.288411    0.767679   -3.931335
     51          1           0       -5.025491    0.153839   -4.384210
     52          1           0       -5.701705   -1.324555   -3.819421
     53          7           0       -7.406496   -0.211306   -0.903077
     54          6           0       -8.200066   -0.915016    0.080152
     55          6           0       -7.341413   -1.802769    0.971786
     56          8           0       -7.599974   -1.848501    2.170725
     57          1           0       -6.624156    0.340902   -0.581345
     58          1           0       -9.003029   -1.476276   -0.404345
     59          1           0       -8.646047   -0.163677    0.732601
     60          7           0       -6.252261   -2.449358    0.528763
     61          6           0       -5.401403   -3.422276    1.193271
     62          6           0       -4.278556   -2.804823    2.013798
     63          8           0       -3.531590   -2.027253    1.428027
     64          6           0       -4.848984   -4.324677    0.092769
     65          6           0       -4.343372   -5.643432    0.659287
     66          7           0       -4.873302   -6.783304    0.228283
     67          8           0       -3.397979   -5.623672    1.442768
     68          1           0       -5.990165   -2.276476   -0.425186
     69          1           0       -6.062774   -4.018374    1.820771
     70          1           0       -3.997090   -3.780199   -0.317622
     71          1           0       -5.604875   -4.488980   -0.680880
     72          1           0       -5.588089   -6.730818   -0.479690
     73          1           0       -4.664277   -7.676482    0.664334
     74          7           0       -4.110035   -3.205445    3.280961
     75          6           0       -3.079708   -2.622260    4.109588
     76          6           0       -1.646490   -2.957979    3.751289
     77          8           0       -0.724896   -2.495805    4.418566
     78          1           0       -4.629412   -4.013709    3.595694
     79          1           0       -3.313894   -3.162346    5.026356
     80          1           0       -3.261856   -1.544519    4.119423
     81          7           0       -1.397081   -3.715335    2.679885
     82          6           0       -0.097115   -3.871736    2.064313
     83          6           0        0.495402   -2.582992    1.494259
     84          8           0       -0.195718   -1.803592    0.835633
     85          6           0        0.010146   -4.981408    1.014540
     86          6           0        1.114615   -5.208541    0.014810
     87          6           0        0.839464   -4.819233   -1.295965
     88          6           0        2.344395   -5.747823    0.422262
     89          6           0        1.880098   -4.863205   -2.237583
     90          6           0        3.347313   -5.867977   -0.556419
     91          6           0        3.106595   -5.443409   -1.880276
     92          8           0        4.132245   -5.467066   -2.783649
     93          1           0       -2.170740   -4.120502    2.165791
     94          1           0        0.637217   -4.243163    2.782017
     95          1           0       -0.839238   -4.808102    0.354380
     96          1           0       -0.159429   -5.927689    1.518718
     97          1           0       -0.092028   -4.564862   -1.785576
     98          1           0        2.516467   -5.880568    1.480549
     99          1           0        1.730298   -4.526842   -3.254107
    100          1           0        4.331612   -6.174278   -0.251238
    101          1           0        4.838260   -6.018256   -2.433889
    102          7           0        1.769637   -2.362775    1.795474
    103          6           0        2.628211   -1.266311    1.376885
    104          6           0        2.793183   -1.316122   -0.134803
    105          8           0        1.879862   -1.370555   -0.957897
    106          6           0        2.219954    0.035408    2.060299
    107          6           0        3.121432    1.114810    1.479328
    108          6           0        2.335772   -0.109863    3.571221
    109          6           0        2.594191    2.514936    1.763169
    110          1           0        2.154463   -3.038054    2.433053
    111          1           0        3.646943   -1.537353    1.668984
    112          1           0        1.206456    0.285297    1.763184
    113          1           0        3.200132    1.124752    0.383195
    114          1           0        4.142424    1.102987    1.856868
    115          1           0        1.792429   -0.995692    3.889003
    116          1           0        3.368105   -0.057612    3.929630
    117          1           0        1.811179    0.651608    4.158727
    118          1           0        3.166788    3.299538    1.264839
    119          1           0        1.548618    2.510529    1.468286
    120          1           0        2.597855    2.695383    2.840120
    121          7           0        4.076570   -1.204224   -0.483652
    122          6           0        4.593967   -1.072917   -1.833192
    123          6           0        6.070594   -1.356985   -2.045041
    124          8           0        6.491560   -1.506250   -3.189203
    125          6           0        4.400398    0.352253   -2.323520
    126          8           0        5.132031    1.273569   -1.537904
    127          1           0        4.788025   -1.058506    0.222321
    128          1           0        3.924474   -1.740123   -2.389533
    129          1           0        3.364156    0.653886   -2.204696
    130          1           0        4.743521    0.427297   -3.358477
    131          1           0        4.537667    2.030516   -1.482574
    132          7           0        6.847973   -1.343969   -0.949910
    133          6           0        8.261677   -1.636862   -0.831360
    134          6           0        9.159212   -1.024098   -1.900730
    135          8           0        9.797625   -1.775995   -2.629139
    136          6           0        8.381823   -3.145145   -0.605421
    137          1           0        6.407206   -1.250958   -0.047705
    138          1           0        8.551478   -1.202510    0.131321
    139          1           0        7.691552   -3.681957   -1.254851
    140          1           0        9.398100   -3.526563   -0.647853
    141          1           0        8.030078   -3.339641    0.405938
    142          7           0        9.279625    0.282434   -2.121354
    143          6           0        8.746001    1.392632   -1.359182
    144          6           0        9.717823    1.970790   -0.331176
    145          8           0       10.890473    2.181393   -0.613732
    146          6           0        8.292536    2.337481   -2.467527
    147          1           0        9.869360    0.502332   -2.911771
    148          1           0        7.834944    1.017600   -0.907712
    149          1           0        9.087369    2.953624   -2.880817
    150          1           0        7.794138    1.889037   -3.329268
    151          1           0        7.636224    3.106436   -2.068950
    152          7           0        9.196492    2.447229    0.803821
    153          6           0        7.808222    2.640515    1.171719
    154          6           0        7.670749    2.294853    2.645394
    155          8           0        6.656858    1.684673    2.964462
    156          6           0        7.290339    4.050196    0.886770
    157          6           0        5.801243    4.285066    1.093719
    158          6           0        5.256475    5.636175    0.648937
    159          8           0        5.414260    6.623621    1.394226
    160          8           0        4.807461    5.790009   -0.508138
    161          1           0        9.829745    2.735089    1.526543
    162          1           0        7.108860    1.928392    0.713818
    163          1           0        7.552029    4.380038   -0.111490
    164          1           0        7.804295    4.737605    1.554466
    165          1           0        5.649777    4.121277    2.164621
    166          1           0        5.361845    3.539903    0.428390
    167          7           0        8.597519    2.708284    3.523616
    168          6           0        8.717802    2.431424    4.936230
    169          1           0        8.381437    1.413738    5.136881
    170          1           0        9.759349    2.535393    5.239664
    171          1           0        8.103152    3.134112    5.498237
    172          1           0        9.216549    3.417746    3.151372
    173         20           0       -2.448298   -0.260961    0.016124
    174          8           0       -1.209339   -2.012712   -1.650654
    175          1           0       -1.009078   -1.854131   -2.568940
    176          1           0       -0.407979   -2.381592   -1.292395
 ---------------------------------------------------------------------
 Rotational constants (GHZ):           0.0243783           0.0102712           0.0088495
 Standard basis: SVP (5D, 7F)
 There are  1809 symmetry adapted cartesian basis functions of A   symmetry.
 There are  1717 symmetry adapted basis functions of A   symmetry.
  1717 basis functions,  2922 primitive gaussians,  1809 cartesian basis functions
   358 alpha electrons      358 beta electrons
       nuclear repulsion energy     20312.5285321640 Hartrees.
 NAtoms=  176 NActive=  176 NUniq=  176 SFac= 1.00D+00 NAtFMM=   60 NAOKFM=T Big=T
 Integral buffers will be    131072 words long.
 Raffenetti 2 integral format.
 Two-electron integral symmetry is turned on.
 One-electron integrals computed using PRISM.
 NBasis=  1717 RedAO= T EigKep=  2.97D-04  NBF=  1717
 NBsUse=  1717 1.00D-06 EigRej= -1.00D+00 NBFU=  1717
 ExpMin= 1.98D-02 ExpMax= 3.51D+04 ExpMxC= 5.28D+03 IAcc=3 IRadAn=         5 AccDes= 0.00D+00
 Harris functional with IExCor=  402 and IRadAn=       5 diagonalized for initial guess.
 HarFok:  IExCor=  402 AccDes= 0.00D+00 IRadAn=         5 IDoV= 1 UseB2=F ITyADJ=14
 ICtDFT=  3500011 ScaDFX=  1.000000  1.000000  1.000000  1.000000
 FoFCou: FMM=F IPFlag=           0 FMFlag=      100000 FMFlg1=        2001
         NFxFlg=           0 DoJE=T BraDBF=F KetDBF=T FulRan=T
         wScrn=  0.000000 ICntrl=       500 IOpCl=  0 I1Cent=   200000004 NGrid=           0
         NMat0=    1 NMatS0=      1 NMatT0=    0 NMatD0=    1 NMtDS0=    0 NMtDT0=    0
 Petite list used in FoFCou.
 Requested convergence on RMS density matrix=1.00D-08 within 128 cycles.
 Requested convergence on MAX density matrix=1.00D-06.
 Requested convergence on             energy=1.00D-06.
 No special actions if energy rises.
 EnCoef did     2 forward-backward iterations
 EnCoef did     2 forward-backward iterations
 EnCoef did     1 forward-backward iterations
 Rare condition: small coef for last iteration:  0.000D+00
 Rare condition: small coef for last iteration:  0.000D+00
 EnCoef did    45 forward-backward iterations
 EnCoef did    24 forward-backward iterations
 Restarting incremental Fock formation.
 SCF Done:  E(RB3LYP) =  -5333.46283938     A.U. after   28 cycles
            NFock= 28  Conv=0.16D-08     -V/T= 2.0081
 SCF density gives NOpUse=  1 NOpAll=  1.
 Hyperfine terms turned off by default for NAtoms > 100.

 **********************************************************************

            Population analysis using the SCF density.

 **********************************************************************

 Orbital symmetries:
 BldTbl:  Degeneracy threshold= 1.00D-02
       Occupied  (A) (A) (A) (A) (A) (A) (A) (A) (A) (A) (A) (A)
                 (A) (A) (A) (A) (A) (A) (A) (A) (A) (A) (A) (A)
                 (A) (A) (A) (A) (A) (A) (A) (A) (A) (A) (A) (A)
                 (A) (A) (A) (A) (A) (A) (A) (A) (A) (A) (A) (A)
                 (A) (A) (A) (A) (A) (A) (A) (A) (A) (A) (A) (A)
                 (A) (A) (A) (A) (A) (A) (A) (A) (A) (A) (A) (A)
                 (A) (A) (A) (A) (A) (A) (A) (A) (A) (A) (A) (A)
                 (A) (A) (A) (A) (A) (A) (A) (A) (A) (A) (A) (A)
                 (A) (A) (A) (A) (A) (A) (A) (A) (A) (A) (A) (A)
                 (A) (A) (A) (A) (A) (A) (A) (A) (A) (A) (A) (A)
                 (A) (A) (A) (A) (A) (A) (A) (A) (A) (A) (A) (A)
                 (A) (A) (A) (A) (A) (A) (A) (A) (A) (A) (A) (A)
                 (A) (A) (A) (A) (A) (A) (A) (A) (A) (A) (A) (A)
                 (A) (A) (A) (A) (A) (A) (A) (A) (A) (A) (A) (A)
                 (A) (A) (A) (A) (A) (A) (A) (A) (A) (A) (A) (A)
                 (A) (A) (A) (A) (A) (A) (A) (A) (A) (A) (A) (A)
                 (A) (A) (A) (A) (A) (A) (A) (A) (A) (A) (A) (A)
                 (A) (A) (A) (A) (A) (A) (A) (A) (A) (A) (A) (A)
                 (A) (A) (A) (A) (A) (A) (A) (A) (A) (A) (A) (A)
                 (A) (A) (A) (A) (A) (A) (A) (A) (A) (A) (A) (A)
                 (A) (A) (A) (A) (A) (A) (A) (A) (A) (A) (A) (A)
                 (A) (A) (A) (A) (A) (A) (A) (A) (A) (A) (A) (A)
                 (A) (A) (A) (A) (A) (A) (A) (A) (A) (A) (A) (A)
                 (A) (A) (A) (A) (A) (A) (A) (A) (A) (A) (A) (A)
                 (A) (A) (A) (A) (A) (A) (A) (A) (A) (A) (A) (A)
                 (A) (A) (A) (A) (A) (A) (A) (A) (A) (A) (A) (A)
                 (A) (A) (A) (A) (A) (A) (A) (A) (A) (A) (A) (A)
                 (A) (A) (A) (A) (A) (A) (A) (A) (A) (A) (A) (A)
                 (A) (A) (A) (A) (A) (A) (A) (A) (A) (A) (A) (A)
                 (A) (A) (A) (A) (A) (A) (A) (A) (A) (A)
       Virtual   (A) (A) (A) (A) (A) (A) (A) (A) (A) (A) (A) (A)
                 (A) (A) (A) (A) (A) (A) (A) (A) (A) (A) (A) (A)
                 (A) (A) (A) (A) (A) (A) (A) (A) (A) (A) (A) (A)
                 (A) (A) (A) (A) (A) (A) (A) (A) (A) (A) (A) (A)
                 (A) (A) (A) (A) (A) (A) (A) (A) (A) (A) (A) (A)
                 (A) (A) (A) (A) (A) (A) (A) (A) (A) (A) (A) (A)
                 (A) (A) (A) (A) (A) (A) (A) (A) (A) (A) (A) (A)
                 (A) (A) (A) (A) (A) (A) (A) (A) (A) (A) (A) (A)
                 (A) (A) (A) (A) (A) (A) (A) (A) (A) (A) (A) (A)
                 (A) (A) (A) (A) (A) (A) (A) (A) (A) (A) (A) (A)
                 (A) (A) (A) (A) (A) (A) (A) (A) (A) (A) (A) (A)
                 (A) (A) (A) (A) (A) (A) (A) (A) (A) (A) (A) (A)
                 (A) (A) (A) (A) (A) (A) (A) (A) (A) (A) (A) (A)
                 (A) (A) (A) (A) (A) (A) (A) (A) (A) (A) (A) (A)
                 (A) (A) (A) (A) (A) (A) (A) (A) (A) (A) (A) (A)
                 (A) (A) (A) (A) (A) (A) (A) (A) (A) (A) (A) (A)
                 (A) (A) (A) (A) (A) (A) (A) (A) (A) (A) (A) (A)
                 (A) (A) (A) (A) (A) (A) (A) (A) (A) (A) (A) (A)
                 (A) (A) (A) (A) (A) (A) (A) (A) (A) (A) (A) (A)
                 (A) (A) (A) (A) (A) (A) (A) (A) (A) (A) (A) (A)
                 (A) (A) (A) (A) (A) (A) (A) (A) (A) (A) (A) (A)
                 (A) (A) (A) (A) (A) (A) (A) (A) (A) (A) (A) (A)
                 (A) (A) (A) (A) (A) (A) (A) (A) (A) (A) (A) (A)
                 (A) (A) (A) (A) (A) (A) (A) (A) (A) (A) (A) (A)
                 (A) (A) (A) (A) (A) (A) (A) (A) (A) (A) (A) (A)
                 (A) (A) (A) (A) (A) (A) (A) (A) (A) (A) (A) (A)
                 (A) (A) (A) (A) (A) (A) (A) (A) (A) (A) (A) (A)
                 (A) (A) (A) (A) (A) (A) (A) (A) (A) (A) (A) (A)
                 (A) (A) (A) (A) (A) (A) (A) (A) (A) (A) (A) (A)
                 (A) (A) (A) (A) (A) (A) (A) (A) (A) (A) (A) (A)
                 (A) (A) (A) (A) (A) (A) (A) (A) (A) (A) (A) (A)
                 (A) (A) (A) (A) (A) (A) (A) (A) (A) (A) (A) (A)
                 (A) (A) (A) (A) (A) (A) (A) (A) (A) (A) (A) (A)
                 (A) (A) (A) (A) (A) (A) (A) (A) (A) (A) (A) (A)
                 (A) (A) (A) (A) (A) (A) (A) (A) (A) (A) (A) (A)
                 (A) (A) (A) (A) (A) (A) (A) (A) (A) (A) (A) (A)
                 (A) (A) (A) (A) (A) (A) (A) (A) (A) (A) (A) (A)
                 (A) (A) (A) (A) (A) (A) (A) (A) (A) (A) (A) (A)
                 (A) (A) (A) (A) (A) (A) (A) (A) (A) (A) (A) (A)
                 (A) (A) (A) (A) (A) (A) (A) (A) (A) (A) (A) (A)
                 (A) (A) (A) (A) (A) (A) (A) (A) (A) (A) (A) (A)
                 (A) (A) (A) (A) (A) (A) (A) (A) (A) (A) (A) (A)
                 (A) (A) (A) (A) (A) (A) (A) (A) (A) (A) (A) (A)
                 (A) (A) (A) (A) (A) (A) (A) (A) (A) (A) (A) (A)
                 (A) (A) (A) (A) (A) (A) (A) (A) (A) (A) (A) (A)
                 (A) (A) (A) (A) (A) (A) (A) (A) (A) (A) (A) (A)
                 (A) (A) (A) (A) (A) (A) (A) (A) (A) (A) (A) (A)
                 (A) (A) (A) (A) (A) (A) (A) (A) (A) (A) (A) (A)
                 (A) (A) (A) (A) (A) (A) (A) (A) (A) (A) (A) (A)
                 (A) (A) (A) (A) (A) (A) (A) (A) (A) (A) (A) (A)
                 (A) (A) (A) (A) (A) (A) (A) (A) (A) (A) (A) (A)
                 (A) (A) (A) (A) (A) (A) (A) (A) (A) (A) (A) (A)
                 (A) (A) (A) (A) (A) (A) (A) (A) (A) (A) (A) (A)
                 (A) (A) (A) (A) (A) (A) (A) (A) (A) (A) (A) (A)
                 (A) (A) (A) (A) (A) (A) (A) (A) (A) (A) (A) (A)
                 (A) (A) (A) (A) (A) (A) (A) (A) (A) (A) (A) (A)
                 (A) (A) (A) (A) (A) (A) (A) (A) (A) (A) (A) (A)
                 (A) (A) (A) (A) (A) (A) (A) (A) (A) (A) (A) (A)
                 (A) (A) (A) (A) (A) (A) (A) (A) (A) (A) (A) (A)
                 (A) (A) (A) (A) (A) (A) (A) (A) (A) (A) (A) (A)
                 (A) (A) (A) (A) (A) (A) (A) (A) (A) (A) (A) (A)
                 (A) (A) (A) (A) (A) (A) (A) (A) (A) (A) (A) (A)
                 (A) (A) (A) (A) (A) (A) (A) (A) (A) (A) (A) (A)
                 (A) (A) (A) (A) (A) (A) (A) (A) (A) (A) (A) (A)
                 (A) (A) (A) (A) (A) (A) (A) (A) (A) (A) (A) (A)
                 (A) (A) (A) (A) (A) (A) (A) (A) (A) (A) (A) (A)
                 (A) (A) (A) (A) (A) (A) (A) (A) (A) (A) (A) (A)
                 (A) (A) (A) (A) (A) (A) (A) (A) (A) (A) (A) (A)
                 (A) (A) (A) (A) (A) (A) (A) (A) (A) (A) (A) (A)
                 (A) (A) (A) (A) (A) (A) (A) (A) (A) (A) (A) (A)
                 (A) (A) (A) (A) (A) (A) (A) (A) (A) (A) (A) (A)
                 (A) (A) (A) (A) (A) (A) (A) (A) (A) (A) (A) (A)
                 (A) (A) (A) (A) (A) (A) (A) (A) (A) (A) (A) (A)
                 (A) (A) (A) (A) (A) (A) (A) (A) (A) (A) (A) (A)
                 (A) (A) (A) (A) (A) (A) (A) (A) (A) (A) (A) (A)
                 (A) (A) (A) (A) (A) (A) (A) (A) (A) (A) (A) (A)
                 (A) (A) (A) (A) (A) (A) (A) (A) (A) (A) (A) (A)
                 (A) (A) (A) (A) (A) (A) (A) (A) (A) (A) (A) (A)
                 (A) (A) (A) (A) (A) (A) (A) (A) (A) (A) (A) (A)
                 (A) (A) (A) (A) (A) (A) (A) (A) (A) (A) (A) (A)
                 (A) (A) (A) (A) (A) (A) (A) (A) (A) (A) (A) (A)
                 (A) (A) (A) (A) (A) (A) (A) (A) (A) (A) (A) (A)
                 (A) (A) (A) (A) (A) (A) (A) (A) (A) (A) (A) (A)
                 (A) (A) (A) (A) (A) (A) (A) (A) (A) (A) (A) (A)
                 (A) (A) (A) (A) (A) (A) (A) (A) (A) (A) (A) (A)
                 (A) (A) (A) (A) (A) (A) (A) (A) (A) (A) (A) (A)
                 (A) (A) (A) (A) (A) (A) (A) (A) (A) (A) (A) (A)
                 (A) (A) (A) (A) (A) (A) (A) (A) (A) (A) (A) (A)
                 (A) (A) (A) (A) (A) (A) (A) (A) (A) (A) (A) (A)
                 (A) (A) (A) (A) (A) (A) (A) (A) (A) (A) (A) (A)
                 (A) (A) (A) (A) (A) (A) (A) (A) (A) (A) (A) (A)
                 (A) (A) (A) (A) (A) (A) (A) (A) (A) (A) (A) (A)
                 (A) (A) (A) (A) (A) (A) (A) (A) (A) (A) (A) (A)
                 (A) (A) (A) (A) (A) (A) (A) (A) (A) (A) (A) (A)
                 (A) (A) (A) (A) (A) (A) (A) (A) (A) (A) (A) (A)
                 (A) (A) (A) (A) (A) (A) (A) (A) (A) (A) (A) (A)
                 (A) (A) (A) (A) (A) (A) (A) (A) (A) (A) (A) (A)
                 (A) (A) (A) (A) (A) (A) (A) (A) (A) (A) (A) (A)
                 (A) (A) (A) (A) (A) (A) (A) (A) (A) (A) (A) (A)
                 (A) (A) (A) (A) (A) (A) (A) (A) (A) (A) (A) (A)
                 (A) (A) (A) (A) (A) (A) (A) (A) (A) (A) (A) (A)
                 (A) (A) (A) (A) (A) (A) (A) (A) (A) (A) (A) (A)
                 (A) (A) (A) (A) (A) (A) (A) (A) (A) (A) (A) (A)
                 (A) (A) (A) (A) (A) (A) (A) (A) (A) (A) (A) (A)
                 (A) (A) (A) (A) (A) (A) (A) (A) (A) (A) (A) (A)
                 (A) (A) (A) (A) (A) (A) (A) (A) (A) (A) (A) (A)
                 (A) (A) (A) (A) (A) (A) (A) (A) (A) (A) (A) (A)
                 (A) (A) (A) (A) (A) (A) (A) (A) (A) (A) (A) (A)
                 (A) (A) (A) (A) (A) (A) (A) (A) (A) (A) (A) (A)
                 (A) (A) (A) (A) (A) (A) (A) (A) (A) (A) (A) (A)
                 (A) (A) (A) (A) (A) (A) (A) (A) (A) (A) (A) (A)
                 (A) (A) (A) (A) (A) (A) (A) (A) (A) (A) (A) (A)
                 (A) (A) (A) (A) (A) (A) (A) (A) (A) (A) (A) (A)
                 (A) (A) (A)
 The electronic state is 1-A.
 Alpha  occ. eigenvalues -- -145.44733 -19.20638 -19.19172 -19.15806 -19.15691
 Alpha  occ. eigenvalues --  -19.15228 -19.15169 -19.14660 -19.14262 -19.12978
 Alpha  occ. eigenvalues --  -19.12004 -19.11632 -19.09957 -19.09846 -19.09763
 Alpha  occ. eigenvalues --  -19.09684 -19.09582 -19.09337 -19.09218 -19.08683
 Alpha  occ. eigenvalues --  -19.08490 -19.07557 -18.96647 -18.96199 -15.50487
 Alpha  occ. eigenvalues --  -14.53719 -14.40603 -14.40422 -14.40221 -14.39860
 Alpha  occ. eigenvalues --  -14.38564 -14.37884 -14.36601 -14.36344 -14.36218
 Alpha  occ. eigenvalues --  -14.36136 -14.35824 -14.34920 -14.34766 -14.33826
 Alpha  occ. eigenvalues --  -12.64107 -12.64060 -12.64038 -10.33622 -10.33432
 Alpha  occ. eigenvalues --  -10.33259 -10.33018 -10.32820 -10.32628 -10.31145
 Alpha  occ. eigenvalues --  -10.31099 -10.29060 -10.28950 -10.28751 -10.28564
 Alpha  occ. eigenvalues --  -10.28504 -10.28099 -10.27991 -10.27856 -10.27621
 Alpha  occ. eigenvalues --  -10.27475 -10.27408 -10.27340 -10.27233 -10.26520
 Alpha  occ. eigenvalues --  -10.26228 -10.26138 -10.25925 -10.25265 -10.24865
 Alpha  occ. eigenvalues --  -10.24752 -10.24358 -10.23982 -10.23370 -10.23236
 Alpha  occ. eigenvalues --  -10.23183 -10.23177 -10.23134 -10.23067 -10.22970
 Alpha  occ. eigenvalues --  -10.22699 -10.22623 -10.22398 -10.22375 -10.22362
 Alpha  occ. eigenvalues --  -10.21818 -10.21784 -10.20596 -10.19360 -10.19169
 Alpha  occ. eigenvalues --  -10.19078 -10.18689 -10.17340 -10.17030 -10.16355
 Alpha  occ. eigenvalues --  -10.15732 -10.12428  -1.87194  -1.14806  -1.14512
 Alpha  occ. eigenvalues --   -1.14256  -1.09806  -1.08746  -1.08459  -1.08070
 Alpha  occ. eigenvalues --   -1.07888  -1.07502  -1.06833  -1.06645  -1.05076
 Alpha  occ. eigenvalues --   -1.05046  -1.04934  -1.03784  -1.03492  -1.03256
 Alpha  occ. eigenvalues --   -1.02797  -1.02525  -1.01877  -1.01716  -1.01234
 Alpha  occ. eigenvalues --   -1.01164  -0.98542  -0.97466  -0.97240  -0.96873
 Alpha  occ. eigenvalues --   -0.95398  -0.94784  -0.94488  -0.94139  -0.93475
 Alpha  occ. eigenvalues --   -0.93393  -0.93115  -0.93008  -0.92533  -0.91334
 Alpha  occ. eigenvalues --   -0.91179  -0.91071  -0.90874  -0.88828  -0.87424
 Alpha  occ. eigenvalues --   -0.84917  -0.82475  -0.82084  -0.81869  -0.80876
 Alpha  occ. eigenvalues --   -0.80769  -0.80080  -0.79640  -0.78457  -0.78191
 Alpha  occ. eigenvalues --   -0.77800  -0.77198  -0.76601  -0.75774  -0.75483
 Alpha  occ. eigenvalues --   -0.74806  -0.74229  -0.72788  -0.72647  -0.72434
 Alpha  occ. eigenvalues --   -0.70999  -0.70567  -0.69071  -0.68708  -0.68343
 Alpha  occ. eigenvalues --   -0.68234  -0.67736  -0.67533  -0.66693  -0.66398
 Alpha  occ. eigenvalues --   -0.66061  -0.65808  -0.65304  -0.64783  -0.64410
 Alpha  occ. eigenvalues --   -0.63705  -0.63406  -0.62923  -0.62415  -0.62265
 Alpha  occ. eigenvalues --   -0.62192  -0.61719  -0.61273  -0.60646  -0.60192
 Alpha  occ. eigenvalues --   -0.59950  -0.59843  -0.59566  -0.59180  -0.59111
 Alpha  occ. eigenvalues --   -0.59019  -0.58419  -0.58186  -0.57938  -0.57814
 Alpha  occ. eigenvalues --   -0.57684  -0.57254  -0.56516  -0.56230  -0.55683
 Alpha  occ. eigenvalues --   -0.55157  -0.54687  -0.54562  -0.53856  -0.53676
 Alpha  occ. eigenvalues --   -0.53569  -0.53131  -0.53000  -0.52735  -0.52484
 Alpha  occ. eigenvalues --   -0.52116  -0.52080  -0.51860  -0.51710  -0.51594
 Alpha  occ. eigenvalues --   -0.51150  -0.50752  -0.50615  -0.50416  -0.50199
 Alpha  occ. eigenvalues --   -0.50013  -0.49439  -0.49311  -0.49218  -0.48882
 Alpha  occ. eigenvalues --   -0.48601  -0.48532  -0.48409  -0.48140  -0.48001
 Alpha  occ. eigenvalues --   -0.47733  -0.47683  -0.47495  -0.47217  -0.47075
 Alpha  occ. eigenvalues --   -0.46926  -0.46855  -0.46713  -0.46565  -0.46437
 Alpha  occ. eigenvalues --   -0.46278  -0.46235  -0.45853  -0.45745  -0.45324
 Alpha  occ. eigenvalues --   -0.45158  -0.44908  -0.44803  -0.44688  -0.44565
 Alpha  occ. eigenvalues --   -0.44541  -0.44278  -0.44205  -0.44172  -0.44052
 Alpha  occ. eigenvalues --   -0.44031  -0.43853  -0.43474  -0.43422  -0.43325
 Alpha  occ. eigenvalues --   -0.43249  -0.43152  -0.42965  -0.42565  -0.42216
 Alpha  occ. eigenvalues --   -0.42036  -0.41878  -0.41639  -0.41519  -0.41333
 Alpha  occ. eigenvalues --   -0.41063  -0.40924  -0.40844  -0.40815  -0.40654
 Alpha  occ. eigenvalues --   -0.40539  -0.40212  -0.40142  -0.40138  -0.39902
 Alpha  occ. eigenvalues --   -0.39873  -0.39755  -0.39662  -0.39478  -0.39445
 Alpha  occ. eigenvalues --   -0.39422  -0.38989  -0.38943  -0.38585  -0.38472
 Alpha  occ. eigenvalues --   -0.38412  -0.38259  -0.38227  -0.38150  -0.38128
 Alpha  occ. eigenvalues --   -0.37911  -0.37735  -0.37690  -0.37517  -0.37309
 Alpha  occ. eigenvalues --   -0.36991  -0.36902  -0.36639  -0.36295  -0.36024
 Alpha  occ. eigenvalues --   -0.35968  -0.35874  -0.35489  -0.35107  -0.34989
 Alpha  occ. eigenvalues --   -0.34729  -0.34618  -0.33756  -0.33281  -0.33113
 Alpha  occ. eigenvalues --   -0.32574  -0.32335  -0.32253  -0.32057  -0.31926
 Alpha  occ. eigenvalues --   -0.31667  -0.31398  -0.31325  -0.31097  -0.30545
 Alpha  occ. eigenvalues --   -0.29980  -0.29632  -0.29555  -0.28994  -0.28862
 Alpha  occ. eigenvalues --   -0.28266  -0.28231  -0.28071  -0.28025  -0.27874
 Alpha  occ. eigenvalues --   -0.27507  -0.27370  -0.27318  -0.26956  -0.26953
 Alpha  occ. eigenvalues --   -0.26790  -0.26485  -0.26410  -0.26082  -0.25715
 Alpha  occ. eigenvalues --   -0.25638  -0.25264  -0.24960  -0.24662  -0.24506
 Alpha  occ. eigenvalues --   -0.24362  -0.24042  -0.23920  -0.23280  -0.23013
 Alpha  occ. eigenvalues --   -0.14466  -0.13791  -0.11078
 Alpha virt. eigenvalues --   -0.09837  -0.06284  -0.06008  -0.04116  -0.03923
 Alpha virt. eigenvalues --   -0.03690  -0.02930  -0.02386  -0.02359  -0.01991
 Alpha virt. eigenvalues --   -0.01640  -0.01178  -0.00792  -0.00497  -0.00009
 Alpha virt. eigenvalues --    0.00609   0.00790   0.00976   0.01213   0.01386
 Alpha virt. eigenvalues --    0.01550   0.01666   0.01718   0.01872   0.02037
 Alpha virt. eigenvalues --    0.02208   0.02332   0.02581   0.02693   0.03002
 Alpha virt. eigenvalues --    0.03418   0.03681   0.03991   0.04463   0.04612
 Alpha virt. eigenvalues --    0.04690   0.04823   0.05353   0.05700   0.05730
 Alpha virt. eigenvalues --    0.06215   0.06668   0.06817   0.07061   0.07345
 Alpha virt. eigenvalues --    0.07537   0.07703   0.07808   0.08065   0.08153
 Alpha virt. eigenvalues --    0.08581   0.08858   0.08976   0.09163   0.09236
 Alpha virt. eigenvalues --    0.09419   0.09572   0.09722   0.09996   0.10320
 Alpha virt. eigenvalues --    0.10518   0.10829   0.10849   0.10973   0.11167
 Alpha virt. eigenvalues --    0.11186   0.11349   0.11540   0.11642   0.11853
 Alpha virt. eigenvalues --    0.12060   0.12163   0.12249   0.12454   0.12532
 Alpha virt. eigenvalues --    0.12717   0.12821   0.13082   0.13133   0.13162
 Alpha virt. eigenvalues --    0.13354   0.13446   0.13494   0.13729   0.13840
 Alpha virt. eigenvalues --    0.13945   0.14110   0.14236   0.14392   0.14481
 Alpha virt. eigenvalues --    0.14657   0.14829   0.14991   0.15225   0.15387
 Alpha virt. eigenvalues --    0.15446   0.15487   0.15641   0.15768   0.15947
 Alpha virt. eigenvalues --    0.15981   0.16212   0.16632   0.16795   0.16940
 Alpha virt. eigenvalues --    0.16989   0.17270   0.17509   0.17894   0.17983
 Alpha virt. eigenvalues --    0.18115   0.18329   0.18479   0.18518   0.18787
 Alpha virt. eigenvalues --    0.18993   0.19146   0.19317   0.19456   0.19542
 Alpha virt. eigenvalues --    0.19782   0.19911   0.20112   0.20294   0.20631
 Alpha virt. eigenvalues --    0.21058   0.21319   0.21402   0.21653   0.21740
 Alpha virt. eigenvalues --    0.21933   0.22068   0.22473   0.22643   0.22722
 Alpha virt. eigenvalues --    0.23134   0.23508   0.23692   0.24017   0.24056
 Alpha virt. eigenvalues --    0.24190   0.24345   0.24579   0.24785   0.24833
 Alpha virt. eigenvalues --    0.25088   0.25390   0.25420   0.25633   0.25910
 Alpha virt. eigenvalues --    0.26058   0.26233   0.26543   0.26914   0.27292
 Alpha virt. eigenvalues --    0.27371   0.27664   0.27859   0.27992   0.28175
 Alpha virt. eigenvalues --    0.28913   0.28995   0.29386   0.29664   0.30122
 Alpha virt. eigenvalues --    0.30449   0.30703   0.30965   0.31410   0.31810
 Alpha virt. eigenvalues --    0.31998   0.32148   0.32599   0.32756   0.33070
 Alpha virt. eigenvalues --    0.33168   0.33183   0.33838   0.33881   0.34143
 Alpha virt. eigenvalues --    0.34666   0.34879   0.35041   0.35383   0.35634
 Alpha virt. eigenvalues --    0.35926   0.36004   0.36241   0.36608   0.36988
 Alpha virt. eigenvalues --    0.37081   0.37257   0.38036   0.38419   0.38487
 Alpha virt. eigenvalues --    0.38706   0.39017   0.39156   0.39274   0.39403
 Alpha virt. eigenvalues --    0.39806   0.39862   0.40252   0.40427   0.40601
 Alpha virt. eigenvalues --    0.40978   0.41086   0.41287   0.41396   0.41669
 Alpha virt. eigenvalues --    0.41802   0.41936   0.42313   0.42508   0.42632
 Alpha virt. eigenvalues --    0.42782   0.42895   0.43162   0.43474   0.43527
 Alpha virt. eigenvalues --    0.43776   0.44094   0.44211   0.44427   0.44700
 Alpha virt. eigenvalues --    0.44894   0.44995   0.45353   0.45497   0.45856
 Alpha virt. eigenvalues --    0.45999   0.46345   0.46494   0.46571   0.46791
 Alpha virt. eigenvalues --    0.46960   0.47118   0.47329   0.47591   0.47642
 Alpha virt. eigenvalues --    0.47751   0.48052   0.48365   0.48509   0.48737
 Alpha virt. eigenvalues --    0.48892   0.49092   0.49387   0.49485   0.49642
 Alpha virt. eigenvalues --    0.49750   0.50016   0.50154   0.50438   0.50561
 Alpha virt. eigenvalues --    0.50680   0.50943   0.51049   0.51221   0.51558
 Alpha virt. eigenvalues --    0.51722   0.52006   0.52064   0.52193   0.52563
 Alpha virt. eigenvalues --    0.52606   0.52969   0.53134   0.53245   0.53392
 Alpha virt. eigenvalues --    0.53824   0.54107   0.54163   0.54246   0.54662
 Alpha virt. eigenvalues --    0.54985   0.55114   0.55371   0.55449   0.55653
 Alpha virt. eigenvalues --    0.55937   0.56083   0.56117   0.56412   0.56553
 Alpha virt. eigenvalues --    0.56687   0.56943   0.57176   0.57299   0.57322
 Alpha virt. eigenvalues --    0.57676   0.57857   0.57967   0.58157   0.58253
 Alpha virt. eigenvalues --    0.58417   0.58614   0.58748   0.58802   0.59127
 Alpha virt. eigenvalues --    0.59211   0.59380   0.59601   0.59686   0.59767
 Alpha virt. eigenvalues --    0.59947   0.60143   0.60195   0.60469   0.60599
 Alpha virt. eigenvalues --    0.60676   0.60924   0.61161   0.61249   0.61422
 Alpha virt. eigenvalues --    0.61504   0.61574   0.61791   0.61838   0.61899
 Alpha virt. eigenvalues --    0.62047   0.62189   0.62253   0.62314   0.62398
 Alpha virt. eigenvalues --    0.62491   0.62672   0.62954   0.63106   0.63172
 Alpha virt. eigenvalues --    0.63306   0.63364   0.63517   0.63622   0.63728
 Alpha virt. eigenvalues --    0.63824   0.63905   0.63951   0.64041   0.64142
 Alpha virt. eigenvalues --    0.64324   0.64396   0.64486   0.64628   0.64721
 Alpha virt. eigenvalues --    0.64809   0.64899   0.64987   0.65077   0.65162
 Alpha virt. eigenvalues --    0.65294   0.65400   0.65448   0.65577   0.65630
 Alpha virt. eigenvalues --    0.65713   0.65816   0.65916   0.66081   0.66164
 Alpha virt. eigenvalues --    0.66186   0.66418   0.66459   0.66630   0.66850
 Alpha virt. eigenvalues --    0.66861   0.66979   0.67041   0.67193   0.67288
 Alpha virt. eigenvalues --    0.67308   0.67508   0.67619   0.67655   0.67865
 Alpha virt. eigenvalues --    0.67998   0.68111   0.68278   0.68284   0.68481
 Alpha virt. eigenvalues --    0.68649   0.68766   0.68845   0.68905   0.69142
 Alpha virt. eigenvalues --    0.69233   0.69351   0.69667   0.69875   0.70022
 Alpha virt. eigenvalues --    0.70149   0.70269   0.70495   0.70578   0.70877
 Alpha virt. eigenvalues --    0.70925   0.70976   0.71200   0.71443   0.71568
 Alpha virt. eigenvalues --    0.71812   0.71949   0.72061   0.72148   0.72407
 Alpha virt. eigenvalues --    0.72543   0.72744   0.72819   0.73136   0.73262
 Alpha virt. eigenvalues --    0.73443   0.73569   0.73940   0.74083   0.74199
 Alpha virt. eigenvalues --    0.74487   0.74890   0.75026   0.75048   0.75283
 Alpha virt. eigenvalues --    0.75663   0.75826   0.76006   0.76116   0.76708
 Alpha virt. eigenvalues --    0.76904   0.77105   0.77243   0.77330   0.77697
 Alpha virt. eigenvalues --    0.77813   0.77924   0.78190   0.78623   0.79188
 Alpha virt. eigenvalues --    0.79399   0.79522   0.79759   0.80276   0.80674
 Alpha virt. eigenvalues --    0.80923   0.81057   0.81205   0.81387   0.81665
 Alpha virt. eigenvalues --    0.81933   0.82306   0.82507   0.82832   0.82865
 Alpha virt. eigenvalues --    0.83126   0.83256   0.83609   0.83820   0.83885
 Alpha virt. eigenvalues --    0.84298   0.84402   0.84711   0.85134   0.85361
 Alpha virt. eigenvalues --    0.85578   0.85956   0.86068   0.86623   0.87061
 Alpha virt. eigenvalues --    0.87199   0.87501   0.87909   0.88217   0.88393
 Alpha virt. eigenvalues --    0.88528   0.88653   0.89118   0.89362   0.89430
 Alpha virt. eigenvalues --    0.89655   0.89965   0.90097   0.90393   0.90799
 Alpha virt. eigenvalues --    0.90990   0.91155   0.91691   0.92075   0.92324
 Alpha virt. eigenvalues --    0.92515   0.92594   0.92786   0.92894   0.93425
 Alpha virt. eigenvalues --    0.93893   0.94281   0.94944   0.94994   0.95411
 Alpha virt. eigenvalues --    0.95574   0.95739   0.95898   0.96219   0.96537
 Alpha virt. eigenvalues --    0.96653   0.96752   0.96876   0.97211   0.97380
 Alpha virt. eigenvalues --    0.97599   0.97714   0.97790   0.98523   0.98672
 Alpha virt. eigenvalues --    0.98994   0.99710   1.00061   1.00540   1.01043
 Alpha virt. eigenvalues --    1.01298   1.01425   1.01554   1.01917   1.02052
 Alpha virt. eigenvalues --    1.02377   1.02552   1.03057   1.03213   1.03905
 Alpha virt. eigenvalues --    1.04006   1.04242   1.04581   1.05100   1.05169
 Alpha virt. eigenvalues --    1.05464   1.05509   1.05885   1.06200   1.06434
 Alpha virt. eigenvalues --    1.06727   1.07328   1.07370   1.07614   1.07780
 Alpha virt. eigenvalues --    1.08002   1.08218   1.08495   1.08739   1.09046
 Alpha virt. eigenvalues --    1.09264   1.10024   1.10171   1.10349   1.10667
 Alpha virt. eigenvalues --    1.11017   1.11275   1.11514   1.11695   1.12199
 Alpha virt. eigenvalues --    1.12312   1.12336   1.12387   1.12861   1.13165
 Alpha virt. eigenvalues --    1.13260   1.13592   1.13949   1.14296   1.14419
 Alpha virt. eigenvalues --    1.14728   1.14951   1.15088   1.15407   1.15502
 Alpha virt. eigenvalues --    1.15896   1.16039   1.16086   1.16738   1.16858
 Alpha virt. eigenvalues --    1.17104   1.17318   1.17982   1.18071   1.18561
 Alpha virt. eigenvalues --    1.18984   1.19427   1.19641   1.19722   1.19861
 Alpha virt. eigenvalues --    1.20205   1.20380   1.20686   1.21263   1.21663
 Alpha virt. eigenvalues --    1.21932   1.22037   1.22235   1.22489   1.22756
 Alpha virt. eigenvalues --    1.22920   1.22984   1.23225   1.23483   1.24178
 Alpha virt. eigenvalues --    1.24450   1.24601   1.24765   1.24837   1.25009
 Alpha virt. eigenvalues --    1.25627   1.25948   1.26194   1.26594   1.26755
 Alpha virt. eigenvalues --    1.26869   1.26961   1.27134   1.27545   1.27806
 Alpha virt. eigenvalues --    1.27905   1.28297   1.28369   1.29314   1.29614
 Alpha virt. eigenvalues --    1.29833   1.30311   1.30873   1.30973   1.31268
 Alpha virt. eigenvalues --    1.31665   1.31976   1.32186   1.32648   1.32800
 Alpha virt. eigenvalues --    1.32926   1.33373   1.33673   1.33905   1.34196
 Alpha virt. eigenvalues --    1.34497   1.34693   1.34901   1.35189   1.35442
 Alpha virt. eigenvalues --    1.35546   1.35745   1.35959   1.36099   1.36639
 Alpha virt. eigenvalues --    1.36943   1.37350   1.37582   1.37717   1.37803
 Alpha virt. eigenvalues --    1.38279   1.38463   1.39077   1.39211   1.39417
 Alpha virt. eigenvalues --    1.39464   1.39922   1.40373   1.40422   1.40699
 Alpha virt. eigenvalues --    1.40928   1.41444   1.41882   1.41909   1.42256
 Alpha virt. eigenvalues --    1.42318   1.43093   1.43475   1.43723   1.44041
 Alpha virt. eigenvalues --    1.44259   1.44727   1.44762   1.45130   1.45440
 Alpha virt. eigenvalues --    1.45545   1.45786   1.46337   1.46580   1.46622
 Alpha virt. eigenvalues --    1.46905   1.47422   1.47457   1.47751   1.48054
 Alpha virt. eigenvalues --    1.48888   1.49049   1.49280   1.49609   1.49873
 Alpha virt. eigenvalues --    1.50126   1.50472   1.50579   1.50701   1.51169
 Alpha virt. eigenvalues --    1.51387   1.51490   1.52605   1.52676   1.53051
 Alpha virt. eigenvalues --    1.53106   1.53278   1.53543   1.54064   1.54303
 Alpha virt. eigenvalues --    1.54616   1.55064   1.55144   1.55641   1.55682
 Alpha virt. eigenvalues --    1.55978   1.56200   1.56671   1.56974   1.57560
 Alpha virt. eigenvalues --    1.58553   1.58651   1.58733   1.58934   1.58990
 Alpha virt. eigenvalues --    1.59265   1.59494   1.60039   1.60234   1.60419
 Alpha virt. eigenvalues --    1.60747   1.61203   1.61485   1.62032   1.62716
 Alpha virt. eigenvalues --    1.62967   1.63169   1.63449   1.64094   1.64608
 Alpha virt. eigenvalues --    1.65211   1.65334   1.65599   1.65664   1.66059
 Alpha virt. eigenvalues --    1.66397   1.66499   1.67352   1.67554   1.67615
 Alpha virt. eigenvalues --    1.68304   1.68645   1.68699   1.68807   1.69194
 Alpha virt. eigenvalues --    1.69371   1.70060   1.70180   1.70446   1.70603
 Alpha virt. eigenvalues --    1.70801   1.71137   1.71300   1.71420   1.71600
 Alpha virt. eigenvalues --    1.71734   1.71801   1.71956   1.72357   1.72509
 Alpha virt. eigenvalues --    1.72628   1.72933   1.73155   1.73246   1.73339
 Alpha virt. eigenvalues --    1.73876   1.73953   1.74105   1.74179   1.74560
 Alpha virt. eigenvalues --    1.74714   1.74792   1.74952   1.75040   1.75251
 Alpha virt. eigenvalues --    1.75503   1.75615   1.75687   1.75822   1.76310
 Alpha virt. eigenvalues --    1.76373   1.76459   1.76702   1.76748   1.76889
 Alpha virt. eigenvalues --    1.77120   1.77211   1.77321   1.77550   1.77801
 Alpha virt. eigenvalues --    1.77931   1.78095   1.78175   1.78338   1.78485
 Alpha virt. eigenvalues --    1.78678   1.78752   1.78869   1.78886   1.79013
 Alpha virt. eigenvalues --    1.79126   1.79369   1.79542   1.79593   1.79888
 Alpha virt. eigenvalues --    1.80101   1.80317   1.80373   1.80606   1.80721
 Alpha virt. eigenvalues --    1.81182   1.81408   1.81469   1.81543   1.81722
 Alpha virt. eigenvalues --    1.81848   1.82140   1.82270   1.82514   1.82927
 Alpha virt. eigenvalues --    1.83313   1.83403   1.83674   1.83821   1.83887
 Alpha virt. eigenvalues --    1.84055   1.84220   1.84345   1.84752   1.85041
 Alpha virt. eigenvalues --    1.85140   1.85315   1.85709   1.85804   1.85957
 Alpha virt. eigenvalues --    1.86054   1.86269   1.86306   1.86389   1.86544
 Alpha virt. eigenvalues --    1.86676   1.86813   1.86944   1.87083   1.87402
 Alpha virt. eigenvalues --    1.87962   1.88013   1.88154   1.88294   1.88473
 Alpha virt. eigenvalues --    1.88666   1.88881   1.89129   1.89339   1.89654
 Alpha virt. eigenvalues --    1.89922   1.90016   1.90212   1.90551   1.90726
 Alpha virt. eigenvalues --    1.90865   1.91087   1.91383   1.91595   1.91762
 Alpha virt. eigenvalues --    1.91961   1.92023   1.92202   1.92440   1.92610
 Alpha virt. eigenvalues --    1.92875   1.92988   1.93391   1.93634   1.93823
 Alpha virt. eigenvalues --    1.94308   1.94480   1.94693   1.94864   1.94904
 Alpha virt. eigenvalues --    1.95181   1.95316   1.95526   1.95662   1.95738
 Alpha virt. eigenvalues --    1.95893   1.96108   1.96512   1.96584   1.96741
 Alpha virt. eigenvalues --    1.97124   1.97290   1.97655   1.97742   1.97816
 Alpha virt. eigenvalues --    1.98314   1.98462   1.98962   1.99052   1.99164
 Alpha virt. eigenvalues --    1.99307   1.99423   1.99887   2.00420   2.00494
 Alpha virt. eigenvalues --    2.00888   2.01273   2.01450   2.01457   2.01717
 Alpha virt. eigenvalues --    2.01814   2.02169   2.02312   2.02653   2.02782
 Alpha virt. eigenvalues --    2.02862   2.03304   2.03492   2.03736   2.03932
 Alpha virt. eigenvalues --    2.03984   2.04198   2.04272   2.04393   2.05268
 Alpha virt. eigenvalues --    2.05362   2.05605   2.06392   2.06473   2.06871
 Alpha virt. eigenvalues --    2.06920   2.07002   2.07476   2.07651   2.08167
 Alpha virt. eigenvalues --    2.08232   2.08324   2.08904   2.09005   2.09207
 Alpha virt. eigenvalues --    2.09530   2.09675   2.10062   2.10249   2.10419
 Alpha virt. eigenvalues --    2.10882   2.11524   2.11715   2.11781   2.12435
 Alpha virt. eigenvalues --    2.12647   2.12727   2.13107   2.13260   2.13343
 Alpha virt. eigenvalues --    2.14163   2.14292   2.14349   2.14586   2.14991
 Alpha virt. eigenvalues --    2.15380   2.15541   2.15883   2.16118   2.16314
 Alpha virt. eigenvalues --    2.16664   2.16749   2.17229   2.17357   2.17644
 Alpha virt. eigenvalues --    2.17826   2.18092   2.18432   2.18777   2.19110
 Alpha virt. eigenvalues --    2.19328   2.19546   2.19944   2.20446   2.20613
 Alpha virt. eigenvalues --    2.21183   2.21626   2.22133   2.22896   2.23221
 Alpha virt. eigenvalues --    2.23344   2.23549   2.23836   2.25110   2.25414
 Alpha virt. eigenvalues --    2.25610   2.25788   2.25842   2.26127   2.26493
 Alpha virt. eigenvalues --    2.26704   2.26856   2.27024   2.27224   2.27422
 Alpha virt. eigenvalues --    2.27929   2.28470   2.28820   2.29191   2.29306
 Alpha virt. eigenvalues --    2.29446   2.30170   2.30322   2.30513   2.30919
 Alpha virt. eigenvalues --    2.31123   2.31152   2.31492   2.31857   2.33028
 Alpha virt. eigenvalues --    2.33244   2.33433   2.33549   2.34291   2.34716
 Alpha virt. eigenvalues --    2.35215   2.35512   2.35633   2.36269   2.36326
 Alpha virt. eigenvalues --    2.36917   2.36963   2.37210   2.37882   2.38027
 Alpha virt. eigenvalues --    2.38231   2.38597   2.39040   2.39069   2.39793
 Alpha virt. eigenvalues --    2.39931   2.40260   2.41252   2.41397   2.41724
 Alpha virt. eigenvalues --    2.41924   2.42044   2.42874   2.43006   2.43060
 Alpha virt. eigenvalues --    2.43745   2.43802   2.43912   2.44371   2.45135
 Alpha virt. eigenvalues --    2.45265   2.45405   2.45887   2.46207   2.46497
 Alpha virt. eigenvalues --    2.46551   2.47186   2.47243   2.47618   2.48191
 Alpha virt. eigenvalues --    2.48352   2.48364   2.49875   2.49973   2.50282
 Alpha virt. eigenvalues --    2.50870   2.50914   2.51818   2.52008   2.52585
 Alpha virt. eigenvalues --    2.52667   2.52799   2.52868   2.52930   2.53261
 Alpha virt. eigenvalues --    2.53982   2.54712   2.54957   2.55189   2.55529
 Alpha virt. eigenvalues --    2.56025   2.56117   2.56211   2.56452   2.56469
 Alpha virt. eigenvalues --    2.56680   2.57122   2.57353   2.57512   2.57674
 Alpha virt. eigenvalues --    2.57829   2.58570   2.58690   2.58764   2.59266
 Alpha virt. eigenvalues --    2.59569   2.59690   2.59792   2.60045   2.60219
 Alpha virt. eigenvalues --    2.60449   2.60601   2.60813   2.61345   2.62319
 Alpha virt. eigenvalues --    2.62477   2.62605   2.62918   2.63772   2.63937
 Alpha virt. eigenvalues --    2.64077   2.64295   2.64701   2.64882   2.64978
 Alpha virt. eigenvalues --    2.65293   2.65388   2.65573   2.65968   2.66119
 Alpha virt. eigenvalues --    2.66207   2.66313   2.66442   2.66782   2.67060
 Alpha virt. eigenvalues --    2.67309   2.67444   2.67895   2.67990   2.68264
 Alpha virt. eigenvalues --    2.68484   2.68809   2.68863   2.69078   2.69729
 Alpha virt. eigenvalues --    2.69797   2.70803   2.70975   2.71444   2.72178
 Alpha virt. eigenvalues --    2.72284   2.72554   2.73353   2.74030   2.74162
 Alpha virt. eigenvalues --    2.74358   2.74507   2.74573   2.74914   2.75174
 Alpha virt. eigenvalues --    2.75337   2.75450   2.75533   2.75788   2.75886
 Alpha virt. eigenvalues --    2.76088   2.76210   2.76554   2.76905   2.77393
 Alpha virt. eigenvalues --    2.77870   2.78586   2.78654   2.78711   2.79328
 Alpha virt. eigenvalues --    2.79406   2.79503   2.79553   2.79861   2.80211
 Alpha virt. eigenvalues --    2.80896   2.81057   2.81258   2.81727   2.81904
 Alpha virt. eigenvalues --    2.82109   2.82589   2.82625   2.83798   2.84037
 Alpha virt. eigenvalues --    2.84822   2.84931   2.85347   2.85405   2.85909
 Alpha virt. eigenvalues --    2.86340   2.86700   2.87096   2.87195   2.87278
 Alpha virt. eigenvalues --    2.87405   2.87862   2.87867   2.88025   2.88633
 Alpha virt. eigenvalues --    2.88684   2.89063   2.89203   2.89559   2.90033
 Alpha virt. eigenvalues --    2.90279   2.90478   2.90817   2.90999   2.91391
 Alpha virt. eigenvalues --    2.91548   2.91678   2.91951   2.92480   2.92529
 Alpha virt. eigenvalues --    2.93019   2.93200   2.93423   2.93935   2.94260
 Alpha virt. eigenvalues --    2.94297   2.94556   2.94844   2.95186   2.95708
 Alpha virt. eigenvalues --    2.95949   2.96122   2.96166   2.96849   2.97249
 Alpha virt. eigenvalues --    2.97526   2.97994   2.98396   2.98683   2.98968
 Alpha virt. eigenvalues --    2.99273   2.99644   3.00269   3.00407   3.00572
 Alpha virt. eigenvalues --    3.00663   3.01478   3.01807   3.02244   3.02751
 Alpha virt. eigenvalues --    3.02854   3.03335   3.04005   3.04374   3.04614
 Alpha virt. eigenvalues --    3.05386   3.05523   3.06495   3.07569   3.07727
 Alpha virt. eigenvalues --    3.07777   3.08156   3.08554   3.08919   3.09105
 Alpha virt. eigenvalues --    3.09454   3.09706   3.10633   3.10794   3.11631
 Alpha virt. eigenvalues --    3.11962   3.12076   3.12238   3.12927   3.13109
 Alpha virt. eigenvalues --    3.13780   3.14157   3.14394   3.15152   3.15325
 Alpha virt. eigenvalues --    3.15401   3.15582   3.16060   3.16217   3.16495
 Alpha virt. eigenvalues --    3.16726   3.17658   3.17956   3.18471   3.18721
 Alpha virt. eigenvalues --    3.18826   3.19011   3.19356   3.19528   3.19653
 Alpha virt. eigenvalues --    3.19702   3.19923   3.20092   3.20188   3.20844
 Alpha virt. eigenvalues --    3.21548   3.22010   3.22577   3.23265   3.24297
 Alpha virt. eigenvalues --    3.24577   3.24872   3.25860   3.26558   3.26613
 Alpha virt. eigenvalues --    3.28006   3.28798   3.30120   3.31393   3.32164
 Alpha virt. eigenvalues --    3.32432   3.36520   3.37182   3.37573   3.37921
 Alpha virt. eigenvalues --    3.38501   3.44035   3.44212   3.47260   3.49794
 Alpha virt. eigenvalues --    3.50751   3.50881   3.52512   3.52623   3.53218
 Alpha virt. eigenvalues --    3.54426   3.54522   3.54604   3.54921   3.55914
 Alpha virt. eigenvalues --    3.56526   3.56910   3.57104   3.57414   3.57890
 Alpha virt. eigenvalues --    3.59875   3.62870   3.64981   3.65429   3.65882
 Alpha virt. eigenvalues --    3.65979   3.66170   3.66283   3.66549   3.66865
 Alpha virt. eigenvalues --    3.67333   3.67730   3.67960   3.68050   3.68605
 Alpha virt. eigenvalues --    3.69051   3.69359   3.70145   3.70856   3.74967
 Alpha virt. eigenvalues --    3.77618   3.78634   3.79850   3.84520
          Condensed to atoms (all electrons):
 Mulliken charges:
               1
     1  C    0.061279
     2  C    0.014360
     3  O   -0.301679
     4  H   -0.012940
     5  H    0.042029
     6  H    0.052788
     7  N   -0.109099
     8  C    0.094490
     9  C    0.090421
    10  O   -0.275018
    11  C    0.133107
    12  C    0.107325
    13  O   -0.410612
    14  O   -0.427049
    15  H    0.126552
    16  H   -0.011214
    17  H    0.023170
    18  H    0.007353
    19  N   -0.116040
    20  C    0.134516
    21  C    0.072009
    22  O   -0.253004
    23  C    0.023358
    24  C   -0.044858
    25  C   -0.000293
    26  C    0.060852
    27  N    0.084951
    28  H    0.112663
    29  H    0.027544
    30  H    0.011921
    31  H    0.017714
    32  H    0.023971
    33  H   -0.025480
    34  H    0.046736
    35  H    0.024804
    36  H    0.045367
    37  H    0.072862
    38  H    0.121440
    39  H    0.169854
    40  H    0.145825
    41  N   -0.169955
    42  C    0.064036
    43  C    0.063155
    44  O   -0.298271
    45  C    0.175059
    46  C    0.108696
    47  O   -0.477026
    48  O   -0.360608
    49  H    0.174140
    50  H    0.037998
    51  H   -0.028758
    52  H    0.024933
    53  N   -0.174309
    54  C    0.259031
    55  C   -0.011369
    56  O   -0.289063
    57  H    0.131856
    58  H    0.048967
    59  H    0.031400
    60  N   -0.122715
    61  C    0.100022
    62  C    0.164118
    63  O   -0.374784
    64  C    0.076454
    65  C    0.003700
    66  N   -0.023581
    67  O   -0.289866
    68  H    0.143719
    69  H   -0.012173
    70  H    0.053507
    71  H    0.008157
    72  H    0.130779
    73  H    0.142164
    74  N   -0.157478
    75  C    0.235222
    76  C    0.021389
    77  O   -0.281275
    78  H    0.139741
    79  H    0.027729
    80  H    0.083541
    81  N   -0.103231
    82  C    0.151854
    83  C    0.125706
    84  O   -0.371672
    85  C    0.088398
    86  C   -0.041698
    87  C   -0.014888
    88  C    0.010889
    89  C   -0.036213
    90  C   -0.045330
    91  C    0.173665
    92  O   -0.190526
    93  H    0.147374
    94  H   -0.021297
    95  H   -0.004131
    96  H    0.024487
    97  H   -0.021149
    98  H   -0.024700
    99  H   -0.024311
   100  H   -0.029872
   101  H    0.180411
   102  N   -0.102966
   103  C    0.113118
   104  C    0.099580
   105  O   -0.300880
   106  C    0.002503
   107  C   -0.049289
   108  C    0.051176
   109  C    0.038789
   110  H    0.132064
   111  H   -0.028556
   112  H   -0.027776
   113  H   -0.030948
   114  H    0.029111
   115  H    0.011271
   116  H    0.024161
   117  H    0.022258
   118  H    0.059745
   119  H   -0.041607
   120  H    0.010807
   121  N   -0.145662
   122  C    0.071985
   123  C    0.114864
   124  O   -0.249341
   125  C    0.230697
   126  O   -0.314940
   127  H    0.128767
   128  H    0.031432
   129  H   -0.024356
   130  H    0.026374
   131  H    0.201617
   132  N   -0.151726
   133  C    0.014806
   134  C    0.071292
   135  O   -0.259534
   136  C    0.099000
   137  H    0.107046
   138  H    0.016304
   139  H    0.014168
   140  H    0.035609
   141  H   -0.028405
   142  N   -0.093831
   143  C    0.042280
   144  C    0.094013
   145  O   -0.256583
   146  C    0.040199
   147  H    0.131867
   148  H    0.000332
   149  H    0.011627
   150  H    0.025476
   151  H    0.020233
   152  N   -0.095934
   153  C    0.060731
   154  C    0.047127
   155  O   -0.272558
   156  C    0.070327
   157  C    0.060839
   158  C    0.019883
   159  O   -0.362416
   160  O   -0.385083
   161  H    0.095967
   162  H    0.013228
   163  H    0.001472
   164  H   -0.030246
   165  H   -0.011219
   166  H   -0.059523
   167  N   -0.166236
   168  C    0.133590
   169  H    0.032901
   170  H    0.023799
   171  H    0.040045
   172  H    0.125603
   173  Ca   1.268201
   174  O   -0.292305
   175  H    0.153118
   176  H    0.196500
 Sum of Mulliken charges =  -0.00000
 Mulliken charges with hydrogens summed into heavy atoms:
               1
     1  C    0.143156
     2  C    0.014360
     3  O   -0.301679
     7  N    0.017453
     8  C    0.083276
     9  C    0.090421
    10  O   -0.275018
    11  C    0.163631
    12  C    0.107325
    13  O   -0.410612
    14  O   -0.427049
    19  N   -0.003377
    20  C    0.162060
    21  C    0.072009
    22  O   -0.253004
    23  C    0.052993
    24  C   -0.046367
    25  C    0.071246
    26  C    0.179081
    27  N    0.522070
    41  N    0.004184
    42  C    0.102033
    43  C    0.063155
    44  O   -0.298271
    45  C    0.171234
    46  C    0.108696
    47  O   -0.477026
    48  O   -0.360608
    53  N   -0.042453
    54  C    0.339398
    55  C   -0.011369
    56  O   -0.289063
    60  N    0.021005
    61  C    0.087849
    62  C    0.164118
    63  O   -0.374784
    64  C    0.138118
    65  C    0.003700
    66  N    0.249362
    67  O   -0.289866
    74  N   -0.017737
    75  C    0.346491
    76  C    0.021389
    77  O   -0.281275
    81  N    0.044143
    82  C    0.130556
    83  C    0.125706
    84  O   -0.371672
    85  C    0.108754
    86  C   -0.041698
    87  C   -0.036037
    88  C   -0.013811
    89  C   -0.060525
    90  C   -0.075203
    91  C    0.173665
    92  O   -0.010115
   102  N    0.029097
   103  C    0.084562
   104  C    0.099580
   105  O   -0.300880
   106  C   -0.025273
   107  C   -0.051127
   108  C    0.108866
   109  C    0.067734
   121  N   -0.016895
   122  C    0.103417
   123  C    0.114864
   124  O   -0.249341
   125  C    0.232715
   126  O   -0.113323
   132  N   -0.044680
   133  C    0.031109
   134  C    0.071292
   135  O   -0.259534
   136  C    0.120372
   142  N    0.038036
   143  C    0.042612
   144  C    0.094013
   145  O   -0.256583
   146  C    0.097535
   152  N    0.000033
   153  C    0.073959
   154  C    0.047127
   155  O   -0.272558
   156  C    0.041553
   157  C   -0.009903
   158  C    0.019883
   159  O   -0.362416
   160  O   -0.385083
   167  N   -0.040633
   168  C    0.230335
   173  Ca   1.268201
   174  O    0.057313
 DipInt: DoE/N= T F RetVal/Mat= T F Init=T NMatP=  1 IDeriv=0 Min/MaxMlt=  0  4
 Entering OneElI...
 OneElI was handed  1333951383 working-precision words.
 Multipole integrals L=0 to 4 MinM= 0 MaxM= 0.
 Requested accuracy = 0.1000D-12
 ShPair: Thresh= 1.00D-13 NBox=     0 BxSize= 0.00D+00 RnKept= 2.57D+01
         NSMCal=               327645 NSMKep=              142513
 PrmmSu-InSpLW:  IPartL=    0 NPrtUS=    1 NPrtUL=    1 DoSpLW=F IThBeg=    0 IThEnd=    0 NThAct=    1.
 PrsmSu:  NPrtUS=   1 ThrOK=F IAlg=1 NPAlg=1 LenDen=           0 ISkipM=0 DoSpLW=F IThBeg=    0 IThEnd=    0.
 Prism:   IPart=     0 DynPar=F LinDyn=F Incr=         512.
 PRISM was handed  1324555395 working-precision words and142513 shell-pairs
 IPart=  0 NShTot=      142513 NBatch=         332 AvBLen=       429.3
 PrsmSu-ThDecC:  IPartSL=    0    0 NPrtUSL=    1    1 IThBeg=    0 IThEnd=    0 CPU=   -1 GPU=   -1 NThAct=    1.
 PrSmSu:  NxtVal=            513.
 Electronic moments (au):
       -716.00000000         -3.81549798        -10.02999288         -0.46642779
     -81607.82301278     -27826.42834569     -12928.88423853        -24.50501331
         24.55805779        -23.65947440    -231401.90291235      -2424.14129956
      -5541.89493924      34265.60947254    -143851.91317513      19478.91225407
       6831.96596320     -12966.87959603     -18620.18467833     -36054.05159383
  -16422090.94876205   -2508840.08942907    -525644.45482879    -348953.35405543
      97407.70258278     185142.24596368    -176097.09847680    -164124.37750391
      34889.89504481   -2745763.32825538   -1458699.99382072    -435090.92651519
    -464010.42601220     192117.96439575      87230.51272781
 Electronic spatial extent (au):  <R**2>=         122363.1356
 DipInt: DoE/N= F T RetVal/Mat= T F Init=T NMatP=  1 IDeriv=0 Min/MaxMlt=  0  4
 Nuclear    moments (au):
        716.00000000          0.00000000         -0.00000000          0.00000000
      81035.47747366      27364.60177406      12542.80402826         -0.00000000
          0.00000000          0.00000000     230959.40809079        195.85750151
       5447.86608483     -35345.19800215     142890.49873988     -17887.75283917
      -6888.85891490      13192.11310634      18629.59795035      35842.40985040
   16083174.94679433    2403143.38847783     483981.16525607     352943.06306987
     -89071.15621403    -190364.44578058     173937.80001194     164841.75223495
     -35179.18703233    2678266.25332506    1403467.63909127     412800.14967664
     466566.23793308    -193720.71006236     -85643.88764467
 Total      moments (au):
          0.00000000         -3.81549798        -10.02999288         -0.46642779
       -572.34553912       -461.82657163       -386.08021027        -24.50501331
         24.55805779        -23.65947440       -442.49482155      -2228.28379805
        -94.02885440      -1079.58852961       -961.41443525       1591.15941490
        -56.89295170        225.23351031          9.41327203       -211.64174343
    -338916.00196772    -105696.70095124     -41663.28957272       3989.70901444
       8336.54636875      -5222.19981690      -2159.29846487        717.37473104
       -289.29198751     -67497.07493032     -55232.35472945     -22290.77683855
       2555.81192088      -1602.74566661       1586.62508314
 Traceless Quadrup. (au):
        -98.92809878         11.59086871         87.33723007        -24.50501331
         24.55805779        -23.65947440
 Charge=              0.0000 electrons
 Dipole moment (field-independent basis, Debye):
    X=             -9.6980    Y=            -25.4937    Z=             -1.1855  Tot=             27.3018
 Quadrupole moment (field-independent basis, Debye-Ang):
   XX=           -769.8244   YY=           -621.1726   ZZ=           -519.2911
   XY=            -32.9601   XZ=             33.0314   YZ=            -31.8228
 Traceless Quadrupole moment (field-independent basis, Debye-Ang):
   XX=           -133.0617   YY=             15.5901   ZZ=            117.4716
   XY=            -32.9601   XZ=             33.0314   YZ=            -31.8228
 Octapole moment (field-independent basis, Debye-Ang**2):
  XXX=           -314.9508  YYY=          -1586.0066  ZZZ=            -66.9261  XYY=           -768.4095
  XXY=           -684.2978  XXZ=           1132.5260  XZZ=            -40.4942  YZZ=            160.3125
  YYZ=              6.7000  XYZ=           -150.6384
 Hexadecapole moment (field-independent basis, Debye-Ang**3):
 XXXX=        -127652.0179 YYYY=         -39810.4459 ZZZZ=         -15692.3927 XXXY=           1502.7157
 XXXZ=           3139.9431 YYYX=          -1966.9309 YYYZ=           -813.2953 ZZZX=            270.1977
 ZZZY=           -108.9612 XXYY=         -25422.6350 XXZZ=         -20803.1533 YYZZ=          -8395.7754
 XXYZ=            962.6413 YYXZ=           -603.6709 ZZXY=            597.5991
 N-N= 2.031252853216D+04 E-N=-5.308945794426D+04  KE= 5.290419992428D+03
 Leave Link  601 at Wed Sep 18 11:11:49 2019, MaxMem=  1342177280 cpu:              47.3 elap:               1.3
 FitSet:  NAtFit=   176 NAtPot=   176 NAtFrz=     0 MDM=   180 TotChg=   0.00000
 Merz-Kollman atomic radii used.
 Read replacement radii for each type of atom:
 Rad(20) =   1.700000000000D+00
 Atom Element Radius
    1     6    1.50
    2     6    1.50
    3     8    1.40
    4     1    1.20
    5     1    1.20
    6     1    1.20
    7     7    1.50
    8     6    1.50
    9     6    1.50
   10     8    1.40
   11     6    1.50
   12     6    1.50
   13     8    1.40
   14     8    1.40
   15     1    1.20
   16     1    1.20
   17     1    1.20
   18     1    1.20
   19     7    1.50
   20     6    1.50
   21     6    1.50
   22     8    1.40
   23     6    1.50
   24     6    1.50
   25     6    1.50
   26     6    1.50
   27     7    1.50
   28     1    1.20
   29     1    1.20
   30     1    1.20
   31     1    1.20
   32     1    1.20
   33     1    1.20
   34     1    1.20
   35     1    1.20
   36     1    1.20
   37     1    1.20
   38     1    1.20
   39     1    1.20
   40     1    1.20
   41     7    1.50
   42     6    1.50
   43     6    1.50
   44     8    1.40
   45     6    1.50
   46     6    1.50
   47     8    1.40
   48     8    1.40
   49     1    1.20
   50     1    1.20
   51     1    1.20
   52     1    1.20
   53     7    1.50
   54     6    1.50
   55     6    1.50
   56     8    1.40
   57     1    1.20
   58     1    1.20
   59     1    1.20
   60     7    1.50
   61     6    1.50
   62     6    1.50
   63     8    1.40
   64     6    1.50
   65     6    1.50
   66     7    1.50
   67     8    1.40
   68     1    1.20
   69     1    1.20
   70     1    1.20
   71     1    1.20
   72     1    1.20
   73     1    1.20
   74     7    1.50
   75     6    1.50
   76     6    1.50
   77     8    1.40
   78     1    1.20
   79     1    1.20
   80     1    1.20
   81     7    1.50
   82     6    1.50
   83     6    1.50
   84     8    1.40
   85     6    1.50
   86     6    1.50
   87     6    1.50
   88     6    1.50
   89     6    1.50
   90     6    1.50
   91     6    1.50
   92     8    1.40
   93     1    1.20
   94     1    1.20
   95     1    1.20
   96     1    1.20
   97     1    1.20
   98     1    1.20
   99     1    1.20
  100     1    1.20
  101     1    1.20
  102     7    1.50
  103     6    1.50
  104     6    1.50
  105     8    1.40
  106     6    1.50
  107     6    1.50
  108     6    1.50
  109     6    1.50
  110     1    1.20
  111     1    1.20
  112     1    1.20
  113     1    1.20
  114     1    1.20
  115     1    1.20
  116     1    1.20
  117     1    1.20
  118     1    1.20
  119     1    1.20
  120     1    1.20
  121     7    1.50
  122     6    1.50
  123     6    1.50
  124     8    1.40
  125     6    1.50
  126     8    1.40
  127     1    1.20
  128     1    1.20
  129     1    1.20
  130     1    1.20
  131     1    1.20
  132     7    1.50
  133     6    1.50
  134     6    1.50
  135     8    1.40
  136     6    1.50
  137     1    1.20
  138     1    1.20
  139     1    1.20
  140     1    1.20
  141     1    1.20
  142     7    1.50
  143     6    1.50
  144     6    1.50
  145     8    1.40
  146     6    1.50
  147     1    1.20
  148     1    1.20
  149     1    1.20
  150     1    1.20
  151     1    1.20
  152     7    1.50
  153     6    1.50
  154     6    1.50
  155     8    1.40
  156     6    1.50
  157     6    1.50
[...]
 **** Fit       0.010211
 **** Fit       0.009130
 **** Fit       0.008095
 **** Fit       0.007488
 **** Fit       0.007538
 **** Fit       0.008346
 **** Fit       0.007123
 **** Fit       0.007878
 **** Fit       0.007019
 **** Fit       0.006267
 **** Fit       0.006327
 **** Fit       0.007214
 **** Fit       0.007977
 **** Fit       0.008644
 **** Fit       0.007893
 **** Fit       0.006893
 **** Fit       0.006013
 **** Fit       0.005435
 **** Fit       0.006219
 **** Fit       0.007312
 **** Fit       0.008249
 **** Fit       0.008789
 **** Fit       0.008931
 **** Fit       0.009477
 **** Fit       0.008818
 **** Fit       0.007834
 **** Fit       0.006748
 **** Fit       0.005087
 **** Fit       0.006208
 **** Fit       0.007444
 **** Fit       0.008472
 **** Fit       0.009148
 **** Fit       0.009529
 **** Fit       0.009725
 **** Fit       0.009745
 **** Fit       0.007623
 **** Fit       0.006404
 **** Fit       0.004310
 **** Fit       0.005677
 **** Fit       0.007169
 **** Fit       0.008465
 **** Fit       0.009363
 **** Fit       0.009871
 **** Fit       0.010144
 **** Fit       0.010341
 **** Fit       0.010522
 **** Fit       0.007573
 **** Fit       0.006256
 **** Fit       0.002593
 **** Fit       0.003980
 **** Fit       0.010606
 **** Fit       0.010712
 **** Fit       0.010843
 **** Fit       0.011071
 **** Fit       0.007138
 **** Fit       0.005675
 **** Fit       0.000537
 **** Fit       0.002062
 **** Fit       0.011184
 **** Fit       0.011191
 **** Fit       0.011367
 **** Fit       0.006693
 **** Fit       0.005086
 **** Fit      -0.002159
 **** Fit      -0.000548
 **** Fit       0.011484
 **** Fit       0.011526
 **** Fit       0.006010
 **** Fit       0.004202
 **** Fit      -0.006244
 **** Fit      -0.004942
 **** Fit       0.011619
 **** Fit       0.011733
 **** Fit       0.007437
 **** Fit       0.005402
 **** Fit       0.003311
 **** Fit      -0.011237
 **** Fit      -0.010522
 **** Fit      -0.008862
 **** Fit       0.011736
 **** Fit       0.011622
 **** Fit       0.009073
 **** Fit       0.006884
 **** Fit       0.004476
 **** Fit       0.001908
 **** Fit       0.011580
 **** Fit       0.011500
 **** Fit       0.010717
 **** Fit       0.008269
 **** Fit       0.005389
 **** Fit       0.002154
 **** Fit      -0.001284
 **** Fit       0.011374
 **** Fit       0.011243
 **** Fit       0.013312
 **** Fit       0.010616
 **** Fit       0.007206
 **** Fit       0.003192
 **** Fit       0.011060
 **** Fit       0.010884
 **** Fit       0.011039
 **** Fit       0.011057
 **** Fit       0.010642
 **** Fit       0.010434
 **** Fit       0.010554
 **** Fit       0.010694
 **** Fit       0.010244
 **** Fit       0.009936
 **** Fit       0.009967
 **** Fit       0.010458
 **** Fit       0.006975
 **** Fit       0.008139
 **** Fit       0.009184
 **** Fit       0.009949
 **** Fit       0.005398
 **** Fit       0.006686
 **** Fit       0.008010
 **** Fit       0.009095
 **** Fit       0.009861
 **** Fit       0.010394
 **** Fit       0.002941
 **** Fit       0.004269
 **** Fit       0.005890
 **** Fit       0.007468
 **** Fit       0.008779
 **** Fit       0.009728
 **** Fit       0.010340
 **** Fit       0.010732
 **** Fit       0.011074
 **** Fit       0.000465
 **** Fit       0.002106
 **** Fit       0.004101
 **** Fit       0.006100
 **** Fit       0.007849
 **** Fit       0.009206
 **** Fit       0.010138
 **** Fit       0.010701
 **** Fit       0.011011
 **** Fit       0.011225
 **** Fit       0.011529
 **** Fit      -0.002843
 **** Fit      -0.000837
 **** Fit       0.001596
 **** Fit       0.004084
 **** Fit       0.006346
 **** Fit       0.008205
 **** Fit       0.009587
 **** Fit       0.010505
 **** Fit       0.011032
 **** Fit       0.011282
 **** Fit       0.011396
 **** Fit       0.011535
 **** Fit      -0.007417
 **** Fit      -0.004751
 **** Fit      -0.001538
 **** Fit       0.001737
 **** Fit       0.004719
 **** Fit       0.007189
 **** Fit       0.009056
 **** Fit       0.010328
 **** Fit       0.011085
 **** Fit       0.011446
 **** Fit       0.011555
 **** Fit       0.011570
 **** Fit       0.011668
 **** Fit      -0.006270
 **** Fit      -0.001882
 **** Fit       0.002103
 **** Fit       0.005420
 **** Fit       0.007965
 **** Fit       0.009752
 **** Fit       0.010874
 **** Fit       0.011464
 **** Fit       0.011677
 **** Fit       0.011672
 **** Fit       0.011620
 **** Fit       0.011703
 **** Fit      -0.004118
 **** Fit       0.000944
 **** Fit       0.004935
 **** Fit       0.007855
 **** Fit       0.009818
 **** Fit       0.010993
 **** Fit       0.011568
 **** Fit       0.011731
 **** Fit       0.011670
 **** Fit       0.011568
 **** Fit       0.000999
 **** Fit       0.005500
 **** Fit       0.008516
 **** Fit       0.010346
 **** Fit       0.011290
 **** Fit       0.011623
 **** Fit       0.011598
 **** Fit       0.011453
 **** Fit       0.004927
 **** Fit       0.008400
 **** Fit       0.010333
 **** Fit       0.011201
 **** Fit       0.011402
 **** Fit       0.011279
 **** Fit       0.008211
 **** Fit       0.010157
 **** Fit       0.010899
 **** Fit       0.010963
 **** Fit       0.009190
 **** Fit       0.010248
 **** Fit       0.009724
 **** Fit       0.009842
 **** Fit       0.009323
 **** Fit       0.008791
 **** Fit       0.010599
 **** Fit       0.010261
 **** Fit       0.010010
 **** Fit       0.009568
 **** Fit       0.009038
 **** Fit       0.008480
 **** Fit       0.010943
 **** Fit       0.010656
 **** Fit       0.010361
 **** Fit       0.010195
 **** Fit       0.009818
 **** Fit       0.009345
 **** Fit       0.008785
 **** Fit       0.008188
 **** Fit       0.007659
 **** Fit       0.011263
 **** Fit       0.010978
 **** Fit       0.010737
 **** Fit       0.010490
 **** Fit       0.010372
 **** Fit       0.010062
 **** Fit       0.009659
 **** Fit       0.009155
 **** Fit       0.008562
 **** Fit       0.007924
 **** Fit       0.011582
 **** Fit       0.011250
 **** Fit       0.011010
 **** Fit       0.010812
 **** Fit       0.010611
 **** Fit       0.010531
 **** Fit       0.010305
 **** Fit       0.010002
 **** Fit       0.009606
 **** Fit       0.009108
 **** Fit       0.008518
 **** Fit       0.007872
 **** Fit       0.011459
 **** Fit       0.011190
 **** Fit       0.011001
 **** Fit       0.010850
 **** Fit       0.010704
 **** Fit       0.010680
 **** Fit       0.010545
 **** Fit       0.010346
 **** Fit       0.010062
 **** Fit       0.009675
 **** Fit       0.009177
 **** Fit       0.008575
 **** Fit       0.007908
 **** Fit       0.011385
 **** Fit       0.011137
 **** Fit       0.010976
 **** Fit       0.010868
 **** Fit       0.010779
 **** Fit       0.010847
 **** Fit       0.010835
 **** Fit       0.010784
 **** Fit       0.010670
 **** Fit       0.010469
 **** Fit       0.010161
 **** Fit       0.009732
 **** Fit       0.009181
 **** Fit       0.011604
 **** Fit       0.011251
 **** Fit       0.011033
 **** Fit       0.010913
 **** Fit       0.010860
 **** Fit       0.010847
 **** Fit       0.011091
 **** Fit       0.011244
 **** Fit       0.011392
 **** Fit       0.011511
 **** Fit       0.011573
 **** Fit       0.011549
 **** Fit       0.011409
 **** Fit       0.011123
 **** Fit       0.011456
 **** Fit       0.011118
 **** Fit       0.010927
 **** Fit       0.010853
 **** Fit       0.010871
 **** Fit       0.010958
 **** Fit       0.011517
 **** Fit       0.011918
 **** Fit       0.012368
 **** Fit       0.012841
 **** Fit       0.013308
 **** Fit       0.013734
 **** Fit       0.014067
 **** Fit       0.011053
 **** Fit       0.010870
 **** Fit       0.010845
 **** Fit       0.010958
 **** Fit       0.011189
 **** Fit       0.012308
 **** Fit       0.013102
 **** Fit       0.014041
 **** Fit       0.015109
 **** Fit       0.016288
 **** Fit       0.017547
 **** Fit       0.010907
 **** Fit       0.010963
 **** Fit       0.011223
 **** Fit       0.011676
 **** Fit       0.013768
 **** Fit       0.015165
 **** Fit       0.016877
 **** Fit       0.018932
 **** Fit       0.011352
 **** Fit       0.011869
 **** Fit       0.012671
 **** Fit       0.016398
 **** Fit       0.014470
 **** Fit       0.004528
 **** Fit       0.005738
 **** Fit       0.004236
 **** Fit       0.003069
 **** Fit       0.003304
 **** Fit       0.004752
 **** Fit       0.005554
 **** Fit       0.003891
 **** Fit       0.002452
 **** Fit       0.001558
 **** Fit       0.001397
 **** Fit       0.001987
 **** Fit       0.003226
 **** Fit       0.005236
 **** Fit       0.003512
 **** Fit       0.001958
 **** Fit       0.000716
 **** Fit      -0.000090
 **** Fit      -0.000388
 **** Fit      -0.000176
 **** Fit       0.000503
 **** Fit       0.001614
 **** Fit       0.003125
 **** Fit       0.004689
 **** Fit       0.002826
 **** Fit       0.001122
 **** Fit      -0.000334
 **** Fit      -0.001445
 **** Fit      -0.002134
 **** Fit      -0.002372
 **** Fit      -0.002186
 **** Fit      -0.001629
 **** Fit      -0.000733
 **** Fit       0.000511
 **** Fit       0.002139
 **** Fit       0.003830
 **** Fit       0.001763
 **** Fit      -0.000147
 **** Fit      -0.001823
 **** Fit      -0.003169
 **** Fit      -0.004103
 **** Fit      -0.004583
 **** Fit      -0.004630
 **** Fit      -0.004307
 **** Fit      -0.003685
 **** Fit      -0.002795
 **** Fit      -0.001599
 **** Fit      -0.000006
 **** Fit       0.002927
 **** Fit       0.000629
 **** Fit      -0.001527
 **** Fit      -0.003464
 **** Fit      -0.005082
 **** Fit      -0.006289
 **** Fit      -0.007029
 **** Fit      -0.007307
 **** Fit      -0.007187
 **** Fit      -0.006769
 **** Fit      -0.006136
 **** Fit      -0.005315
 **** Fit      -0.004247
 **** Fit      -0.002797
 **** Fit       0.001108
 **** Fit      -0.001587
 **** Fit      -0.004104
 **** Fit      -0.006331
 **** Fit      -0.008143
 **** Fit      -0.009434
 **** Fit      -0.010159
 **** Fit      -0.010359
 **** Fit      -0.010153
 **** Fit      -0.009695
 **** Fit      -0.009105
 **** Fit      -0.008416
 **** Fit      -0.007537
 **** Fit      -0.001033
 **** Fit      -0.004194
 **** Fit      -0.007111
 **** Fit      -0.009640
 **** Fit      -0.011631
 **** Fit      -0.012974
 **** Fit      -0.013651
 **** Fit      -0.013761
 **** Fit      -0.013496
 **** Fit      -0.013080
 **** Fit      -0.012680
 **** Fit      -0.012340
 **** Fit      -0.011931
 **** Fit      -0.000348
 **** Fit      -0.004298
 **** Fit      -0.008006
 **** Fit      -0.011305
 **** Fit      -0.014007
 **** Fit      -0.015944
 **** Fit      -0.017051
 **** Fit      -0.017419
 **** Fit      -0.017299
 **** Fit      -0.017026
 **** Fit      -0.016907
 **** Fit      -0.017121
 **** Fit      -0.017632
 **** Fit      -0.005648
 **** Fit      -0.010317
 **** Fit      -0.014379
 **** Fit      -0.017573
 **** Fit      -0.019697
 **** Fit      -0.020739
 **** Fit      -0.020964
 **** Fit      -0.020876
 **** Fit      -0.021050
 **** Fit      -0.021954
 **** Fit      -0.013712
 **** Fit      -0.018290
 **** Fit      -0.021486
 **** Fit      -0.023195
 **** Fit      -0.023753
 **** Fit      -0.023962
 **** Fit       0.016527
 **** Fit       0.014051
 **** Fit       0.011236
 **** Fit       0.008053
 **** Fit       0.004532
 **** Fit       0.018943
 **** Fit       0.017373
 **** Fit       0.015467
 **** Fit       0.013184
 **** Fit       0.010468
 **** Fit       0.007277
 **** Fit       0.003598
 **** Fit      -0.000518
 **** Fit       0.018483
 **** Fit       0.017491
 **** Fit       0.016151
 **** Fit       0.014450
 **** Fit       0.012348
 **** Fit       0.009787
 **** Fit       0.006710
 **** Fit       0.003077
 **** Fit      -0.001110
 **** Fit      -0.005772
 **** Fit      -0.010682
 **** Fit       0.017256
 **** Fit       0.016248
 **** Fit       0.014935
 **** Fit       0.013286
 **** Fit       0.011241
 **** Fit       0.008730
 **** Fit       0.005680
 **** Fit       0.002038
 **** Fit      -0.002214
 **** Fit       0.017937
 **** Fit       0.013627
 **** Fit       0.011809
 **** Fit       0.009599
 **** Fit       0.006889
 **** Fit       0.003586
 **** Fit      -0.000368
 **** Fit       0.010104
 **** Fit       0.007580
 **** Fit       0.004528
 **** Fit       0.000835
 **** Fit       0.002065
 **** Fit       0.012971
 **** Fit       0.017338
 **** Fit       0.030462
 **** Fit       0.037636
 **** Fit       0.033277
 **** Fit       0.046833
 **** Fit       0.044107
 **** Fit       0.040737
 **** Fit       0.053505
 **** Fit       0.051428
 **** Fit       0.048966
 **** Fit       0.046448
 **** Fit       0.062124
 **** Fit       0.060761
 **** Fit       0.058983
 **** Fit       0.057155
 **** Fit       0.071320
 **** Fit       0.071183
 **** Fit       0.070182
 **** Fit       0.068557
 **** Fit       0.066795
 **** Fit       0.068479
 **** Fit       0.077494
 **** Fit       0.076887
 **** Fit       0.033874
 **** Fit       0.030318
 **** Fit       0.033813
 **** Fit       0.037066
 **** Fit       0.029790
 **** Fit       0.033189
 **** Fit       0.036295
 **** Fit       0.039468
 **** Fit       0.035552
 **** Fit       0.037216
 **** Fit       0.039469
 **** Fit       0.042139
 **** Fit       0.045392
 **** Fit       0.044152
 **** Fit       0.044808
 **** Fit       0.046515
 **** Fit       0.049062
 **** Fit       0.061430
 **** Fit       0.067422
 **** Fit       0.047732
 **** Fit       0.049789
 **** Fit       0.052519
 **** Fit       0.059153
 **** Fit       0.068642
 **** Fit       0.075941
 **** Fit       0.055133
 **** Fit       0.053033
 **** Fit       0.052663
 **** Fit       0.053506
 **** Fit       0.055198
 **** Fit       0.057425
 **** Fit       0.059810
 **** Fit       0.064996
 **** Fit       0.073953
 **** Fit       0.082143
 **** Fit       0.065666
 **** Fit       0.061015
 **** Fit       0.058663
 **** Fit       0.058060
 **** Fit       0.058687
 **** Fit       0.060103
 **** Fit       0.061899
 **** Fit       0.063699
 **** Fit       0.065252
 **** Fit       0.066764
 **** Fit       0.069216
 **** Fit       0.077855
 **** Fit       0.086836
 **** Fit       0.084346
 **** Fit       0.074362
 **** Fit       0.067913
 **** Fit       0.064401
 **** Fit       0.063140
 **** Fit       0.063446
 **** Fit       0.064728
 **** Fit       0.066556
 **** Fit       0.068855
 **** Fit       0.072225
 **** Fit       0.080543
 **** Fit       0.090320
 **** Fit       0.089250
 **** Fit       0.078453
 **** Fit       0.071626
 **** Fit       0.068659
 **** Fit       0.068555
 **** Fit       0.070421
 **** Fit       0.074122
 **** Fit       0.082037
 **** Fit       0.090889
 **** Fit       0.090646
 **** Fit       0.081093
 **** Fit       0.074944
 **** Fit       0.075604
 **** Fit       0.082260
 -----------------------------------------------------------------
 Leave Link  602 at Wed Sep 18 11:11:51 2019, MaxMem=  1342177280 cpu:             113.8 elap:               2.5

 Test job not archived.
 1\1\GINC-C482-011\SP\RB3LYP\SVP\C54H83Ca1N15O23\PENGZHI\18-Sep-2019\0\
 \#b3lyp/svp scf=(tight,noincore) Test #IOP(5/87=12) Density=Current Po
 p=(MK,readradii) iop(6/33=2) iop(6/42=6)\\Ng-295_loop3_26.0\\0,1\C,0,8
 9.329,72.769,58.26\C,0,88.859,71.329,58.41\O,0,87.669,71.109,58.66\H,0
 ,90.297,72.784,57.759\H,0,88.605,73.328,57.667\H,0,89.423,73.226,59.24
 5\N,0,89.769,70.369,58.22\C,0,89.479,68.959,58.37\C,0,89.169,68.599,59
 .82\O,0,89.879,69.009,60.74\C,0,90.679,68.229,57.78\C,0,90.399,66.729,
 57.7\O,0,90.369,66.099,56.62\O,0,90.229,66.039,58.73\H,0,90.669,70.749
 ,57.94\H,0,88.579,68.639,57.84\H,0,91.529,68.389,58.44\H,0,90.959,68.7
 49,56.86\N,0,88.129,67.799,60.05\C,0,87.589,67.549,61.37\C,0,88.499,66
 .819,62.35\O,0,88.449,67.069,63.55\C,0,86.269,66.809,61.21\C,0,86.409,
 65.379,60.69\C,0,85.099,64.619,60.51\C,0,85.239,63.509,59.47\N,0,86.20
 9,62.459,59.84\H,0,87.559,67.459,59.29\H,0,87.369,68.539,61.78\H,0,85.
 599,67.369,60.56\H,0,85.689,66.839,62.14\H,0,87.079,64.789,61.32\H,0,8
 6.829,65.469,59.69\H,0,84.359,65.359,60.21\H,0,84.869,64.199,61.49\H,0
 ,85.569,63.899,58.51\H,0,84.219,63.139,59.37\H,0,87.149,62.819,59.88\H
 ,0,86.059,62.099,60.78\H,0,86.249,61.729,59.14\N,0,89.339,65.949,61.79
 \C,0,90.189,65.019,62.51\C,0,91.679,65.239,62.32\O,0,92.529,64.769,63.
 09\C,0,89.919,63.589,62.03\C,0,89.829,63.479,60.52\O,0,88.719,63.609,5
 9.95\O,0,90.869,63.289,59.86\H,0,89.339,65.839,60.79\H,0,90.019,65.179
 ,63.58\H,0,88.989,63.309,62.51\H,0,90.659,62.899,62.44\N,0,92.049,65.9
 49,61.25\C,0,93.409,66.339,60.95\C,0,93.929,65.659,59.69\O,0,94.609,66
 .319,58.91\H,0,91.349,66.059,60.53\H,0,94.059,66.159,61.81\H,0,93.399,
 67.409,60.74\N,0,93.589,64.409,59.34\C,0,94.079,63.569,58.26\C,0,93.34
 9,63.769,56.94\O,0,92.129,63.639,56.96\C,0,93.949,62.129,58.75\C,0,94.
 839,61.189,57.95\N,0,95.769,60.479,58.58\O,0,94.619,61.049,56.75\H,0,9
 2.919,63.949,59.93\H,0,95.139,63.799,58.16\H,0,92.909,61.859,58.56\H,0
 ,94.169,62.069,59.82\H,0,95.839,60.579,59.58\H,0,96.469,59.939,58.08\N
 ,0,94.069,63.979,55.83\C,0,93.419,64.209,54.56\C,0,92.699,63.029,53.94
 \O,0,92.129,63.159,52.86\H,0,95.069,63.839,55.88\H,0,94.319,64.379,53.
 97\H,0,92.759,65.069,54.7\N,0,92.649,61.869,54.6\C,0,91.769,60.769,54.
 27\C,0,90.279,61.089,54.39\O,0,89.839,61.709,55.36\C,0,92.059,59.449,5
 4.99\C,0,91.179,58.229,55.08\C,0,90.509,58.049,56.29\C,0,91.039,57.369
 ,53.98\C,0,89.559,57.019,56.38\C,0,90.149,56.289,54.12\C,0,89.429,56.1
 09,55.32\O,0,88.489,55.119,55.39\H,0,93.159,61.769,55.47\H,0,91.919,60
 .439,53.24\H,0,92.139,59.729,56.04\H,0,93.039,59.109,54.67\H,0,90.649,
 58.509,57.26\H,0,91.479,57.669,53.04\H,0,88.979,56.869,57.28\H,0,89.93
 9,55.679,53.26\H,0,88.629,54.509,54.66\N,0,89.529,60.689,53.37\C,0,88.
 089,60.799,53.2\C,0,87.399,59.979,54.28\O,0,87.609,60.059,55.49\C,0,87
 .679,62.249,52.96\C,0,86.159,62.249,52.89\C,0,88.349,62.779,51.7\C,0,8
 5.579,63.649,53.04\H,0,90.059,60.299,52.61\H,0,87.829,60.189,52.33\H,0
 ,87.949,62.839,53.83\H,0,85.649,61.709,53.7\H,0,85.749,61.859,51.96\H,
 0,89.419,62.599,51.76\H,0,87.879,62.419,50.78\H,0,88.349,63.869,51.59\
 H,0,84.489,63.659,53.1\H,0,86.049,64.079,53.92\H,0,85.899,64.269,52.2\
 N,0,86.449,59.199,53.76\C,0,85.499,58.389,54.5\C,0,84.779,57.289,53.74
 \O,0,84.169,56.429,54.37\C,0,84.389,59.269,55.05\O,0,83.649,59.879,54.
 01\H,0,86.239,59.239,52.77\H,0,86.119,58.029,55.33\H,0,84.809,60.099,5
 5.61\H,0,83.709,58.659,55.65\H,0,83.469,60.759,54.36\N,0,84.789,57.379
 ,52.4\C,0,84.249,56.459,51.42\C,0,82.859,55.909,51.72\O,0,82.729,54.69
 9,51.87\C,0,85.349,55.439,51.12\H,0,85.349,58.099,51.97\H,0,84.179,57.
 049,50.5\H,0,85.849,55.139,52.04\H,0,85.029,54.599,50.51\H,0,86.109,55
 .959,50.54\N,0,81.769,56.659,51.86\C,0,81.599,58.079,51.63\C,0,81.069,
 58.429,50.24\O,0,80.139,57.809,49.74\C,0,80.719,58.479,52.81\H,0,80.94
 9,56.129,52.12\H,0,82.569,58.519,51.83\H,0,79.659,58.289,52.66\H,0,80.
 959,58.039,53.78\H,0,80.709,59.559,52.93\N,0,81.499,59.569,49.69\C,0,8
 2.299,60.629,50.27\C,0,83.239,61.139,49.19\O,0,84.379,61.409,49.55\C,0
 ,81.469,61.769,50.86\C,0,82.229,62.839,51.63\C,0,81.389,63.879,52.36\O
 ,0,80.909,64.829,51.71\O,0,81.049,63.699,53.55\H,0,81.239,59.759,48.74
 \H,0,83.009,60.299,51.04\H,0,80.669,61.399,51.49\H,0,80.969,62.279,50.
 04\H,0,82.879,63.299,50.88\H,0,82.729,62.249,52.4\N,0,82.789,61.329,47
 .94\C,0,83.509,61.719,46.75\H,0,84.507,61.28,46.769\H,0,82.974,61.365,
 45.869\H,0,83.591,62.805,46.714\H,0,81.779,61.319,47.87\Ca,0,89.67,63.
 64,57.45\O,0,89.52,60.97,57.93\H,0,88.91,60.55,58.53\H,0,89.48,60.44,5
 7.14\\Version=ES64L-G16RevA.03\State=1-A\HF=-5333.4628394\RMSD=1.604e-
 09\Dipole=9.0961531,-5.1785817,2.4121831\Quadrupole=-27.5715038,-13.93
 67116,41.5082154,-30.3033278,-82.958226,-37.4003234\PG=C01 [X(C54H83Ca
 1N15O23)]\\@


 If fifty million people say a stupid thing,
 it is still a stupid thing.
                   -- Anatole France
 Job cpu time:       0 days 11 hours  6 minutes 26.9 seconds.
 Elapsed time:       0 days  0 hours 14 minutes  3.3 seconds.
 File lengths (MBytes):  RWF=   1517 Int=      0 D2E=      0 Chk=    171 Scr=      1
 Normal termination of Gaussian 16 at Wed Sep 18 11:11:54 2019.
