 Entering Gaussian System, Link 0=g16
 Initial command:
 /home1/apps/gaussian/16rA.03/g16/l1.exe "/scratch/01990/pengzhi/4345554/Gau-29335.inp" -scrdir="/scratch/01990/pengzhi/4345554/"
 Entering Link 1 = /home1/apps/gaussian/16rA.03/g16/l1.exe PID=     29336.
  
 Copyright (c) 1988,1990,1992,1993,1995,1998,2003,2009,2016,
            Gaussian, Inc.  All Rights Reserved.
  
 This is part of the Gaussian(R) 16 program.  It is based on
 the Gaussian(R) 09 system (copyright 2009, Gaussian, Inc.),
 the Gaussian(R) 03 system (copyright 2003, Gaussian, Inc.),
 the Gaussian(R) 98 system (copyright 1998, Gaussian, Inc.),
 the Gaussian(R) 94 system (copyright 1995, Gaussian, Inc.),
 the Gaussian 92(TM) system (copyright 1992, Gaussian, Inc.),
 the Gaussian 90(TM) system (copyright 1990, Gaussian, Inc.),
 the Gaussian 88(TM) system (copyright 1988, Gaussian, Inc.),
 the Gaussian 86(TM) system (copyright 1986, Carnegie Mellon
 University), and the Gaussian 82(TM) system (copyright 1983,
 Carnegie Mellon University). Gaussian is a federally registered
 trademark of Gaussian, Inc.
  
 This software contains proprietary and confidential information,
 including trade secrets, belonging to Gaussian, Inc.
  
 This software is provided under written license and may be
 used, copied, transmitted, or stored only in accord with that
 written license.
  
 The following legend is applicable only to US Government
 contracts under FAR:
  
                    RESTRICTED RIGHTS LEGEND
  
 Use, reproduction and disclosure by the US Government is
 subject to restrictions as set forth in subparagraphs (a)
 and (c) of the Commercial Computer Software - Restricted
 Rights clause in FAR 52.227-19.
  
 Gaussian, Inc.
 340 Quinnipiac St., Bldg. 40, Wallingford CT 06492
  
  
 ---------------------------------------------------------------
 Warning -- This program may not be used in any manner that
 competes with the business of Gaussian, Inc. or will provide
 assistance to any competitor of Gaussian, Inc.  The licensee
 of this program is prohibited from giving any competitor of
 Gaussian, Inc. access to this program.  By using this program,
 the user acknowledges that Gaussian, Inc. is engaged in the
 business of creating and licensing software in the field of
 computational chemistry and represents and warrants to the
 licensee that it is not a competitor of Gaussian, Inc. and that
 it will not use this program in any manner prohibited above.
 ---------------------------------------------------------------
  

 Cite this work as:
 Gaussian 16, Revision A.03,
 M. J. Frisch, G. W. Trucks, H. B. Schlegel, G. E. Scuseria, 
 M. A. Robb, J. R. Cheeseman, G. Scalmani, V. Barone, 
 G. A. Petersson, H. Nakatsuji, X. Li, M. Caricato, A. V. Marenich, 
 J. Bloino, B. G. Janesko, R. Gomperts, B. Mennucci, H. P. Hratchian, 
 J. V. Ortiz, A. F. Izmaylov, J. L. Sonnenberg, D. Williams-Young, 
 F. Ding, F. Lipparini, F. Egidi, J. Goings, B. Peng, A. Petrone, 
 T. Henderson, D. Ranasinghe, V. G. Zakrzewski, J. Gao, N. Rega, 
 G. Zheng, W. Liang, M. Hada, M. Ehara, K. Toyota, R. Fukuda, 
 J. Hasegawa, M. Ishida, T. Nakajima, Y. Honda, O. Kitao, H. Nakai, 
 T. Vreven, K. Throssell, J. A. Montgomery, Jr., J. E. Peralta, 
 F. Ogliaro, M. J. Bearpark, J. J. Heyd, E. N. Brothers, K. N. Kudin, 
 V. N. Staroverov, T. A. Keith, R. Kobayashi, J. Normand, 
 K. Raghavachari, A. P. Rendell, J. C. Burant, S. S. Iyengar, 
 J. Tomasi, M. Cossi, J. M. Millam, M. Klene, C. Adamo, R. Cammi, 
 J. W. Ochterski, R. L. Martin, K. Morokuma, O. Farkas, 
 J. B. Foresman, and D. J. Fox, Gaussian, Inc., Wallingford CT, 2016.
 
 ******************************************
 Gaussian 16:  ES64L-G16RevA.03 25-Dec-2016
                17-Sep-2019 
 ******************************************
 %chk=Ng-293_loop3_76.0.chk
 %nprocshared=48
 Will use up to   48 processors via shared memory.
 %mem=10GB
 %nosave
 ----------------------------------------------------------------------
 #b3lyp/svp scf=(tight,noincore) Test #IOP(5/87=12) Density=Current Pop
 =(MK,readradii) iop(6/33=2) iop(6/42=6)
 ----------------------------------------------------------------------
 1/30=1,38=1,172=1/1;
 2/12=2,17=6,18=5,40=1/2;
 3/5=18,7=101,11=2,25=1,30=1,74=-5/1,2,3;
 4//1;
 5/5=4,32=2,38=5,87=12/2;
 6/7=2,8=2,9=2,10=2,15=8,20=101,22=-1,28=1,33=2,42=6/1,2;
 99/5=1,9=1/99;
 -----------------
 Ng-293_loop3_76.0
 -----------------
 Symbolic Z-matrix:
 Charge =  0 Multiplicity = 1
 C                     64.4      27.04     8.37 
 C                     64.85     28.13     7.4 
 O                     64.02     28.58     6.62 
 H                     63.392    26.716    8.11 
 H                     65.081    26.192    8.306 
 H                     64.404    27.433    9.387 
 N                     66.14     28.45     7.37 
 C                     66.58     29.67     6.72 
 C                     66.13     30.91     7.49 
 O                     65.94     30.93     8.7 
 C                     68.08     29.82     6.48 
 C                     68.92     29.48     7.7 
 O                     69.37     28.34     7.94 
 O                     69.13     30.46     8.45 
 H                     66.73     27.97     8.04 
 H                     66.1      29.76     5.74 
 H                     68.28     30.87     6.26 
 H                     68.45     29.17     5.69 
 N                     65.96     31.95     6.68 
 C                     65.64     33.34     6.93 
 C                     66.59     34.16     7.79 
 O                     66.96     35.26     7.38 
 C                     64.21     33.35     7.47 
 C                     63.46     34.68     7.53 
 C                     63.07     35.15     6.13 
 C                     62.33     36.48     5.98 
 N                     61.01     36.54     6.64 
 H                     66.21     31.76     5.72 
 H                     65.76     33.82     5.96 
 H                     64.2      32.97     8.48 
 H                     63.61     32.65     6.89 
 H                     64.28     35.31     7.88 
 H                     62.69     34.63     8.31 
 H                     62.45     34.45     5.59 
 H                     63.93     35.26     5.47 
 H                     62.18     36.73     4.93 
 H                     63.02     37.17     6.44 
 H                     61.       36.31     7.62 
 H                     60.76     37.5      6.45 
 H                     60.37     35.86     6.26 
 N                     66.79     33.73     9.04 
 C                     67.6      34.4      10.04 
 C                     68.3      33.5      11.05 
 O                     67.64     32.81     11.82 
 C                     66.69     35.37     10.79 
 C                     67.58     36.2      11.71 
 O                     68.74     36.49     11.33 
 O                     67.05     36.54     12.79 
 H                     66.46     32.81     9.28 
 H                     68.32     35.03     9.51 
 H                     65.94     34.92     11.44 
 H                     66.21     36.02     10.07 
 N                     69.61     33.65     11.22 
 C                     70.43     32.97     12.2 
 C                     69.86     32.95     13.61 
 O                     69.85     33.99     14.27 
 H                     70.05     34.43     10.75 
 H                     71.4      33.46     12.26 
 H                     70.48     31.94     11.83 
 N                     69.44     31.8      14.14 
 C                     68.74     31.71     15.41 
 C                     69.75     31.81     16.54 
 O                     69.51     32.33     17.63 
 C                     67.87     30.46     15.56 
 C                     66.86     30.36     14.42 
 N                     67.       29.38     13.53 
 O                     66.01     31.24     14.35 
 H                     69.29     31.04     13.5 
 H                     68.12     32.59     15.55 
 H                     67.28     30.52     16.47 
 H                     68.4      29.51     15.51 
 H                     67.85     28.83     13.49 
 H                     66.36     29.3      12.75 
 N                     70.92     31.22     16.3 
 C                     72.08     31.26     17.18 
 C                     71.8      31.07     18.66 
 O                     71.33     30.04     19.13 
 H                     71.02     30.86     15.36 
 H                     72.59     32.22     17.11 
 H                     72.85     30.53     16.96 
 N                     72.17     32.13     19.39 
 C                     72.15     32.3      20.83 
 C                     70.8      32.22     21.54 
 O                     70.8      32.02     22.75 
 C                     73.27     31.52     21.51 
 C                     74.66     31.69     20.94 
 C                     75.43     30.56     20.64 
 C                     75.11     32.98     20.63 
 C                     76.64     30.8      19.97 
 C                     76.34     33.24     20.01 
 C                     77.09     32.1      19.68 
 O                     78.35     32.33     19.23 
 H                     72.73     32.84     18.94 
 H                     72.44     33.3      21.13 
 H                     72.98     30.47     21.57 
 H                     73.31     31.87     22.54 
 H                     75.15     29.56     20.93 
 H                     74.41     33.8      20.73 
 H                     77.36     30.01     19.79 
 H                     76.59     34.29     19.88 
 H                     78.43     33.25     18.98 
 N                     69.72     32.41     20.78 
 C                     68.34     32.47     21.21 
 C                     68.07     33.75     21.98 
 O                     67.3      34.63     21.57 
 C                     67.82     31.18     21.85 
 C                     67.93     30.       20.88 
 C                     66.37     31.33     22.31 
 C                     68.05     28.69     21.65 
 H                     69.89     32.78     19.86 
 H                     67.79     32.68     20.29 
 H                     68.46     30.97     22.7 
 H                     68.77     30.14     20.21 
 H                     67.05     29.95     20.24 
 H                     66.2      32.16     22.99 
 H                     65.68     31.44     21.47 
 H                     66.02     30.48     22.9 
 H                     67.18     28.64     22.31 
 H                     68.05     27.93     20.87 
 H                     68.94     28.68     22.27 
 N                     68.86     34.       23.03 
 C                     68.84     35.27     23.72 
 C                     67.74     35.48     24.74 
 O                     67.32     36.61     24.97 
 C                     70.23     35.52     24.31 
 O                     71.3      34.96     23.58 
 H                     69.53     33.29     23.27 
 H                     68.69     36.07     22.99 
 H                     70.34     35.16     25.33 
 H                     70.32     36.61     24.32 
 H                     71.5      35.63     22.92 
 N                     67.16     34.36     25.19 
 C                     65.9      34.31     25.9 
 C                     64.71     34.93     25.18 
 O                     63.77     35.35     25.85 
 C                     66.17     34.76     27.34 
 H                     67.65     33.51     24.94 
 H                     65.83     33.23     25.95 
 H                     66.12     35.84     27.35 
 H                     65.43     34.35     28.03 
 H                     67.14     34.44     27.71 
 N                     64.76     35.05     23.85 
 C                     63.88     35.84     23.02 
 C                     63.4      35.01     21.84 
 O                     64.07     34.02     21.53 
 C                     64.48     37.21     22.7 
 H                     65.61     34.74     23.39 
 H                     62.99     35.97     23.63 
 H                     63.71     37.83     22.25 
 H                     64.7      37.66     23.67 
 H                     65.4      37.05     22.13 
 N                     62.38     35.48     21.12 
 C                     61.77     34.65     20.1 
 C                     61.4      33.23     20.49 
 O                     61.34     32.29     19.71 
 C                     62.4      34.86     18.72 
 C                     63.16     36.15     18.47 
 C                     63.76     36.14     17.07 
 O                     64.14     35.14     16.42 
 O                     63.86     37.23     16.46 
 H                     61.9      36.32     21.41 
 H                     60.79     35.09     19.9 
 H                     61.67     34.74     17.93 
 H                     63.06     34.01     18.53 
 H                     63.98     36.19     19.19 
 H                     62.49     37.       18.57 
 N                     61.19     33.03     21.8 
 C                     60.72     31.82     22.43 
 H                     59.727    31.576    22.052 
 H                     61.405    31.003    22.205 
 H                     60.671    31.967    23.509 
 H                     61.31     33.87     22.35 
 Ca                    64.94     36.54     14.24 
 O                     66.51     38.6      14.63 
 H                     66.69     38.83     15.54 
 H                     67.08     39.17     14.12 
 
 Stoichiometry    C54H83CaN15O23
 Framework group  C1[X(C54H83CaN15O23)]
 Deg. of freedom   522
 Full point group                 C1      NOp   1
 Largest Abelian subgroup         C1      NOp   1
 Largest concise Abelian subgroup C1      NOp   1
                         Standard orientation:                         
 ---------------------------------------------------------------------
 Center     Atomic      Atomic             Coordinates (Angstroms)
 Number     Number       Type             X           Y           Z
 ---------------------------------------------------------------------
      1          6           0        8.828600    0.306596    5.651223
      2          6           0        9.622762    0.447016    4.354655
      3          8           0       10.481199   -0.393093    4.115693
      4          1           0        9.267405   -0.482546    6.262244
      5          1           0        8.857362    1.247666    6.199421
      6          1           0        7.793914    0.053046    5.419078
      7          7           0        9.426212    1.532456    3.612638
      8          6           0        9.896017    1.580397    2.240966
      9          6           0        9.103743    0.632432    1.342821
     10          8           0        7.940249    0.309741    1.549587
     11          6           0        9.887982    2.945338    1.557612
     12          6           0        8.585640    3.704816    1.749176
     13          8           0        8.375258    4.500777    2.688264
     14          8           0        7.732846    3.463773    0.865071
     15          1           0        8.715653    2.173410    3.946832
     16          1           0       10.927397    1.216172    2.191017
     17          1           0        9.985784    2.781819    0.483091
     18          1           0       10.662927    3.611113    1.931383
     19          7           0        9.840367    0.197394    0.325606
     20          6           0        9.527366   -0.623603   -0.825478
     21          6           0        8.465346   -0.134172   -1.798654
     22          8           0        8.719743   -0.136006   -3.002929
     23          6           0        9.215862   -2.015239   -0.275101
     24          6           0        9.161360   -3.191644   -1.248805
     25          6           0       10.560498   -3.559498   -1.738801
     26          6           0       10.711184   -4.702438   -2.743779
     27          7           0       10.260368   -6.023733   -2.261550
     28          1           0       10.762709    0.607515    0.289724
     29          1           0       10.423563   -0.571701   -1.441787
     30          1           0        8.254923   -2.005407    0.215918
     31          1           0        9.938121   -2.255192    0.504107
     32          1           0        8.637391   -2.696261   -2.068472
     33          1           0        8.516643   -3.977605   -0.836004
     34          1           0       11.246469   -3.822603   -0.947461
     35          1           0       11.068156   -2.725304   -2.222231
     36          1           0       11.747100   -4.809667   -3.064528
     37          1           0       10.093990   -4.361649   -3.560317
     38          1           0        9.316408   -6.063917   -1.914094
     39          1           0       10.405693   -6.575853   -3.094763
     40          1           0       10.790244   -6.330944   -1.460768
     41          7           0        7.239881    0.060540   -1.300937
     42          6           0        6.074222    0.457509   -2.068176
     43          6           0        5.047109    1.311001   -1.335586
     44          8           0        4.448804    0.856326   -0.366101
     45          6           0        5.395303   -0.818405   -2.560734
     46          6           0        4.282650   -0.395082   -3.514778
     47          8           0        4.453250    0.620841   -4.230946
     48          8           0        3.272882   -1.132108   -3.506998
     49          1           0        7.131595    0.054880   -0.300366
     50          1           0        6.432013    0.961555   -2.970464
     51          1           0        4.908951   -1.428256   -1.799786
     52          1           0        6.123862   -1.412210   -3.097297
     53          7           0        4.664808    2.452545   -1.899700
     54          6           0        3.630277    3.342330   -1.416765
     55          6           0        2.331951    2.658530   -1.016554
     56          8           0        1.596725    2.202489   -1.893349
     57          1           0        4.994238    2.636598   -2.838050
     58          1           0        3.380339    4.060105   -2.195822
     59          1           0        4.072997    3.798484   -0.524452
     60          7           0        1.971331    2.618004    0.267234
     61          6           0        0.836770    1.854754    0.758376
     62          6           0       -0.440062    2.625371    0.470539
     63          8           0       -1.519543    2.091909    0.213174
     64          6           0        0.928131    1.476424    2.238383
     65          6           0        2.214807    0.706959    2.524893
     66          7           0        3.151348    1.288641    3.270974
     67          8           0        2.341393   -0.386773    1.986817
     68          1           0        2.688153    2.823580    0.940735
     69          1           0        0.721088    0.950079    0.169665
     70          1           0        0.118421    0.803166    2.504640
     71          1           0        0.974975    2.312238    2.934889
     72          1           0        3.105432    2.277409    3.487375
     73          1           0        4.024786    0.813627    3.460358
     74          7           0       -0.335180    3.948135    0.588416
     75          6           0       -1.384055    4.908019    0.272052
     76          6           0       -2.781868    4.545636    0.740769
     77          8           0       -3.085740    4.422887    1.921995
     78          1           0        0.604874    4.277477    0.764575
     79          1           0       -1.474281    5.046727   -0.804619
     80          1           0       -1.225346    5.907515    0.659374
     81          7           0       -3.646388    4.426728   -0.275039
     82          6           0       -5.075122    4.181688   -0.235361
     83          6           0       -5.558808    2.876724    0.394017
     84          8           0       -6.733245    2.808621    0.740659
     85          6           0       -5.852301    5.419835    0.198442
     86          6           0       -5.520149    6.713675   -0.509763
     87          6           0       -5.249208    7.864978    0.239165
     88          6           0       -5.392457    6.706765   -1.904878
     89          6           0       -4.796660    8.978493   -0.486013
     90          6           0       -4.993895    7.825934   -2.648860
     91          6           0       -4.689495    8.965714   -1.887781
     92          8           0       -4.460412   10.103808   -2.591531
     93          1           0       -3.349328    4.744691   -1.186552
     94          1           0       -5.498950    4.059533   -1.225082
     95          1           0       -5.778687    5.518341    1.282452
     96          1           0       -6.901748    5.213495   -0.004250
     97          1           0       -5.407746    7.928434    1.303749
     98          1           0       -5.451379    5.753912   -2.415760
     99          1           0       -4.664583    9.948411   -0.020487
    100          1           0       -4.992418    7.698406   -3.728505
    101          1           0       -4.303657    9.878826   -3.508106
    102          7           0       -4.659676    1.895201    0.484973
    103          6           0       -4.874800    0.544773    0.957165
    104          6           0       -5.698231   -0.250560   -0.039634
    105          8           0       -5.249294   -1.230948   -0.650121
    106          6           0       -5.316543    0.448763    2.419952
    107          6           0       -4.279873    1.083142    3.351767
    108          6           0       -5.557918   -1.002106    2.836264
    109          6           0       -4.946798    1.572677    4.631989
    110          1           0       -3.811219    2.026914   -0.039406
    111          1           0       -3.901715    0.065956    0.827400
    112          1           0       -6.234622    1.019090    2.509714
    113          1           0       -3.761792    1.889250    2.845920
    114          1           0       -3.509688    0.358783    3.613718
    115          1           0       -6.270537   -1.533940    2.212144
    116          1           0       -4.633589   -1.584297    2.857948
    117          1           0       -6.013527   -1.091585    3.824957
    118          1           0       -5.457932    0.707823    5.062999
    119          1           0       -4.115328    1.933457    5.235723
    120          1           0       -5.693818    2.330000    4.419805
    121          7           0       -6.874871    0.271824   -0.402584
    122          6           0       -7.657334   -0.278934   -1.486012
    123          6           0       -8.509092   -1.491195   -1.170687
    124          8           0       -8.765196   -2.309923   -2.048353
    125          6           0       -8.473830    0.852750   -2.114763
    126          8           0       -7.873633    2.128553   -2.055682
    127          1           0       -7.155230    1.118479    0.061285
    128          1           0       -6.982469   -0.619090   -2.276108
    129          1           0       -9.464826    0.965561   -1.681982
    130          1           0       -8.588802    0.546486   -3.158450
    131          1           0       -7.310873    2.151185   -2.834970
    132          7           0       -8.768748   -1.681547    0.129176
    133          6           0       -9.268850   -2.913760    0.699922
    134          6           0       -8.428088   -4.155165    0.433590
    135          8           0       -8.977587   -5.253616    0.452459
    136          6           0      -10.765822   -2.989732    0.380073
    137          1           0       -8.527204   -0.895427    0.719744
    138          1           0       -9.216871   -2.599430    1.735438
    139          1           0      -10.858328   -3.422235   -0.606529
    140          1           0      -11.296446   -3.609178    1.105694
    141          1           0      -11.253148   -2.018926    0.395889
    142          7           0       -7.136548   -3.998360    0.128407
    143          6           0       -6.249619   -5.000269   -0.416511
    144          6           0       -4.944355   -5.013497    0.363111
    145          8           0       -4.659837   -4.003666    1.014564
    146          6           0       -6.141953   -4.895469   -1.938590
    147          1           0       -6.789084   -3.046760    0.065755
    148          1           0       -6.723505   -5.942072   -0.152807
    149          1           0       -5.631879   -5.778565   -2.312441
    150          1           0       -7.168512   -4.963653   -2.303729
    151          1           0       -5.709568   -3.919765   -2.179309
    152          7           0       -4.117303   -6.043811    0.178343
    153          6           0       -2.949465   -6.196004    1.023559
    154          6           0       -3.157392   -6.077795    2.522957
    155          8           0       -2.301588   -5.708479    3.314667
    156          6           0       -1.705844   -5.527760    0.430047
    157          6           0       -1.685113   -5.254159   -1.062907
    158          6           0       -0.398756   -4.533002   -1.444113
    159          8           0        0.266113   -3.749317   -0.729489
    160          8           0        0.095080   -4.758566   -2.573469
    161          1           0       -4.398933   -6.821703   -0.401026
    162          1           0       -2.637993   -7.238444    0.922045
    163          1           0       -0.805308   -6.070809    0.686043
    164          1           0       -1.549631   -4.590932    0.970557
    165          1           0       -2.523947   -4.591082   -1.284461
    166          1           0       -1.751181   -6.189890   -1.611944
    167          7           0       -4.397828   -6.352125    2.954536
    168          6           0       -4.844146   -6.429142    4.324488
    169          1           0       -4.298190   -7.219300    4.840290
    170          1           0       -4.660102   -5.476866    4.821114
    171          1           0       -5.911092   -6.651282    4.347572
    172          1           0       -5.028112   -6.603666    2.204889
    173         20           0        2.171431   -3.255494   -2.594510
    174          8           0        1.372533   -2.579098   -4.995520
    175          1           0        0.429632   -2.599032   -5.150247
    176          1           0        1.738831   -2.195044   -5.788129
 ---------------------------------------------------------------------
 Rotational constants (GHZ):           0.0190595           0.0085602           0.0069488
 Standard basis: SVP (5D, 7F)
 There are  1809 symmetry adapted cartesian basis functions of A   symmetry.
 There are  1717 symmetry adapted basis functions of A   symmetry.
  1717 basis functions,  2922 primitive gaussians,  1809 cartesian basis functions
   358 alpha electrons      358 beta electrons
       nuclear repulsion energy     18744.6301844787 Hartrees.
 NAtoms=  176 NActive=  176 NUniq=  176 SFac= 1.00D+00 NAtFMM=   60 NAOKFM=T Big=T
 Integral buffers will be    131072 words long.
 Raffenetti 2 integral format.
 Two-electron integral symmetry is turned on.
 One-electron integrals computed using PRISM.
 NBasis=  1717 RedAO= T EigKep=  2.89D-04  NBF=  1717
 NBsUse=  1717 1.00D-06 EigRej= -1.00D+00 NBFU=  1717
 ExpMin= 1.98D-02 ExpMax= 3.51D+04 ExpMxC= 5.28D+03 IAcc=3 IRadAn=         5 AccDes= 0.00D+00
 Harris functional with IExCor=  402 and IRadAn=       5 diagonalized for initial guess.
 HarFok:  IExCor=  402 AccDes= 0.00D+00 IRadAn=         5 IDoV= 1 UseB2=F ITyADJ=14
 ICtDFT=  3500011 ScaDFX=  1.000000  1.000000  1.000000  1.000000
 FoFCou: FMM=F IPFlag=           0 FMFlag=      100000 FMFlg1=        2001
         NFxFlg=           0 DoJE=T BraDBF=F KetDBF=T FulRan=T
         wScrn=  0.000000 ICntrl=       500 IOpCl=  0 I1Cent=   200000004 NGrid=           0
         NMat0=    1 NMatS0=      1 NMatT0=    0 NMatD0=    1 NMtDS0=    0 NMtDT0=    0
 Petite list used in FoFCou.
 Requested convergence on RMS density matrix=1.00D-08 within 128 cycles.
 Requested convergence on MAX density matrix=1.00D-06.
 Requested convergence on             energy=1.00D-06.
 No special actions if energy rises.
 EnCoef did     2 forward-backward iterations
 EnCoef did     3 forward-backward iterations
 EnCoef did     4 forward-backward iterations
 EnCoef did     7 forward-backward iterations
 Rare condition: small coef for last iteration: -0.222D-15
 EnCoef did     6 forward-backward iterations
 Rare condition: small coef for last iteration:  0.147D-15
 EnCoef did    35 forward-backward iterations
 EnCoef did    46 forward-backward iterations
 Rare condition: small coef for last iteration:  0.000D+00
 EnCoef did   100 forward-backward iterations
 EnCoef did   100 forward-backward iterations
 Rare condition: small coef for last iteration: -0.107D-14
 Restarting incremental Fock formation.
 EnCoef did    39 forward-backward iterations
 Rare condition: small coef for last iteration: -0.133D-14
 EnCoef did   100 forward-backward iterations
 Rare condition: small coef for last iteration:  0.000D+00
 EnCoef did   100 forward-backward iterations
 SCF Done:  E(RB3LYP) =  -5333.36310440     A.U. after   38 cycles
            NFock= 38  Conv=0.68D-09     -V/T= 2.0081
 SCF density gives NOpUse=  1 NOpAll=  1.
 Hyperfine terms turned off by default for NAtoms > 100.

 **********************************************************************

            Population analysis using the SCF density.

 **********************************************************************

 Orbital symmetries:
 BldTbl:  Degeneracy threshold= 1.00D-02
       Occupied  (A) (A) (A) (A) (A) (A) (A) (A) (A) (A) (A) (A)
                 (A) (A) (A) (A) (A) (A) (A) (A) (A) (A) (A) (A)
                 (A) (A) (A) (A) (A) (A) (A) (A) (A) (A) (A) (A)
                 (A) (A) (A) (A) (A) (A) (A) (A) (A) (A) (A) (A)
                 (A) (A) (A) (A) (A) (A) (A) (A) (A) (A) (A) (A)
                 (A) (A) (A) (A) (A) (A) (A) (A) (A) (A) (A) (A)
                 (A) (A) (A) (A) (A) (A) (A) (A) (A) (A) (A) (A)
                 (A) (A) (A) (A) (A) (A) (A) (A) (A) (A) (A) (A)
                 (A) (A) (A) (A) (A) (A) (A) (A) (A) (A) (A) (A)
                 (A) (A) (A) (A) (A) (A) (A) (A) (A) (A) (A) (A)
                 (A) (A) (A) (A) (A) (A) (A) (A) (A) (A) (A) (A)
                 (A) (A) (A) (A) (A) (A) (A) (A) (A) (A) (A) (A)
                 (A) (A) (A) (A) (A) (A) (A) (A) (A) (A) (A) (A)
                 (A) (A) (A) (A) (A) (A) (A) (A) (A) (A) (A) (A)
                 (A) (A) (A) (A) (A) (A) (A) (A) (A) (A) (A) (A)
                 (A) (A) (A) (A) (A) (A) (A) (A) (A) (A) (A) (A)
                 (A) (A) (A) (A) (A) (A) (A) (A) (A) (A) (A) (A)
                 (A) (A) (A) (A) (A) (A) (A) (A) (A) (A) (A) (A)
                 (A) (A) (A) (A) (A) (A) (A) (A) (A) (A) (A) (A)
                 (A) (A) (A) (A) (A) (A) (A) (A) (A) (A) (A) (A)
                 (A) (A) (A) (A) (A) (A) (A) (A) (A) (A) (A) (A)
                 (A) (A) (A) (A) (A) (A) (A) (A) (A) (A) (A) (A)
                 (A) (A) (A) (A) (A) (A) (A) (A) (A) (A) (A) (A)
                 (A) (A) (A) (A) (A) (A) (A) (A) (A) (A) (A) (A)
                 (A) (A) (A) (A) (A) (A) (A) (A) (A) (A) (A) (A)
                 (A) (A) (A) (A) (A) (A) (A) (A) (A) (A) (A) (A)
                 (A) (A) (A) (A) (A) (A) (A) (A) (A) (A) (A) (A)
                 (A) (A) (A) (A) (A) (A) (A) (A) (A) (A) (A) (A)
                 (A) (A) (A) (A) (A) (A) (A) (A) (A) (A) (A) (A)
                 (A) (A) (A) (A) (A) (A) (A) (A) (A) (A)
       Virtual   (A) (A) (A) (A) (A) (A) (A) (A) (A) (A) (A) (A)
                 (A) (A) (A) (A) (A) (A) (A) (A) (A) (A) (A) (A)
                 (A) (A) (A) (A) (A) (A) (A) (A) (A) (A) (A) (A)
                 (A) (A) (A) (A) (A) (A) (A) (A) (A) (A) (A) (A)
                 (A) (A) (A) (A) (A) (A) (A) (A) (A) (A) (A) (A)
                 (A) (A) (A) (A) (A) (A) (A) (A) (A) (A) (A) (A)
                 (A) (A) (A) (A) (A) (A) (A) (A) (A) (A) (A) (A)
                 (A) (A) (A) (A) (A) (A) (A) (A) (A) (A) (A) (A)
                 (A) (A) (A) (A) (A) (A) (A) (A) (A) (A) (A) (A)
                 (A) (A) (A) (A) (A) (A) (A) (A) (A) (A) (A) (A)
                 (A) (A) (A) (A) (A) (A) (A) (A) (A) (A) (A) (A)
                 (A) (A) (A) (A) (A) (A) (A) (A) (A) (A) (A) (A)
                 (A) (A) (A) (A) (A) (A) (A) (A) (A) (A) (A) (A)
                 (A) (A) (A) (A) (A) (A) (A) (A) (A) (A) (A) (A)
                 (A) (A) (A) (A) (A) (A) (A) (A) (A) (A) (A) (A)
                 (A) (A) (A) (A) (A) (A) (A) (A) (A) (A) (A) (A)
                 (A) (A) (A) (A) (A) (A) (A) (A) (A) (A) (A) (A)
                 (A) (A) (A) (A) (A) (A) (A) (A) (A) (A) (A) (A)
                 (A) (A) (A) (A) (A) (A) (A) (A) (A) (A) (A) (A)
                 (A) (A) (A) (A) (A) (A) (A) (A) (A) (A) (A) (A)
                 (A) (A) (A) (A) (A) (A) (A) (A) (A) (A) (A) (A)
                 (A) (A) (A) (A) (A) (A) (A) (A) (A) (A) (A) (A)
                 (A) (A) (A) (A) (A) (A) (A) (A) (A) (A) (A) (A)
                 (A) (A) (A) (A) (A) (A) (A) (A) (A) (A) (A) (A)
                 (A) (A) (A) (A) (A) (A) (A) (A) (A) (A) (A) (A)
                 (A) (A) (A) (A) (A) (A) (A) (A) (A) (A) (A) (A)
                 (A) (A) (A) (A) (A) (A) (A) (A) (A) (A) (A) (A)
                 (A) (A) (A) (A) (A) (A) (A) (A) (A) (A) (A) (A)
                 (A) (A) (A) (A) (A) (A) (A) (A) (A) (A) (A) (A)
                 (A) (A) (A) (A) (A) (A) (A) (A) (A) (A) (A) (A)
                 (A) (A) (A) (A) (A) (A) (A) (A) (A) (A) (A) (A)
                 (A) (A) (A) (A) (A) (A) (A) (A) (A) (A) (A) (A)
                 (A) (A) (A) (A) (A) (A) (A) (A) (A) (A) (A) (A)
                 (A) (A) (A) (A) (A) (A) (A) (A) (A) (A) (A) (A)
                 (A) (A) (A) (A) (A) (A) (A) (A) (A) (A) (A) (A)
                 (A) (A) (A) (A) (A) (A) (A) (A) (A) (A) (A) (A)
                 (A) (A) (A) (A) (A) (A) (A) (A) (A) (A) (A) (A)
                 (A) (A) (A) (A) (A) (A) (A) (A) (A) (A) (A) (A)
                 (A) (A) (A) (A) (A) (A) (A) (A) (A) (A) (A) (A)
                 (A) (A) (A) (A) (A) (A) (A) (A) (A) (A) (A) (A)
                 (A) (A) (A) (A) (A) (A) (A) (A) (A) (A) (A) (A)
                 (A) (A) (A) (A) (A) (A) (A) (A) (A) (A) (A) (A)
                 (A) (A) (A) (A) (A) (A) (A) (A) (A) (A) (A) (A)
                 (A) (A) (A) (A) (A) (A) (A) (A) (A) (A) (A) (A)
                 (A) (A) (A) (A) (A) (A) (A) (A) (A) (A) (A) (A)
                 (A) (A) (A) (A) (A) (A) (A) (A) (A) (A) (A) (A)
                 (A) (A) (A) (A) (A) (A) (A) (A) (A) (A) (A) (A)
                 (A) (A) (A) (A) (A) (A) (A) (A) (A) (A) (A) (A)
                 (A) (A) (A) (A) (A) (A) (A) (A) (A) (A) (A) (A)
                 (A) (A) (A) (A) (A) (A) (A) (A) (A) (A) (A) (A)
                 (A) (A) (A) (A) (A) (A) (A) (A) (A) (A) (A) (A)
                 (A) (A) (A) (A) (A) (A) (A) (A) (A) (A) (A) (A)
                 (A) (A) (A) (A) (A) (A) (A) (A) (A) (A) (A) (A)
                 (A) (A) (A) (A) (A) (A) (A) (A) (A) (A) (A) (A)
                 (A) (A) (A) (A) (A) (A) (A) (A) (A) (A) (A) (A)
                 (A) (A) (A) (A) (A) (A) (A) (A) (A) (A) (A) (A)
                 (A) (A) (A) (A) (A) (A) (A) (A) (A) (A) (A) (A)
                 (A) (A) (A) (A) (A) (A) (A) (A) (A) (A) (A) (A)
                 (A) (A) (A) (A) (A) (A) (A) (A) (A) (A) (A) (A)
                 (A) (A) (A) (A) (A) (A) (A) (A) (A) (A) (A) (A)
                 (A) (A) (A) (A) (A) (A) (A) (A) (A) (A) (A) (A)
                 (A) (A) (A) (A) (A) (A) (A) (A) (A) (A) (A) (A)
                 (A) (A) (A) (A) (A) (A) (A) (A) (A) (A) (A) (A)
                 (A) (A) (A) (A) (A) (A) (A) (A) (A) (A) (A) (A)
                 (A) (A) (A) (A) (A) (A) (A) (A) (A) (A) (A) (A)
                 (A) (A) (A) (A) (A) (A) (A) (A) (A) (A) (A) (A)
                 (A) (A) (A) (A) (A) (A) (A) (A) (A) (A) (A) (A)
                 (A) (A) (A) (A) (A) (A) (A) (A) (A) (A) (A) (A)
                 (A) (A) (A) (A) (A) (A) (A) (A) (A) (A) (A) (A)
                 (A) (A) (A) (A) (A) (A) (A) (A) (A) (A) (A) (A)
                 (A) (A) (A) (A) (A) (A) (A) (A) (A) (A) (A) (A)
                 (A) (A) (A) (A) (A) (A) (A) (A) (A) (A) (A) (A)
                 (A) (A) (A) (A) (A) (A) (A) (A) (A) (A) (A) (A)
                 (A) (A) (A) (A) (A) (A) (A) (A) (A) (A) (A) (A)
                 (A) (A) (A) (A) (A) (A) (A) (A) (A) (A) (A) (A)
                 (A) (A) (A) (A) (A) (A) (A) (A) (A) (A) (A) (A)
                 (A) (A) (A) (A) (A) (A) (A) (A) (A) (A) (A) (A)
                 (A) (A) (A) (A) (A) (A) (A) (A) (A) (A) (A) (A)
                 (A) (A) (A) (A) (A) (A) (A) (A) (A) (A) (A) (A)
                 (A) (A) (A) (A) (A) (A) (A) (A) (A) (A) (A) (A)
                 (A) (A) (A) (A) (A) (A) (A) (A) (A) (A) (A) (A)
                 (A) (A) (A) (A) (A) (A) (A) (A) (A) (A) (A) (A)
                 (A) (A) (A) (A) (A) (A) (A) (A) (A) (A) (A) (A)
                 (A) (A) (A) (A) (A) (A) (A) (A) (A) (A) (A) (A)
                 (A) (A) (A) (A) (A) (A) (A) (A) (A) (A) (A) (A)
                 (A) (A) (A) (A) (A) (A) (A) (A) (A) (A) (A) (A)
                 (A) (A) (A) (A) (A) (A) (A) (A) (A) (A) (A) (A)
                 (A) (A) (A) (A) (A) (A) (A) (A) (A) (A) (A) (A)
                 (A) (A) (A) (A) (A) (A) (A) (A) (A) (A) (A) (A)
                 (A) (A) (A) (A) (A) (A) (A) (A) (A) (A) (A) (A)
                 (A) (A) (A) (A) (A) (A) (A) (A) (A) (A) (A) (A)
                 (A) (A) (A) (A) (A) (A) (A) (A) (A) (A) (A) (A)
                 (A) (A) (A) (A) (A) (A) (A) (A) (A) (A) (A) (A)
                 (A) (A) (A) (A) (A) (A) (A) (A) (A) (A) (A) (A)
                 (A) (A) (A) (A) (A) (A) (A) (A) (A) (A) (A) (A)
                 (A) (A) (A) (A) (A) (A) (A) (A) (A) (A) (A) (A)
                 (A) (A) (A) (A) (A) (A) (A) (A) (A) (A) (A) (A)
                 (A) (A) (A) (A) (A) (A) (A) (A) (A) (A) (A) (A)
                 (A) (A) (A) (A) (A) (A) (A) (A) (A) (A) (A) (A)
                 (A) (A) (A) (A) (A) (A) (A) (A) (A) (A) (A) (A)
                 (A) (A) (A) (A) (A) (A) (A) (A) (A) (A) (A) (A)
                 (A) (A) (A) (A) (A) (A) (A) (A) (A) (A) (A) (A)
                 (A) (A) (A) (A) (A) (A) (A) (A) (A) (A) (A) (A)
                 (A) (A) (A) (A) (A) (A) (A) (A) (A) (A) (A) (A)
                 (A) (A) (A) (A) (A) (A) (A) (A) (A) (A) (A) (A)
                 (A) (A) (A) (A) (A) (A) (A) (A) (A) (A) (A) (A)
                 (A) (A) (A) (A) (A) (A) (A) (A) (A) (A) (A) (A)
                 (A) (A) (A) (A) (A) (A) (A) (A) (A) (A) (A) (A)
                 (A) (A) (A) (A) (A) (A) (A) (A) (A) (A) (A) (A)
                 (A) (A) (A) (A) (A) (A) (A) (A) (A) (A) (A) (A)
                 (A) (A) (A) (A) (A) (A) (A) (A) (A) (A) (A) (A)
                 (A) (A) (A) (A) (A) (A) (A) (A) (A) (A) (A) (A)
                 (A) (A) (A) (A) (A) (A) (A) (A) (A) (A) (A) (A)
                 (A) (A) (A)
 The electronic state is 1-A.
 Alpha  occ. eigenvalues -- -145.46738 -19.18712 -19.15702 -19.13861 -19.09493
 Alpha  occ. eigenvalues --  -19.08983 -19.08949 -19.08916 -19.08893 -19.08728
 Alpha  occ. eigenvalues --  -19.08290 -19.08072 -19.07615 -19.07585 -19.07558
 Alpha  occ. eigenvalues --  -19.07504 -19.07480 -19.06915 -19.06903 -19.06830
 Alpha  occ. eigenvalues --  -19.05604 -19.03667 -18.97335 -18.96837 -15.52677
 Alpha  occ. eigenvalues --  -14.58028 -14.36351 -14.35238 -14.35204 -14.34722
 Alpha  occ. eigenvalues --  -14.34620 -14.34554 -14.34240 -14.34136 -14.33433
 Alpha  occ. eigenvalues --  -14.33372 -14.33144 -14.33055 -14.32792 -14.31449
 Alpha  occ. eigenvalues --  -12.66311 -12.66262 -12.66151 -10.34914 -10.27975
 Alpha  occ. eigenvalues --  -10.27942 -10.27491 -10.27416 -10.27368 -10.27338
 Alpha  occ. eigenvalues --  -10.27209 -10.26829 -10.26812 -10.26605 -10.26557
 Alpha  occ. eigenvalues --  -10.26514 -10.26453 -10.26143 -10.25585 -10.24933
 Alpha  occ. eigenvalues --  -10.24762 -10.24491 -10.24375 -10.24157 -10.23537
 Alpha  occ. eigenvalues --  -10.23091 -10.22988 -10.22902 -10.22580 -10.22508
 Alpha  occ. eigenvalues --  -10.21976 -10.21796 -10.21371 -10.21278 -10.21086
 Alpha  occ. eigenvalues --  -10.21049 -10.20535 -10.20082 -10.19207 -10.19137
 Alpha  occ. eigenvalues --  -10.19123 -10.19009 -10.18760 -10.18625 -10.17867
 Alpha  occ. eigenvalues --  -10.17743 -10.17462 -10.16910 -10.16754 -10.16478
 Alpha  occ. eigenvalues --  -10.16431 -10.16417 -10.16017 -10.15372 -10.14847
 Alpha  occ. eigenvalues --  -10.14625 -10.12909  -1.89295  -1.17018  -1.16688
 Alpha  occ. eigenvalues --   -1.15893  -1.13585  -1.05022  -1.04787  -1.03064
 Alpha  occ. eigenvalues --   -1.02999  -1.02506  -1.02362  -1.02221  -1.01955
 Alpha  occ. eigenvalues --   -1.01795  -1.01305  -1.00929  -1.00755  -1.00651
 Alpha  occ. eigenvalues --   -1.00525  -1.00184  -0.99940  -0.99800  -0.99150
 Alpha  occ. eigenvalues --   -0.98679  -0.92888  -0.92577  -0.92321  -0.92283
 Alpha  occ. eigenvalues --   -0.92125  -0.91670  -0.91352  -0.91149  -0.90348
 Alpha  occ. eigenvalues --   -0.90260  -0.90156  -0.89864  -0.89657  -0.89594
 Alpha  occ. eigenvalues --   -0.89144  -0.88769  -0.88708  -0.88218  -0.84726
 Alpha  occ. eigenvalues --   -0.82702  -0.81686  -0.79718  -0.78885  -0.78569
 Alpha  occ. eigenvalues --   -0.77988  -0.77650  -0.77340  -0.75678  -0.75637
 Alpha  occ. eigenvalues --   -0.74820  -0.74581  -0.74311  -0.74036  -0.72728
 Alpha  occ. eigenvalues --   -0.72403  -0.72284  -0.71546  -0.71353  -0.70973
 Alpha  occ. eigenvalues --   -0.69602  -0.68921  -0.68715  -0.68373  -0.66868
 Alpha  occ. eigenvalues --   -0.65889  -0.64941  -0.64740  -0.64393  -0.63935
 Alpha  occ. eigenvalues --   -0.63084  -0.62248  -0.61745  -0.61374  -0.61244
 Alpha  occ. eigenvalues --   -0.61015  -0.60450  -0.59710  -0.59229  -0.59149
 Alpha  occ. eigenvalues --   -0.58410  -0.58182  -0.58055  -0.57992  -0.57482
 Alpha  occ. eigenvalues --   -0.57370  -0.56916  -0.56343  -0.56331  -0.55947
 Alpha  occ. eigenvalues --   -0.55894  -0.55664  -0.55328  -0.54880  -0.54741
 Alpha  occ. eigenvalues --   -0.54274  -0.54047  -0.53593  -0.53489  -0.53156
 Alpha  occ. eigenvalues --   -0.52938  -0.52668  -0.52405  -0.51445  -0.51189
 Alpha  occ. eigenvalues --   -0.50993  -0.50345  -0.49887  -0.49699  -0.49214
 Alpha  occ. eigenvalues --   -0.48939  -0.48578  -0.48334  -0.48136  -0.47809
 Alpha  occ. eigenvalues --   -0.47307  -0.47009  -0.46934  -0.46886  -0.46801
 Alpha  occ. eigenvalues --   -0.46733  -0.46634  -0.46334  -0.46185  -0.45944
 Alpha  occ. eigenvalues --   -0.45612  -0.45534  -0.45253  -0.45017  -0.44627
 Alpha  occ. eigenvalues --   -0.44575  -0.44483  -0.44365  -0.44273  -0.44149
 Alpha  occ. eigenvalues --   -0.44040  -0.43497  -0.43431  -0.43410  -0.43154
 Alpha  occ. eigenvalues --   -0.43040  -0.42971  -0.42606  -0.42480  -0.42177
 Alpha  occ. eigenvalues --   -0.41835  -0.41745  -0.41675  -0.41606  -0.41585
 Alpha  occ. eigenvalues --   -0.41490  -0.41222  -0.41079  -0.40981  -0.40781
 Alpha  occ. eigenvalues --   -0.40733  -0.40518  -0.40405  -0.40338  -0.40192
 Alpha  occ. eigenvalues --   -0.40027  -0.39769  -0.39691  -0.39437  -0.39403
 Alpha  occ. eigenvalues --   -0.39256  -0.39167  -0.38907  -0.38687  -0.38542
 Alpha  occ. eigenvalues --   -0.38359  -0.38253  -0.38145  -0.38126  -0.37910
 Alpha  occ. eigenvalues --   -0.37702  -0.37560  -0.37557  -0.37507  -0.37309
 Alpha  occ. eigenvalues --   -0.37192  -0.37176  -0.37132  -0.37018  -0.36731
 Alpha  occ. eigenvalues --   -0.36555  -0.36421  -0.36037  -0.35976  -0.35887
 Alpha  occ. eigenvalues --   -0.35766  -0.35662  -0.35583  -0.35544  -0.35286
 Alpha  occ. eigenvalues --   -0.35238  -0.35090  -0.35007  -0.34432  -0.34386
 Alpha  occ. eigenvalues --   -0.34271  -0.34230  -0.34170  -0.34006  -0.33653
 Alpha  occ. eigenvalues --   -0.33646  -0.33123  -0.33112  -0.33035  -0.32997
 Alpha  occ. eigenvalues --   -0.32154  -0.32128  -0.31159  -0.31136  -0.30493
 Alpha  occ. eigenvalues --   -0.29989  -0.28568  -0.28566  -0.27723  -0.27600
 Alpha  occ. eigenvalues --   -0.27075  -0.26893  -0.26836  -0.26823  -0.26503
 Alpha  occ. eigenvalues --   -0.26429  -0.26249  -0.26143  -0.25864  -0.25568
 Alpha  occ. eigenvalues --   -0.25460  -0.24976  -0.24940  -0.24655  -0.24463
 Alpha  occ. eigenvalues --   -0.24406  -0.24062  -0.23974  -0.23780  -0.23676
 Alpha  occ. eigenvalues --   -0.23615  -0.23292  -0.23149  -0.23144  -0.23054
 Alpha  occ. eigenvalues --   -0.22782  -0.22511  -0.22386  -0.22350  -0.22217
 Alpha  occ. eigenvalues --   -0.21993  -0.21761  -0.21543  -0.21335  -0.19854
 Alpha  occ. eigenvalues --   -0.14553  -0.14492  -0.11928
 Alpha virt. eigenvalues --   -0.10956  -0.09088  -0.04930  -0.04459  -0.01939
 Alpha virt. eigenvalues --   -0.01075  -0.00012   0.00146   0.01375   0.01608
 Alpha virt. eigenvalues --    0.01685   0.01749   0.01755   0.01865   0.02162
 Alpha virt. eigenvalues --    0.02403   0.02479   0.02616   0.02783   0.02848
 Alpha virt. eigenvalues --    0.03073   0.03077   0.03983   0.04172   0.04263
 Alpha virt. eigenvalues --    0.04434   0.04672   0.04834   0.04995   0.05274
 Alpha virt. eigenvalues --    0.05394   0.05705   0.05777   0.05822   0.06010
 Alpha virt. eigenvalues --    0.06191   0.07186   0.07203   0.07267   0.07777
 Alpha virt. eigenvalues --    0.07926   0.08213   0.08229   0.08617   0.08705
 Alpha virt. eigenvalues --    0.08864   0.09316   0.09530   0.09688   0.09917
 Alpha virt. eigenvalues --    0.10002   0.10207   0.10287   0.10302   0.10589
 Alpha virt. eigenvalues --    0.10691   0.10999   0.11283   0.11339   0.11602
 Alpha virt. eigenvalues --    0.11940   0.12134   0.12275   0.12426   0.12610
 Alpha virt. eigenvalues --    0.12925   0.13111   0.13205   0.13408   0.13593
 Alpha virt. eigenvalues --    0.13897   0.13981   0.14226   0.14252   0.14408
 Alpha virt. eigenvalues --    0.14615   0.14740   0.14965   0.15144   0.15231
 Alpha virt. eigenvalues --    0.15299   0.15454   0.15647   0.15918   0.15954
 Alpha virt. eigenvalues --    0.16032   0.16181   0.16221   0.16289   0.16362
 Alpha virt. eigenvalues --    0.16653   0.16784   0.16833   0.16914   0.17086
 Alpha virt. eigenvalues --    0.17346   0.17461   0.17570   0.17758   0.17807
 Alpha virt. eigenvalues --    0.17876   0.18086   0.18181   0.18575   0.18799
 Alpha virt. eigenvalues --    0.19147   0.19239   0.19374   0.19435   0.19594
 Alpha virt. eigenvalues --    0.19699   0.20196   0.20517   0.20758   0.20912
 Alpha virt. eigenvalues --    0.21065   0.21075   0.21321   0.21557   0.21959
 Alpha virt. eigenvalues --    0.22392   0.22748   0.22822   0.22908   0.23325
 Alpha virt. eigenvalues --    0.23415   0.23557   0.23997   0.24091   0.24178
 Alpha virt. eigenvalues --    0.24554   0.24693   0.24824   0.25118   0.25340
 Alpha virt. eigenvalues --    0.25560   0.25767   0.25962   0.26216   0.26286
 Alpha virt. eigenvalues --    0.26478   0.26745   0.26919   0.27109   0.27319
 Alpha virt. eigenvalues --    0.27369   0.27607   0.27679   0.27864   0.27962
 Alpha virt. eigenvalues --    0.28351   0.28494   0.28778   0.29203   0.29372
 Alpha virt. eigenvalues --    0.29570   0.30050   0.30098   0.30424   0.30648
 Alpha virt. eigenvalues --    0.30795   0.31036   0.31487   0.31576   0.31664
 Alpha virt. eigenvalues --    0.32056   0.32373   0.32426   0.32720   0.32918
 Alpha virt. eigenvalues --    0.33052   0.33206   0.33457   0.33748   0.34189
 Alpha virt. eigenvalues --    0.34719   0.35224   0.35364   0.35391   0.35886
 Alpha virt. eigenvalues --    0.36241   0.36833   0.37458   0.37919   0.38296
 Alpha virt. eigenvalues --    0.38616   0.38690   0.38971   0.39293   0.39445
 Alpha virt. eigenvalues --    0.39912   0.40371   0.40475   0.40954   0.41137
 Alpha virt. eigenvalues --    0.41215   0.41582   0.41778   0.42015   0.42207
 Alpha virt. eigenvalues --    0.42427   0.42778   0.43005   0.43112   0.43381
 Alpha virt. eigenvalues --    0.43469   0.43673   0.43929   0.44166   0.44339
 Alpha virt. eigenvalues --    0.44614   0.44843   0.44965   0.45046   0.45370
 Alpha virt. eigenvalues --    0.45523   0.45820   0.45879   0.45941   0.46265
 Alpha virt. eigenvalues --    0.46679   0.46836   0.46949   0.47148   0.47225
 Alpha virt. eigenvalues --    0.47496   0.47723   0.47838   0.47860   0.48093
 Alpha virt. eigenvalues --    0.48273   0.48602   0.48746   0.48939   0.49072
 Alpha virt. eigenvalues --    0.49264   0.49387   0.49443   0.49504   0.49713
 Alpha virt. eigenvalues --    0.49899   0.50115   0.50149   0.50409   0.50708
 Alpha virt. eigenvalues --    0.51082   0.51377   0.51663   0.51756   0.51890
 Alpha virt. eigenvalues --    0.52201   0.52471   0.52714   0.52804   0.53024
 Alpha virt. eigenvalues --    0.53178   0.53236   0.53476   0.53543   0.53603
 Alpha virt. eigenvalues --    0.53851   0.54147   0.54247   0.54396   0.54595
 Alpha virt. eigenvalues --    0.54750   0.54860   0.54997   0.55117   0.55190
 Alpha virt. eigenvalues --    0.55627   0.55994   0.56061   0.56356   0.56612
 Alpha virt. eigenvalues --    0.56883   0.56946   0.57206   0.57370   0.57647
 Alpha virt. eigenvalues --    0.57800   0.57949   0.58150   0.58383   0.58470
 Alpha virt. eigenvalues --    0.58682   0.58756   0.58924   0.59388   0.59415
 Alpha virt. eigenvalues --    0.59466   0.59688   0.59761   0.59822   0.59849
 Alpha virt. eigenvalues --    0.60073   0.60528   0.60604   0.60928   0.61110
 Alpha virt. eigenvalues --    0.61177   0.61386   0.61452   0.61622   0.61808
 Alpha virt. eigenvalues --    0.61894   0.61983   0.62002   0.62118   0.62410
 Alpha virt. eigenvalues --    0.62473   0.62504   0.62821   0.62914   0.63001
 Alpha virt. eigenvalues --    0.63236   0.63402   0.63520   0.63638   0.63685
 Alpha virt. eigenvalues --    0.63938   0.64026   0.64056   0.64298   0.64499
 Alpha virt. eigenvalues --    0.64695   0.64770   0.64940   0.64955   0.65053
 Alpha virt. eigenvalues --    0.65141   0.65408   0.65502   0.65640   0.65694
 Alpha virt. eigenvalues --    0.65719   0.65748   0.65845   0.65954   0.66122
 Alpha virt. eigenvalues --    0.66313   0.66388   0.66467   0.66561   0.66641
 Alpha virt. eigenvalues --    0.66786   0.66894   0.67027   0.67157   0.67233
 Alpha virt. eigenvalues --    0.67396   0.67448   0.67483   0.67557   0.67672
 Alpha virt. eigenvalues --    0.67778   0.67959   0.67993   0.68076   0.68266
 Alpha virt. eigenvalues --    0.68347   0.68460   0.68530   0.68678   0.68760
 Alpha virt. eigenvalues --    0.68847   0.68918   0.69000   0.69184   0.69278
 Alpha virt. eigenvalues --    0.69363   0.69552   0.69629   0.69659   0.69752
 Alpha virt. eigenvalues --    0.69784   0.69845   0.70001   0.70147   0.70292
 Alpha virt. eigenvalues --    0.70362   0.70494   0.70541   0.70717   0.70844
 Alpha virt. eigenvalues --    0.70911   0.71034   0.71177   0.71385   0.71442
 Alpha virt. eigenvalues --    0.71515   0.71604   0.71691   0.71873   0.72098
 Alpha virt. eigenvalues --    0.72283   0.72390   0.72545   0.72656   0.72786
 Alpha virt. eigenvalues --    0.72900   0.73109   0.73170   0.73350   0.73579
 Alpha virt. eigenvalues --    0.73890   0.74041   0.74276   0.74366   0.74766
 Alpha virt. eigenvalues --    0.74959   0.75302   0.75371   0.75489   0.75553
 Alpha virt. eigenvalues --    0.75592   0.75771   0.76003   0.76058   0.76412
 Alpha virt. eigenvalues --    0.76551   0.76698   0.76829   0.76968   0.77086
 Alpha virt. eigenvalues --    0.77577   0.77647   0.77721   0.78156   0.78280
 Alpha virt. eigenvalues --    0.78684   0.78801   0.78852   0.78962   0.79197
 Alpha virt. eigenvalues --    0.79620   0.79722   0.79859   0.80194   0.80662
 Alpha virt. eigenvalues --    0.81012   0.81554   0.81793   0.82117   0.82256
 Alpha virt. eigenvalues --    0.82473   0.82613   0.83010   0.83291   0.83602
 Alpha virt. eigenvalues --    0.83911   0.84018   0.84254   0.84587   0.84634
 Alpha virt. eigenvalues --    0.85281   0.85584   0.86080   0.86540   0.86749
 Alpha virt. eigenvalues --    0.86921   0.86989   0.87303   0.87524   0.87785
 Alpha virt. eigenvalues --    0.88009   0.88502   0.89240   0.89371   0.89588
 Alpha virt. eigenvalues --    0.89805   0.89975   0.90506   0.90565   0.90660
 Alpha virt. eigenvalues --    0.91463   0.91510   0.91576   0.91802   0.92069
 Alpha virt. eigenvalues --    0.92213   0.92362   0.92835   0.92970   0.93594
 Alpha virt. eigenvalues --    0.94042   0.94508   0.94625   0.94776   0.95007
 Alpha virt. eigenvalues --    0.95509   0.95807   0.96215   0.96530   0.96857
 Alpha virt. eigenvalues --    0.97094   0.97424   0.97451   0.97560   0.97895
 Alpha virt. eigenvalues --    0.98051   0.98237   0.98605   0.98935   0.99010
 Alpha virt. eigenvalues --    0.99549   0.99893   0.99948   1.00283   1.00763
 Alpha virt. eigenvalues --    1.01185   1.01322   1.01603   1.02152   1.02320
 Alpha virt. eigenvalues --    1.02655   1.02901   1.03352   1.03847   1.03890
 Alpha virt. eigenvalues --    1.04265   1.04681   1.04921   1.04967   1.05100
 Alpha virt. eigenvalues --    1.05481   1.05718   1.06100   1.06259   1.06432
 Alpha virt. eigenvalues --    1.06528   1.06864   1.07274   1.07741   1.08209
 Alpha virt. eigenvalues --    1.08440   1.08595   1.08809   1.08943   1.09721
 Alpha virt. eigenvalues --    1.09818   1.10038   1.10079   1.10246   1.10264
 Alpha virt. eigenvalues --    1.10618   1.10777   1.11674   1.11789   1.11934
 Alpha virt. eigenvalues --    1.12092   1.12336   1.12614   1.12662   1.13038
 Alpha virt. eigenvalues --    1.13744   1.13907   1.14121   1.14438   1.14724
 Alpha virt. eigenvalues --    1.14831   1.14954   1.15437   1.15696   1.15786
 Alpha virt. eigenvalues --    1.16195   1.16394   1.16682   1.16837   1.17039
 Alpha virt. eigenvalues --    1.17347   1.17514   1.17632   1.17907   1.18228
 Alpha virt. eigenvalues --    1.18641   1.18835   1.19189   1.19353   1.19443
 Alpha virt. eigenvalues --    1.19885   1.19909   1.20553   1.21220   1.21381
 Alpha virt. eigenvalues --    1.21536   1.21685   1.22246   1.22613   1.22698
 Alpha virt. eigenvalues --    1.22877   1.23120   1.23346   1.23690   1.23783
 Alpha virt. eigenvalues --    1.23967   1.24077   1.24438   1.24550   1.24741
 Alpha virt. eigenvalues --    1.25303   1.25489   1.25989   1.26452   1.26519
 Alpha virt. eigenvalues --    1.26812   1.27043   1.27279   1.27412   1.27540
 Alpha virt. eigenvalues --    1.27903   1.28066   1.28276   1.28522   1.29099
 Alpha virt. eigenvalues --    1.29342   1.29722   1.30066   1.30229   1.30449
 Alpha virt. eigenvalues --    1.30666   1.30792   1.31014   1.31485   1.31689
 Alpha virt. eigenvalues --    1.32453   1.32767   1.33321   1.33386   1.33689
 Alpha virt. eigenvalues --    1.33875   1.34404   1.34573   1.35235   1.35563
 Alpha virt. eigenvalues --    1.35752   1.36154   1.36423   1.36720   1.36761
 Alpha virt. eigenvalues --    1.37107   1.37534   1.37623   1.37795   1.38218
 Alpha virt. eigenvalues --    1.38393   1.38470   1.39012   1.39439   1.39725
 Alpha virt. eigenvalues --    1.40073   1.40219   1.40378   1.40754   1.41079
 Alpha virt. eigenvalues --    1.41407   1.41545   1.42252   1.42315   1.42637
 Alpha virt. eigenvalues --    1.43001   1.43661   1.43886   1.44005   1.44302
 Alpha virt. eigenvalues --    1.44498   1.44772   1.45359   1.45523   1.45635
 Alpha virt. eigenvalues --    1.45994   1.46487   1.46649   1.47041   1.47100
 Alpha virt. eigenvalues --    1.47409   1.47722   1.48147   1.48306   1.48396
 Alpha virt. eigenvalues --    1.48952   1.48993   1.49442   1.49887   1.50469
 Alpha virt. eigenvalues --    1.50763   1.51198   1.51205   1.51532   1.51679
 Alpha virt. eigenvalues --    1.52002   1.52421   1.52482   1.52591   1.52732
 Alpha virt. eigenvalues --    1.53127   1.53267   1.53321   1.53631   1.53699
 Alpha virt. eigenvalues --    1.54106   1.54310   1.54531   1.54545   1.55090
 Alpha virt. eigenvalues --    1.55840   1.56012   1.56809   1.57113   1.57303
 Alpha virt. eigenvalues --    1.57873   1.58075   1.58311   1.58770   1.59129
 Alpha virt. eigenvalues --    1.59214   1.59488   1.60382   1.60463   1.60793
 Alpha virt. eigenvalues --    1.61441   1.61685   1.61950   1.62218   1.62630
 Alpha virt. eigenvalues --    1.62742   1.63519   1.63688   1.63852   1.64194
 Alpha virt. eigenvalues --    1.64253   1.64567   1.64668   1.65745   1.65784
 Alpha virt. eigenvalues --    1.66349   1.66489   1.67410   1.67532   1.67915
 Alpha virt. eigenvalues --    1.68031   1.68193   1.68253   1.68519   1.68834
 Alpha virt. eigenvalues --    1.69316   1.69439   1.69549   1.70177   1.70294
 Alpha virt. eigenvalues --    1.70713   1.70895   1.71186   1.71238   1.71424
 Alpha virt. eigenvalues --    1.71470   1.72316   1.72712   1.72758   1.73614
 Alpha virt. eigenvalues --    1.73779   1.73868   1.74038   1.74294   1.74413
 Alpha virt. eigenvalues --    1.74802   1.74877   1.74993   1.75209   1.75294
 Alpha virt. eigenvalues --    1.75458   1.75628   1.75702   1.75730   1.75812
 Alpha virt. eigenvalues --    1.75948   1.76115   1.76399   1.76538   1.76847
 Alpha virt. eigenvalues --    1.76860   1.77394   1.77680   1.77957   1.78152
 Alpha virt. eigenvalues --    1.78202   1.78416   1.78716   1.78847   1.79126
 Alpha virt. eigenvalues --    1.79227   1.79247   1.79325   1.79445   1.79611
 Alpha virt. eigenvalues --    1.79784   1.79837   1.79910   1.80069   1.80102
 Alpha virt. eigenvalues --    1.80257   1.80425   1.80762   1.80957   1.81050
 Alpha virt. eigenvalues --    1.81350   1.81389   1.81518   1.81778   1.82009
 Alpha virt. eigenvalues --    1.82055   1.82371   1.82458   1.82495   1.82562
 Alpha virt. eigenvalues --    1.82893   1.83099   1.83441   1.83672   1.83758
 Alpha virt. eigenvalues --    1.83974   1.84185   1.84312   1.84529   1.84811
 Alpha virt. eigenvalues --    1.84971   1.85139   1.85327   1.85402   1.85801
 Alpha virt. eigenvalues --    1.85936   1.86237   1.86301   1.86597   1.86658
 Alpha virt. eigenvalues --    1.86862   1.86964   1.87130   1.87410   1.87622
 Alpha virt. eigenvalues --    1.87931   1.87949   1.88178   1.88351   1.88595
 Alpha virt. eigenvalues --    1.88639   1.88985   1.89121   1.89209   1.89366
 Alpha virt. eigenvalues --    1.89558   1.89832   1.90122   1.90237   1.90306
 Alpha virt. eigenvalues --    1.90409   1.90514   1.91095   1.91214   1.91595
 Alpha virt. eigenvalues --    1.91860   1.92072   1.92437   1.92509   1.92797
 Alpha virt. eigenvalues --    1.92947   1.93135   1.93671   1.93777   1.94274
 Alpha virt. eigenvalues --    1.94415   1.94582   1.94719   1.94757   1.94883
 Alpha virt. eigenvalues --    1.95184   1.95415   1.95483   1.95606   1.96066
 Alpha virt. eigenvalues --    1.96256   1.96387   1.96773   1.96961   1.97044
 Alpha virt. eigenvalues --    1.97089   1.97365   1.97539   1.97729   1.98038
 Alpha virt. eigenvalues --    1.98342   1.98499   1.98568   1.99094   1.99221
 Alpha virt. eigenvalues --    1.99380   1.99693   1.99758   2.00188   2.00420
 Alpha virt. eigenvalues --    2.00550   2.00640   2.00903   2.01475   2.01819
 Alpha virt. eigenvalues --    2.01863   2.02233   2.02415   2.02504   2.02552
 Alpha virt. eigenvalues --    2.02592   2.03057   2.03491   2.04150   2.04378
 Alpha virt. eigenvalues --    2.04418   2.04628   2.04954   2.05021   2.05385
 Alpha virt. eigenvalues --    2.05601   2.05920   2.06292   2.06550   2.06821
 Alpha virt. eigenvalues --    2.07277   2.07497   2.07910   2.08087   2.08281
 Alpha virt. eigenvalues --    2.08422   2.08776   2.08827   2.09607   2.09642
 Alpha virt. eigenvalues --    2.09736   2.10073   2.10194   2.10657   2.10992
 Alpha virt. eigenvalues --    2.11057   2.11205   2.11371   2.11942   2.12246
 Alpha virt. eigenvalues --    2.12345   2.12739   2.13028   2.13854   2.13968
 Alpha virt. eigenvalues --    2.14243   2.14397   2.14637   2.14768   2.15284
 Alpha virt. eigenvalues --    2.15623   2.15729   2.15872   2.16039   2.16676
 Alpha virt. eigenvalues --    2.16932   2.16951   2.17118   2.17326   2.17847
 Alpha virt. eigenvalues --    2.17913   2.18447   2.18459   2.18600   2.18860
 Alpha virt. eigenvalues --    2.19241   2.19376   2.19441   2.20008   2.20443
 Alpha virt. eigenvalues --    2.20695   2.20993   2.21357   2.21630   2.22131
 Alpha virt. eigenvalues --    2.22370   2.22531   2.22947   2.23240   2.23413
 Alpha virt. eigenvalues --    2.23813   2.24017   2.24088   2.24218   2.24906
 Alpha virt. eigenvalues --    2.25051   2.25230   2.25867   2.26425   2.26581
 Alpha virt. eigenvalues --    2.27193   2.27376   2.27836   2.28192   2.28375
 Alpha virt. eigenvalues --    2.28548   2.28695   2.29056   2.29851   2.29981
 Alpha virt. eigenvalues --    2.30282   2.30366   2.30978   2.31308   2.31642
 Alpha virt. eigenvalues --    2.32170   2.32343   2.32357   2.32707   2.33409
 Alpha virt. eigenvalues --    2.33746   2.33989   2.34712   2.34974   2.35335
 Alpha virt. eigenvalues --    2.35538   2.35886   2.36082   2.36300   2.36440
 Alpha virt. eigenvalues --    2.36627   2.36764   2.36820   2.36998   2.37065
 Alpha virt. eigenvalues --    2.37314   2.37440   2.38251   2.38336   2.38596
 Alpha virt. eigenvalues --    2.38714   2.39086   2.39474   2.40320   2.40519
 Alpha virt. eigenvalues --    2.41198   2.41607   2.41713   2.41763   2.43212
 Alpha virt. eigenvalues --    2.43447   2.43969   2.44173   2.44254   2.44329
 Alpha virt. eigenvalues --    2.45016   2.45303   2.45434   2.45674   2.46402
 Alpha virt. eigenvalues --    2.46497   2.46656   2.46724   2.47473   2.47624
 Alpha virt. eigenvalues --    2.48765   2.49227   2.49338   2.49653   2.49692
 Alpha virt. eigenvalues --    2.49927   2.50085   2.50764   2.50983   2.51344
 Alpha virt. eigenvalues --    2.51934   2.52393   2.52422   2.52569   2.53135
 Alpha virt. eigenvalues --    2.53346   2.54246   2.54710   2.54869   2.54971
 Alpha virt. eigenvalues --    2.55831   2.56445   2.56759   2.56900   2.56970
 Alpha virt. eigenvalues --    2.57208   2.57448   2.57721   2.57995   2.58624
 Alpha virt. eigenvalues --    2.58951   2.59212   2.59803   2.59956   2.60211
 Alpha virt. eigenvalues --    2.60287   2.60784   2.61047   2.61446   2.61502
 Alpha virt. eigenvalues --    2.62069   2.62160   2.62595   2.62831   2.63035
 Alpha virt. eigenvalues --    2.63204   2.63817   2.64334   2.64552   2.64619
 Alpha virt. eigenvalues --    2.64865   2.65271   2.65845   2.66019   2.66343
 Alpha virt. eigenvalues --    2.67053   2.67357   2.67682   2.67958   2.68288
 Alpha virt. eigenvalues --    2.69061   2.69431   2.69915   2.69986   2.70098
 Alpha virt. eigenvalues --    2.70353   2.70814   2.71068   2.71149   2.71336
 Alpha virt. eigenvalues --    2.71538   2.71836   2.72048   2.72618   2.73031
 Alpha virt. eigenvalues --    2.73202   2.73254   2.73504   2.73624   2.73849
 Alpha virt. eigenvalues --    2.74118   2.74620   2.74660   2.75001   2.75127
 Alpha virt. eigenvalues --    2.75209   2.75493   2.75789   2.76079   2.76160
 Alpha virt. eigenvalues --    2.76285   2.76361   2.76928   2.77183   2.77343
 Alpha virt. eigenvalues --    2.78242   2.78791   2.78958   2.79050   2.79415
 Alpha virt. eigenvalues --    2.79589   2.79766   2.80035   2.80442   2.80606
 Alpha virt. eigenvalues --    2.80856   2.80936   2.81051   2.81237   2.81311
 Alpha virt. eigenvalues --    2.81891   2.82461   2.82771   2.82917   2.82958
 Alpha virt. eigenvalues --    2.83238   2.83553   2.84238   2.84295   2.84360
 Alpha virt. eigenvalues --    2.85168   2.85227   2.85712   2.85798   2.86529
 Alpha virt. eigenvalues --    2.86658   2.86853   2.87063   2.87890   2.88375
 Alpha virt. eigenvalues --    2.88739   2.89234   2.89683   2.89925   2.89982
 Alpha virt. eigenvalues --    2.90479   2.90787   2.90932   2.91776   2.91863
 Alpha virt. eigenvalues --    2.91884   2.91898   2.92084   2.92542   2.92961
 Alpha virt. eigenvalues --    2.93548   2.93822   2.93974   2.94381   2.94616
 Alpha virt. eigenvalues --    2.94816   2.94893   2.94946   2.95033   2.95202
 Alpha virt. eigenvalues --    2.95704   2.95810   2.96551   2.96778   2.96837
 Alpha virt. eigenvalues --    2.97073   2.97251   2.97620   2.97871   2.98241
 Alpha virt. eigenvalues --    2.98898   2.99137   2.99195   2.99539   2.99703
 Alpha virt. eigenvalues --    3.00174   3.00580   3.00765   3.00862   3.01666
 Alpha virt. eigenvalues --    3.01928   3.02235   3.02383   3.02761   3.02880
 Alpha virt. eigenvalues --    3.03080   3.03657   3.03775   3.04339   3.04368
 Alpha virt. eigenvalues --    3.04829   3.04933   3.05142   3.05469   3.06158
 Alpha virt. eigenvalues --    3.06433   3.06968   3.07073   3.07560   3.09123
 Alpha virt. eigenvalues --    3.10311   3.10382   3.11672   3.11747   3.12127
 Alpha virt. eigenvalues --    3.12584   3.13117   3.13947   3.14367   3.14877
 Alpha virt. eigenvalues --    3.14948   3.16072   3.16077   3.16256   3.16451
 Alpha virt. eigenvalues --    3.16534   3.16761   3.16905   3.17357   3.18331
 Alpha virt. eigenvalues --    3.18440   3.18467   3.19086   3.19161   3.19387
 Alpha virt. eigenvalues --    3.19618   3.20207   3.20414   3.20593   3.20691
 Alpha virt. eigenvalues --    3.21016   3.21065   3.21179   3.22094   3.22432
 Alpha virt. eigenvalues --    3.22611   3.22849   3.23096   3.23397   3.24085
 Alpha virt. eigenvalues --    3.24293   3.24359   3.25440   3.25863   3.26676
 Alpha virt. eigenvalues --    3.26917   3.27552   3.27938   3.28492   3.28948
 Alpha virt. eigenvalues --    3.29507   3.30395   3.30942   3.32445   3.32863
 Alpha virt. eigenvalues --    3.34511   3.35576   3.35815   3.36199   3.36386
 Alpha virt. eigenvalues --    3.36745   3.37486   3.42863   3.45850   3.46657
 Alpha virt. eigenvalues --    3.52976   3.54295   3.54558   3.55383   3.55768
 Alpha virt. eigenvalues --    3.56406   3.56849   3.58586   3.58812   3.59312
 Alpha virt. eigenvalues --    3.59658   3.60221   3.60438   3.60564   3.61381
 Alpha virt. eigenvalues --    3.61830   3.64474   3.65863   3.66692   3.68137
 Alpha virt. eigenvalues --    3.68626   3.68811   3.69015   3.69825   3.70088
 Alpha virt. eigenvalues --    3.70471   3.71027   3.71323   3.71605   3.71798
 Alpha virt. eigenvalues --    3.72953   3.73608   3.73792   3.75011   3.75530
 Alpha virt. eigenvalues --    3.77639   3.78589   3.80266   3.80486
          Condensed to atoms (all electrons):
 Mulliken charges:
               1
     1  C    0.049386
     2  C    0.010093
     3  O   -0.309310
     4  H    0.013998
     5  H    0.022353
     6  H    0.027868
     7  N   -0.090856
     8  C    0.080542
     9  C    0.061490
    10  O   -0.278605
    11  C    0.139502
    12  C    0.001989
    13  O   -0.366627
    14  O   -0.376484
    15  H    0.126203
    16  H   -0.015877
    17  H   -0.030845
    18  H   -0.013869
    19  N   -0.097367
    20  C    0.087076
    21  C    0.080111
    22  O   -0.297169
    23  C    0.047407
    24  C    0.025810
    25  C   -0.028326
    26  C    0.018581
    27  N    0.112310
    28  H    0.117601
    29  H   -0.011857
    30  H    0.025896
    31  H    0.005229
    32  H    0.027293
    33  H   -0.013324
    34  H    0.005634
    35  H    0.055319
    36  H    0.065796
    37  H    0.070442
    38  H    0.150485
    39  H    0.158152
    40  H    0.151875
    41  N   -0.129755
    42  C    0.124068
    43  C    0.111146
    44  O   -0.294773
    45  C    0.039649
    46  C    0.160009
    47  O   -0.354232
    48  O   -0.482824
    49  H    0.143115
    50  H    0.006795
    51  H   -0.052806
    52  H   -0.015465
    53  N   -0.106330
    54  C    0.248096
    55  C    0.017634
    56  O   -0.275609
    57  H    0.134732
    58  H    0.023990
    59  H    0.018117
    60  N   -0.133006
    61  C    0.118054
    62  C    0.080551
    63  O   -0.287580
    64  C    0.108527
    65  C   -0.001042
    66  N   -0.043789
    67  O   -0.254193
    68  H    0.113208
    69  H    0.029249
    70  H    0.046934
    71  H   -0.026906
    72  H    0.123152
    73  H    0.143671
    74  N   -0.122285
    75  C    0.233959
    76  C    0.048582
    77  O   -0.260800
    78  H    0.110329
    79  H   -0.018108
    80  H    0.032243
    81  N   -0.122230
    82  C    0.068823
    83  C    0.082096
    84  O   -0.299750
    85  C    0.155868
    86  C   -0.013841
    87  C   -0.003115
    88  C   -0.044223
    89  C   -0.018358
    90  C   -0.061337
    91  C    0.171771
    92  O   -0.190590
    93  H    0.125053
    94  H    0.015416
    95  H    0.002600
    96  H    0.018380
    97  H   -0.018322
    98  H   -0.044310
    99  H   -0.017525
   100  H   -0.033342
   101  H    0.169989
   102  N   -0.103151
   103  C    0.171230
   104  C    0.030838
   105  O   -0.285420
   106  C   -0.097633
   107  C    0.017927
   108  C    0.083556
   109  C    0.047447
   110  H    0.143230
   111  H    0.009317
   112  H   -0.013463
   113  H    0.013976
   114  H   -0.015605
   115  H   -0.023667
   116  H    0.035009
   117  H   -0.011122
   118  H   -0.010258
   119  H    0.009153
   120  H    0.012305
   121  N   -0.137814
   122  C    0.081824
   123  C    0.046285
   124  O   -0.267891
   125  C    0.224103
   126  O   -0.293190
   127  H    0.137126
   128  H    0.007276
   129  H    0.001304
   130  H    0.010725
   131  H    0.161453
   132  N   -0.173895
   133  C    0.090288
   134  C    0.081861
   135  O   -0.279918
   136  C    0.079877
   137  H    0.120613
   138  H    0.001009
   139  H    0.032973
   140  H    0.013548
   141  H   -0.005883
   142  N   -0.137318
   143  C    0.074422
   144  C    0.048945
   145  O   -0.246789
   146  C    0.081332
   147  H    0.159031
   148  H   -0.013537
   149  H   -0.014553
   150  H    0.040640
   151  H    0.045029
   152  N   -0.140600
   153  C    0.133047
   154  C    0.049705
   155  O   -0.250811
   156  C   -0.020631
   157  C    0.123286
   158  C    0.093658
   159  O   -0.408629
   160  O   -0.477956
   161  H    0.123264
   162  H   -0.000978
   163  H   -0.010789
   164  H    0.041442
   165  H    0.036902
   166  H   -0.018612
   167  N   -0.151651
   168  C    0.145298
   169  H    0.017802
   170  H    0.037266
   171  H    0.015531
   172  H    0.104444
   173  Ca   1.396947
   174  O   -0.305478
   175  H    0.186883
   176  H    0.190828
 Sum of Mulliken charges =  -0.00000
 Mulliken charges with hydrogens summed into heavy atoms:
               1
     1  C    0.113605
     2  C    0.010093
     3  O   -0.309310
     7  N    0.035347
     8  C    0.064664
     9  C    0.061490
    10  O   -0.278605
    11  C    0.094788
    12  C    0.001989
    13  O   -0.366627
    14  O   -0.376484
    19  N    0.020234
    20  C    0.075220
    21  C    0.080111
    22  O   -0.297169
    23  C    0.078531
    24  C    0.039779
    25  C    0.032628
    26  C    0.154818
    27  N    0.572822
    41  N    0.013360
    42  C    0.130863
    43  C    0.111146
    44  O   -0.294773
    45  C   -0.028621
    46  C    0.160009
    47  O   -0.354232
    48  O   -0.482824
    53  N    0.028402
    54  C    0.290203
    55  C    0.017634
    56  O   -0.275609
    60  N   -0.019799
    61  C    0.147303
    62  C    0.080551
    63  O   -0.287580
    64  C    0.128554
    65  C   -0.001042
    66  N    0.223034
    67  O   -0.254193
    74  N   -0.011956
    75  C    0.248093
    76  C    0.048582
    77  O   -0.260800
    81  N    0.002824
    82  C    0.084239
    83  C    0.082096
    84  O   -0.299750
    85  C    0.176848
    86  C   -0.013841
    87  C   -0.021437
    88  C   -0.088533
    89  C   -0.035883
    90  C   -0.094680
    91  C    0.171771
    92  O   -0.020601
   102  N    0.040079
   103  C    0.180546
   104  C    0.030838
   105  O   -0.285420
   106  C   -0.111096
   107  C    0.016298
   108  C    0.083776
   109  C    0.058646
   121  N   -0.000688
   122  C    0.089101
   123  C    0.046285
   124  O   -0.267891
   125  C    0.236131
   126  O   -0.131737
   132  N   -0.053282
   133  C    0.091297
   134  C    0.081861
   135  O   -0.279918
   136  C    0.120514
   142  N    0.021713
   143  C    0.060885
   144  C    0.048945
   145  O   -0.246789
   146  C    0.152449
   152  N   -0.017336
   153  C    0.132069
   154  C    0.049705
   155  O   -0.250811
   156  C    0.010022
   157  C    0.141576
   158  C    0.093658
   159  O   -0.408629
   160  O   -0.477956
   167  N   -0.047208
   168  C    0.215897
   173  Ca   1.396947
   174  O    0.072233
 DipInt: DoE/N= T F RetVal/Mat= T F Init=T NMatP=  1 IDeriv=0 Min/MaxMlt=  0  4
 Entering OneElI...
 OneElI was handed  1333951383 working-precision words.
 Multipole integrals L=0 to 4 MinM= 0 MaxM= 0.
 Requested accuracy = 0.1000D-12
 ShPair: Thresh= 1.00D-13 NBox=     0 BxSize= 0.00D+00 RnKept= 2.85D+01
         NSMCal=               327645 NSMKep=              120013
 PrmmSu-InSpLW:  IPartL=    0 NPrtUS=    1 NPrtUL=    1 DoSpLW=F IThBeg=    0 IThEnd=    0 NThAct=    1.
 PrsmSu:  NPrtUS=   1 ThrOK=F IAlg=1 NPAlg=1 LenDen=           0 ISkipM=0 DoSpLW=F IThBeg=    0 IThEnd=    0.
 Prism:   IPart=     0 DynPar=F LinDyn=F Incr=         512.
 PRISM was handed  1325436999 working-precision words and120013 shell-pairs
 IPart=  0 NShTot=      120013 NBatch=         284 AvBLen=       422.6
 PrsmSu-ThDecC:  IPartSL=    0    0 NPrtUSL=    1    1 IThBeg=    0 IThEnd=    0 CPU=   -1 GPU=   -1 NThAct=    1.
 PrSmSu:  NxtVal=            513.
 Electronic moments (au):
       -716.00000000          6.64293239        -11.20668774         -7.07777388
    -101263.57508448     -38738.13634157     -12933.73208327       -239.62515169
        -88.98150183         34.53686987    -342173.30501032     -82590.45156343
     -15465.36572416     174285.14968608      80408.77603227     -33973.88637114
     -49393.28539277      11019.37720931      21383.95142309     -74786.63465550
  -25604566.92591128   -5684890.86169654    -649941.80267320    -194255.80713633
    -984475.47272419    1242870.96828334     686285.77622241    -121725.32798923
       6394.22953050   -4276825.44179622   -1886511.99658438    -581123.38306185
    -435508.83054109      36515.40104104       2064.14817379
 Electronic spatial extent (au):  <R**2>=         152935.4435
 DipInt: DoE/N= F T RetVal/Mat= T F Init=T NMatP=  1 IDeriv=0 Min/MaxMlt=  0  4
 Nuclear    moments (au):
        716.00000000         -0.00000000         -0.00000000         -0.00000000
     100932.17436473      38418.38474253      12531.33799167         -0.00000000
         -0.00000000         -0.00000000     346124.32781480      80790.31563265
      15134.29216693    -172549.63006173     -84230.23679523      32137.71932573
      49205.77443890     -11194.72904973     -22292.06887002      75706.22381598
   25308420.60000861    5562418.75898993     608973.04263030     112369.78878003
     941440.05770417   -1266822.84547623    -684274.55214164     121902.35605913
      -5346.43794658    4218938.48810540    1819250.21796535     555158.90936716
     445555.09816476     -47530.37570667      -7306.63059477
 Total      moments (au):
         -0.00000000          6.64293239        -11.20668774         -7.07777388
       -331.40071975       -319.75159904       -402.39409159       -239.62515169
        -88.98150183         34.53686987       3951.02280448      -1800.13593078
       -331.07355723       1735.51962435      -3821.46076296      -1836.16704541
       -187.51095388       -175.35184041       -908.11744693        919.58916048
    -296146.32590267    -122472.10270661     -40968.76004289     -81886.01835630
     -43035.41502002     -23951.87719289       2011.22408077        177.02806991
       1047.79158392     -57886.95369083     -67261.77861903     -25964.47369469
      10046.26762367     -11014.97466563      -5242.48242098
 Traceless Quadrup. (au):
         19.78141704         31.43053775        -51.21195480       -239.62515169
        -88.98150183         34.53686987
 Charge=             -0.0000 electrons
 Dipole moment (field-independent basis, Debye):
    X=             16.8846    Y=            -28.4846    Z=            -17.9899  Tot=             37.6842
 Quadrupole moment (field-independent basis, Debye-Ang):
   XX=           -445.7453   YY=           -430.0769   ZZ=           -541.2338
   XY=           -322.3040   XZ=           -119.6832   YZ=             46.4533
 Traceless Quadrupole moment (field-independent basis, Debye-Ang):
   XX=             26.6067   YY=             42.2751   ZZ=            -68.8818
   XY=           -322.3040   XZ=           -119.6832   YZ=             46.4533
 Octapole moment (field-independent basis, Debye-Ang**2):
  XXX=           2812.1858  YYY=          -1281.2674  ZZZ=           -235.6454  XYY=           1235.2760
  XXY=          -2719.9685  XXZ=          -1306.9130  XZZ=           -133.4631  YZZ=           -124.8087
  YYZ=           -646.3630  XYZ=            654.5281
 Hexadecapole moment (field-independent basis, Debye-Ang**3):
 XXXX=        -111542.9070 YYYY=         -46128.8666 ZZZZ=         -15430.7995 XXXY=         -30842.2011
 XXXZ=         -16209.2009 YYYX=          -9021.4255 YYYZ=            757.5234 ZZZX=             66.6773
 ZZZY=            394.6486 XXYY=         -21803.0025 XXZZ=         -25334.0111 YYZZ=          -9779.4658
 XXYZ=           3783.9061 YYXZ=          -4148.7676 ZZXY=          -1974.5703
 N-N= 1.874463018448D+04 E-N=-4.997326613312D+04  KE= 5.290530008731D+03
 Leave Link  601 at Tue Sep 17 20:31:58 2019, MaxMem=  1342177280 cpu:              52.5 elap:               1.4
 FitSet:  NAtFit=   176 NAtPot=   176 NAtFrz=     0 MDM=   180 TotChg=   0.00000
 Merz-Kollman atomic radii used.
 Read replacement radii for each type of atom:
 Rad(20) =   1.700000000000D+00
 Atom Element Radius
    1     6    1.50
    2     6    1.50
    3     8    1.40
    4     1    1.20
    5     1    1.20
    6     1    1.20
    7     7    1.50
    8     6    1.50
    9     6    1.50
   10     8    1.40
   11     6    1.50
   12     6    1.50
   13     8    1.40
   14     8    1.40
   15     1    1.20
   16     1    1.20
   17     1    1.20
   18     1    1.20
   19     7    1.50
   20     6    1.50
   21     6    1.50
   22     8    1.40
   23     6    1.50
   24     6    1.50
   25     6    1.50
   26     6    1.50
   27     7    1.50
   28     1    1.20
   29     1    1.20
   30     1    1.20
   31     1    1.20
   32     1    1.20
   33     1    1.20
   34     1    1.20
   35     1    1.20
   36     1    1.20
   37     1    1.20
   38     1    1.20
   39     1    1.20
   40     1    1.20
   41     7    1.50
   42     6    1.50
   43     6    1.50
   44     8    1.40
   45     6    1.50
   46     6    1.50
   47     8    1.40
   48     8    1.40
   49     1    1.20
   50     1    1.20
   51     1    1.20
   52     1    1.20
   53     7    1.50
   54     6    1.50
   55     6    1.50
   56     8    1.40
   57     1    1.20
   58     1    1.20
   59     1    1.20
   60     7    1.50
   61     6    1.50
   62     6    1.50
   63     8    1.40
   64     6    1.50
   65     6    1.50
   66     7    1.50
   67     8    1.40
   68     1    1.20
   69     1    1.20
   70     1    1.20
   71     1    1.20
   72     1    1.20
   73     1    1.20
   74     7    1.50
   75     6    1.50
   76     6    1.50
   77     8    1.40
   78     1    1.20
   79     1    1.20
   80     1    1.20
   81     7    1.50
   82     6    1.50
   83     6    1.50
   84     8    1.40
   85     6    1.50
   86     6    1.50
   87     6    1.50
   88     6    1.50
   89     6    1.50
   90     6    1.50
   91     6    1.50
   92     8    1.40
   93     1    1.20
   94     1    1.20
   95     1    1.20
   96     1    1.20
   97     1    1.20
   98     1    1.20
   99     1    1.20
  100     1    1.20
  101     1    1.20
  102     7    1.50
  103     6    1.50
  104     6    1.50
  105     8    1.40
  106     6    1.50
  107     6    1.50
  108     6    1.50
  109     6    1.50
  110     1    1.20
  111     1    1.20
  112     1    1.20
  113     1    1.20
  114     1    1.20
  115     1    1.20
  116     1    1.20
  117     1    1.20
  118     1    1.20
  119     1    1.20
  120     1    1.20
  121     7    1.50
  122     6    1.50
  123     6    1.50
  124     8    1.40
  125     6    1.50
  126     8    1.40
  127     1    1.20
  128     1    1.20
  129     1    1.20
  130     1    1.20
  131     1    1.20
[...]
 **** Fit      -0.009497
 **** Fit      -0.007667
 **** Fit      -0.005288
 **** Fit      -0.002724
 **** Fit      -0.000255
 **** Fit       0.001953
 **** Fit       0.003815
 **** Fit       0.005294
 **** Fit      -0.012000
 **** Fit      -0.012273
 **** Fit      -0.012271
 **** Fit      -0.011103
 **** Fit      -0.008718
 **** Fit      -0.005600
 **** Fit      -0.002290
 **** Fit       0.000842
 **** Fit       0.003608
 **** Fit       0.005927
 **** Fit      -0.012454
 **** Fit      -0.011170
 **** Fit      -0.008115
 **** Fit      -0.004053
 **** Fit       0.000187
 **** Fit       0.004111
 **** Fit       0.007516
 **** Fit      -0.008001
 **** Fit      -0.004564
 **** Fit       0.000212
 **** Fit       0.007299
 **** Fit       0.009271
 **** Fit      -0.004621
 **** Fit       0.000230
 **** Fit       0.004461
 **** Fit       0.007782
 **** Fit       0.010190
 **** Fit       0.011787
 **** Fit      -0.003543
 **** Fit       0.002152
 **** Fit       0.006762
 **** Fit       0.010242
 **** Fit       0.012736
 **** Fit       0.014422
 **** Fit       0.015465
 **** Fit       0.009149
 **** Fit       0.012905
 **** Fit       0.015684
 **** Fit       0.017695
 **** Fit       0.019127
 **** Fit       0.020156
 **** Fit       0.016945
 **** Fit       0.019899
 **** Fit       0.022275
 **** Fit      -0.010723
 **** Fit       0.001159
 **** Fit      -0.010970
 **** Fit       0.006132
 **** Fit       0.011863
 **** Fit       0.000344
 **** Fit       0.014745
 **** Fit       0.019601
 **** Fit       0.018540
 **** Fit       0.021522
 **** Fit       0.010558
 **** Fit      -0.003290
 **** Fit       0.026615
 **** Fit       0.031498
 **** Fit       0.032252
 **** Fit       0.028880
 **** Fit       0.030186
 **** Fit       0.019287
 **** Fit       0.005795
 **** Fit      -0.009511
 **** Fit       0.027801
 **** Fit       0.036296
 **** Fit       0.041659
 **** Fit       0.043807
 **** Fit       0.042623
 **** Fit       0.038053
 **** Fit       0.037882
 **** Fit       0.026661
 **** Fit       0.036913
 **** Fit       0.044879
 **** Fit       0.050468
 **** Fit       0.053535
 **** Fit       0.053909
 **** Fit       0.051438
 **** Fit       0.046065
 **** Fit       0.033070
 **** Fit       0.042934
 **** Fit       0.051041
 **** Fit       0.057231
 **** Fit       0.061341
 **** Fit       0.063175
 **** Fit       0.062521
 **** Fit       0.059209
 **** Fit       0.053184
 **** Fit       0.038095
 **** Fit       0.047719
 **** Fit       0.055920
 **** Fit       0.062539
 **** Fit       0.067436
 **** Fit       0.070430
 **** Fit       0.071295
 **** Fit       0.069799
 **** Fit       0.065764
 **** Fit       0.059145
 **** Fit       0.041675
 **** Fit       0.051255
 **** Fit       0.059555
 **** Fit       0.066483
 **** Fit       0.071952
 **** Fit       0.075828
 **** Fit       0.077912
 **** Fit       0.077956
 **** Fit       0.075715
 **** Fit       0.071010
 **** Fit      -0.024650
 **** Fit       0.038660
 **** Fit       0.049359
 **** Fit       0.058683
 **** Fit       0.066632
 **** Fit       0.073205
 **** Fit       0.078344
 **** Fit       0.081909
 **** Fit       0.083671
 **** Fit       0.083341
 **** Fit       0.080632
 **** Fit       0.075338
 **** Fit      -0.026077
 **** Fit      -0.021872
 **** Fit      -0.020062
 **** Fit       0.045691
 **** Fit       0.056110
 **** Fit       0.065005
 **** Fit       0.072500
 **** Fit       0.078641
 **** Fit       0.083380
 **** Fit       0.086561
 **** Fit       0.087932
 **** Fit       0.087173
 **** Fit       0.083979
 **** Fit       0.078129
 **** Fit      -0.021622
 **** Fit      -0.016580
 **** Fit      -0.013917
 **** Fit      -0.013186
 **** Fit       0.049571
 **** Fit       0.059939
 **** Fit       0.068676
 **** Fit       0.075974
 **** Fit       0.081910
 **** Fit       0.086441
 **** Fit       0.089404
 **** Fit       0.090527
 **** Fit       0.089474
 **** Fit       0.085923
 **** Fit       0.079650
 **** Fit      -0.022491
 **** Fit      -0.014728
 **** Fit      -0.009516
 **** Fit      -0.006552
 **** Fit      -0.005474
 **** Fit       0.041122
 **** Fit       0.053093
 **** Fit       0.063070
 **** Fit       0.071415
 **** Fit       0.078333
 **** Fit       0.083900
 **** Fit       0.088068
 **** Fit       0.090671
 **** Fit       0.091440
 **** Fit       0.090046
 **** Fit       0.086189
 **** Fit       0.079667
 **** Fit      -0.027662
 **** Fit      -0.016572
 **** Fit      -0.008146
 **** Fit      -0.002254
 **** Fit       0.001258
 **** Fit       0.002507
 **** Fit       0.051178
 **** Fit       0.061650
 **** Fit       0.070322
 **** Fit       0.077452
 **** Fit       0.083148
 **** Fit       0.087388
 **** Fit       0.090020
 **** Fit       0.090788
 **** Fit       0.089370
 **** Fit       0.085467
 **** Fit       0.078882
 **** Fit      -0.020935
 **** Fit       0.049067
 **** Fit       0.059714
 **** Fit       0.068489
 **** Fit       0.075655
 **** Fit       0.081329
 **** Fit       0.085504
 **** Fit       0.088048
 **** Fit       0.088729
 **** Fit       0.087254
 **** Fit       0.083345
 **** Fit       0.076822
 **** Fit       0.044105
 **** Fit       0.055247
 **** Fit       0.064428
 **** Fit       0.071900
 **** Fit       0.077794
 **** Fit       0.082118
 **** Fit       0.084769
 **** Fit       0.085541
 **** Fit       0.084170
 **** Fit       0.080390
 **** Fit       0.074018
 **** Fit       0.065027
 **** Fit       0.039427
 **** Fit       0.050578
 **** Fit       0.059879
 **** Fit       0.067486
 **** Fit       0.073489
 **** Fit       0.077892
 **** Fit       0.080603
 **** Fit       0.081446
 **** Fit       0.080184
 **** Fit       0.076577
 **** Fit       0.070440
 **** Fit       0.061709
 **** Fit       0.047258
 **** Fit       0.040715
 **** Fit       0.050977
 **** Fit       0.059571
 **** Fit       0.066489
 **** Fit       0.071705
 **** Fit       0.075133
 **** Fit       0.076612
 **** Fit       0.075916
 **** Fit       0.072796
 **** Fit       0.067037
 **** Fit       0.058519
 **** Fit       0.044350
 **** Fit       0.031102
 **** Fit       0.041446
 **** Fit       0.050670
 **** Fit       0.058419
 **** Fit       0.064501
 **** Fit       0.068759
 **** Fit       0.071012
 **** Fit       0.071035
 **** Fit       0.068572
 **** Fit       0.063393
 **** Fit       0.055337
 **** Fit       0.042163
 **** Fit       0.032377
 **** Fit       0.041259
 **** Fit       0.049426
 **** Fit       0.056274
 **** Fit       0.061428
 **** Fit       0.064603
 **** Fit       0.065532
 **** Fit       0.063950
 **** Fit       0.059619
 **** Fit       0.052375
 **** Fit       0.041003
 **** Fit       0.051934
 **** Fit       0.056669
 **** Fit       0.059152
 **** Fit       0.059028
 **** Fit       0.056027
 **** Fit       0.050004
 **** Fit      -0.020147
 **** Fit      -0.009947
 **** Fit      -0.001538
 **** Fit      -0.031405
 **** Fit      -0.019868
 **** Fit      -0.009888
 **** Fit      -0.031214
 **** Fit      -0.019937
 **** Fit      -0.009930
 **** Fit      -0.039319
 **** Fit      -0.027775
 **** Fit      -0.017445
 **** Fit      -0.008064
 **** Fit      -0.029069
 **** Fit      -0.019308
 **** Fit      -0.010372
 **** Fit      -0.002057
 **** Fit       0.023451
 **** Fit       0.032920
 **** Fit      -0.015796
 **** Fit      -0.007931
 **** Fit      -0.000479
 **** Fit       0.006670
 **** Fit       0.015537
 **** Fit       0.018285
 **** Fit       0.022997
 **** Fit       0.029031
 **** Fit       0.035635
 **** Fit       0.042044
 **** Fit       0.047531
 **** Fit       0.051436
 **** Fit       0.053186
 **** Fit       0.052340
 **** Fit       0.048618
 **** Fit       0.041943
 **** Fit       0.032463
 **** Fit       0.002704
 **** Fit       0.008717
 **** Fit       0.020398
 **** Fit       0.021245
 **** Fit       0.023687
 **** Fit       0.027347
 **** Fit       0.031717
 **** Fit       0.036229
 **** Fit       0.040311
 **** Fit       0.043421
 **** Fit       0.045079
 **** Fit       0.044902
 **** Fit       0.042631
 **** Fit       0.038169
 **** Fit       0.024173
 **** Fit       0.024402
 **** Fit       0.025954
 **** Fit       0.028523
 **** Fit       0.031681
 **** Fit       0.034931
 **** Fit       0.037771
 **** Fit       0.039725
 **** Fit       0.040393
 **** Fit       0.039486
 **** Fit       0.027405
 **** Fit       0.026898
 **** Fit       0.027601
 **** Fit       0.029295
 **** Fit       0.031606
 **** Fit       0.034074
 **** Fit       0.036216
 **** Fit       0.037591
 **** Fit       0.030312
 **** Fit       0.029383
 **** Fit       0.029525
 **** Fit       0.030615
 **** Fit       0.032342
 **** Fit       0.034281
 **** Fit       0.033509
 **** Fit       0.032125
 **** Fit       0.031639
 **** Fit       0.032140
 **** Fit       0.033420
 **** Fit       0.036862
 **** Fit       0.035431
 **** Fit       0.034277
 **** Fit       0.034020
 **** Fit       0.007292
 **** Fit       0.007351
 **** Fit       0.001048
 **** Fit       0.004267
 **** Fit       0.006178
 **** Fit       0.006842
 **** Fit       0.006127
 **** Fit      -0.001672
 **** Fit       0.002827
 **** Fit       0.005911
 **** Fit       0.007751
 **** Fit       0.008497
 **** Fit       0.008137
 **** Fit       0.006324
 **** Fit       0.001446
 **** Fit       0.005684
 **** Fit       0.008601
 **** Fit       0.010383
 **** Fit       0.011194
 **** Fit       0.011085
 **** Fit       0.009896
 **** Fit       0.007217
 **** Fit       0.001132
 **** Fit       0.005896
 **** Fit       0.009468
 **** Fit       0.011966
 **** Fit       0.013532
 **** Fit       0.014301
 **** Fit       0.014342
 **** Fit       0.013606
 **** Fit       0.011925
 **** Fit       0.009074
 **** Fit       0.003894
 **** Fit       0.008272
 **** Fit       0.011730
 **** Fit       0.014300
 **** Fit       0.016060
 **** Fit       0.017113
 **** Fit       0.017548
 **** Fit       0.017408
 **** Fit       0.016669
 **** Fit       0.015267
 **** Fit       0.013164
 **** Fit       0.010467
 **** Fit       0.007559
 **** Fit       0.010151
 **** Fit       0.013502
 **** Fit       0.016183
 **** Fit       0.018173
 **** Fit       0.019511
 **** Fit       0.020268
 **** Fit       0.020510
 **** Fit       0.020278
 **** Fit       0.019579
 **** Fit       0.018428
 **** Fit       0.016904
 **** Fit       0.015233
 **** Fit       0.013835
 **** Fit       0.013274
 **** Fit       0.014086
 **** Fit       0.014113
 **** Fit       0.016725
 **** Fit       0.019003
 **** Fit       0.020797
 **** Fit       0.022067
 **** Fit       0.022834
 **** Fit       0.023149
 **** Fit       0.023062
 **** Fit       0.022612
 **** Fit       0.021853
 **** Fit       0.020900
 **** Fit       0.019965
 **** Fit       0.019366
 **** Fit       0.019451
 **** Fit       0.018993
 **** Fit       0.020410
 **** Fit       0.021978
 **** Fit       0.023375
 **** Fit       0.024447
 **** Fit       0.025145
 **** Fit       0.025483
 **** Fit       0.025496
 **** Fit       0.025236
 **** Fit       0.024775
 **** Fit       0.024231
 **** Fit       0.023784
 **** Fit       0.023653
 **** Fit       0.024033
 **** Fit       0.024625
 **** Fit       0.025009
 **** Fit       0.025819
 **** Fit       0.026630
 **** Fit       0.027238
 **** Fit       0.027575
 **** Fit       0.027647
 **** Fit       0.027508
 **** Fit       0.027248
 **** Fit       0.027007
 **** Fit       0.026965
 **** Fit       0.027299
 **** Fit       0.029288
 **** Fit       0.028824
 **** Fit       0.028995
 **** Fit       0.029311
 **** Fit       0.029545
 **** Fit       0.029628
 **** Fit       0.029591
 **** Fit       0.029538
 **** Fit       0.029624
 **** Fit       0.030030
 **** Fit       0.032442
 **** Fit       0.031705
 **** Fit       0.031553
 **** Fit       0.031564
 **** Fit       0.031612
 **** Fit       0.031755
 **** Fit       0.032179
 **** Fit       0.034123
 **** Fit       0.033717
 **** Fit       0.033844
 **** Fit       0.034575
 **** Fit       0.036333
 **** Fit      -0.036158
 **** Fit      -0.026585
 **** Fit      -0.017375
 **** Fit       0.021949
 **** Fit       0.013293
 **** Fit       0.002190
 **** Fit      -0.027648
 **** Fit      -0.020921
 **** Fit      -0.013592
 **** Fit      -0.006203
 **** Fit       0.001159
 **** Fit       0.008611
 **** Fit       0.037506
 **** Fit       0.031429
 **** Fit       0.023209
 **** Fit       0.016771
 **** Fit       0.007936
 **** Fit      -0.001071
 **** Fit      -0.009143
 **** Fit      -0.014878
 **** Fit      -0.017170
 **** Fit      -0.015960
 **** Fit      -0.012182
 **** Fit      -0.006985
 **** Fit      -0.001154
 **** Fit       0.004949
 **** Fit       0.011233
 **** Fit       0.017737
 **** Fit       0.038188
 **** Fit       0.035678
 **** Fit       0.031107
 **** Fit       0.024675
 **** Fit       0.019854
 **** Fit       0.013037
 **** Fit       0.006310
 **** Fit       0.000608
 **** Fit      -0.003124
 **** Fit      -0.004328
 **** Fit      -0.003116
 **** Fit      -0.000102
 **** Fit       0.004022
 **** Fit       0.008761
 **** Fit       0.013850
 **** Fit       0.019173
 **** Fit       0.024669
 **** Fit       0.036503
 **** Fit       0.036242
 **** Fit       0.034446
 **** Fit       0.030997
 **** Fit       0.026020
 **** Fit       0.022521
 **** Fit       0.017044
 **** Fit       0.011887
 **** Fit       0.007931
 **** Fit       0.005870
 **** Fit       0.005921
 **** Fit       0.007790
 **** Fit       0.010942
 **** Fit       0.014888
 **** Fit       0.019291
 **** Fit       0.023927
 **** Fit       0.028586
 **** Fit       0.032965
 **** Fit       0.034401
 **** Fit       0.035084
 **** Fit       0.035122
 **** Fit       0.033999
 **** Fit       0.031454
 **** Fit       0.027520
 **** Fit       0.024766
 **** Fit       0.020473
 **** Fit       0.016673
 **** Fit       0.014154
 **** Fit       0.013382
 **** Fit       0.014349
 **** Fit       0.016686
 **** Fit       0.019930
 **** Fit       0.023672
 **** Fit       0.027563
 **** Fit       0.031231
 **** Fit       0.034226
 **** Fit       0.036088
 **** Fit       0.036600
 **** Fit       0.036033
 **** Fit       0.035061
 **** Fit       0.034347
 **** Fit       0.034175
 **** Fit       0.034351
 **** Fit       0.034363
 **** Fit       0.033643
 **** Fit       0.031796
 **** Fit       0.028742
 **** Fit       0.026616
 **** Fit       0.023215
 **** Fit       0.020566
 **** Fit       0.019420
 **** Fit       0.020007
 **** Fit       0.022039
 **** Fit       0.024984
 **** Fit       0.028270
 **** Fit       0.031325
 **** Fit       0.033594
 **** Fit       0.034727
 **** Fit       0.034838
 **** Fit       0.034473
 **** Fit       0.034154
 **** Fit       0.033955
 **** Fit       0.033480
 **** Fit       0.032200
 **** Fit       0.029842
 **** Fit       0.028122
 **** Fit       0.025419
 **** Fit       0.024102
 **** Fit       0.024823
 **** Fit       0.027141
 **** Fit       0.030017
 **** Fit       0.032356
 **** Fit       0.033516
 **** Fit       0.033685
 **** Fit       0.033393
 **** Fit       0.032608
 **** Fit       0.030848
 **** Fit       0.029354
 **** Fit       0.027695
 **** Fit       0.028926
 **** Fit       0.031351
 **** Fit       0.032354
 **** Fit       0.031603
 **** Fit       0.030395
 -----------------------------------------------------------------
 Leave Link  602 at Tue Sep 17 20:32:01 2019, MaxMem=  1342177280 cpu:             119.5 elap:               2.5

 Test job not archived.
 1\1\GINC-C506-084\SP\RB3LYP\SVP\C54H83Ca1N15O23\PENGZHI\17-Sep-2019\0\
 \#b3lyp/svp scf=(tight,noincore) Test #IOP(5/87=12) Density=Current Po
 p=(MK,readradii) iop(6/33=2) iop(6/42=6)\\Ng-293_loop3_76.0\\0,1\C,0,6
 4.4,27.04,8.37\C,0,64.85,28.13,7.4\O,0,64.02,28.58,6.62\H,0,63.392,26.
 716,8.11\H,0,65.081,26.192,8.306\H,0,64.404,27.433,9.387\N,0,66.14,28.
 45,7.37\C,0,66.58,29.67,6.72\C,0,66.13,30.91,7.49\O,0,65.94,30.93,8.7\
 C,0,68.08,29.82,6.48\C,0,68.92,29.48,7.7\O,0,69.37,28.34,7.94\O,0,69.1
 3,30.46,8.45\H,0,66.73,27.97,8.04\H,0,66.1,29.76,5.74\H,0,68.28,30.87,
 6.26\H,0,68.45,29.17,5.69\N,0,65.96,31.95,6.68\C,0,65.64,33.34,6.93\C,
 0,66.59,34.16,7.79\O,0,66.96,35.26,7.38\C,0,64.21,33.35,7.47\C,0,63.46
 ,34.68,7.53\C,0,63.07,35.15,6.13\C,0,62.33,36.48,5.98\N,0,61.01,36.54,
 6.64\H,0,66.21,31.76,5.72\H,0,65.76,33.82,5.96\H,0,64.2,32.97,8.48\H,0
 ,63.61,32.65,6.89\H,0,64.28,35.31,7.88\H,0,62.69,34.63,8.31\H,0,62.45,
 34.45,5.59\H,0,63.93,35.26,5.47\H,0,62.18,36.73,4.93\H,0,63.02,37.17,6
 .44\H,0,61.,36.31,7.62\H,0,60.76,37.5,6.45\H,0,60.37,35.86,6.26\N,0,66
 .79,33.73,9.04\C,0,67.6,34.4,10.04\C,0,68.3,33.5,11.05\O,0,67.64,32.81
 ,11.82\C,0,66.69,35.37,10.79\C,0,67.58,36.2,11.71\O,0,68.74,36.49,11.3
 3\O,0,67.05,36.54,12.79\H,0,66.46,32.81,9.28\H,0,68.32,35.03,9.51\H,0,
 65.94,34.92,11.44\H,0,66.21,36.02,10.07\N,0,69.61,33.65,11.22\C,0,70.4
 3,32.97,12.2\C,0,69.86,32.95,13.61\O,0,69.85,33.99,14.27\H,0,70.05,34.
 43,10.75\H,0,71.4,33.46,12.26\H,0,70.48,31.94,11.83\N,0,69.44,31.8,14.
 14\C,0,68.74,31.71,15.41\C,0,69.75,31.81,16.54\O,0,69.51,32.33,17.63\C
 ,0,67.87,30.46,15.56\C,0,66.86,30.36,14.42\N,0,67.,29.38,13.53\O,0,66.
 01,31.24,14.35\H,0,69.29,31.04,13.5\H,0,68.12,32.59,15.55\H,0,67.28,30
 .52,16.47\H,0,68.4,29.51,15.51\H,0,67.85,28.83,13.49\H,0,66.36,29.3,12
 .75\N,0,70.92,31.22,16.3\C,0,72.08,31.26,17.18\C,0,71.8,31.07,18.66\O,
 0,71.33,30.04,19.13\H,0,71.02,30.86,15.36\H,0,72.59,32.22,17.11\H,0,72
 .85,30.53,16.96\N,0,72.17,32.13,19.39\C,0,72.15,32.3,20.83\C,0,70.8,32
 .22,21.54\O,0,70.8,32.02,22.75\C,0,73.27,31.52,21.51\C,0,74.66,31.69,2
 0.94\C,0,75.43,30.56,20.64\C,0,75.11,32.98,20.63\C,0,76.64,30.8,19.97\
 C,0,76.34,33.24,20.01\C,0,77.09,32.1,19.68\O,0,78.35,32.33,19.23\H,0,7
 2.73,32.84,18.94\H,0,72.44,33.3,21.13\H,0,72.98,30.47,21.57\H,0,73.31,
 31.87,22.54\H,0,75.15,29.56,20.93\H,0,74.41,33.8,20.73\H,0,77.36,30.01
 ,19.79\H,0,76.59,34.29,19.88\H,0,78.43,33.25,18.98\N,0,69.72,32.41,20.
 78\C,0,68.34,32.47,21.21\C,0,68.07,33.75,21.98\O,0,67.3,34.63,21.57\C,
 0,67.82,31.18,21.85\C,0,67.93,30.,20.88\C,0,66.37,31.33,22.31\C,0,68.0
 5,28.69,21.65\H,0,69.89,32.78,19.86\H,0,67.79,32.68,20.29\H,0,68.46,30
 .97,22.7\H,0,68.77,30.14,20.21\H,0,67.05,29.95,20.24\H,0,66.2,32.16,22
 .99\H,0,65.68,31.44,21.47\H,0,66.02,30.48,22.9\H,0,67.18,28.64,22.31\H
 ,0,68.05,27.93,20.87\H,0,68.94,28.68,22.27\N,0,68.86,34.,23.03\C,0,68.
 84,35.27,23.72\C,0,67.74,35.48,24.74\O,0,67.32,36.61,24.97\C,0,70.23,3
 5.52,24.31\O,0,71.3,34.96,23.58\H,0,69.53,33.29,23.27\H,0,68.69,36.07,
 22.99\H,0,70.34,35.16,25.33\H,0,70.32,36.61,24.32\H,0,71.5,35.63,22.92
 \N,0,67.16,34.36,25.19\C,0,65.9,34.31,25.9\C,0,64.71,34.93,25.18\O,0,6
 3.77,35.35,25.85\C,0,66.17,34.76,27.34\H,0,67.65,33.51,24.94\H,0,65.83
 ,33.23,25.95\H,0,66.12,35.84,27.35\H,0,65.43,34.35,28.03\H,0,67.14,34.
 44,27.71\N,0,64.76,35.05,23.85\C,0,63.88,35.84,23.02\C,0,63.4,35.01,21
 .84\O,0,64.07,34.02,21.53\C,0,64.48,37.21,22.7\H,0,65.61,34.74,23.39\H
 ,0,62.99,35.97,23.63\H,0,63.71,37.83,22.25\H,0,64.7,37.66,23.67\H,0,65
 .4,37.05,22.13\N,0,62.38,35.48,21.12\C,0,61.77,34.65,20.1\C,0,61.4,33.
 23,20.49\O,0,61.34,32.29,19.71\C,0,62.4,34.86,18.72\C,0,63.16,36.15,18
 .47\C,0,63.76,36.14,17.07\O,0,64.14,35.14,16.42\O,0,63.86,37.23,16.46\
 H,0,61.9,36.32,21.41\H,0,60.79,35.09,19.9\H,0,61.67,34.74,17.93\H,0,63
 .06,34.01,18.53\H,0,63.98,36.19,19.19\H,0,62.49,37.,18.57\N,0,61.19,33
 .03,21.8\C,0,60.72,31.82,22.43\H,0,59.727,31.576,22.052\H,0,61.405,31.
 003,22.205\H,0,60.671,31.967,23.509\H,0,61.31,33.87,22.35\Ca,0,64.94,3
 6.54,14.24\O,0,66.51,38.6,14.63\H,0,66.69,38.83,15.54\H,0,67.08,39.17,
 14.12\\Version=ES64L-G16RevA.03\State=1-A\HF=-5333.3631044\RMSD=6.762e
 -10\Dipole=-9.0013269,10.0251628,-6.1875284\Quadrupole=58.9366446,-45.
 4573817,-13.4792629,-61.9300768,193.9573848,-155.6150459\PG=C01 [X(C54
 H83Ca1N15O23)]\\@


 A MATHEMATICIAN IS A MACHINE FOR TURNING COFFEE INTO THEOREMS.
     -- QUOTED BY PAUL ERDOS
 Job cpu time:       0 days 10 hours 42 minutes 30.2 seconds.
 Elapsed time:       0 days  0 hours 13 minutes 34.5 seconds.
 File lengths (MBytes):  RWF=   1517 Int=      0 D2E=      0 Chk=    171 Scr=      1
 Normal termination of Gaussian 16 at Tue Sep 17 20:32:02 2019.
