 Entering Gaussian System, Link 0=g16
 Initial command:
 /home1/apps/gaussian/16rA.03/g16/l1.exe "/scratch/01990/pengzhi/4361174/Gau-411017.inp" -scrdir="/scratch/01990/pengzhi/4361174/"
 Entering Link 1 = /home1/apps/gaussian/16rA.03/g16/l1.exe PID=    411018.
  
 Copyright (c) 1988,1990,1992,1993,1995,1998,2003,2009,2016,
            Gaussian, Inc.  All Rights Reserved.
  
 This is part of the Gaussian(R) 16 program.  It is based on
 the Gaussian(R) 09 system (copyright 2009, Gaussian, Inc.),
 the Gaussian(R) 03 system (copyright 2003, Gaussian, Inc.),
 the Gaussian(R) 98 system (copyright 1998, Gaussian, Inc.),
 the Gaussian(R) 94 system (copyright 1995, Gaussian, Inc.),
 the Gaussian 92(TM) system (copyright 1992, Gaussian, Inc.),
 the Gaussian 90(TM) system (copyright 1990, Gaussian, Inc.),
 the Gaussian 88(TM) system (copyright 1988, Gaussian, Inc.),
 the Gaussian 86(TM) system (copyright 1986, Carnegie Mellon
 University), and the Gaussian 82(TM) system (copyright 1983,
 Carnegie Mellon University). Gaussian is a federally registered
 trademark of Gaussian, Inc.
  
 This software contains proprietary and confidential information,
 including trade secrets, belonging to Gaussian, Inc.
  
 This software is provided under written license and may be
 used, copied, transmitted, or stored only in accord with that
 written license.
  
 The following legend is applicable only to US Government
 contracts under FAR:
  
                    RESTRICTED RIGHTS LEGEND
  
 Use, reproduction and disclosure by the US Government is
 subject to restrictions as set forth in subparagraphs (a)
 and (c) of the Commercial Computer Software - Restricted
 Rights clause in FAR 52.227-19.
  
 Gaussian, Inc.
 340 Quinnipiac St., Bldg. 40, Wallingford CT 06492
  
  
 ---------------------------------------------------------------
 Warning -- This program may not be used in any manner that
 competes with the business of Gaussian, Inc. or will provide
 assistance to any competitor of Gaussian, Inc.  The licensee
 of this program is prohibited from giving any competitor of
 Gaussian, Inc. access to this program.  By using this program,
 the user acknowledges that Gaussian, Inc. is engaged in the
 business of creating and licensing software in the field of
 computational chemistry and represents and warrants to the
 licensee that it is not a competitor of Gaussian, Inc. and that
 it will not use this program in any manner prohibited above.
 ---------------------------------------------------------------
  

 Cite this work as:
 Gaussian 16, Revision A.03,
 M. J. Frisch, G. W. Trucks, H. B. Schlegel, G. E. Scuseria, 
 M. A. Robb, J. R. Cheeseman, G. Scalmani, V. Barone, 
 G. A. Petersson, H. Nakatsuji, X. Li, M. Caricato, A. V. Marenich, 
 J. Bloino, B. G. Janesko, R. Gomperts, B. Mennucci, H. P. Hratchian, 
 J. V. Ortiz, A. F. Izmaylov, J. L. Sonnenberg, D. Williams-Young, 
 F. Ding, F. Lipparini, F. Egidi, J. Goings, B. Peng, A. Petrone, 
 T. Henderson, D. Ranasinghe, V. G. Zakrzewski, J. Gao, N. Rega, 
 G. Zheng, W. Liang, M. Hada, M. Ehara, K. Toyota, R. Fukuda, 
 J. Hasegawa, M. Ishida, T. Nakajima, Y. Honda, O. Kitao, H. Nakai, 
 T. Vreven, K. Throssell, J. A. Montgomery, Jr., J. E. Peralta, 
 F. Ogliaro, M. J. Bearpark, J. J. Heyd, E. N. Brothers, K. N. Kudin, 
 V. N. Staroverov, T. A. Keith, R. Kobayashi, J. Normand, 
 K. Raghavachari, A. P. Rendell, J. C. Burant, S. S. Iyengar, 
 J. Tomasi, M. Cossi, J. M. Millam, M. Klene, C. Adamo, R. Cammi, 
 J. W. Ochterski, R. L. Martin, K. Morokuma, O. Farkas, 
 J. B. Foresman, and D. J. Fox, Gaussian, Inc., Wallingford CT, 2016.
 
 ******************************************
 Gaussian 16:  ES64L-G16RevA.03 25-Dec-2016
                19-Sep-2019 
 ******************************************
 %chk=Ng-293_loop3_12.0.chk
 %nprocshared=48
 Will use up to   48 processors via shared memory.
 %mem=10GB
 %nosave
 ----------------------------------------------------------------------
 #b3lyp/svp scf=(tight,noincore,xqc) Test #IOP(5/87=12) Density=Current
  Pop=(MK,readradii) iop(6/33=2) iop(6/42=6)
 ----------------------------------------------------------------------
 1/30=1,38=1,172=1/1;
 2/12=2,17=6,18=5,40=1/2;
 3/5=18,7=101,11=2,25=1,30=1,74=-5/1,2,3;
 4//1;
 5/5=4,8=3,13=1,32=2,38=5,87=12/2,8;
 6/7=2,8=2,9=2,10=2,15=8,20=101,22=-1,28=1,33=2,42=6/1,2;
 99/5=1,9=1/99;
 -----------------
 Ng-293_loop3_12.0
 -----------------
 Symbolic Z-matrix:
 Charge =  0 Multiplicity = 1
 C                     39.81     81.48     66.82 
 C                     39.84     81.51     65.29 
 O                     40.54     82.35     64.73 
 H                     39.       82.115    67.179 
 H                     39.648    80.457    67.161 
 H                     40.759    81.848    67.21 
 N                     39.15     80.57     64.64 
 C                     38.87     80.5      63.22 
 C                     38.9      79.03     62.84 
 O                     38.54     78.11     63.58 
 C                     37.55     81.2      62.93 
 C                     37.3      81.19     61.43 
 O                     38.27     81.18     60.64 
 O                     36.1      81.12     61.11 
 H                     38.71     79.85     65.2 
 H                     39.73     81.03     62.82 
 H                     37.66     82.23     63.28 
 H                     36.73     80.83     63.54 
 N                     39.49     78.75     61.67 
 C                     39.58     77.49     60.96 
 C                     38.29     76.77     60.59 
 O                     37.23     77.22     61.03 
 C                     40.57     76.51     61.57 
 C                     41.94     77.15     61.77 
 C                     42.71     77.61     60.53 
 C                     43.35     78.99     60.6 
 N                     44.59     79.11     61.38 
 H                     39.83     79.56     61.18 
 H                     39.98     77.72     59.97 
 H                     40.84     75.6      61.03 
 H                     40.18     76.15     62.53 
 H                     42.58     76.48     62.33 
 H                     41.81     78.02     62.41 
 H                     41.98     77.81     59.74 
 H                     43.44     76.89     60.17 
 H                     42.59     79.55     61.15 
 H                     43.41     79.4      59.59 
 H                     44.73     80.07     61.65 
 H                     44.69     78.47     62.15 
 H                     45.34     79.06     60.69 
 N                     38.28     75.64     59.88 
 C                     37.       75.22     59.33 
 C                     35.91     74.88     60.34 
 O                     34.76     75.16     60.03 
 C                     37.23     74.15     58.27 
 C                     38.07     74.55     57.06 
 O                     38.07     75.71     56.6 
 O                     38.84     73.75     56.48 
 H                     39.14     75.41     59.41 
 H                     36.64     76.07     58.75 
 H                     36.29     73.82     57.82 
 H                     37.71     73.29     58.72 
 N                     36.32     74.3      61.48 
 C                     35.61     74.1      62.72 
 C                     34.22     73.48     62.72 
 O                     33.8      72.86     63.7 
 H                     37.25     73.92     61.45 
 H                     35.54     75.08     63.2 
 H                     36.31     73.59     63.38 
 N                     33.41     73.63     61.67 
 C                     32.03     73.21     61.57 
 C                     31.88     71.77     61.08 
 O                     32.58     71.4      60.14 
 C                     31.23     74.24     60.79 
 C                     30.49     73.68     59.58 
 N                     30.87     74.02     58.35 
 O                     29.53     72.92     59.69 
 H                     33.8      74.07     60.85 
 H                     31.58     73.3      62.56 
 H                     31.85     75.06     60.43 
 H                     30.51     74.77     61.42 
 H                     31.59     74.71     58.19 
 H                     30.2      73.84     57.61 
 N                     30.96     71.02     61.68 
 C                     30.83     69.58     61.53 
 C                     31.53     68.71     62.56 
 O                     31.9      69.05     63.68 
 H                     30.39     71.48     62.38 
 H                     31.03     69.23     60.52 
 H                     29.74     69.5      61.63 
 N                     31.66     67.42     62.26 
 C                     32.22     66.31     63. 
 C                     33.72     66.35     63.29 
 O                     34.25     65.72     64.19 
 C                     31.35     65.88     64.17 
 C                     29.88     65.72     63.87 
 C                     29.03     66.76     64.27 
 C                     29.32     64.63     63.2 
 C                     27.65     66.61     64.08 
 C                     27.94     64.48     63.02 
 C                     27.06     65.49     63.46 
 O                     25.72     65.23     63.46 
 H                     31.09     67.16     61.46 
 H                     32.14     65.44     62.35 
 H                     31.44     66.62     64.97 
 H                     31.72     64.94     64.56 
 H                     29.37     67.65     64.77 
 H                     29.97     63.86     62.79 
 H                     27.02     67.41     64.46 
 H                     27.56     63.53     62.68 
 H                     25.44     64.42     63.04 
 N                     34.37     67.22     62.5 
 C                     35.79     67.48     62.41 
 C                     36.62     66.25     62.08 
 O                     37.12     66.12     60.97 
 C                     36.41     68.21     63.6 
 C                     35.61     69.46     63.94 
 C                     37.83     68.62     63.21 
 C                     36.19     70.39     65. 
 H                     33.85     67.58     61.72 
 H                     36.02     68.08     61.53 
 H                     36.44     67.63     64.52 
 H                     34.7      69.09     64.41 
 H                     35.37     70.01     63.03 
 H                     38.47     68.79     64.08 
 H                     38.38     67.88     62.63 
 H                     37.9      69.51     62.59 
 H                     37.04     70.94     64.58 
 H                     35.49     71.12     65.41 
 H                     36.5      69.77     65.84 
 N                     36.74     65.24     62.95 
 C                     37.51     64.02     62.87 
 C                     39.01     64.15     63.1 
 O                     39.7      63.5      62.33 
 C                     36.96     63.03     63.89 
 O                     36.87     63.56     65.19 
 H                     36.12     65.32     63.75 
 H                     37.3      63.56     61.91 
 H                     37.57     62.13     63.83 
 H                     35.93     62.84     63.6 
 H                     36.64     62.84     65.79 
 N                     39.4      64.82     64.19 
 C                     40.74     65.18     64.6 
 C                     41.73     65.5      63.5 
 O                     42.77     64.86     63.39 
 C                     41.26     64.15     65.6 
 H                     38.66     65.18     64.77 
 H                     40.69     66.07     65.24 
 H                     42.33     64.27     65.74 
 H                     40.71     64.27     66.53 
 H                     41.13     63.16     65.16 
 N                     41.42     66.49     62.65 
 C                     42.18     66.81     61.46 
 C                     42.47     68.3      61.35 
 O                     41.72     69.11     61.87 
 C                     41.36     66.4      60.24 
 H                     40.72     67.18     62.89 
 H                     43.17     66.34     61.41 
 H                     40.95     65.39     60.26 
 H                     40.48     67.03     60.07 
 H                     42.09     66.4      59.43 
 N                     43.6      68.62     60.72 
 C                     44.17     69.95     60.59 
 C                     44.58     70.63     61.89 
 O                     44.94     71.81     61.9 
 C                     43.25     70.74     59.65 
 C                     43.01     70.16     58.26 
 C                     42.28     71.01     57.24 
 O                     42.49     70.81     56.03 
 O                     41.46     71.91     57.55 
 H                     44.16     67.86     60.36 
 H                     45.1      69.76     60.06 
 H                     43.76     71.69     59.52 
 H                     42.3      70.82     60.17 
 H                     42.43     69.26     58.47 
 H                     43.97     69.88     57.82 
 N                     44.75     69.86     62.96 
 C                     44.83     70.38     64.31 
 H                     45.189    71.409    64.282 
 H                     43.842    70.353    64.77 
 H                     45.52     69.771    64.894 
 H                     44.51     68.88     62.97 
 Ca                    40.33     72.28     55.17 
 O                     37.99     72.02     54.03 
 H                     37.5      71.57     54.72 
 H                     37.32     72.34     53.42 
 
 Stoichiometry    C54H83CaN15O23
 Framework group  C1[X(C54H83CaN15O23)]
 Deg. of freedom   522
 Full point group                 C1      NOp   1
 Largest Abelian subgroup         C1      NOp   1
 Largest concise Abelian subgroup C1      NOp   1
                         Standard orientation:                         
 ---------------------------------------------------------------------
 Center     Atomic      Atomic             Coordinates (Angstroms)
 Number     Number       Type             X           Y           Z
 ---------------------------------------------------------------------
      1          6           0        9.068467   -3.042495   -6.416981
      2          6           0        9.320698   -2.988377   -4.908289
      3          8           0       10.465669   -2.793028   -4.508187
      4          1           0        9.160090   -4.072127   -6.762915
      5          1           0        8.064476   -2.675130   -6.631686
      6          1           0        9.801508   -2.420881   -6.931153
      7          7           0        8.262400   -3.090264   -4.100934
      8          6           0        8.259653   -3.256145   -2.661428
      9          6           0        7.067934   -2.476913   -2.133409
     10          8           0        5.998557   -2.343684   -2.735308
     11          6           0        8.243195   -4.740110   -2.323678
     12          6           0        8.317823   -4.908154   -0.814111
     13          8           0        8.900721   -4.044009   -0.122314
     14          8           0        7.705591   -5.898792   -0.376953
     15          1           0        7.349469   -3.121965   -4.538144
     16          1           0        9.196487   -2.770726   -2.402177
     17          1           0        9.131758   -5.175464   -2.788891
     18          1           0        7.434255   -5.277807   -2.811425
     19          7           0        7.283210   -1.793373   -1.001231
     20          6           0        6.346845   -1.059110   -0.174261
     21          6           0        5.140003   -1.797611    0.389254
     22          8           0        4.937676   -2.951727    0.006136
     23          6           0        5.915151    0.272576   -0.768274
     24          6           0        7.116747    1.125317   -1.162608
     25          6           0        8.065063    1.592291   -0.055932
     26          6           0        9.555630    1.445233   -0.330680
     27          7           0       10.166951    2.432070   -1.232256
     28          1           0        8.213841   -1.895377   -0.633372
     29          1           0        6.879636   -0.802190    0.743958
     30          1           0        5.344560    0.980475   -0.163372
     31          1           0        5.280123    0.090803   -1.644058
     32          1           0        6.783524    1.999927   -1.706778
     33          1           0        7.708838    0.555547   -1.875483
     34          1           0        7.982760    0.883996    0.773854
     35          1           0        7.860999    2.595883    0.307467
     36          1           0        9.581446    0.491199   -0.862518
     37          1           0       10.076356    1.318522    0.620418
     38          1           0       11.021531    2.060223   -1.613731
     39          1           0        9.561941    2.819784   -1.936628
     40          1           0       10.592390    3.123821   -0.614533
     41          7           0        4.265285   -1.215275    1.211964
     42          6           0        3.345289   -2.091591    1.921173
     43          6           0        2.372501   -2.888680    1.059701
     44          8           0        2.083549   -4.013278    1.445429
     45          6           0        2.689682   -1.322621    3.061465
     46          6           0        3.617251   -0.765809    4.138162
     47          8           0        4.674523   -1.338741    4.471517
     48          8           0        3.394973    0.318938    4.724008
     49          1           0        4.560790   -0.343954    1.620470
     50          1           0        3.974656   -2.815043    2.439838
     51          1           0        2.001965   -1.953966    3.630190
     52          1           0        2.129383   -0.486922    2.661249
     53          7           0        1.921814   -2.274374   -0.046468
     54          6           0        1.226038   -2.820934   -1.186147
     55          6           0        0.003969   -3.706702   -0.990029
     56          8           0       -0.871452   -3.783579   -1.855435
     57          1           0        2.062770   -1.279381   -0.064365
     58          1           0        1.964311   -3.389979   -1.757847
     59          1           0        1.045865   -1.978232   -1.851797
     60          7           0       -0.124971   -4.451369    0.109946
     61          6           0       -1.156919   -5.426705    0.383079
     62          6           0       -2.397206   -4.814770    1.033790
     63          8           0       -2.236154   -3.997407    1.937383
     64          6           0       -0.564431   -6.614940    1.122237
     65          6           0       -1.244624   -6.936031    2.448713
     66          7           0       -0.594355   -6.745122    3.594838
     67          8           0       -2.388074   -7.383295    2.510170
     68          1           0        0.559220   -4.313979    0.838716
     69          1           0       -1.440456   -5.888403   -0.564097
     70          1           0        0.495976   -6.484166    1.333980
     71          1           0       -0.555493   -7.521587    0.510589
     72          1           0        0.376743   -6.468094    3.612845
     73          1           0       -0.979253   -7.211122    4.409453
     74          7           0       -3.579980   -5.246481    0.605337
     75          6           0       -4.857351   -4.626938    0.917570
     76          6           0       -5.397074   -3.612875   -0.076500
     77          8           0       -5.076813   -3.497246   -1.255891
     78          1           0       -3.566119   -5.990367   -0.082370
     79          1           0       -4.918039   -4.248974    1.935441
     80          1           0       -5.481559   -5.529556    0.929629
     81          7           0       -6.395960   -2.840584    0.343967
     82          6           0       -7.170750   -1.817817   -0.324575
     83          6           0       -6.430933   -0.552404   -0.757127
     84          8           0       -6.831601    0.197474   -1.631740
     85          6           0       -8.133397   -2.384217   -1.355692
     86          6           0       -8.959708   -3.562851   -0.903441
     87          6           0       -8.546720   -4.832735   -1.328805
     88          6           0      -10.079106   -3.476265   -0.072747
     89          6           0       -9.334940   -5.941910   -0.994979
     90          6           0      -10.868709   -4.585723    0.251180
     91          6           0      -10.501864   -5.867464   -0.207803
     92          8           0      -11.390705   -6.891959   -0.054267
     93          1           0       -6.791376   -3.178214    1.216981
     94          1           0       -7.865850   -1.428902    0.417974
     95          1           0       -7.565429   -2.703091   -2.234004
     96          1           0       -8.808606   -1.601286   -1.677734
     97          1           0       -7.684492   -5.003232   -1.949445
     98          1           0      -10.358853   -2.515001    0.352946
     99          1           0       -9.015404   -6.900226   -1.396011
    100          1           0      -11.824347   -4.423958    0.723501
    101          1           0      -12.165644   -6.712389    0.473107
    102          7           0       -5.253308   -0.408815   -0.127777
    103          6           0       -4.312251    0.687238   -0.199748
    104          6           0       -4.907616    2.033864    0.178190
    105          8           0       -4.616890    2.562300    1.243664
    106          6           0       -3.543323    0.819512   -1.513009
    107          6           0       -2.917296   -0.511625   -1.905776
    108          6           0       -2.432283    1.848300   -1.303765
    109          6           0       -1.978954   -0.511197   -3.107613
    110          1           0       -5.095547   -1.017079    0.655501
    111          1           0       -3.562243    0.607495    0.586656
    112          1           0       -4.152483    1.112283   -2.365599
    113          1           0       -3.751613   -1.122981   -2.246451
    114          1           0       -2.439611   -0.970663   -1.040155
    115          1           0       -2.088845    2.289788   -2.243201
    116          1           0       -2.712529    2.712975   -0.703516
    117          1           0       -1.549363    1.476678   -0.790200
    118          1           0       -1.027193   -0.043940   -2.829725
    119          1           0       -1.758326   -1.495382   -3.524389
    120          1           0       -2.472122    0.045568   -3.903163
    121          7           0       -5.833455    2.622901   -0.588138
    122          6           0       -6.484659    3.905631   -0.453097
    123          6           0       -5.659450    5.127282   -0.835719
    124          8           0       -5.766729    6.072641   -0.070024
    125          6           0       -7.747176    3.902393   -1.306935
    126          8           0       -7.517730    3.520158   -2.641195
    127          1           0       -6.183786    2.025008   -1.330157
    128          1           0       -6.850303    3.984093    0.565455
    129          1           0       -8.206575    4.884896   -1.210293
    130          1           0       -8.381841    3.118157   -0.902860
    131          1           0       -8.331800    3.668461   -3.137779
    132          7           0       -5.042422    5.094312   -2.022011
    133          6           0       -4.124631    6.056662   -2.591960
    134          6           0       -3.206238    6.780151   -1.629869
    135          8           0       -3.222249    8.003635   -1.551573
    136          6           0       -4.886739    6.997140   -3.522548
    137          1           0       -5.182132    4.257709   -2.564392
    138          1           0       -3.475640    5.545795   -3.314472
    139          1           0       -4.271405    7.855493   -3.774527
    140          1           0       -5.185990    6.435733   -4.404064
    141          1           0       -5.738532    7.397589   -2.970561
    142          7           0       -2.394748    6.036763   -0.863345
    143          6           0       -1.578242    6.564415    0.209502
    144          6           0       -0.142542    6.064999    0.134337
    145          8           0        0.106544    4.994153   -0.395045
    146          6           0       -2.168331    6.098830    1.537630
    147          1           0       -2.184871    5.077606   -1.107616
    148          1           0       -1.481786    7.657193    0.215223
    149          1           0       -3.240071    6.254817    1.662695
    150          1           0       -2.042620    5.026349    1.722514
    151          1           0       -1.693407    6.751476    2.270775
    152          7           0        0.780439    6.895915    0.617953
    153          6           0        2.221041    6.719409    0.553054
    154          6           0        2.827531    6.692682   -0.844070
    155          8           0        4.015887    6.406840   -1.012011
    156          6           0        2.570424    5.553441    1.487158
    157          6           0        2.146550    5.678841    2.946852
    158          6           0        2.652845    4.648720    3.935951
    159          8           0        2.753279    4.965209    5.135095
    160          8           0        2.973272    3.477987    3.611588
    161          1           0        0.457603    7.773078    1.001569
    162          1           0        2.593906    7.632605    1.010159
    163          1           0        3.655694    5.517140    1.467887
    164          1           0        2.094775    4.678845    1.053409
    165          1           0        1.058247    5.627236    2.888256
    166          1           0        2.444787    6.660825    3.321502
    167          7           0        2.104467    7.197937   -1.838352
    168          6           0        2.402941    6.965971   -3.237068
    169          1           0        3.466710    6.756623   -3.351409
    170          1           0        1.825044    6.114351   -3.596583
    171          1           0        2.143505    7.852214   -3.816122
    172          1           0        1.144317    7.485689   -1.722552
    173         20           0        3.057665    2.383890    6.035228
    174          8           0        1.829393    0.529167    7.411509
    175          1           0        1.104906    0.314259    6.821905
    176          1           0        1.854811   -0.193098    8.044824
 ---------------------------------------------------------------------
 Rotational constants (GHZ):           0.0150202           0.0098725           0.0074307
 Standard basis: SVP (5D, 7F)
 There are  1809 symmetry adapted cartesian basis functions of A   symmetry.
 There are  1717 symmetry adapted basis functions of A   symmetry.
  1717 basis functions,  2922 primitive gaussians,  1809 cartesian basis functions
   358 alpha electrons      358 beta electrons
       nuclear repulsion energy     18548.5763069077 Hartrees.
 NAtoms=  176 NActive=  176 NUniq=  176 SFac= 1.00D+00 NAtFMM=   60 NAOKFM=T Big=T
 Integral buffers will be    131072 words long.
 Raffenetti 2 integral format.
 Two-electron integral symmetry is turned on.
 One-electron integrals computed using PRISM.
 NBasis=  1717 RedAO= T EigKep=  2.77D-04  NBF=  1717
 NBsUse=  1717 1.00D-06 EigRej= -1.00D+00 NBFU=  1717
 ExpMin= 1.98D-02 ExpMax= 3.51D+04 ExpMxC= 5.28D+03 IAcc=3 IRadAn=         5 AccDes= 0.00D+00
 Harris functional with IExCor=  402 and IRadAn=       5 diagonalized for initial guess.
 HarFok:  IExCor=  402 AccDes= 0.00D+00 IRadAn=         5 IDoV= 1 UseB2=F ITyADJ=14
 ICtDFT=  3500011 ScaDFX=  1.000000  1.000000  1.000000  1.000000
 FoFCou: FMM=F IPFlag=           0 FMFlag=      100000 FMFlg1=        2001
         NFxFlg=           0 DoJE=T BraDBF=F KetDBF=T FulRan=T
         wScrn=  0.000000 ICntrl=       500 IOpCl=  0 I1Cent=   200000004 NGrid=           0
         NMat0=    1 NMatS0=      1 NMatT0=    0 NMatD0=    1 NMtDS0=    0 NMtDT0=    0
 Petite list used in FoFCou.
 Requested convergence on RMS density matrix=1.00D-08 within  32 cycles.
 Requested convergence on MAX density matrix=1.00D-06.
 Requested convergence on             energy=1.00D-06.
 No special actions if energy rises.
 EnCoef did     2 forward-backward iterations
 EnCoef did     2 forward-backward iterations
 EnCoef did     2 forward-backward iterations
 EnCoef did    12 forward-backward iterations
 EnCoef did   100 forward-backward iterations
 EnCoef did   100 forward-backward iterations
 Rare condition: small coef for last iteration:  0.000D+00
 Rare condition: small coef for last iteration:  0.000D+00
 EnCoef did   100 forward-backward iterations
 Rare condition: small coef for last iteration:  0.000D+00
 Restarting incremental Fock formation.
 EnCoef did   100 forward-backward iterations
 Rare condition: small coef for last iteration:  0.000D+00
 EnCoef did   100 forward-backward iterations
 EnCoef did   100 forward-backward iterations
 Rare condition: small coef for last iteration: -0.253D-15
 EnCoef did   100 forward-backward iterations
 Rare condition: small coef for last iteration:  0.000D+00
 EnCoef did   100 forward-backward iterations
 Rare condition: small coef for last iteration:  0.000D+00
 EnCoef did   100 forward-backward iterations
 EnCoef did   100 forward-backward iterations
 Rare condition: small coef for last iteration:  0.000D+00
 EnCoef did   100 forward-backward iterations
 EnCoef did   100 forward-backward iterations
 Rare condition: small coef for last iteration:  0.593D-16
 EnCoef did   100 forward-backward iterations
 Rare condition: small coef for last iteration:  0.000D+00
 EnCoef did   100 forward-backward iterations
 Rare condition: small coef for last iteration:  0.000D+00
 EnCoef did   100 forward-backward iterations
 >>>>>>>>>> Convergence criterion not met.
 SCF Done:  E(RB3LYP) =  -5333.28544168     A.U. after   33 cycles
            NFock= 32  Conv=0.74D-05     -V/T= 2.0082
 Gradient too large for Newton-Raphson -- use scaled steepest descent instead.
     Accept linear search using points  1 and  2.
 Gradient too large for Newton-Raphson -- use scaled steepest descent instead.
     Minimum is close to point  2 DX= -1.28D-02 DF= -1.54D-05 DXR=  4.45D-02 DFR=  1.98D-03 which will be used.
 Gradient too large for Newton-Raphson -- use scaled steepest descent instead.
 Gradient too large for Newton-Raphson -- use scaled steepest descent instead.
     Minimum is close to point  3 DX= -1.81D-02 DF= -3.87D-07 DXR=  3.12D-02 DFR=  8.97D-04 which will be used.
 Gradient too large for Newton-Raphson -- use scaled steepest descent instead.
     Accept linear search using points  1 and  2.
 LinEq1:  Iter=  0 NonCon=     1 RMS=1.50D-04 Max=1.04D-01 NDo=     1
 AX will form     1 AO Fock derivatives at one time.
 LinEq1:  Iter=  1 NonCon=     1 RMS=2.08D-04 Max=7.51D-02 NDo=     1
 LinEq1:  Iter=  2 NonCon=     1 RMS=1.95D-04 Max=7.54D-02 NDo=     1
 LinEq1:  Iter=  3 NonCon=     1 RMS=1.20D-04 Max=2.97D-02 NDo=     1
 LinEq1:  Iter=  4 NonCon=     1 RMS=6.73D-05 Max=1.09D-02 NDo=     1
 LinEq1:  Iter=  5 NonCon=     1 RMS=6.09D-05 Max=2.30D-02 NDo=     1
 LinEq1:  Iter=  6 NonCon=     1 RMS=4.14D-05 Max=8.87D-03 NDo=     1
 LinEq1:  Iter=  7 NonCon=     1 RMS=3.44D-05 Max=7.23D-03 NDo=     1
 LinEq1:  Iter=  8 NonCon=     1 RMS=1.97D-05 Max=2.46D-03 NDo=     1
 LinEq1:  Iter=  9 NonCon=     1 RMS=1.47D-05 Max=2.50D-03 NDo=     1
 LinEq1:  Iter= 10 NonCon=     1 RMS=1.15D-05 Max=1.96D-03 NDo=     1
 LinEq1:  Iter= 11 NonCon=     1 RMS=7.91D-06 Max=1.76D-03 NDo=     1
 LinEq1:  Iter= 12 NonCon=     1 RMS=4.74D-06 Max=1.06D-03 NDo=     1
 LinEq1:  Iter= 13 NonCon=     1 RMS=2.79D-06 Max=6.10D-04 NDo=     1
 LinEq1:  Iter= 14 NonCon=     1 RMS=2.12D-06 Max=4.19D-04 NDo=     1
 LinEq1:  Iter= 15 NonCon=     1 RMS=1.64D-06 Max=3.51D-04 NDo=     1
 LinEq1:  Iter= 16 NonCon=     1 RMS=1.07D-06 Max=2.30D-04 NDo=     1
 LinEq1:  Iter= 17 NonCon=     1 RMS=7.84D-07 Max=1.39D-04 NDo=     1
 LinEq1:  Iter= 18 NonCon=     1 RMS=6.30D-07 Max=9.18D-05 NDo=     1
 LinEq1:  Iter= 19 NonCon=     1 RMS=3.68D-07 Max=4.82D-05 NDo=     1
 LinEq1:  Iter= 20 NonCon=     1 RMS=2.45D-07 Max=3.47D-05 NDo=     1
 LinEq1:  Iter= 21 NonCon=     1 RMS=1.64D-07 Max=1.95D-05 NDo=     1
 LinEq1:  Iter= 22 NonCon=     1 RMS=1.28D-07 Max=1.75D-05 NDo=     1
 LinEq1:  Iter= 23 NonCon=     1 RMS=7.73D-08 Max=1.37D-05 NDo=     1
 LinEq1:  Iter= 24 NonCon=     1 RMS=5.73D-08 Max=1.16D-05 NDo=     1
 LinEq1:  Iter= 25 NonCon=     1 RMS=3.51D-08 Max=7.76D-06 NDo=     1
 LinEq1:  Iter= 26 NonCon=     1 RMS=2.34D-08 Max=5.33D-06 NDo=     1
 LinEq1:  Iter= 27 NonCon=     1 RMS=1.72D-08 Max=3.81D-06 NDo=     1
 LinEq1:  Iter= 28 NonCon=     1 RMS=1.23D-08 Max=2.37D-06 NDo=     1
 LinEq1:  Iter= 29 NonCon=     1 RMS=7.85D-09 Max=1.24D-06 NDo=     1
 LinEq1:  Iter= 30 NonCon=     0 RMS=5.46D-09 Max=6.71D-07 NDo=     1
 Linear equations converged to 8.051D-08 8.051D-07 after    30 iterations.
     Minimum is close to point  2 DX=  8.59D-02 DF= -1.32D-06 DXR=  7.91D-02 DFR=  6.29D-03 which will be used.
 LinEq1:  Iter=  0 NonCon=     1 RMS=4.95D-05 Max=3.44D-02 NDo=     1
 LinEq1:  Iter=  1 NonCon=     1 RMS=5.39D-05 Max=3.40D-02 NDo=     1
 LinEq1:  Iter=  2 NonCon=     1 RMS=2.82D-05 Max=1.08D-02 NDo=     1
 LinEq1:  Iter=  3 NonCon=     1 RMS=1.53D-05 Max=1.47D-03 NDo=     1
 LinEq1:  Iter=  4 NonCon=     1 RMS=1.28D-05 Max=3.58D-03 NDo=     1
 LinEq1:  Iter=  5 NonCon=     1 RMS=8.76D-06 Max=1.42D-03 NDo=     1
 LinEq1:  Iter=  6 NonCon=     1 RMS=5.36D-06 Max=8.51D-04 NDo=     1
 LinEq1:  Iter=  7 NonCon=     1 RMS=4.47D-06 Max=1.14D-03 NDo=     1
 LinEq1:  Iter=  8 NonCon=     1 RMS=2.42D-06 Max=4.22D-04 NDo=     1
 LinEq1:  Iter=  9 NonCon=     1 RMS=1.59D-06 Max=2.26D-04 NDo=     1
 LinEq1:  Iter= 10 NonCon=     1 RMS=1.41D-06 Max=1.78D-04 NDo=     1
 LinEq1:  Iter= 11 NonCon=     1 RMS=7.91D-07 Max=1.46D-04 NDo=     1
 LinEq1:  Iter= 12 NonCon=     1 RMS=4.96D-07 Max=1.35D-04 NDo=     1
 LinEq1:  Iter= 13 NonCon=     1 RMS=3.01D-07 Max=9.56D-05 NDo=     1
 LinEq1:  Iter= 14 NonCon=     1 RMS=2.42D-07 Max=6.65D-05 NDo=     1
 LinEq1:  Iter= 15 NonCon=     1 RMS=2.00D-07 Max=5.10D-05 NDo=     1
 LinEq1:  Iter= 16 NonCon=     1 RMS=1.26D-07 Max=2.30D-05 NDo=     1
 LinEq1:  Iter= 17 NonCon=     1 RMS=8.87D-08 Max=1.25D-05 NDo=     1
 LinEq1:  Iter= 18 NonCon=     1 RMS=6.95D-08 Max=8.04D-06 NDo=     1
 LinEq1:  Iter= 19 NonCon=     1 RMS=3.85D-08 Max=6.87D-06 NDo=     1
 LinEq1:  Iter= 20 NonCon=     1 RMS=2.54D-08 Max=5.81D-06 NDo=     1
 LinEq1:  Iter= 21 NonCon=     1 RMS=1.79D-08 Max=4.24D-06 NDo=     1
 LinEq1:  Iter= 22 NonCon=     1 RMS=1.45D-08 Max=3.56D-06 NDo=     1
 LinEq1:  Iter= 23 NonCon=     1 RMS=9.11D-09 Max=1.98D-06 NDo=     1
 LinEq1:  Iter= 24 NonCon=     1 RMS=6.53D-09 Max=1.37D-06 NDo=     1
 LinEq1:  Iter= 25 NonCon=     1 RMS=4.28D-09 Max=6.16D-07 NDo=     1
 LinEq1:  Iter= 26 NonCon=     1 RMS=2.89D-09 Max=5.58D-07 NDo=     1
 LinEq1:  Iter= 27 NonCon=     1 RMS=2.03D-09 Max=4.79D-07 NDo=     1
 LinEq1:  Iter= 28 NonCon=     1 RMS=1.55D-09 Max=4.08D-07 NDo=     1
 LinEq1:  Iter= 29 NonCon=     1 RMS=9.28D-10 Max=2.52D-07 NDo=     1
 LinEq1:  Iter= 30 NonCon=     1 RMS=6.74D-10 Max=1.53D-07 NDo=     1
 LinEq1:  Iter= 31 NonCon=     0 RMS=4.65D-10 Max=9.10D-08 NDo=     1
 Linear equations converged to 9.270D-09 9.270D-08 after    31 iterations.
 LinEq1:  Iter=  0 NonCon=     1 RMS=3.29D-06 Max=2.29D-03 NDo=     1
 LinEq1:  Iter=  1 NonCon=     1 RMS=6.78D-06 Max=4.65D-03 NDo=     1
 LinEq1:  Iter=  2 NonCon=     1 RMS=1.96D-06 Max=8.55D-04 NDo=     1
 LinEq1:  Iter=  3 NonCon=     1 RMS=1.02D-06 Max=1.03D-04 NDo=     1
 LinEq1:  Iter=  4 NonCon=     1 RMS=7.18D-07 Max=1.70D-04 NDo=     1
 LinEq1:  Iter=  5 NonCon=     1 RMS=5.10D-07 Max=6.86D-05 NDo=     1
 LinEq1:  Iter=  6 NonCon=     1 RMS=3.28D-07 Max=5.25D-05 NDo=     1
 LinEq1:  Iter=  7 NonCon=     1 RMS=2.90D-07 Max=6.41D-05 NDo=     1
 LinEq1:  Iter=  8 NonCon=     1 RMS=1.54D-07 Max=3.34D-05 NDo=     1
 LinEq1:  Iter=  9 NonCon=     1 RMS=1.09D-07 Max=2.33D-05 NDo=     1
 LinEq1:  Iter= 10 NonCon=     1 RMS=9.12D-08 Max=1.57D-05 NDo=     1
 LinEq1:  Iter= 11 NonCon=     1 RMS=5.33D-08 Max=1.32D-05 NDo=     1
 LinEq1:  Iter= 12 NonCon=     1 RMS=3.21D-08 Max=7.32D-06 NDo=     1
 LinEq1:  Iter= 13 NonCon=     1 RMS=1.98D-08 Max=4.17D-06 NDo=     1
 LinEq1:  Iter= 14 NonCon=     1 RMS=1.52D-08 Max=2.43D-06 NDo=     1
 LinEq1:  Iter= 15 NonCon=     1 RMS=1.22D-08 Max=1.69D-06 NDo=     1
 LinEq1:  Iter= 16 NonCon=     1 RMS=7.39D-09 Max=9.41D-07 NDo=     1
 LinEq1:  Iter= 17 NonCon=     1 RMS=5.42D-09 Max=7.35D-07 NDo=     1
 LinEq1:  Iter= 18 NonCon=     1 RMS=4.03D-09 Max=4.20D-07 NDo=     1
 LinEq1:  Iter= 19 NonCon=     1 RMS=2.25D-09 Max=2.38D-07 NDo=     1
 LinEq1:  Iter= 20 NonCon=     1 RMS=1.45D-09 Max=2.25D-07 NDo=     1
 LinEq1:  Iter= 21 NonCon=     1 RMS=1.01D-09 Max=1.32D-07 NDo=     1
 LinEq1:  Iter= 22 NonCon=     1 RMS=7.76D-10 Max=1.29D-07 NDo=     1
 LinEq1:  Iter= 23 NonCon=     1 RMS=4.90D-10 Max=9.44D-08 NDo=     1
 LinEq1:  Iter= 24 NonCon=     1 RMS=3.76D-10 Max=8.13D-08 NDo=     1
 LinEq1:  Iter= 25 NonCon=     1 RMS=2.39D-10 Max=4.95D-08 NDo=     1
 LinEq1:  Iter= 26 NonCon=     1 RMS=1.58D-10 Max=2.79D-08 NDo=     1
 LinEq1:  Iter= 27 NonCon=     1 RMS=1.19D-10 Max=2.00D-08 NDo=     1
 LinEq1:  Iter= 28 NonCon=     1 RMS=8.65D-11 Max=1.62D-08 NDo=     1
 LinEq1:  Iter= 29 NonCon=     1 RMS=5.10D-11 Max=9.92D-09 NDo=     1
 LinEq1:  Iter= 30 NonCon=     1 RMS=3.76D-11 Max=6.96D-09 NDo=     1
 LinEq1:  Iter= 31 NonCon=     0 RMS=2.70D-11 Max=4.87D-09 NDo=     1
 Linear equations converged to 6.082D-10 6.082D-09 after    31 iterations.
 SCF Done:  E(RB3LYP) =  -5333.32587863     a.u. after    9 cycles
            Convg  =    0.9049D-06                   109 Fock formations.
              S**2 =  0.0000                  -V/T =  2.0081
 SCF density gives NOpUse=  1 NOpAll=  1.
 Hyperfine terms turned off by default for NAtoms > 100.

 **********************************************************************

            Population analysis using the SCF density.

 **********************************************************************

 Orbital symmetries:
 BldTbl:  Degeneracy threshold= 1.00D-02
       Occupied  (A) (A) (A) (A) (A) (A) (A) (A) (A) (A) (A) (A)
                 (A) (A) (A) (A) (A) (A) (A) (A) (A) (A) (A) (A)
                 (A) (A) (A) (A) (A) (A) (A) (A) (A) (A) (A) (A)
                 (A) (A) (A) (A) (A) (A) (A) (A) (A) (A) (A) (A)
                 (A) (A) (A) (A) (A) (A) (A) (A) (A) (A) (A) (A)
                 (A) (A) (A) (A) (A) (A) (A) (A) (A) (A) (A) (A)
                 (A) (A) (A) (A) (A) (A) (A) (A) (A) (A) (A) (A)
                 (A) (A) (A) (A) (A) (A) (A) (A) (A) (A) (A) (A)
                 (A) (A) (A) (A) (A) (A) (A) (A) (A) (A) (A) (A)
                 (A) (A) (A) (A) (A) (A) (A) (A) (A) (A) (A) (A)
                 (A) (A) (A) (A) (A) (A) (A) (A) (A) (A) (A) (A)
                 (A) (A) (A) (A) (A) (A) (A) (A) (A) (A) (A) (A)
                 (A) (A) (A) (A) (A) (A) (A) (A) (A) (A) (A) (A)
                 (A) (A) (A) (A) (A) (A) (A) (A) (A) (A) (A) (A)
                 (A) (A) (A) (A) (A) (A) (A) (A) (A) (A) (A) (A)
                 (A) (A) (A) (A) (A) (A) (A) (A) (A) (A) (A) (A)
                 (A) (A) (A) (A) (A) (A) (A) (A) (A) (A) (A) (A)
                 (A) (A) (A) (A) (A) (A) (A) (A) (A) (A) (A) (A)
                 (A) (A) (A) (A) (A) (A) (A) (A) (A) (A) (A) (A)
                 (A) (A) (A) (A) (A) (A) (A) (A) (A) (A) (A) (A)
                 (A) (A) (A) (A) (A) (A) (A) (A) (A) (A) (A) (A)
                 (A) (A) (A) (A) (A) (A) (A) (A) (A) (A) (A) (A)
                 (A) (A) (A) (A) (A) (A) (A) (A) (A) (A) (A) (A)
                 (A) (A) (A) (A) (A) (A) (A) (A) (A) (A) (A) (A)
                 (A) (A) (A) (A) (A) (A) (A) (A) (A) (A) (A) (A)
                 (A) (A) (A) (A) (A) (A) (A) (A) (A) (A) (A) (A)
                 (A) (A) (A) (A) (A) (A) (A) (A) (A) (A) (A) (A)
                 (A) (A) (A) (A) (A) (A) (A) (A) (A) (A) (A) (A)
                 (A) (A) (A) (A) (A) (A) (A) (A) (A) (A) (A) (A)
                 (A) (A) (A) (A) (A) (A) (A) (A) (A) (A)
       Virtual   (A) (A) (A) (A) (A) (A) (A) (A) (A) (A) (A) (A)
                 (A) (A) (A) (A) (A) (A) (A) (A) (A) (A) (A) (A)
                 (A) (A) (A) (A) (A) (A) (A) (A) (A) (A) (A) (A)
                 (A) (A) (A) (A) (A) (A) (A) (A) (A) (A) (A) (A)
                 (A) (A) (A) (A) (A) (A) (A) (A) (A) (A) (A) (A)
                 (A) (A) (A) (A) (A) (A) (A) (A) (A) (A) (A) (A)
                 (A) (A) (A) (A) (A) (A) (A) (A) (A) (A) (A) (A)
                 (A) (A) (A) (A) (A) (A) (A) (A) (A) (A) (A) (A)
                 (A) (A) (A) (A) (A) (A) (A) (A) (A) (A) (A) (A)
                 (A) (A) (A) (A) (A) (A) (A) (A) (A) (A) (A) (A)
                 (A) (A) (A) (A) (A) (A) (A) (A) (A) (A) (A) (A)
                 (A) (A) (A) (A) (A) (A) (A) (A) (A) (A) (A) (A)
                 (A) (A) (A) (A) (A) (A) (A) (A) (A) (A) (A) (A)
                 (A) (A) (A) (A) (A) (A) (A) (A) (A) (A) (A) (A)
                 (A) (A) (A) (A) (A) (A) (A) (A) (A) (A) (A) (A)
                 (A) (A) (A) (A) (A) (A) (A) (A) (A) (A) (A) (A)
                 (A) (A) (A) (A) (A) (A) (A) (A) (A) (A) (A) (A)
                 (A) (A) (A) (A) (A) (A) (A) (A) (A) (A) (A) (A)
                 (A) (A) (A) (A) (A) (A) (A) (A) (A) (A) (A) (A)
                 (A) (A) (A) (A) (A) (A) (A) (A) (A) (A) (A) (A)
                 (A) (A) (A) (A) (A) (A) (A) (A) (A) (A) (A) (A)
                 (A) (A) (A) (A) (A) (A) (A) (A) (A) (A) (A) (A)
                 (A) (A) (A) (A) (A) (A) (A) (A) (A) (A) (A) (A)
                 (A) (A) (A) (A) (A) (A) (A) (A) (A) (A) (A) (A)
                 (A) (A) (A) (A) (A) (A) (A) (A) (A) (A) (A) (A)
                 (A) (A) (A) (A) (A) (A) (A) (A) (A) (A) (A) (A)
                 (A) (A) (A) (A) (A) (A) (A) (A) (A) (A) (A) (A)
                 (A) (A) (A) (A) (A) (A) (A) (A) (A) (A) (A) (A)
                 (A) (A) (A) (A) (A) (A) (A) (A) (A) (A) (A) (A)
                 (A) (A) (A) (A) (A) (A) (A) (A) (A) (A) (A) (A)
                 (A) (A) (A) (A) (A) (A) (A) (A) (A) (A) (A) (A)
                 (A) (A) (A) (A) (A) (A) (A) (A) (A) (A) (A) (A)
                 (A) (A) (A) (A) (A) (A) (A) (A) (A) (A) (A) (A)
                 (A) (A) (A) (A) (A) (A) (A) (A) (A) (A) (A) (A)
                 (A) (A) (A) (A) (A) (A) (A) (A) (A) (A) (A) (A)
                 (A) (A) (A) (A) (A) (A) (A) (A) (A) (A) (A) (A)
                 (A) (A) (A) (A) (A) (A) (A) (A) (A) (A) (A) (A)
                 (A) (A) (A) (A) (A) (A) (A) (A) (A) (A) (A) (A)
                 (A) (A) (A) (A) (A) (A) (A) (A) (A) (A) (A) (A)
                 (A) (A) (A) (A) (A) (A) (A) (A) (A) (A) (A) (A)
                 (A) (A) (A) (A) (A) (A) (A) (A) (A) (A) (A) (A)
                 (A) (A) (A) (A) (A) (A) (A) (A) (A) (A) (A) (A)
                 (A) (A) (A) (A) (A) (A) (A) (A) (A) (A) (A) (A)
                 (A) (A) (A) (A) (A) (A) (A) (A) (A) (A) (A) (A)
                 (A) (A) (A) (A) (A) (A) (A) (A) (A) (A) (A) (A)
                 (A) (A) (A) (A) (A) (A) (A) (A) (A) (A) (A) (A)
                 (A) (A) (A) (A) (A) (A) (A) (A) (A) (A) (A) (A)
                 (A) (A) (A) (A) (A) (A) (A) (A) (A) (A) (A) (A)
                 (A) (A) (A) (A) (A) (A) (A) (A) (A) (A) (A) (A)
                 (A) (A) (A) (A) (A) (A) (A) (A) (A) (A) (A) (A)
                 (A) (A) (A) (A) (A) (A) (A) (A) (A) (A) (A) (A)
                 (A) (A) (A) (A) (A) (A) (A) (A) (A) (A) (A) (A)
                 (A) (A) (A) (A) (A) (A) (A) (A) (A) (A) (A) (A)
                 (A) (A) (A) (A) (A) (A) (A) (A) (A) (A) (A) (A)
                 (A) (A) (A) (A) (A) (A) (A) (A) (A) (A) (A) (A)
                 (A) (A) (A) (A) (A) (A) (A) (A) (A) (A) (A) (A)
                 (A) (A) (A) (A) (A) (A) (A) (A) (A) (A) (A) (A)
                 (A) (A) (A) (A) (A) (A) (A) (A) (A) (A) (A) (A)
                 (A) (A) (A) (A) (A) (A) (A) (A) (A) (A) (A) (A)
                 (A) (A) (A) (A) (A) (A) (A) (A) (A) (A) (A) (A)
                 (A) (A) (A) (A) (A) (A) (A) (A) (A) (A) (A) (A)
                 (A) (A) (A) (A) (A) (A) (A) (A) (A) (A) (A) (A)
                 (A) (A) (A) (A) (A) (A) (A) (A) (A) (A) (A) (A)
                 (A) (A) (A) (A) (A) (A) (A) (A) (A) (A) (A) (A)
                 (A) (A) (A) (A) (A) (A) (A) (A) (A) (A) (A) (A)
                 (A) (A) (A) (A) (A) (A) (A) (A) (A) (A) (A) (A)
                 (A) (A) (A) (A) (A) (A) (A) (A) (A) (A) (A) (A)
                 (A) (A) (A) (A) (A) (A) (A) (A) (A) (A) (A) (A)
                 (A) (A) (A) (A) (A) (A) (A) (A) (A) (A) (A) (A)
                 (A) (A) (A) (A) (A) (A) (A) (A) (A) (A) (A) (A)
                 (A) (A) (A) (A) (A) (A) (A) (A) (A) (A) (A) (A)
                 (A) (A) (A) (A) (A) (A) (A) (A) (A) (A) (A) (A)
                 (A) (A) (A) (A) (A) (A) (A) (A) (A) (A) (A) (A)
                 (A) (A) (A) (A) (A) (A) (A) (A) (A) (A) (A) (A)
                 (A) (A) (A) (A) (A) (A) (A) (A) (A) (A) (A) (A)
                 (A) (A) (A) (A) (A) (A) (A) (A) (A) (A) (A) (A)
                 (A) (A) (A) (A) (A) (A) (A) (A) (A) (A) (A) (A)
                 (A) (A) (A) (A) (A) (A) (A) (A) (A) (A) (A) (A)
                 (A) (A) (A) (A) (A) (A) (A) (A) (A) (A) (A) (A)
                 (A) (A) (A) (A) (A) (A) (A) (A) (A) (A) (A) (A)
                 (A) (A) (A) (A) (A) (A) (A) (A) (A) (A) (A) (A)
                 (A) (A) (A) (A) (A) (A) (A) (A) (A) (A) (A) (A)
                 (A) (A) (A) (A) (A) (A) (A) (A) (A) (A) (A) (A)
                 (A) (A) (A) (A) (A) (A) (A) (A) (A) (A) (A) (A)
                 (A) (A) (A) (A) (A) (A) (A) (A) (A) (A) (A) (A)
                 (A) (A) (A) (A) (A) (A) (A) (A) (A) (A) (A) (A)
                 (A) (A) (A) (A) (A) (A) (A) (A) (A) (A) (A) (A)
                 (A) (A) (A) (A) (A) (A) (A) (A) (A) (A) (A) (A)
                 (A) (A) (A) (A) (A) (A) (A) (A) (A) (A) (A) (A)
                 (A) (A) (A) (A) (A) (A) (A) (A) (A) (A) (A) (A)
                 (A) (A) (A) (A) (A) (A) (A) (A) (A) (A) (A) (A)
                 (A) (A) (A) (A) (A) (A) (A) (A) (A) (A) (A) (A)
                 (A) (A) (A) (A) (A) (A) (A) (A) (A) (A) (A) (A)
                 (A) (A) (A) (A) (A) (A) (A) (A) (A) (A) (A) (A)
                 (A) (A) (A) (A) (A) (A) (A) (A) (A) (A) (A) (A)
                 (A) (A) (A) (A) (A) (A) (A) (A) (A) (A) (A) (A)
                 (A) (A) (A) (A) (A) (A) (A) (A) (A) (A) (A) (A)
                 (A) (A) (A) (A) (A) (A) (A) (A) (A) (A) (A) (A)
                 (A) (A) (A) (A) (A) (A) (A) (A) (A) (A) (A) (A)
                 (A) (A) (A) (A) (A) (A) (A) (A) (A) (A) (A) (A)
                 (A) (A) (A) (A) (A) (A) (A) (A) (A) (A) (A) (A)
                 (A) (A) (A) (A) (A) (A) (A) (A) (A) (A) (A) (A)
                 (A) (A) (A) (A) (A) (A) (A) (A) (A) (A) (A) (A)
                 (A) (A) (A) (A) (A) (A) (A) (A) (A) (A) (A) (A)
                 (A) (A) (A) (A) (A) (A) (A) (A) (A) (A) (A) (A)
                 (A) (A) (A) (A) (A) (A) (A) (A) (A) (A) (A) (A)
                 (A) (A) (A) (A) (A) (A) (A) (A) (A) (A) (A) (A)
                 (A) (A) (A) (A) (A) (A) (A) (A) (A) (A) (A) (A)
                 (A) (A) (A) (A) (A) (A) (A) (A) (A) (A) (A) (A)
                 (A) (A) (A) (A) (A) (A) (A) (A) (A) (A) (A) (A)
                 (A) (A) (A) (A) (A) (A) (A) (A) (A) (A) (A) (A)
                 (A) (A) (A) (A) (A) (A) (A) (A) (A) (A) (A) (A)
                 (A) (A) (A) (A) (A) (A) (A) (A) (A) (A) (A) (A)
                 (A) (A) (A)
 The electronic state is 1-A.
 Alpha  occ. eigenvalues -- -145.47746 -19.22819 -19.16297 -19.14432 -19.11454
 Alpha  occ. eigenvalues --  -19.11198 -19.10146 -19.09520 -19.09111 -19.08849
 Alpha  occ. eigenvalues --  -19.08782 -19.08780 -19.08016 -19.08014 -19.07615
 Alpha  occ. eigenvalues --  -19.06960 -19.06678 -19.06645 -19.06325 -19.05828
 Alpha  occ. eigenvalues --  -19.05136 -19.02933 -18.96625 -18.95855 -15.53715
 Alpha  occ. eigenvalues --  -14.57831 -14.37679 -14.36332 -14.36304 -14.35856
 Alpha  occ. eigenvalues --  -14.35505 -14.35066 -14.34523 -14.34371 -14.34199
 Alpha  occ. eigenvalues --  -14.33248 -14.33117 -14.32833 -14.30964 -14.30546
 Alpha  occ. eigenvalues --  -12.67351 -12.67263 -12.67209 -10.33517 -10.29631
 Alpha  occ. eigenvalues --  -10.29598 -10.29363 -10.28680 -10.28169 -10.27591
 Alpha  occ. eigenvalues --  -10.27571 -10.27451 -10.26782 -10.26203 -10.26186
 Alpha  occ. eigenvalues --  -10.26180 -10.26065 -10.25616 -10.25320 -10.25216
 Alpha  occ. eigenvalues --  -10.24845 -10.24625 -10.24526 -10.24469 -10.24112
 Alpha  occ. eigenvalues --  -10.23818 -10.23686 -10.23641 -10.23610 -10.22845
 Alpha  occ. eigenvalues --  -10.22699 -10.22580 -10.22402 -10.21408 -10.21191
 Alpha  occ. eigenvalues --  -10.20939 -10.20601 -10.19523 -10.19233 -10.19169
 Alpha  occ. eigenvalues --  -10.19018 -10.18910 -10.18883 -10.18572 -10.18372
 Alpha  occ. eigenvalues --  -10.18295 -10.18245 -10.18104 -10.17973 -10.17614
 Alpha  occ. eigenvalues --  -10.17290 -10.16793 -10.16513 -10.15851 -10.15287
 Alpha  occ. eigenvalues --  -10.15088 -10.10940  -1.90369  -1.18214  -1.17430
 Alpha  occ. eigenvalues --   -1.17140  -1.13090  -1.08574  -1.05013  -1.04820
 Alpha  occ. eigenvalues --   -1.04349  -1.03669  -1.03124  -1.03021  -1.02982
 Alpha  occ. eigenvalues --   -1.02333  -1.02196  -1.01603  -1.01222  -1.00776
 Alpha  occ. eigenvalues --   -1.00653  -0.99847  -0.99813  -0.99288  -0.98732
 Alpha  occ. eigenvalues --   -0.97967  -0.94923  -0.93776  -0.92775  -0.92367
 Alpha  occ. eigenvalues --   -0.92345  -0.92058  -0.91650  -0.91545  -0.90853
 Alpha  occ. eigenvalues --   -0.90731  -0.90250  -0.90181  -0.89908  -0.88182
 Alpha  occ. eigenvalues --   -0.88157  -0.87942  -0.87693  -0.87497  -0.85079
 Alpha  occ. eigenvalues --   -0.81391  -0.81133  -0.80937  -0.80718  -0.79429
 Alpha  occ. eigenvalues --   -0.78373  -0.77317  -0.76801  -0.76596  -0.75404
 Alpha  occ. eigenvalues --   -0.75153  -0.74823  -0.74276  -0.74162  -0.73684
 Alpha  occ. eigenvalues --   -0.72844  -0.72485  -0.71835  -0.71675  -0.70602
 Alpha  occ. eigenvalues --   -0.70538  -0.69284  -0.69252  -0.68187  -0.66601
 Alpha  occ. eigenvalues --   -0.66360  -0.65384  -0.65012  -0.64522  -0.64161
 Alpha  occ. eigenvalues --   -0.63215  -0.62851  -0.62455  -0.62147  -0.62090
 Alpha  occ. eigenvalues --   -0.61235  -0.60982  -0.60781  -0.60324  -0.60063
 Alpha  occ. eigenvalues --   -0.59632  -0.59109  -0.59092  -0.58328  -0.58174
 Alpha  occ. eigenvalues --   -0.57981  -0.57635  -0.57336  -0.56665  -0.56078
 Alpha  occ. eigenvalues --   -0.55806  -0.55641  -0.55508  -0.54897  -0.54787
 Alpha  occ. eigenvalues --   -0.54175  -0.54132  -0.53779  -0.53292  -0.53133
 Alpha  occ. eigenvalues --   -0.52755  -0.52592  -0.52208  -0.52150  -0.51751
 Alpha  occ. eigenvalues --   -0.50900  -0.50783  -0.50253  -0.49953  -0.49853
 Alpha  occ. eigenvalues --   -0.49442  -0.49400  -0.49141  -0.49003  -0.48476
 Alpha  occ. eigenvalues --   -0.48371  -0.48152  -0.47888  -0.47582  -0.47531
 Alpha  occ. eigenvalues --   -0.47231  -0.46906  -0.46739  -0.46359  -0.46317
 Alpha  occ. eigenvalues --   -0.45983  -0.45969  -0.45725  -0.45560  -0.45295
 Alpha  occ. eigenvalues --   -0.45076  -0.44953  -0.44891  -0.44712  -0.44666
 Alpha  occ. eigenvalues --   -0.44622  -0.44089  -0.43923  -0.43833  -0.43520
 Alpha  occ. eigenvalues --   -0.43308  -0.43013  -0.42972  -0.42810  -0.42517
 Alpha  occ. eigenvalues --   -0.42435  -0.42419  -0.42208  -0.42071  -0.41953
 Alpha  occ. eigenvalues --   -0.41828  -0.41758  -0.41472  -0.41425  -0.41083
 Alpha  occ. eigenvalues --   -0.40980  -0.40952  -0.40699  -0.40653  -0.40505
 Alpha  occ. eigenvalues --   -0.40313  -0.40215  -0.40068  -0.40056  -0.39871
 Alpha  occ. eigenvalues --   -0.39836  -0.39726  -0.39601  -0.39395  -0.39341
 Alpha  occ. eigenvalues --   -0.38994  -0.38903  -0.38582  -0.38202  -0.38109
 Alpha  occ. eigenvalues --   -0.38080  -0.37882  -0.37538  -0.37383  -0.37339
 Alpha  occ. eigenvalues --   -0.37227  -0.37159  -0.37056  -0.36945  -0.36856
 Alpha  occ. eigenvalues --   -0.36768  -0.36696  -0.36497  -0.36484  -0.36452
 Alpha  occ. eigenvalues --   -0.36351  -0.35930  -0.35898  -0.35785  -0.35695
 Alpha  occ. eigenvalues --   -0.35343  -0.35270  -0.35231  -0.34898  -0.34851
 Alpha  occ. eigenvalues --   -0.34693  -0.34412  -0.34112  -0.33981  -0.33885
 Alpha  occ. eigenvalues --   -0.33836  -0.33666  -0.33260  -0.33198  -0.32903
 Alpha  occ. eigenvalues --   -0.32895  -0.32174  -0.31631  -0.31370  -0.31041
 Alpha  occ. eigenvalues --   -0.29573  -0.29148  -0.28708  -0.28435  -0.28087
 Alpha  occ. eigenvalues --   -0.28009  -0.27566  -0.27179  -0.26538  -0.26513
 Alpha  occ. eigenvalues --   -0.26427  -0.26284  -0.26148  -0.25994  -0.25885
 Alpha  occ. eigenvalues --   -0.25869  -0.25697  -0.25536  -0.25397  -0.25135
 Alpha  occ. eigenvalues --   -0.24923  -0.24550  -0.24457  -0.24296  -0.24073
 Alpha  occ. eigenvalues --   -0.23979  -0.23625  -0.23499  -0.23193  -0.23127
 Alpha  occ. eigenvalues --   -0.22789  -0.22566  -0.22489  -0.22047  -0.22023
 Alpha  occ. eigenvalues --   -0.21726  -0.21365  -0.21115  -0.21039  -0.18631
 Alpha  occ. eigenvalues --   -0.13853  -0.13501  -0.11363
 Alpha virt. eigenvalues --   -0.10474  -0.09928  -0.04387  -0.03248  -0.03155
 Alpha virt. eigenvalues --   -0.01754  -0.00382  -0.00192  -0.00069   0.00259
 Alpha virt. eigenvalues --    0.00468   0.00632   0.00955   0.01078   0.02030
 Alpha virt. eigenvalues --    0.02258   0.02544   0.02602   0.03146   0.03244
 Alpha virt. eigenvalues --    0.03298   0.03327   0.03472   0.03737   0.03818
 Alpha virt. eigenvalues --    0.04033   0.04477   0.04498   0.04802   0.04951
 Alpha virt. eigenvalues --    0.04970   0.05244   0.05322   0.05608   0.05864
 Alpha virt. eigenvalues --    0.06359   0.06435   0.06577   0.06750   0.06978
 Alpha virt. eigenvalues --    0.07128   0.07561   0.07698   0.07769   0.07911
 Alpha virt. eigenvalues --    0.08262   0.08431   0.08580   0.08669   0.09007
 Alpha virt. eigenvalues --    0.09354   0.09426   0.09500   0.09957   0.10497
 Alpha virt. eigenvalues --    0.10662   0.10729   0.10768   0.11058   0.11175
 Alpha virt. eigenvalues --    0.11489   0.11789   0.11924   0.12087   0.12231
 Alpha virt. eigenvalues --    0.12459   0.12600   0.12985   0.13092   0.13136
 Alpha virt. eigenvalues --    0.13237   0.13438   0.13629   0.13669   0.13724
 Alpha virt. eigenvalues --    0.13779   0.14024   0.14033   0.14181   0.14357
 Alpha virt. eigenvalues --    0.14461   0.14563   0.14889   0.14953   0.15044
 Alpha virt. eigenvalues --    0.15143   0.15261   0.15337   0.15463   0.15721
 Alpha virt. eigenvalues --    0.16083   0.16112   0.16188   0.16360   0.16521
 Alpha virt. eigenvalues --    0.16585   0.16686   0.17243   0.17383   0.17463
 Alpha virt. eigenvalues --    0.17539   0.17726   0.17972   0.18125   0.18248
 Alpha virt. eigenvalues --    0.18498   0.19022   0.19302   0.19321   0.19493
 Alpha virt. eigenvalues --    0.19797   0.19978   0.20224   0.20342   0.20423
 Alpha virt. eigenvalues --    0.20645   0.20911   0.20991   0.21151   0.21519
 Alpha virt. eigenvalues --    0.21855   0.22120   0.22186   0.22510   0.22656
 Alpha virt. eigenvalues --    0.22813   0.23201   0.23413   0.23736   0.23845
 Alpha virt. eigenvalues --    0.23886   0.24039   0.24131   0.24491   0.24665
 Alpha virt. eigenvalues --    0.24893   0.25188   0.25260   0.25370   0.25516
 Alpha virt. eigenvalues --    0.26058   0.26356   0.26635   0.26891   0.26985
 Alpha virt. eigenvalues --    0.27311   0.27603   0.27666   0.27907   0.28234
 Alpha virt. eigenvalues --    0.28514   0.29166   0.29302   0.29326   0.29506
 Alpha virt. eigenvalues --    0.29629   0.29763   0.30116   0.30205   0.30427
 Alpha virt. eigenvalues --    0.30553   0.30714   0.30954   0.31201   0.31416
 Alpha virt. eigenvalues --    0.31917   0.31990   0.32464   0.32495   0.32704
 Alpha virt. eigenvalues --    0.32876   0.33554   0.33803   0.34228   0.34297
 Alpha virt. eigenvalues --    0.34505   0.35171   0.35297   0.35670   0.35799
 Alpha virt. eigenvalues --    0.36058   0.36319   0.36931   0.37008   0.37243
 Alpha virt. eigenvalues --    0.37503   0.37887   0.38003   0.38494   0.39348
 Alpha virt. eigenvalues --    0.39445   0.39695   0.39862   0.40179   0.40651
 Alpha virt. eigenvalues --    0.40777   0.40857   0.41225   0.41270   0.41749
 Alpha virt. eigenvalues --    0.42350   0.42647   0.42766   0.42823   0.43030
 Alpha virt. eigenvalues --    0.43164   0.43436   0.43528   0.43709   0.43901
 Alpha virt. eigenvalues --    0.44170   0.44227   0.44469   0.44684   0.44928
 Alpha virt. eigenvalues --    0.45076   0.45589   0.45654   0.45851   0.45920
 Alpha virt. eigenvalues --    0.46139   0.46516   0.46725   0.46897   0.47057
 Alpha virt. eigenvalues --    0.47303   0.47337   0.47426   0.47703   0.47970
 Alpha virt. eigenvalues --    0.48101   0.48283   0.48311   0.48480   0.48651
 Alpha virt. eigenvalues --    0.48810   0.48969   0.49508   0.49675   0.49845
 Alpha virt. eigenvalues --    0.50142   0.50436   0.50511   0.50563   0.51069
 Alpha virt. eigenvalues --    0.51098   0.51425   0.51625   0.51813   0.51888
 Alpha virt. eigenvalues --    0.52075   0.52163   0.52299   0.52690   0.52790
 Alpha virt. eigenvalues --    0.52852   0.52984   0.53170   0.53357   0.53537
 Alpha virt. eigenvalues --    0.53643   0.53882   0.53986   0.54164   0.54446
 Alpha virt. eigenvalues --    0.54594   0.54715   0.54902   0.55051   0.55207
 Alpha virt. eigenvalues --    0.55582   0.55722   0.56062   0.56240   0.56321
 Alpha virt. eigenvalues --    0.56412   0.56502   0.56620   0.56897   0.57096
 Alpha virt. eigenvalues --    0.57261   0.57606   0.57746   0.58018   0.58102
 Alpha virt. eigenvalues --    0.58429   0.58598   0.58747   0.58757   0.59206
 Alpha virt. eigenvalues --    0.59229   0.59359   0.59451   0.59469   0.59584
 Alpha virt. eigenvalues --    0.59957   0.60437   0.60540   0.60632   0.60809
 Alpha virt. eigenvalues --    0.60896   0.61157   0.61251   0.61491   0.61667
 Alpha virt. eigenvalues --    0.61725   0.61960   0.62179   0.62261   0.62424
 Alpha virt. eigenvalues --    0.62536   0.62600   0.62840   0.62914   0.62934
 Alpha virt. eigenvalues --    0.63023   0.63092   0.63124   0.63294   0.63364
 Alpha virt. eigenvalues --    0.63571   0.63701   0.63795   0.63880   0.64042
 Alpha virt. eigenvalues --    0.64152   0.64220   0.64519   0.64645   0.64708
 Alpha virt. eigenvalues --    0.64857   0.65058   0.65142   0.65288   0.65310
 Alpha virt. eigenvalues --    0.65450   0.65534   0.65613   0.65647   0.65769
 Alpha virt. eigenvalues --    0.65876   0.66076   0.66143   0.66268   0.66352
 Alpha virt. eigenvalues --    0.66476   0.66598   0.66658   0.66762   0.66879
 Alpha virt. eigenvalues --    0.66895   0.67074   0.67156   0.67234   0.67400
 Alpha virt. eigenvalues --    0.67514   0.67596   0.67689   0.67750   0.67812
 Alpha virt. eigenvalues --    0.67981   0.68056   0.68206   0.68259   0.68338
 Alpha virt. eigenvalues --    0.68499   0.68524   0.68566   0.68649   0.68716
 Alpha virt. eigenvalues --    0.68841   0.68956   0.68987   0.69108   0.69396
 Alpha virt. eigenvalues --    0.69429   0.69554   0.69588   0.69852   0.69910
 Alpha virt. eigenvalues --    0.69954   0.70078   0.70149   0.70285   0.70466
 Alpha virt. eigenvalues --    0.70531   0.70822   0.70856   0.71052   0.71079
 Alpha virt. eigenvalues --    0.71234   0.71274   0.71399   0.71521   0.71692
 Alpha virt. eigenvalues --    0.71798   0.71994   0.72216   0.72315   0.72499
 Alpha virt. eigenvalues --    0.72725   0.72871   0.73036   0.73122   0.73579
 Alpha virt. eigenvalues --    0.73673   0.73699   0.73911   0.74027   0.74195
 Alpha virt. eigenvalues --    0.74427   0.74661   0.74910   0.75272   0.75384
 Alpha virt. eigenvalues --    0.75461   0.75698   0.75919   0.75998   0.76033
 Alpha virt. eigenvalues --    0.76301   0.76527   0.76741   0.76880   0.76973
 Alpha virt. eigenvalues --    0.77476   0.77574   0.77718   0.78063   0.78176
 Alpha virt. eigenvalues --    0.78541   0.78753   0.78872   0.79032   0.79213
 Alpha virt. eigenvalues --    0.79461   0.79707   0.79942   0.80148   0.80391
 Alpha virt. eigenvalues --    0.80536   0.80755   0.81075   0.81102   0.81260
 Alpha virt. eigenvalues --    0.81555   0.81666   0.81949   0.82118   0.82235
 Alpha virt. eigenvalues --    0.82589   0.82890   0.83021   0.83346   0.83506
 Alpha virt. eigenvalues --    0.83701   0.84414   0.84534   0.84665   0.84770
 Alpha virt. eigenvalues --    0.84964   0.85815   0.85842   0.85967   0.86596
 Alpha virt. eigenvalues --    0.86704   0.87182   0.87554   0.88350   0.88426
 Alpha virt. eigenvalues --    0.88756   0.89307   0.89560   0.89663   0.89867
 Alpha virt. eigenvalues --    0.89933   0.90172   0.90282   0.90566   0.90993
 Alpha virt. eigenvalues --    0.91686   0.91726   0.92039   0.92325   0.92700
 Alpha virt. eigenvalues --    0.93355   0.93478   0.93638   0.94166   0.94492
 Alpha virt. eigenvalues --    0.94985   0.95361   0.95673   0.95943   0.96286
 Alpha virt. eigenvalues --    0.96404   0.96588   0.96731   0.96825   0.97032
 Alpha virt. eigenvalues --    0.97409   0.97522   0.98052   0.98252   0.98548
 Alpha virt. eigenvalues --    0.98650   0.98944   0.99304   0.99366   0.99571
 Alpha virt. eigenvalues --    0.99860   1.00332   1.00824   1.01125   1.01237
 Alpha virt. eigenvalues --    1.01450   1.02054   1.02177   1.02436   1.02834
 Alpha virt. eigenvalues --    1.03066   1.03482   1.03703   1.03958   1.04067
 Alpha virt. eigenvalues --    1.04284   1.04800   1.05109   1.05269   1.05443
 Alpha virt. eigenvalues --    1.05871   1.06155   1.06534   1.06689   1.07026
 Alpha virt. eigenvalues --    1.07273   1.07664   1.07909   1.07983   1.08488
 Alpha virt. eigenvalues --    1.08927   1.08988   1.09223   1.09595   1.09849
 Alpha virt. eigenvalues --    1.10162   1.10573   1.10656   1.10891   1.11296
 Alpha virt. eigenvalues --    1.11546   1.11735   1.12076   1.12344   1.12474
 Alpha virt. eigenvalues --    1.12824   1.13076   1.13166   1.13730   1.13807
 Alpha virt. eigenvalues --    1.13958   1.14149   1.14558   1.14887   1.15287
 Alpha virt. eigenvalues --    1.15631   1.15893   1.16232   1.16396   1.16636
 Alpha virt. eigenvalues --    1.16746   1.16910   1.17065   1.17242   1.17607
 Alpha virt. eigenvalues --    1.17804   1.17849   1.18175   1.18564   1.19274
 Alpha virt. eigenvalues --    1.19318   1.19536   1.19707   1.19842   1.20326
 Alpha virt. eigenvalues --    1.20765   1.20999   1.21310   1.21483   1.21914
 Alpha virt. eigenvalues --    1.22102   1.22268   1.22474   1.22889   1.23202
 Alpha virt. eigenvalues --    1.23352   1.23647   1.23779   1.24284   1.24470
 Alpha virt. eigenvalues --    1.24822   1.25263   1.25594   1.25727   1.26009
 Alpha virt. eigenvalues --    1.26049   1.26347   1.27218   1.27384   1.27676
 Alpha virt. eigenvalues --    1.28024   1.28283   1.28382   1.28516   1.28883
 Alpha virt. eigenvalues --    1.28917   1.29061   1.29340   1.29673   1.29857
 Alpha virt. eigenvalues --    1.30117   1.30599   1.30831   1.31079   1.31204
 Alpha virt. eigenvalues --    1.31595   1.32138   1.32197   1.32330   1.32536
 Alpha virt. eigenvalues --    1.32850   1.33395   1.33530   1.33767   1.34106
 Alpha virt. eigenvalues --    1.34676   1.34839   1.34902   1.35213   1.35600
 Alpha virt. eigenvalues --    1.35954   1.36169   1.36355   1.36755   1.37261
 Alpha virt. eigenvalues --    1.37616   1.37734   1.38436   1.38587   1.38728
 Alpha virt. eigenvalues --    1.39119   1.39258   1.39294   1.39694   1.40147
 Alpha virt. eigenvalues --    1.40242   1.40307   1.40646   1.40780   1.40933
 Alpha virt. eigenvalues --    1.41291   1.41635   1.41951   1.42713   1.42881
 Alpha virt. eigenvalues --    1.43063   1.43179   1.43715   1.43824   1.44218
 Alpha virt. eigenvalues --    1.44679   1.44805   1.44885   1.45415   1.46025
 Alpha virt. eigenvalues --    1.46145   1.46402   1.46890   1.46902   1.47315
 Alpha virt. eigenvalues --    1.47421   1.48061   1.48518   1.48677   1.48819
 Alpha virt. eigenvalues --    1.48861   1.49142   1.49993   1.50043   1.50636
 Alpha virt. eigenvalues --    1.50879   1.50981   1.51273   1.51959   1.52379
 Alpha virt. eigenvalues --    1.52717   1.52745   1.53466   1.53635   1.54407
 Alpha virt. eigenvalues --    1.54492   1.54795   1.54896   1.55239   1.55587
 Alpha virt. eigenvalues --    1.56054   1.56234   1.56569   1.56855   1.57087
 Alpha virt. eigenvalues --    1.57848   1.58008   1.58766   1.59121   1.59249
 Alpha virt. eigenvalues --    1.59434   1.59500   1.59956   1.60070   1.60450
 Alpha virt. eigenvalues --    1.61214   1.61773   1.61806   1.62471   1.62594
 Alpha virt. eigenvalues --    1.62796   1.62826   1.63224   1.64010   1.64436
 Alpha virt. eigenvalues --    1.64467   1.64945   1.65024   1.65328   1.66350
 Alpha virt. eigenvalues --    1.66563   1.66593   1.66738   1.66893   1.67495
 Alpha virt. eigenvalues --    1.67624   1.67720   1.68176   1.68302   1.69175
 Alpha virt. eigenvalues --    1.69364   1.69635   1.69719   1.69785   1.70119
 Alpha virt. eigenvalues --    1.70242   1.70487   1.70765   1.71336   1.71649
 Alpha virt. eigenvalues --    1.71695   1.71863   1.72020   1.72067   1.72622
 Alpha virt. eigenvalues --    1.72841   1.73055   1.73086   1.73211   1.73290
 Alpha virt. eigenvalues --    1.73532   1.73919   1.74109   1.74434   1.74447
 Alpha virt. eigenvalues --    1.74806   1.74880   1.74979   1.75251   1.75420
 Alpha virt. eigenvalues --    1.75496   1.75644   1.75696   1.75800   1.76032
 Alpha virt. eigenvalues --    1.76289   1.76328   1.76914   1.77033   1.77322
 Alpha virt. eigenvalues --    1.77419   1.77554   1.77563   1.78015   1.78196
 Alpha virt. eigenvalues --    1.78338   1.78599   1.78684   1.78821   1.79051
 Alpha virt. eigenvalues --    1.79332   1.79602   1.79632   1.79687   1.79811
 Alpha virt. eigenvalues --    1.79877   1.80223   1.80431   1.80526   1.80850
 Alpha virt. eigenvalues --    1.81031   1.81252   1.81361   1.81452   1.81787
 Alpha virt. eigenvalues --    1.81859   1.81959   1.82257   1.82397   1.82595
 Alpha virt. eigenvalues --    1.82661   1.82854   1.82925   1.83274   1.83471
 Alpha virt. eigenvalues --    1.83786   1.83914   1.84179   1.84378   1.84460
 Alpha virt. eigenvalues --    1.84584   1.84739   1.84880   1.85162   1.85716
 Alpha virt. eigenvalues --    1.85743   1.85941   1.86206   1.86384   1.86413
 Alpha virt. eigenvalues --    1.86466   1.86516   1.86631   1.86901   1.87120
 Alpha virt. eigenvalues --    1.87617   1.87870   1.87962   1.88168   1.88373
 Alpha virt. eigenvalues --    1.88660   1.88740   1.88864   1.89002   1.89175
 Alpha virt. eigenvalues --    1.89343   1.89528   1.89723   1.89918   1.90054
 Alpha virt. eigenvalues --    1.90299   1.90534   1.90582   1.90998   1.91017
 Alpha virt. eigenvalues --    1.91289   1.91679   1.91834   1.91870   1.92163
 Alpha virt. eigenvalues --    1.92397   1.92676   1.92718   1.92855   1.93180
 Alpha virt. eigenvalues --    1.93266   1.93537   1.93779   1.93898   1.94025
 Alpha virt. eigenvalues --    1.94106   1.94371   1.94695   1.94717   1.95130
 Alpha virt. eigenvalues --    1.95201   1.95565   1.95762   1.95912   1.96138
 Alpha virt. eigenvalues --    1.96166   1.96247   1.96750   1.96959   1.97153
 Alpha virt. eigenvalues --    1.97328   1.97764   1.97902   1.97939   1.98217
 Alpha virt. eigenvalues --    1.98409   1.98915   1.99001   1.99113   1.99375
 Alpha virt. eigenvalues --    1.99598   2.00087   2.00411   2.00793   2.01176
 Alpha virt. eigenvalues --    2.01466   2.01606   2.01954   2.01972   2.02409
 Alpha virt. eigenvalues --    2.02523   2.03092   2.03252   2.03412   2.03641
 Alpha virt. eigenvalues --    2.03939   2.04582   2.04912   2.05116   2.05176
 Alpha virt. eigenvalues --    2.05495   2.05544   2.06056   2.06202   2.06234
 Alpha virt. eigenvalues --    2.06571   2.07063   2.07173   2.07380   2.07508
 Alpha virt. eigenvalues --    2.08167   2.08359   2.08856   2.08969   2.09133
 Alpha virt. eigenvalues --    2.09176   2.09418   2.09578   2.09927   2.09992
 Alpha virt. eigenvalues --    2.10119   2.11001   2.11290   2.11361   2.11606
 Alpha virt. eigenvalues --    2.11731   2.12162   2.12416   2.12557   2.12704
 Alpha virt. eigenvalues --    2.13094   2.13347   2.13392   2.13462   2.13613
 Alpha virt. eigenvalues --    2.14232   2.14599   2.14737   2.15318   2.15568
 Alpha virt. eigenvalues --    2.15785   2.15994   2.16317   2.16353   2.16372
 Alpha virt. eigenvalues --    2.16628   2.16954   2.17132   2.17137   2.17309
 Alpha virt. eigenvalues --    2.17492   2.17657   2.18459   2.18615   2.18762
 Alpha virt. eigenvalues --    2.19353   2.19736   2.20303   2.20752   2.21186
 Alpha virt. eigenvalues --    2.21382   2.21952   2.22173   2.22361   2.22602
 Alpha virt. eigenvalues --    2.22700   2.23089   2.23307   2.23795   2.23989
 Alpha virt. eigenvalues --    2.24420   2.25544   2.25673   2.25834   2.26233
 Alpha virt. eigenvalues --    2.27198   2.27348   2.27821   2.28182   2.28386
 Alpha virt. eigenvalues --    2.28456   2.28574   2.28803   2.29188   2.29576
 Alpha virt. eigenvalues --    2.29627   2.29702   2.30169   2.30410   2.30877
 Alpha virt. eigenvalues --    2.31047   2.31281   2.31802   2.31974   2.32343
 Alpha virt. eigenvalues --    2.32371   2.32907   2.33032   2.33227   2.33754
 Alpha virt. eigenvalues --    2.34120   2.34537   2.35049   2.35199   2.35597
 Alpha virt. eigenvalues --    2.35916   2.36004   2.36135   2.36616   2.36799
 Alpha virt. eigenvalues --    2.37091   2.37124   2.37550   2.38151   2.38638
 Alpha virt. eigenvalues --    2.38801   2.39250   2.39474   2.39638   2.39984
 Alpha virt. eigenvalues --    2.40610   2.40882   2.41252   2.41744   2.41803
 Alpha virt. eigenvalues --    2.42170   2.42439   2.42804   2.43254   2.43269
 Alpha virt. eigenvalues --    2.43644   2.43994   2.44219   2.44415   2.45337
 Alpha virt. eigenvalues --    2.45623   2.45818   2.45939   2.47167   2.47352
 Alpha virt. eigenvalues --    2.47846   2.48147   2.48743   2.49205   2.49304
 Alpha virt. eigenvalues --    2.49562   2.50064   2.50466   2.50685   2.51010
 Alpha virt. eigenvalues --    2.51523   2.51677   2.53015   2.53270   2.53889
 Alpha virt. eigenvalues --    2.54020   2.54543   2.55063   2.55667   2.55788
 Alpha virt. eigenvalues --    2.56004   2.56018   2.56447   2.56901   2.57004
 Alpha virt. eigenvalues --    2.57153   2.57815   2.58186   2.58295   2.58520
 Alpha virt. eigenvalues --    2.58975   2.59167   2.59317   2.59702   2.59803
 Alpha virt. eigenvalues --    2.59957   2.60444   2.61097   2.61193   2.61606
 Alpha virt. eigenvalues --    2.61671   2.61769   2.62221   2.62497   2.62838
 Alpha virt. eigenvalues --    2.63120   2.63173   2.63276   2.63898   2.64291
 Alpha virt. eigenvalues --    2.64492   2.64677   2.65110   2.65335   2.65541
 Alpha virt. eigenvalues --    2.65901   2.66397   2.66428   2.66850   2.67763
 Alpha virt. eigenvalues --    2.67850   2.68350   2.68440   2.68758   2.69580
 Alpha virt. eigenvalues --    2.69722   2.70437   2.70449   2.70579   2.70858
 Alpha virt. eigenvalues --    2.71092   2.71592   2.71662   2.71829   2.71875
 Alpha virt. eigenvalues --    2.71968   2.72129   2.72779   2.72967   2.73500
 Alpha virt. eigenvalues --    2.74179   2.74316   2.74609   2.74787   2.75265
 Alpha virt. eigenvalues --    2.75298   2.75360   2.75466   2.75690   2.75967
 Alpha virt. eigenvalues --    2.76068   2.76337   2.76449   2.77309   2.77419
 Alpha virt. eigenvalues --    2.78336   2.78364   2.78491   2.78778   2.79172
 Alpha virt. eigenvalues --    2.79394   2.79468   2.79602   2.79730   2.79771
 Alpha virt. eigenvalues --    2.80064   2.80879   2.80941   2.81326   2.81582
 Alpha virt. eigenvalues --    2.81687   2.82433   2.82664   2.82685   2.82891
 Alpha virt. eigenvalues --    2.83006   2.83443   2.83868   2.84055   2.84322
 Alpha virt. eigenvalues --    2.84731   2.85071   2.85140   2.85518   2.85954
 Alpha virt. eigenvalues --    2.85967   2.86387   2.86502   2.86691   2.87017
 Alpha virt. eigenvalues --    2.87149   2.87405   2.87784   2.88017   2.89272
 Alpha virt. eigenvalues --    2.89328   2.89477   2.89753   2.89848   2.90222
 Alpha virt. eigenvalues --    2.90427   2.90583   2.90664   2.90916   2.91362
 Alpha virt. eigenvalues --    2.91781   2.92404   2.92688   2.92799   2.93341
 Alpha virt. eigenvalues --    2.93530   2.94474   2.94641   2.94934   2.94941
 Alpha virt. eigenvalues --    2.95341   2.95716   2.96021   2.96243   2.96407
 Alpha virt. eigenvalues --    2.96722   2.97289   2.97455   2.97574   2.98112
 Alpha virt. eigenvalues --    2.98351   2.98693   2.98715   2.99781   2.99951
 Alpha virt. eigenvalues --    3.00425   3.01091   3.01356   3.01492   3.01907
 Alpha virt. eigenvalues --    3.01939   3.02498   3.02995   3.03259   3.03689
 Alpha virt. eigenvalues --    3.03868   3.04228   3.04374   3.04495   3.04674
 Alpha virt. eigenvalues --    3.04763   3.05021   3.05180   3.05840   3.06319
 Alpha virt. eigenvalues --    3.06763   3.07541   3.08019   3.08146   3.08367
 Alpha virt. eigenvalues --    3.08601   3.09017   3.09245   3.09828   3.10989
 Alpha virt. eigenvalues --    3.12302   3.12474   3.12762   3.12839   3.12923
 Alpha virt. eigenvalues --    3.13311   3.13738   3.14010   3.14209   3.14536
 Alpha virt. eigenvalues --    3.15462   3.15733   3.16311   3.16558   3.17086
 Alpha virt. eigenvalues --    3.17167   3.17177   3.18008   3.18111   3.18192
 Alpha virt. eigenvalues --    3.18564   3.18654   3.19676   3.19756   3.19920
 Alpha virt. eigenvalues --    3.20272   3.20962   3.21183   3.21372   3.21514
 Alpha virt. eigenvalues --    3.21801   3.21994   3.23016   3.23221   3.23457
 Alpha virt. eigenvalues --    3.23513   3.24531   3.24548   3.25638   3.26253
 Alpha virt. eigenvalues --    3.26785   3.27326   3.27516   3.27899   3.29493
 Alpha virt. eigenvalues --    3.31316   3.31463   3.31474   3.32286   3.33337
 Alpha virt. eigenvalues --    3.33378   3.34018   3.34580   3.36208   3.36777
 Alpha virt. eigenvalues --    3.37065   3.38946   3.41301   3.45318   3.49067
 Alpha virt. eigenvalues --    3.52348   3.52418   3.54543   3.54869   3.55041
 Alpha virt. eigenvalues --    3.56567   3.56976   3.57243   3.57945   3.58621
 Alpha virt. eigenvalues --    3.59653   3.60469   3.61611   3.62611   3.63221
 Alpha virt. eigenvalues --    3.63703   3.64204   3.66062   3.66822   3.67114
 Alpha virt. eigenvalues --    3.67230   3.68165   3.68523   3.68795   3.69264
 Alpha virt. eigenvalues --    3.69666   3.69752   3.70196   3.70865   3.71040
 Alpha virt. eigenvalues --    3.71098   3.71269   3.71736   3.71958   3.74814
 Alpha virt. eigenvalues --    3.74996   3.76170   3.79049   3.83050
          Condensed to atoms (all electrons):
 Mulliken charges:
               1
     1  C    0.055407
     2  C    0.000752
     3  O   -0.312772
     4  H    0.039494
     5  H   -0.002918
     6  H    0.012926
     7  N   -0.144167
     8  C    0.104147
     9  C    0.104720
    10  O   -0.294083
    11  C    0.104863
    12  C    0.074152
    13  O   -0.411462
    14  O   -0.336962
    15  H    0.111542
    16  H   -0.030126
    17  H   -0.005858
    18  H   -0.022697
    19  N   -0.108956
    20  C    0.114513
    21  C    0.087150
    22  O   -0.224247
    23  C    0.039675
    24  C    0.023060
    25  C   -0.023093
    26  C   -0.042463
    27  N    0.096921
    28  H    0.111953
    29  H    0.005410
    30  H    0.004032
    31  H    0.033101
    32  H   -0.001063
    33  H   -0.004214
    34  H    0.044395
    35  H    0.025807
    36  H    0.082317
    37  H    0.085246
    38  H    0.188609
    39  H    0.199906
    40  H    0.184682
    41  N   -0.137844
    42  C    0.113366
    43  C    0.119966
    44  O   -0.295423
    45  C    0.074080
    46  C    0.057826
    47  O   -0.329617
    48  O   -0.505901
    49  H    0.118731
    50  H    0.032777
    51  H    0.018008
    52  H   -0.022482
    53  N   -0.144707
    54  C    0.203228
    55  C    0.042435
    56  O   -0.300331
    57  H    0.118840
    58  H    0.058735
    59  H    0.010494
    60  N   -0.119513
    61  C    0.131992
    62  C    0.089990
    63  O   -0.293589
    64  C    0.122377
    65  C   -0.030758
    66  N   -0.034005
    67  O   -0.301069
    68  H    0.127837
    69  H   -0.017028
    70  H   -0.000478
    71  H    0.025091
    72  H    0.121166
    73  H    0.121885
    74  N   -0.100825
    75  C    0.185364
    76  C    0.041293
    77  O   -0.250291
    78  H    0.128720
    79  H    0.024193
    80  H    0.037671
    81  N   -0.136558
    82  C    0.085110
    83  C    0.106592
    84  O   -0.271078
    85  C    0.181556
    86  C   -0.057104
    87  C   -0.008300
    88  C   -0.015652
    89  C   -0.049530
    90  C   -0.058148
    91  C    0.205800
    92  O   -0.200701
    93  H    0.119594
    94  H    0.010252
    95  H    0.014086
    96  H   -0.000309
    97  H   -0.009799
    98  H   -0.036028
    99  H   -0.020125
   100  H   -0.042500
   101  H    0.175957
   102  N   -0.090826
   103  C    0.154790
   104  C    0.012424
   105  O   -0.270394
   106  C   -0.091837
   107  C    0.027477
   108  C    0.028164
   109  C    0.030469
   110  H    0.126646
   111  H   -0.003784
   112  H   -0.009677
   113  H    0.017570
   114  H   -0.006371
   115  H    0.001762
   116  H    0.012250
   117  H    0.005873
   118  H   -0.006213
   119  H    0.036689
   120  H   -0.019025
   121  N   -0.137211
   122  C    0.110769
   123  C    0.075150
   124  O   -0.261390
   125  C    0.198368
   126  O   -0.312962
   127  H    0.139494
   128  H    0.007804
   129  H    0.014031
   130  H   -0.003845
   131  H    0.174894
   132  N   -0.113523
   133  C    0.044903
   134  C    0.074874
   135  O   -0.264125
   136  C    0.085632
   137  H    0.122750
   138  H    0.010372
   139  H    0.013754
   140  H   -0.003850
   141  H    0.022100
   142  N   -0.135425
   143  C    0.076371
   144  C    0.042722
   145  O   -0.269113
   146  C    0.073557
   147  H    0.132940
   148  H   -0.000027
   149  H    0.049621
   150  H    0.028614
   151  H   -0.013458
   152  N   -0.156115
   153  C    0.091394
   154  C    0.101583
   155  O   -0.288581
   156  C    0.031014
   157  C    0.075672
   158  C    0.084559
   159  O   -0.421193
   160  O   -0.416650
   161  H    0.124634
   162  H    0.005846
   163  H    0.003562
   164  H    0.030866
   165  H    0.014377
   166  H   -0.010945
   167  N   -0.139876
   168  C    0.112954
   169  H    0.037833
   170  H    0.030716
   171  H    0.020643
   172  H    0.116867
   173  Ca   1.330803
   174  O   -0.322057
   175  H    0.189840
   176  H    0.207459
 Sum of Mulliken charges =   0.00000
 Mulliken charges with hydrogens summed into heavy atoms:
               1
     1  C    0.104909
     2  C    0.000752
     3  O   -0.312772
     7  N   -0.032625
     8  C    0.074021
     9  C    0.104720
    10  O   -0.294083
    11  C    0.076308
    12  C    0.074152
    13  O   -0.411462
    14  O   -0.336962
    19  N    0.002997
    20  C    0.119922
    21  C    0.087150
    22  O   -0.224247
    23  C    0.076809
    24  C    0.017783
    25  C    0.047109
    26  C    0.125100
    27  N    0.670118
    41  N   -0.019113
    42  C    0.146143
    43  C    0.119966
    44  O   -0.295423
    45  C    0.069606
    46  C    0.057826
    47  O   -0.329617
    48  O   -0.505901
    53  N   -0.025867
    54  C    0.272457
    55  C    0.042435
    56  O   -0.300331
    60  N    0.008324
    61  C    0.114963
    62  C    0.089990
    63  O   -0.293589
    64  C    0.146991
    65  C   -0.030758
    66  N    0.209045
    67  O   -0.301069
    74  N    0.027894
    75  C    0.247227
    76  C    0.041293
    77  O   -0.250291
    81  N   -0.016964
    82  C    0.095362
    83  C    0.106592
    84  O   -0.271078
    85  C    0.195333
    86  C   -0.057104
    87  C   -0.018099
    88  C   -0.051680
    89  C   -0.069655
    90  C   -0.100649
    91  C    0.205800
    92  O   -0.024744
[...]
 **** Fit       0.067224
 **** Fit       0.065541
 **** Fit       0.063221
 **** Fit       0.060588
 **** Fit       0.058062
 **** Fit       0.056093
 **** Fit       0.055047
 **** Fit       0.055076
 **** Fit       0.056049
 **** Fit       0.057591
 **** Fit       0.059202
 **** Fit       0.060373
 **** Fit       0.060633
 **** Fit       0.054998
 **** Fit       0.056632
 **** Fit       0.059279
 **** Fit       0.062191
 **** Fit       0.064826
 **** Fit       0.065005
 **** Fit       0.066363
 **** Fit       0.066644
 **** Fit       0.065849
 **** Fit       0.064048
 **** Fit       0.061389
 **** Fit       0.058120
 **** Fit       0.054607
 **** Fit       0.051329
 **** Fit       0.048819
 **** Fit       0.047532
 **** Fit       0.047684
 **** Fit       0.049161
 **** Fit       0.051552
 **** Fit       0.054303
 **** Fit       0.056871
 **** Fit       0.058815
 **** Fit       0.059785
 **** Fit       0.048910
 **** Fit       0.052062
 **** Fit       0.055798
 **** Fit       0.059482
 **** Fit       0.062652
 **** Fit       0.062800
 **** Fit       0.064421
 **** Fit       0.064876
 **** Fit       0.064163
 **** Fit       0.062323
 **** Fit       0.059443
 **** Fit       0.055680
 **** Fit       0.051297
 **** Fit       0.046699
 **** Fit       0.042444
 **** Fit       0.039186
 **** Fit       0.037513
 **** Fit       0.037739
 **** Fit       0.039766
 **** Fit       0.043111
 **** Fit       0.047103
 **** Fit       0.051098
 **** Fit       0.054616
 **** Fit       0.057353
 **** Fit       0.059138
 **** Fit       0.038689
 **** Fit       0.042432
 **** Fit       0.047079
 **** Fit       0.051904
 **** Fit       0.056360
 **** Fit       0.060070
 **** Fit       0.060202
 **** Fit       0.062094
 **** Fit       0.062743
 **** Fit       0.062153
 **** Fit       0.060346
 **** Fit       0.057361
 **** Fit       0.053274
 **** Fit       0.048224
 **** Fit       0.042474
 **** Fit       0.036472
 **** Fit       0.037213
 **** Fit       0.042846
 **** Fit       0.048016
 **** Fit       0.052399
 **** Fit       0.055878
 **** Fit       0.058475
 **** Fit       0.060302
 **** Fit       0.025391
 **** Fit       0.029845
 **** Fit       0.035567
 **** Fit       0.041716
 **** Fit       0.047630
 **** Fit       0.052852
 **** Fit       0.057096
 **** Fit       0.057221
 **** Fit       0.059442
 **** Fit       0.060248
 **** Fit       0.059654
 **** Fit       0.057677
 **** Fit       0.054327
 **** Fit       0.049615
 **** Fit       0.043586
 **** Fit       0.036385
 **** Fit       0.037210
 **** Fit       0.043877
 **** Fit       0.049379
 **** Fit       0.053778
 **** Fit       0.057274
 **** Fit       0.060174
 **** Fit       0.007076
 **** Fit       0.011750
 **** Fit       0.018700
 **** Fit       0.026722
 **** Fit       0.034792
 **** Fit       0.042205
 **** Fit       0.048540
 **** Fit       0.053577
 **** Fit       0.053864
 **** Fit       0.056409
 **** Fit       0.057379
 **** Fit       0.056812
 **** Fit       0.054725
 **** Fit       0.051100
 **** Fit       0.045885
 **** Fit       0.039008
 **** Fit       0.039695
 **** Fit       0.046152
 **** Fit       0.051282
 **** Fit       0.055458
 **** Fit       0.059130
 **** Fit       0.062917
 **** Fit       0.006163
 **** Fit       0.017044
 **** Fit       0.027338
 **** Fit       0.036380
 **** Fit       0.043866
 **** Fit       0.049696
 **** Fit       0.050137
 **** Fit       0.053013
 **** Fit       0.054114
 **** Fit       0.053509
 **** Fit       0.051221
 **** Fit       0.047210
 **** Fit       0.041359
 **** Fit       0.033465
 **** Fit       0.038813
 **** Fit       0.045338
 **** Fit       0.050503
 **** Fit       0.054849
 **** Fit       0.058961
 **** Fit       0.005551
 **** Fit       0.018698
 **** Fit       0.029757
 **** Fit       0.038629
 **** Fit       0.045383
 **** Fit       0.046039
 **** Fit       0.049189
 **** Fit       0.050394
 **** Fit       0.049762
 **** Fit       0.047333
 **** Fit       0.043058
 **** Fit       0.036773
 **** Fit       0.038308
 **** Fit       0.044383
 **** Fit       0.049253
 **** Fit       0.053501
 **** Fit       0.057721
 **** Fit       0.009958
 **** Fit       0.023028
 **** Fit       0.033201
 **** Fit       0.040782
 **** Fit       0.041551
 **** Fit       0.044959
 **** Fit       0.046147
 **** Fit       0.045274
 **** Fit       0.042407
 **** Fit       0.037494
 **** Fit       0.030304
 **** Fit       0.036712
 **** Fit       0.042318
 **** Fit       0.046845
 **** Fit       0.050857
 **** Fit       0.054874
 **** Fit       0.015020
 **** Fit       0.026990
 **** Fit       0.035676
 **** Fit       0.036625
 **** Fit       0.040136
 **** Fit       0.041202
 **** Fit       0.040044
 **** Fit       0.036778
 **** Fit       0.031382
 **** Fit       0.034685
 **** Fit       0.039433
 **** Fit       0.043320
 **** Fit       0.046756
 **** Fit       0.050046
 **** Fit       0.007390
 **** Fit       0.020817
 **** Fit       0.030340
 **** Fit       0.031163
 **** Fit       0.034589
 **** Fit       0.035327
 **** Fit       0.033678
 **** Fit       0.029842
 **** Fit       0.023890
 **** Fit       0.033352
 **** Fit       0.036803
 **** Fit       0.039679
 **** Fit       0.042081
 **** Fit       0.043948
 **** Fit       0.014434
 **** Fit       0.024636
 **** Fit       0.025002
 **** Fit       0.028015
 **** Fit       0.028195
 **** Fit       0.025927
 **** Fit       0.021546
 **** Fit       0.029313
 **** Fit       0.031635
 **** Fit       0.033273
 **** Fit       0.033965
 **** Fit       0.033256
 **** Fit       0.030476
 **** Fit       0.008482
 **** Fit       0.018691
 **** Fit       0.017897
 **** Fit       0.020100
 **** Fit       0.019179
 **** Fit       0.020420
 **** Fit       0.022466
 **** Fit       0.023641
 **** Fit       0.023467
 **** Fit       0.021358
 **** Fit       0.012040
 **** Fit       0.009513
 **** Fit       0.012952
 **** Fit       0.012349
 **** Fit       0.004863
 **** Fit       0.049825
 **** Fit       0.048402
 **** Fit       0.051487
 **** Fit       0.050314
 **** Fit       0.048370
 **** Fit       0.046641
 **** Fit       0.046420
 **** Fit       0.053100
 **** Fit       0.053399
 **** Fit       0.052608
 **** Fit       0.050553
 **** Fit       0.047896
 **** Fit       0.045632
 **** Fit       0.044545
 **** Fit       0.044982
 **** Fit       0.054772
 **** Fit       0.056750
 **** Fit       0.057799
 **** Fit       0.057253
 **** Fit       0.055074
 **** Fit       0.051835
 **** Fit       0.048397
 **** Fit       0.045535
 **** Fit       0.043740
 **** Fit       0.043213
 **** Fit       0.043940
 **** Fit       0.045780
 **** Fit       0.053069
 **** Fit       0.056794
 **** Fit       0.060804
 **** Fit       0.064034
 **** Fit       0.065523
 **** Fit       0.064760
 **** Fit       0.061900
 **** Fit       0.057673
 **** Fit       0.053029
 **** Fit       0.048793
 **** Fit       0.045500
 **** Fit       0.043398
 **** Fit       0.042528
 **** Fit       0.042803
 **** Fit       0.044065
 **** Fit       0.046136
 **** Fit       0.053381
 **** Fit       0.059468
 **** Fit       0.058990
 **** Fit       0.053207
 **** Fit       0.048549
 **** Fit       0.045224
 **** Fit       0.043236
 **** Fit       0.042473
 **** Fit       0.042764
 **** Fit       0.043911
 **** Fit       0.045720
 **** Fit       0.048023
 **** Fit       0.048771
 **** Fit       0.053891
 **** Fit       0.059925
 **** Fit       0.053601
 **** Fit       0.048873
 **** Fit       0.045669
 **** Fit       0.043827
 **** Fit       0.043145
 **** Fit       0.043407
 **** Fit       0.044390
 **** Fit       0.045890
 **** Fit       0.047732
 **** Fit       0.046839
 **** Fit       0.058638
 **** Fit       0.052710
 **** Fit       0.048610
 **** Fit       0.046062
 **** Fit       0.044797
 **** Fit       0.044552
 **** Fit       0.045071
 **** Fit       0.046106
 **** Fit       0.047441
 **** Fit       0.048906
 **** Fit       0.050387
 **** Fit       0.037327
 **** Fit       0.044474
 **** Fit       0.053853
 **** Fit       0.049943
 **** Fit       0.047690
 **** Fit       0.046730
 **** Fit       0.046726
 **** Fit       0.024663
 **** Fit       0.030807
 **** Fit       0.055408
 **** Fit       0.051871
 **** Fit       0.049998
 **** Fit       0.010391
 **** Fit       0.014010
 **** Fit       0.022333
 **** Fit       0.060326
 **** Fit       0.055929
 **** Fit       0.001226
 **** Fit      -0.003281
 **** Fit      -0.000165
 **** Fit       0.035214
 **** Fit       0.007321
 **** Fit       0.026904
 **** Fit       0.019869
 **** Fit       0.046968
 **** Fit       0.046672
 **** Fit       0.046823
 **** Fit       0.047366
 **** Fit       0.048319
 **** Fit       0.049763
 **** Fit       0.047967
 **** Fit       0.046518
 **** Fit       0.045687
 **** Fit       0.045286
 **** Fit       0.045211
 **** Fit       0.045424
 **** Fit       0.045946
 **** Fit       0.046828
 **** Fit       0.048120
 **** Fit       0.050669
 **** Fit       0.047830
 **** Fit       0.045944
 **** Fit       0.044687
 **** Fit       0.043839
 **** Fit       0.043266
 **** Fit       0.042900
 **** Fit       0.042730
 **** Fit       0.042770
 **** Fit       0.043021
 **** Fit       0.043433
 **** Fit       0.059073
 **** Fit       0.053077
 **** Fit       0.049052
 **** Fit       0.046294
 **** Fit       0.044357
 **** Fit       0.042941
 **** Fit       0.041841
 **** Fit       0.040933
 **** Fit       0.040168
 **** Fit       0.039539
 **** Fit       0.039049
 **** Fit       0.038657
 **** Fit       0.038233
 **** Fit       0.037549
 **** Fit       0.057492
 **** Fit       0.051466
 **** Fit       0.047379
 **** Fit       0.044515
 **** Fit       0.042416
 **** Fit       0.040764
 **** Fit       0.039353
 **** Fit       0.038080
 **** Fit       0.036917
 **** Fit       0.035877
 **** Fit       0.034934
 **** Fit       0.033963
 **** Fit       0.032700
 **** Fit       0.030746
 **** Fit       0.059831
 **** Fit       0.052300
 **** Fit       0.047256
 **** Fit       0.043732
 **** Fit       0.041128
 **** Fit       0.039036
 **** Fit       0.037197
 **** Fit       0.035489
 **** Fit       0.033896
 **** Fit       0.032442
 **** Fit       0.031086
 **** Fit       0.029631
 **** Fit       0.027680
 **** Fit       0.024658
 **** Fit       0.052764
 **** Fit       0.046888
 **** Fit       0.042779
 **** Fit       0.039714
 **** Fit       0.037218
 **** Fit       0.034992
 **** Fit       0.032909
 **** Fit       0.030971
 **** Fit       0.029216
 **** Fit       0.027584
 **** Fit       0.025814
 **** Fit       0.047051
 **** Fit       0.041982
 **** Fit       0.038253
 **** Fit       0.035228
 **** Fit       0.032532
 **** Fit       0.030031
 **** Fit       0.027757
 **** Fit       0.025741
 **** Fit       0.046694
 **** Fit       0.040843
 **** Fit       0.036546
 **** Fit       0.033053
 **** Fit       0.029941
 **** Fit       0.027081
 **** Fit       0.024507
 **** Fit       0.042129
 **** Fit       0.036634
 **** Fit       0.032296
 **** Fit       0.028509
 **** Fit       0.024980
 **** Fit       0.033515
 **** Fit       0.028803
 **** Fit       0.024120
 **** Fit       0.047241
 **** Fit       0.047396
 **** Fit       0.048077
 **** Fit       0.047590
 **** Fit       0.047027
 **** Fit       0.046616
 **** Fit       0.046549
 **** Fit       0.047442
 **** Fit       0.048840
 **** Fit       0.049313
 **** Fit       0.048644
 **** Fit       0.047644
 **** Fit       0.047051
 **** Fit       0.046811
 **** Fit       0.046541
 **** Fit       0.046079
 **** Fit       0.045592
 **** Fit       0.045468
 **** Fit       0.046089
 **** Fit       0.047330
 **** Fit       0.049390
 **** Fit       0.050912
 **** Fit       0.051237
 **** Fit       0.046806
 **** Fit       0.046659
 **** Fit       0.046664
 **** Fit       0.046536
 **** Fit       0.046156
 **** Fit       0.045547
 **** Fit       0.044832
 **** Fit       0.044211
 **** Fit       0.043950
 **** Fit       0.044321
 **** Fit       0.045483
 **** Fit       0.046998
 **** Fit       0.049913
 **** Fit       0.052577
 **** Fit       0.046399
 **** Fit       0.046616
 **** Fit       0.046690
 **** Fit       0.046490
 **** Fit       0.045997
 **** Fit       0.045257
 **** Fit       0.044349
 **** Fit       0.043385
 **** Fit       0.042528
 **** Fit       0.041988
 **** Fit       0.042008
 **** Fit       0.042809
 **** Fit       0.044503
 **** Fit       0.046360
 **** Fit       0.050417
 **** Fit       0.046899
 **** Fit       0.047009
 **** Fit       0.046772
 **** Fit       0.046206
 **** Fit       0.045366
 **** Fit       0.044314
 **** Fit       0.043114
 **** Fit       0.041854
 **** Fit       0.040659
 **** Fit       0.039712
 **** Fit       0.039242
 **** Fit       0.039503
 **** Fit       0.040720
 **** Fit       0.043022
 **** Fit       0.045283
 **** Fit       0.047752
 **** Fit       0.047383
 **** Fit       0.046665
 **** Fit       0.045674
 **** Fit       0.044471
 **** Fit       0.043102
 **** Fit       0.041605
 **** Fit       0.040037
 **** Fit       0.038494
 **** Fit       0.037125
 **** Fit       0.036134
 **** Fit       0.035772
 **** Fit       0.036308
 **** Fit       0.037987
 **** Fit       0.040974
 **** Fit       0.049139
 **** Fit       0.048441
 **** Fit       0.047358
 **** Fit       0.046005
 **** Fit       0.044459
 **** Fit       0.042760
 **** Fit       0.040924
 **** Fit       0.038970
 **** Fit       0.036948
 **** Fit       0.034966
 **** Fit       0.033201
 **** Fit       0.031901
 **** Fit       0.031379
 **** Fit       0.031983
 **** Fit       0.034054
 **** Fit       0.037865
 **** Fit       0.050238
 **** Fit       0.048596
 **** Fit       0.046727
 **** Fit       0.044725
 **** Fit       0.042625
 **** Fit       0.040419
 **** Fit       0.038085
 **** Fit       0.035623
 **** Fit       0.033081
 **** Fit       0.030581
 **** Fit       0.028330
 **** Fit       0.026624
 **** Fit       0.025848
 **** Fit       0.026446
 **** Fit       0.028879
 **** Fit       0.033563
 **** Fit       0.049147
 **** Fit       0.046453
 **** Fit       0.043763
 **** Fit       0.041061
 **** Fit       0.038289
 **** Fit       0.035380
 **** Fit       0.032301
 **** Fit       0.029084
 **** Fit       0.025852
 **** Fit       0.022834
 **** Fit       0.020388
 **** Fit       0.019000
 **** Fit       0.019269
 **** Fit       0.021850
 **** Fit       0.045114
 **** Fit       0.041516
 **** Fit       0.037973
 **** Fit       0.034336
 **** Fit       0.030485
 **** Fit       0.026372
 **** Fit       0.022065
 **** Fit       0.017774
 **** Fit       0.013904
 **** Fit       0.011092
 **** Fit       0.010207
 **** Fit       0.039875
 **** Fit       0.035246
 **** Fit       0.030492
 **** Fit       0.025398
 **** Fit       0.019877
 **** Fit       0.014020
 **** Fit       0.008180
 **** Fit       0.003091
 **** Fit       0.031963
 **** Fit       0.025870
 **** Fit       0.019242
 **** Fit       0.011938
 -----------------------------------------------------------------
 Leave Link  602 at Thu Sep 19 11:01:53 2019, MaxMem=  1342177280 cpu:             130.2 elap:               2.8

 Test job not archived.
 1\1\GINC-C506-132\SP\RB3LYP\SVP\C54H83Ca1N15O23\PENGZHI\19-Sep-2019\0\
 \#b3lyp/svp scf=(tight,noincore,xqc) Test #IOP(5/87=12) Density=Curren
 t Pop=(MK,readradii) iop(6/33=2) iop(6/42=6)\\Ng-293_loop3_12.0\\0,1\C
 ,0,39.81,81.48,66.82\C,0,39.84,81.51,65.29\O,0,40.54,82.35,64.73\H,0,3
 9.,82.115,67.179\H,0,39.648,80.457,67.161\H,0,40.759,81.848,67.21\N,0,
 39.15,80.57,64.64\C,0,38.87,80.5,63.22\C,0,38.9,79.03,62.84\O,0,38.54,
 78.11,63.58\C,0,37.55,81.2,62.93\C,0,37.3,81.19,61.43\O,0,38.27,81.18,
 60.64\O,0,36.1,81.12,61.11\H,0,38.71,79.85,65.2\H,0,39.73,81.03,62.82\
 H,0,37.66,82.23,63.28\H,0,36.73,80.83,63.54\N,0,39.49,78.75,61.67\C,0,
 39.58,77.49,60.96\C,0,38.29,76.77,60.59\O,0,37.23,77.22,61.03\C,0,40.5
 7,76.51,61.57\C,0,41.94,77.15,61.77\C,0,42.71,77.61,60.53\C,0,43.35,78
 .99,60.6\N,0,44.59,79.11,61.38\H,0,39.83,79.56,61.18\H,0,39.98,77.72,5
 9.97\H,0,40.84,75.6,61.03\H,0,40.18,76.15,62.53\H,0,42.58,76.48,62.33\
 H,0,41.81,78.02,62.41\H,0,41.98,77.81,59.74\H,0,43.44,76.89,60.17\H,0,
 42.59,79.55,61.15\H,0,43.41,79.4,59.59\H,0,44.73,80.07,61.65\H,0,44.69
 ,78.47,62.15\H,0,45.34,79.06,60.69\N,0,38.28,75.64,59.88\C,0,37.,75.22
 ,59.33\C,0,35.91,74.88,60.34\O,0,34.76,75.16,60.03\C,0,37.23,74.15,58.
 27\C,0,38.07,74.55,57.06\O,0,38.07,75.71,56.6\O,0,38.84,73.75,56.48\H,
 0,39.14,75.41,59.41\H,0,36.64,76.07,58.75\H,0,36.29,73.82,57.82\H,0,37
 .71,73.29,58.72\N,0,36.32,74.3,61.48\C,0,35.61,74.1,62.72\C,0,34.22,73
 .48,62.72\O,0,33.8,72.86,63.7\H,0,37.25,73.92,61.45\H,0,35.54,75.08,63
 .2\H,0,36.31,73.59,63.38\N,0,33.41,73.63,61.67\C,0,32.03,73.21,61.57\C
 ,0,31.88,71.77,61.08\O,0,32.58,71.4,60.14\C,0,31.23,74.24,60.79\C,0,30
 .49,73.68,59.58\N,0,30.87,74.02,58.35\O,0,29.53,72.92,59.69\H,0,33.8,7
 4.07,60.85\H,0,31.58,73.3,62.56\H,0,31.85,75.06,60.43\H,0,30.51,74.77,
 61.42\H,0,31.59,74.71,58.19\H,0,30.2,73.84,57.61\N,0,30.96,71.02,61.68
 \C,0,30.83,69.58,61.53\C,0,31.53,68.71,62.56\O,0,31.9,69.05,63.68\H,0,
 30.39,71.48,62.38\H,0,31.03,69.23,60.52\H,0,29.74,69.5,61.63\N,0,31.66
 ,67.42,62.26\C,0,32.22,66.31,63.\C,0,33.72,66.35,63.29\O,0,34.25,65.72
 ,64.19\C,0,31.35,65.88,64.17\C,0,29.88,65.72,63.87\C,0,29.03,66.76,64.
 27\C,0,29.32,64.63,63.2\C,0,27.65,66.61,64.08\C,0,27.94,64.48,63.02\C,
 0,27.06,65.49,63.46\O,0,25.72,65.23,63.46\H,0,31.09,67.16,61.46\H,0,32
 .14,65.44,62.35\H,0,31.44,66.62,64.97\H,0,31.72,64.94,64.56\H,0,29.37,
 67.65,64.77\H,0,29.97,63.86,62.79\H,0,27.02,67.41,64.46\H,0,27.56,63.5
 3,62.68\H,0,25.44,64.42,63.04\N,0,34.37,67.22,62.5\C,0,35.79,67.48,62.
 41\C,0,36.62,66.25,62.08\O,0,37.12,66.12,60.97\C,0,36.41,68.21,63.6\C,
 0,35.61,69.46,63.94\C,0,37.83,68.62,63.21\C,0,36.19,70.39,65.\H,0,33.8
 5,67.58,61.72\H,0,36.02,68.08,61.53\H,0,36.44,67.63,64.52\H,0,34.7,69.
 09,64.41\H,0,35.37,70.01,63.03\H,0,38.47,68.79,64.08\H,0,38.38,67.88,6
 2.63\H,0,37.9,69.51,62.59\H,0,37.04,70.94,64.58\H,0,35.49,71.12,65.41\
 H,0,36.5,69.77,65.84\N,0,36.74,65.24,62.95\C,0,37.51,64.02,62.87\C,0,3
 9.01,64.15,63.1\O,0,39.7,63.5,62.33\C,0,36.96,63.03,63.89\O,0,36.87,63
 .56,65.19\H,0,36.12,65.32,63.75\H,0,37.3,63.56,61.91\H,0,37.57,62.13,6
 3.83\H,0,35.93,62.84,63.6\H,0,36.64,62.84,65.79\N,0,39.4,64.82,64.19\C
 ,0,40.74,65.18,64.6\C,0,41.73,65.5,63.5\O,0,42.77,64.86,63.39\C,0,41.2
 6,64.15,65.6\H,0,38.66,65.18,64.77\H,0,40.69,66.07,65.24\H,0,42.33,64.
 27,65.74\H,0,40.71,64.27,66.53\H,0,41.13,63.16,65.16\N,0,41.42,66.49,6
 2.65\C,0,42.18,66.81,61.46\C,0,42.47,68.3,61.35\O,0,41.72,69.11,61.87\
 C,0,41.36,66.4,60.24\H,0,40.72,67.18,62.89\H,0,43.17,66.34,61.41\H,0,4
 0.95,65.39,60.26\H,0,40.48,67.03,60.07\H,0,42.09,66.4,59.43\N,0,43.6,6
 8.62,60.72\C,0,44.17,69.95,60.59\C,0,44.58,70.63,61.89\O,0,44.94,71.81
 ,61.9\C,0,43.25,70.74,59.65\C,0,43.01,70.16,58.26\C,0,42.28,71.01,57.2
 4\O,0,42.49,70.81,56.03\O,0,41.46,71.91,57.55\H,0,44.16,67.86,60.36\H,
 0,45.1,69.76,60.06\H,0,43.76,71.69,59.52\H,0,42.3,70.82,60.17\H,0,42.4
 3,69.26,58.47\H,0,43.97,69.88,57.82\N,0,44.75,69.86,62.96\C,0,44.83,70
 .38,64.31\H,0,45.189,71.409,64.282\H,0,43.842,70.353,64.77\H,0,45.52,6
 9.771,64.894\H,0,44.51,68.88,62.97\Ca,0,40.33,72.28,55.17\O,0,37.99,72
 .02,54.03\H,0,37.5,71.57,54.72\H,0,37.32,72.34,53.42\\Version=ES64L-G1
 6RevA.03\State=1-A\HF=-5333.3258786\RMSD=9.173e-10\Dipole=9.4796285,-5
 .0685415,-4.5638123\Quadrupole=108.4488538,-156.0484504,47.5995966,185
 .2301299,-11.057713,-4.1064912\PG=C01 [X(C54H83Ca1N15O23)]\\@


 The earth never tires,
 The earth is rude, silent, incomprehensible at first,
 Nature is rude and incomprehensible at first,
 Be not discouraged, keep on,
 There are divine things well envelop'd,
 I swear to you there are divine things more beautiful than words can tell.
                                 -- Walt Whitman
 Job cpu time:       1 days  8 hours 46 minutes 15.1 seconds.
 Elapsed time:       0 days  0 hours 41 minutes 56.6 seconds.
 File lengths (MBytes):  RWF=   1658 Int=      0 D2E=      0 Chk=    171 Scr=      1
 Normal termination of Gaussian 16 at Thu Sep 19 11:01:55 2019.
