 Entering Gaussian System, Link 0=g16
 Initial command:
 /home1/apps/gaussian/16rA.03/g16/l1.exe "/scratch/01990/pengzhi/4342289/Gau-146660.inp" -scrdir="/scratch/01990/pengzhi/4342289/"
 Entering Link 1 = /home1/apps/gaussian/16rA.03/g16/l1.exe PID=    146661.
  
 Copyright (c) 1988,1990,1992,1993,1995,1998,2003,2009,2016,
            Gaussian, Inc.  All Rights Reserved.
  
 This is part of the Gaussian(R) 16 program.  It is based on
 the Gaussian(R) 09 system (copyright 2009, Gaussian, Inc.),
 the Gaussian(R) 03 system (copyright 2003, Gaussian, Inc.),
 the Gaussian(R) 98 system (copyright 1998, Gaussian, Inc.),
 the Gaussian(R) 94 system (copyright 1995, Gaussian, Inc.),
 the Gaussian 92(TM) system (copyright 1992, Gaussian, Inc.),
 the Gaussian 90(TM) system (copyright 1990, Gaussian, Inc.),
 the Gaussian 88(TM) system (copyright 1988, Gaussian, Inc.),
 the Gaussian 86(TM) system (copyright 1986, Carnegie Mellon
 University), and the Gaussian 82(TM) system (copyright 1983,
 Carnegie Mellon University). Gaussian is a federally registered
 trademark of Gaussian, Inc.
  
 This software contains proprietary and confidential information,
 including trade secrets, belonging to Gaussian, Inc.
  
 This software is provided under written license and may be
 used, copied, transmitted, or stored only in accord with that
 written license.
  
 The following legend is applicable only to US Government
 contracts under FAR:
  
                    RESTRICTED RIGHTS LEGEND
  
 Use, reproduction and disclosure by the US Government is
 subject to restrictions as set forth in subparagraphs (a)
 and (c) of the Commercial Computer Software - Restricted
 Rights clause in FAR 52.227-19.
  
 Gaussian, Inc.
 340 Quinnipiac St., Bldg. 40, Wallingford CT 06492
  
  
 ---------------------------------------------------------------
 Warning -- This program may not be used in any manner that
 competes with the business of Gaussian, Inc. or will provide
 assistance to any competitor of Gaussian, Inc.  The licensee
 of this program is prohibited from giving any competitor of
 Gaussian, Inc. access to this program.  By using this program,
 the user acknowledges that Gaussian, Inc. is engaged in the
 business of creating and licensing software in the field of
 computational chemistry and represents and warrants to the
 licensee that it is not a competitor of Gaussian, Inc. and that
 it will not use this program in any manner prohibited above.
 ---------------------------------------------------------------
  

 Cite this work as:
 Gaussian 16, Revision A.03,
 M. J. Frisch, G. W. Trucks, H. B. Schlegel, G. E. Scuseria, 
 M. A. Robb, J. R. Cheeseman, G. Scalmani, V. Barone, 
 G. A. Petersson, H. Nakatsuji, X. Li, M. Caricato, A. V. Marenich, 
 J. Bloino, B. G. Janesko, R. Gomperts, B. Mennucci, H. P. Hratchian, 
 J. V. Ortiz, A. F. Izmaylov, J. L. Sonnenberg, D. Williams-Young, 
 F. Ding, F. Lipparini, F. Egidi, J. Goings, B. Peng, A. Petrone, 
 T. Henderson, D. Ranasinghe, V. G. Zakrzewski, J. Gao, N. Rega, 
 G. Zheng, W. Liang, M. Hada, M. Ehara, K. Toyota, R. Fukuda, 
 J. Hasegawa, M. Ishida, T. Nakajima, Y. Honda, O. Kitao, H. Nakai, 
 T. Vreven, K. Throssell, J. A. Montgomery, Jr., J. E. Peralta, 
 F. Ogliaro, M. J. Bearpark, J. J. Heyd, E. N. Brothers, K. N. Kudin, 
 V. N. Staroverov, T. A. Keith, R. Kobayashi, J. Normand, 
 K. Raghavachari, A. P. Rendell, J. C. Burant, S. S. Iyengar, 
 J. Tomasi, M. Cossi, J. M. Millam, M. Klene, C. Adamo, R. Cammi, 
 J. W. Ochterski, R. L. Martin, K. Morokuma, O. Farkas, 
 J. B. Foresman, and D. J. Fox, Gaussian, Inc., Wallingford CT, 2016.
 
 ******************************************
 Gaussian 16:  ES64L-G16RevA.03 25-Dec-2016
                17-Sep-2019 
 ******************************************
 %chk=Ng-293_loop3_22.0.chk
 %nprocshared=48
 Will use up to   48 processors via shared memory.
 %mem=10GB
 %nosave
 ----------------------------------------------------------------------
 #b3lyp/svp scf=(tight,noincore) Test #IOP(5/87=12) Density=Current Pop
 =(MK,readradii) iop(6/33=2) iop(6/42=6)
 ----------------------------------------------------------------------
 1/30=1,38=1,172=1/1;
 2/12=2,17=6,18=5,40=1/2;
 3/5=18,7=101,11=2,25=1,30=1,74=-5/1,2,3;
 4//1;
 5/5=4,32=2,38=5,87=12/2;
 6/7=2,8=2,9=2,10=2,15=8,20=101,22=-1,28=1,33=2,42=6/1,2;
 99/5=1,9=1/99;
 -----------------
 Ng-293_loop3_22.0
 -----------------
 Symbolic Z-matrix:
 Charge =  0 Multiplicity = 1
 C                     40.65     77.67     71.87 
 C                     41.06     77.54     70.41 
 O                     42.07     78.17     70.11 
 H                     39.617    77.344    71.987 
 H                     41.299    77.048    72.487 
 H                     40.739    78.711    72.182 
 N                     40.3      76.87     69.55 
 C                     40.47     76.97     68.11 
 C                     39.98     75.69     67.44 
 O                     39.33     74.85     68.06 
 C                     39.71     78.19     67.62 
 C                     39.98     78.64     66.19 
 O                     41.06     78.25     65.7 
 O                     39.27     79.52     65.66 
 H                     39.6      76.24     69.9 
 H                     41.5      77.17     67.8 
 H                     39.98     79.       68.3 
 H                     38.64     78.06     67.75 
 N                     40.58     75.5      66.27 
 C                     40.38     74.36     65.41 
 C                     38.98     74.34     64.8 
 O                     38.45     75.4      64.48 
 C                     41.       73.1      66. 
 C                     42.52     73.12     66.17 
 C                     43.33     72.91     64.89 
 C                     44.82     73.21     65.03 
 N                     45.2      74.64     65.08 
 H                     41.12     76.28     65.9 
 H                     40.9      74.53     64.47 
 H                     40.72     72.23     65.4 
 H                     40.56     72.72     66.92 
 H                     42.74     72.35     66.91 
 H                     42.75     74.1      66.6 
 H                     43.       73.51     64.05 
 H                     43.21     71.88     64.55 
 H                     45.35     72.74     64.2 
 H                     45.24     72.66     65.87 
 H                     44.65     75.23     65.69 
 H                     46.18     74.71     65.31 
 H                     45.11     75.01     64.14 
 N                     38.35     73.17     64.69 
 C                     37.15     73.01     63.9 
 C                     35.98     72.33     64.6 
 O                     34.93     72.2      63.97 
 C                     37.52     72.18     62.67 
 C                     38.27     70.89     62.98 
 O                     39.29     70.58     62.32 
 O                     37.77     69.95     63.64 
 H                     38.9      72.36     64.93 
 H                     36.77     73.98     63.57 
 H                     38.24     72.75     62.09 
 H                     36.68     71.95     62.02 
 N                     36.1      72.05     65.9 
 C                     35.16     71.46     66.83 
 C                     33.69     71.52     66.44 
 O                     32.95     72.35     66.95 
 H                     36.97     72.35     66.32 
 H                     35.32     71.94     67.8 
 H                     35.39     70.42     67.03 
 N                     33.27     70.55     65.62 
 C                     31.85     70.33     65.45 
 C                     31.64     68.82     65.4 
 O                     32.63     68.15     65.12 
 C                     31.39     71.       64.16 
 C                     31.45     72.52     64.28 
 N                     32.37     73.26     63.65 
 O                     30.6      73.15     64.9 
 H                     33.88     69.8      65.35 
 H                     31.25     70.75     66.26 
 H                     30.34     70.75     64.01 
 H                     31.94     70.58     63.31 
 H                     33.19     72.69     63.51 
 H                     32.4      74.27     63.74 
 N                     30.4      68.33     65.45 
 C                     30.09     66.92     65.46 
 C                     30.06     66.37     66.88 
 O                     30.21     67.14     67.83 
 H                     29.65     68.96     65.72 
 H                     30.89     66.37     64.97 
 H                     29.16     66.76     64.9 
 N                     29.96     65.04     66.87 
 C                     30.03     64.14     68.01 
 C                     31.44     63.73     68.41 
 O                     31.73     63.26     69.5 
 C                     29.27     64.75     69.18 
 C                     28.42     63.82     70.01 
 C                     28.41     63.94     71.4 
 C                     27.7      62.8      69.37 
 C                     27.66     63.01     72.13 
 C                     26.91     61.91     70.11 
 C                     26.92     61.98     71.52 
 O                     26.15     61.18     72.31 
 H                     29.88     64.55     65.99 
 H                     29.54     63.25     67.62 
 H                     28.61     65.56     68.88 
 H                     29.95     65.24     69.88 
 H                     28.9      64.79     71.86 
 H                     27.67     62.63     68.3 
 H                     27.5      63.07     73.2 
 H                     26.29     61.17     69.62 
 H                     25.81     60.5      71.73 
 N                     32.42     64.13     67.59 
 C                     33.84     64.21     67.85 
 C                     34.42     62.81     67.68 
 O                     35.55     62.7      67.2 
 C                     34.22     64.92     69.15 
 C                     33.51     66.2      69.57 
 C                     35.71     65.21     69.16 
 C                     33.42     67.23     68.45 
 H                     32.06     64.58     66.76 
 H                     34.28     64.8      67.05 
 H                     34.03     64.27     70.01 
 H                     34.01     66.76     70.36 
 H                     32.47     66.01     69.86 
 H                     36.3      64.3      69.02 
 H                     35.89     65.99     68.41 
 H                     35.96     65.53     70.17 
 H                     32.99     66.8      67.54 
 H                     32.67     67.98     68.69 
 H                     34.39     67.66     68.2 
 N                     33.73     61.74     68.08 
 C                     34.17     60.36     67.95 
 C                     35.46     60.14     68.72 
 O                     36.28     59.34     68.28 
 C                     33.19     59.37     68.57 
 O                     33.05     59.6      69.96 
 H                     32.8      61.9      68.43 
 H                     34.23     60.05     66.9 
 H                     33.59     58.37     68.42 
 H                     32.22     59.41     68.09 
 H                     32.23     59.29     70.34 
 N                     35.74     60.94     69.75 
 C                     36.97     61.04     70.51 
 C                     38.23     61.31     69.7 
 O                     39.3      60.88     70.12 
 C                     37.09     59.92     71.55 
 H                     35.       61.57     70.02 
 H                     36.9      61.98     71.06 
 H                     37.29     58.92     71.18 
 H                     37.9      60.21     72.21 
 H                     36.13     59.93     72.07 
 N                     38.13     61.91     68.51 
 C                     39.25     62.11     67.61 
 C                     39.92     63.45     67.86 
 O                     39.38     64.35     68.5 
 C                     38.77     61.93     66.17 
 H                     37.2      62.1      68.16 
 H                     39.96     61.28     67.68 
 H                     38.14     62.79     65.93 
 H                     39.61     61.83     65.49 
 H                     38.09     61.09     66.01 
 N                     41.15     63.67     67.41 
 C                     41.9      64.91     67.46 
 C                     42.26     65.44     68.84 
 O                     42.93     66.45     69.05 
 C                     41.19     65.94     66.59 
 C                     41.08     65.4      65.16 
 C                     40.39     66.36     64.2 
 O                     40.34     65.92     63.03 
 O                     39.82     67.41     64.58 
 H                     41.55     62.9      66.89 
 H                     42.84     64.62     66.98 
 H                     41.75     66.87     66.52 
 H                     40.22     66.2      67.01 
 H                     40.67     64.39     65.14 
 H                     42.07     65.33     64.72 
 N                     41.82     64.85     69.95 
 C                     42.01     65.29     71.32 
 H                     42.707    66.128    71.339 
 H                     41.053    65.605    71.737 
 H                     42.413    64.469    71.913 
 H                     41.19     64.09     69.76 
 Ca                    39.25     68.11     62.02 
 O                     37.4      66.52     62.78 
 H                     36.49     66.78     62.66 
 H                     37.36     65.74     63.33 
 
 Stoichiometry    C54H83CaN15O23
 Framework group  C1[X(C54H83CaN15O23)]
 Deg. of freedom   522
 Full point group                 C1      NOp   1
 Largest Abelian subgroup         C1      NOp   1
 Largest concise Abelian subgroup C1      NOp   1
                         Standard orientation:                         
 ---------------------------------------------------------------------
 Center     Atomic      Atomic             Coordinates (Angstroms)
 Number     Number       Type             X           Y           Z
 ---------------------------------------------------------------------
      1          6           0       -9.225801   -1.016874    6.880863
      2          6           0       -9.626670   -0.717839    5.443337
      3          8           0      -10.739895   -0.214683    5.322656
      4          1           0       -8.387917   -1.713275    6.886317
      5          1           0       -8.931800   -0.091404    7.376688
      6          1           0      -10.069709   -1.461179    7.409406
      7          7           0       -8.844184   -1.080792    4.432357
      8          6           0       -9.304181   -1.104129    3.053822
      9          6           0       -8.122796   -0.903593    2.109621
     10          8           0       -6.962383   -0.965832    2.512198
     11          6           0      -10.007795   -2.426552    2.804370
     12          6           0      -10.807487   -2.547414    1.513563
     13          8           0      -11.153716   -1.466289    0.994050
     14          8           0      -11.264854   -3.652690    1.154980
     15          1           0       -7.884650   -1.316952    4.613802
     16          1           0      -10.075039   -0.359778    2.833096
     17          1           0      -10.683080   -2.566968    3.650346
     18          1           0       -9.309558   -3.255874    2.862597
     19          7           0       -8.516522   -0.388763    0.949910
     20          6           0       -7.641775   -0.030668   -0.139027
     21          6           0       -7.007936   -1.256732   -0.792874
     22          8           0       -7.666961   -2.286695   -0.901333
     23          6           0       -6.811245    1.201917    0.194220
     24          6           0       -7.596351    2.494577    0.422999
     25          6           0       -8.106426    3.189229   -0.840283
     26          6           0       -9.112800    4.307507   -0.582668
     27          7           0      -10.483785    3.885540   -0.216412
     28          1           0       -9.519383   -0.368441    0.774535
     29          1           0       -8.244456    0.246301   -1.000980
     30          1           0       -6.065173    1.371651   -0.586719
     31          1           0       -6.081464    1.101114    0.995256
     32          1           0       -6.929103    3.143390    0.991085
     33          1           0       -8.440783    2.211256    1.059289
     34          1           0       -8.595253    2.528058   -1.546258
     35          1           0       -7.260823    3.599238   -1.395034
     36          1           0       -9.170523    4.936688   -1.472331
     37          1           0       -8.712763    5.018866    0.137359
     38          1           0      -10.558504    3.158989    0.483045
     39          1           0      -11.013053    4.698715    0.060755
     40          1           0      -10.929468    3.540340   -1.059504
     41          7           0       -5.731544   -1.187723   -1.172297
     42          6           0       -5.123711   -2.185251   -2.023869
     43          6           0       -3.804820   -2.765972   -1.529310
     44          8           0       -3.268982   -3.639142   -2.212504
     45          6           0       -4.879723   -1.535422   -3.386547
     46          6           0       -4.149012   -0.199254   -3.328084
     47          8           0       -4.563557    0.775500   -3.998984
     48          8           0       -2.977267   -0.078705   -2.901844
     49          1           0       -5.305415   -0.278024   -1.088257
     50          1           0       -5.789647   -3.041659   -2.155374
     51          1           0       -5.846244   -1.269300   -3.804537
     52          1           0       -4.376220   -2.179702   -4.102360
     53          7           0       -3.377340   -2.413613   -0.314442
     54          6           0       -2.208224   -2.827903    0.432640
     55          6           0       -1.559504   -4.137614    0.007882
     56          8           0       -1.751980   -5.158955    0.653186
     57          1           0       -4.000412   -1.798918    0.192738
     58          1           0       -2.495105   -2.865739    1.487707
     59          1           0       -1.431282   -2.072520    0.416594
     60          7           0       -0.700925   -4.051925   -1.014468
     61          6           0        0.196463   -5.155083   -1.281745
     62          6           0        1.543720   -4.547028   -1.658395
     63          8           0        1.518082   -3.378922   -2.035583
     64          6           0       -0.371408   -5.999184   -2.417358
     65          6           0       -1.633734   -6.734127   -1.976006
     66          7           0       -2.856165   -6.391296   -2.399127
     67          8           0       -1.581072   -7.735322   -1.269865
     68          1           0       -0.457892   -3.163534   -1.413462
     69          1           0        0.328421   -5.819084   -0.424896
     70          1           0        0.359377   -6.771146   -2.657209
     71          1           0       -0.484958   -5.380802   -3.315194
     72          1           0       -2.846613   -5.408542   -2.624967
     73          1           0       -3.687686   -6.887197   -2.096218
     74          7           0        2.612881   -5.338579   -1.761067
     75          6           0        3.942386   -4.862891   -2.061799
     76          6           0        4.695901   -4.486888   -0.792691
     77          8           0        4.170935   -4.686571    0.303867
     78          1           0        2.542818   -6.282943   -1.392874
     79          1           0        3.876063   -3.935578   -2.625973
     80          1           0        4.453610   -5.612955   -2.678365
     81          7           0        5.844496   -3.876508   -1.087928
     82          6           0        6.778163   -3.254911   -0.162518
     83          6           0        6.452014   -1.812140    0.195584
     84          8           0        6.904606   -1.232930    1.171687
     85          6           0        6.909698   -4.125275    1.079965
     86          6           0        8.291953   -4.293285    1.660862
     87          6           0        8.475891   -4.253340    3.043314
     88          6           0        9.386166   -4.421537    0.792156
     89          6           0        9.785368   -4.344515    3.530405
     90          6           0       10.685744   -4.566780    1.295943
     91          6           0       10.904388   -4.482101    2.688108
     92          8           0       12.129109   -4.653474    3.260551
     93          1           0        6.115372   -3.758368   -2.054142
     94          1           0        7.693579   -3.236065   -0.750700
     95          1           0        6.529661   -5.133096    0.933096
     96          1           0        6.286059   -3.748797    1.893500
     97          1           0        7.607476   -4.245653    3.691385
     98          1           0        9.328551   -4.443645   -0.289921
     99          1           0       10.034097   -4.426033    4.581875
    100          1           0       11.526011   -4.744722    0.636861
    101          1           0       12.754029   -4.632473    2.537064
    102          7           0        5.440583   -1.255681   -0.482767
    103          6           0        4.676734   -0.072056   -0.157244
    104          6           0        5.492101    1.139045   -0.597371
    105          8           0        4.890356    2.116859   -1.045904
    106          6           0        4.149779   -0.017208    1.277263
    107          6           0        3.552048   -1.255793    1.931117
    108          6           0        3.125687    1.095901    1.405807
    109          6           0        2.525634   -1.960789    1.051995
    110          1           0        5.093405   -1.863005   -1.211893
    111          1           0        3.797591   -0.071548   -0.796624
    112          1           0        4.958433    0.230578    1.972160
    113          1           0        2.983652   -1.061452    2.840434
    114          1           0        4.315936   -2.015461    2.134044
    115          1           0        3.537317    2.061459    1.099118
    116          1           0        2.236986    0.780403    0.845475
    117          1           0        2.931342    1.221351    2.469524
    118          1           0        2.925792   -2.173378    0.055713
    119          1           0        2.350528   -2.970352    1.416302
    120          1           0        1.608600   -1.382902    0.936254
    121          7           0        6.819524    1.145630   -0.459880
    122          6           0        7.700295    2.230693   -0.862100
    123          6           0        7.354601    3.501837   -0.107057
    124          8           0        7.494060    4.580948   -0.674569
    125          6           0        9.158760    1.966990   -0.503992
    126          8           0        9.320543    1.839082    0.896746
    127          1           0        7.248426    0.300921   -0.120012
    128          1           0        7.714713    2.359804   -1.950825
    129          1           0        9.742999    2.817656   -0.846820
    130          1           0        9.542006    1.084729   -1.001623
    131          1           0       10.085300    1.336055    1.170626
    132          7           0        6.752216    3.403144    1.078984
    133          6           0        6.172074    4.455122    1.889709
    134          6           0        5.122103    5.317956    1.204378
    135          8           0        4.995979    6.484349    1.564685
    136          6           0        7.240952    5.226266    2.672804
    137          1           0        6.676873    2.467263    1.447562
    138          1           0        5.543034    3.947826    2.623166
    139          1           0        7.886838    5.889654    2.107430
    140          1           0        6.705763    5.814496    3.409932
    141          1           0        7.843469    4.448208    3.145771
    142          7           0        4.441909    4.823903    0.165461
    143          6           0        3.505656    5.597396   -0.627974
    144          6           0        2.095795    5.484560   -0.074295
    145          8           0        1.765913    4.606663    0.720485
    146          6           0        3.619974    5.169148   -2.090825
    147          1           0        4.706197    3.907481   -0.171915
    148          1           0        3.829850    6.639697   -0.708024
    149          1           0        3.194814    4.165414   -2.167358
    150          1           0        3.123138    5.879698   -2.743721
    151          1           0        4.640392    5.019043   -2.451125
    152          7           0        1.174859    6.376916   -0.419805
    153          6           0       -0.234659    6.368276   -0.079534
    154          6           0       -0.586497    6.506757    1.394214
    155          8           0       -1.731965    6.563415    1.838954
    156          6           0       -0.883765    5.157296   -0.738387
    157          6           0       -0.665663    5.232140   -2.253454
    158          6           0       -1.285531    4.067558   -3.014250
    159          8           0       -1.129705    4.161778   -4.251926
    160          8           0       -1.775330    3.064908   -2.442770
    161          1           0        1.495333    7.077611   -1.075261
    162          1           0       -0.587510    7.279098   -0.573497
    163          1           0       -1.961061    5.140094   -0.588261
    164          1           0       -0.502299    4.231922   -0.310525
    165          1           0        0.380485    5.411262   -2.502636
    166          1           0       -1.218512    6.073451   -2.659846
    167          7           0        0.354580    6.531055    2.336331
    168          6           0        0.164791    6.571611    3.774710
    169          1           0       -0.891122    6.725903    3.997545
    170          1           0        0.493396    5.628243    4.211789
    171          1           0        0.748142    7.390602    4.195488
    172          1           0        1.276571    6.379102    1.965599
    173         20           0       -2.563615    2.010162   -4.816505
    174          8           0       -0.122574    1.333572   -4.482224
    175          1           0        0.119327    0.415889   -4.579398
    176          1           0        0.652249    1.751838   -4.111815
 ---------------------------------------------------------------------
 Rotational constants (GHZ):           0.0185682           0.0085714           0.0070390
 Standard basis: SVP (5D, 7F)
 There are  1809 symmetry adapted cartesian basis functions of A   symmetry.
 There are  1717 symmetry adapted basis functions of A   symmetry.
  1717 basis functions,  2922 primitive gaussians,  1809 cartesian basis functions
   358 alpha electrons      358 beta electrons
       nuclear repulsion energy     18704.3488442977 Hartrees.
 NAtoms=  176 NActive=  176 NUniq=  176 SFac= 1.00D+00 NAtFMM=   60 NAOKFM=T Big=T
 Integral buffers will be    131072 words long.
 Raffenetti 2 integral format.
 Two-electron integral symmetry is turned on.
 One-electron integrals computed using PRISM.
 NBasis=  1717 RedAO= T EigKep=  2.83D-04  NBF=  1717
 NBsUse=  1717 1.00D-06 EigRej= -1.00D+00 NBFU=  1717
 ExpMin= 1.98D-02 ExpMax= 3.51D+04 ExpMxC= 5.28D+03 IAcc=3 IRadAn=         5 AccDes= 0.00D+00
 Harris functional with IExCor=  402 and IRadAn=       5 diagonalized for initial guess.
 HarFok:  IExCor=  402 AccDes= 0.00D+00 IRadAn=         5 IDoV= 1 UseB2=F ITyADJ=14
 ICtDFT=  3500011 ScaDFX=  1.000000  1.000000  1.000000  1.000000
 FoFCou: FMM=F IPFlag=           0 FMFlag=      100000 FMFlg1=        2001
         NFxFlg=           0 DoJE=T BraDBF=F KetDBF=T FulRan=T
         wScrn=  0.000000 ICntrl=       500 IOpCl=  0 I1Cent=   200000004 NGrid=           0
         NMat0=    1 NMatS0=      1 NMatT0=    0 NMatD0=    1 NMtDS0=    0 NMtDT0=    0
 Petite list used in FoFCou.
 Requested convergence on RMS density matrix=1.00D-08 within 128 cycles.
 Requested convergence on MAX density matrix=1.00D-06.
 Requested convergence on             energy=1.00D-06.
 No special actions if energy rises.
 EnCoef did     2 forward-backward iterations
 EnCoef did     3 forward-backward iterations
 EnCoef did     4 forward-backward iterations
 Restarting incremental Fock formation.
 SCF Done:  E(RB3LYP) =  -5333.38483485     A.U. after   28 cycles
            NFock= 28  Conv=0.10D-08     -V/T= 2.0081
 SCF density gives NOpUse=  1 NOpAll=  1.
 Hyperfine terms turned off by default for NAtoms > 100.

 **********************************************************************

            Population analysis using the SCF density.

 **********************************************************************

 Orbital symmetries:
 BldTbl:  Degeneracy threshold= 1.00D-02
       Occupied  (A) (A) (A) (A) (A) (A) (A) (A) (A) (A) (A) (A)
                 (A) (A) (A) (A) (A) (A) (A) (A) (A) (A) (A) (A)
                 (A) (A) (A) (A) (A) (A) (A) (A) (A) (A) (A) (A)
                 (A) (A) (A) (A) (A) (A) (A) (A) (A) (A) (A) (A)
                 (A) (A) (A) (A) (A) (A) (A) (A) (A) (A) (A) (A)
                 (A) (A) (A) (A) (A) (A) (A) (A) (A) (A) (A) (A)
                 (A) (A) (A) (A) (A) (A) (A) (A) (A) (A) (A) (A)
                 (A) (A) (A) (A) (A) (A) (A) (A) (A) (A) (A) (A)
                 (A) (A) (A) (A) (A) (A) (A) (A) (A) (A) (A) (A)
                 (A) (A) (A) (A) (A) (A) (A) (A) (A) (A) (A) (A)
                 (A) (A) (A) (A) (A) (A) (A) (A) (A) (A) (A) (A)
                 (A) (A) (A) (A) (A) (A) (A) (A) (A) (A) (A) (A)
                 (A) (A) (A) (A) (A) (A) (A) (A) (A) (A) (A) (A)
                 (A) (A) (A) (A) (A) (A) (A) (A) (A) (A) (A) (A)
                 (A) (A) (A) (A) (A) (A) (A) (A) (A) (A) (A) (A)
                 (A) (A) (A) (A) (A) (A) (A) (A) (A) (A) (A) (A)
                 (A) (A) (A) (A) (A) (A) (A) (A) (A) (A) (A) (A)
                 (A) (A) (A) (A) (A) (A) (A) (A) (A) (A) (A) (A)
                 (A) (A) (A) (A) (A) (A) (A) (A) (A) (A) (A) (A)
                 (A) (A) (A) (A) (A) (A) (A) (A) (A) (A) (A) (A)
                 (A) (A) (A) (A) (A) (A) (A) (A) (A) (A) (A) (A)
                 (A) (A) (A) (A) (A) (A) (A) (A) (A) (A) (A) (A)
                 (A) (A) (A) (A) (A) (A) (A) (A) (A) (A) (A) (A)
                 (A) (A) (A) (A) (A) (A) (A) (A) (A) (A) (A) (A)
                 (A) (A) (A) (A) (A) (A) (A) (A) (A) (A) (A) (A)
                 (A) (A) (A) (A) (A) (A) (A) (A) (A) (A) (A) (A)
                 (A) (A) (A) (A) (A) (A) (A) (A) (A) (A) (A) (A)
                 (A) (A) (A) (A) (A) (A) (A) (A) (A) (A) (A) (A)
                 (A) (A) (A) (A) (A) (A) (A) (A) (A) (A) (A) (A)
                 (A) (A) (A) (A) (A) (A) (A) (A) (A) (A)
       Virtual   (A) (A) (A) (A) (A) (A) (A) (A) (A) (A) (A) (A)
                 (A) (A) (A) (A) (A) (A) (A) (A) (A) (A) (A) (A)
                 (A) (A) (A) (A) (A) (A) (A) (A) (A) (A) (A) (A)
                 (A) (A) (A) (A) (A) (A) (A) (A) (A) (A) (A) (A)
                 (A) (A) (A) (A) (A) (A) (A) (A) (A) (A) (A) (A)
                 (A) (A) (A) (A) (A) (A) (A) (A) (A) (A) (A) (A)
                 (A) (A) (A) (A) (A) (A) (A) (A) (A) (A) (A) (A)
                 (A) (A) (A) (A) (A) (A) (A) (A) (A) (A) (A) (A)
                 (A) (A) (A) (A) (A) (A) (A) (A) (A) (A) (A) (A)
                 (A) (A) (A) (A) (A) (A) (A) (A) (A) (A) (A) (A)
                 (A) (A) (A) (A) (A) (A) (A) (A) (A) (A) (A) (A)
                 (A) (A) (A) (A) (A) (A) (A) (A) (A) (A) (A) (A)
                 (A) (A) (A) (A) (A) (A) (A) (A) (A) (A) (A) (A)
                 (A) (A) (A) (A) (A) (A) (A) (A) (A) (A) (A) (A)
                 (A) (A) (A) (A) (A) (A) (A) (A) (A) (A) (A) (A)
                 (A) (A) (A) (A) (A) (A) (A) (A) (A) (A) (A) (A)
                 (A) (A) (A) (A) (A) (A) (A) (A) (A) (A) (A) (A)
                 (A) (A) (A) (A) (A) (A) (A) (A) (A) (A) (A) (A)
                 (A) (A) (A) (A) (A) (A) (A) (A) (A) (A) (A) (A)
                 (A) (A) (A) (A) (A) (A) (A) (A) (A) (A) (A) (A)
                 (A) (A) (A) (A) (A) (A) (A) (A) (A) (A) (A) (A)
                 (A) (A) (A) (A) (A) (A) (A) (A) (A) (A) (A) (A)
                 (A) (A) (A) (A) (A) (A) (A) (A) (A) (A) (A) (A)
                 (A) (A) (A) (A) (A) (A) (A) (A) (A) (A) (A) (A)
                 (A) (A) (A) (A) (A) (A) (A) (A) (A) (A) (A) (A)
                 (A) (A) (A) (A) (A) (A) (A) (A) (A) (A) (A) (A)
                 (A) (A) (A) (A) (A) (A) (A) (A) (A) (A) (A) (A)
                 (A) (A) (A) (A) (A) (A) (A) (A) (A) (A) (A) (A)
                 (A) (A) (A) (A) (A) (A) (A) (A) (A) (A) (A) (A)
                 (A) (A) (A) (A) (A) (A) (A) (A) (A) (A) (A) (A)
                 (A) (A) (A) (A) (A) (A) (A) (A) (A) (A) (A) (A)
                 (A) (A) (A) (A) (A) (A) (A) (A) (A) (A) (A) (A)
                 (A) (A) (A) (A) (A) (A) (A) (A) (A) (A) (A) (A)
                 (A) (A) (A) (A) (A) (A) (A) (A) (A) (A) (A) (A)
                 (A) (A) (A) (A) (A) (A) (A) (A) (A) (A) (A) (A)
                 (A) (A) (A) (A) (A) (A) (A) (A) (A) (A) (A) (A)
                 (A) (A) (A) (A) (A) (A) (A) (A) (A) (A) (A) (A)
                 (A) (A) (A) (A) (A) (A) (A) (A) (A) (A) (A) (A)
                 (A) (A) (A) (A) (A) (A) (A) (A) (A) (A) (A) (A)
                 (A) (A) (A) (A) (A) (A) (A) (A) (A) (A) (A) (A)
                 (A) (A) (A) (A) (A) (A) (A) (A) (A) (A) (A) (A)
                 (A) (A) (A) (A) (A) (A) (A) (A) (A) (A) (A) (A)
                 (A) (A) (A) (A) (A) (A) (A) (A) (A) (A) (A) (A)
                 (A) (A) (A) (A) (A) (A) (A) (A) (A) (A) (A) (A)
                 (A) (A) (A) (A) (A) (A) (A) (A) (A) (A) (A) (A)
                 (A) (A) (A) (A) (A) (A) (A) (A) (A) (A) (A) (A)
                 (A) (A) (A) (A) (A) (A) (A) (A) (A) (A) (A) (A)
                 (A) (A) (A) (A) (A) (A) (A) (A) (A) (A) (A) (A)
                 (A) (A) (A) (A) (A) (A) (A) (A) (A) (A) (A) (A)
                 (A) (A) (A) (A) (A) (A) (A) (A) (A) (A) (A) (A)
                 (A) (A) (A) (A) (A) (A) (A) (A) (A) (A) (A) (A)
                 (A) (A) (A) (A) (A) (A) (A) (A) (A) (A) (A) (A)
                 (A) (A) (A) (A) (A) (A) (A) (A) (A) (A) (A) (A)
                 (A) (A) (A) (A) (A) (A) (A) (A) (A) (A) (A) (A)
                 (A) (A) (A) (A) (A) (A) (A) (A) (A) (A) (A) (A)
                 (A) (A) (A) (A) (A) (A) (A) (A) (A) (A) (A) (A)
                 (A) (A) (A) (A) (A) (A) (A) (A) (A) (A) (A) (A)
                 (A) (A) (A) (A) (A) (A) (A) (A) (A) (A) (A) (A)
                 (A) (A) (A) (A) (A) (A) (A) (A) (A) (A) (A) (A)
                 (A) (A) (A) (A) (A) (A) (A) (A) (A) (A) (A) (A)
                 (A) (A) (A) (A) (A) (A) (A) (A) (A) (A) (A) (A)
                 (A) (A) (A) (A) (A) (A) (A) (A) (A) (A) (A) (A)
                 (A) (A) (A) (A) (A) (A) (A) (A) (A) (A) (A) (A)
                 (A) (A) (A) (A) (A) (A) (A) (A) (A) (A) (A) (A)
                 (A) (A) (A) (A) (A) (A) (A) (A) (A) (A) (A) (A)
                 (A) (A) (A) (A) (A) (A) (A) (A) (A) (A) (A) (A)
                 (A) (A) (A) (A) (A) (A) (A) (A) (A) (A) (A) (A)
                 (A) (A) (A) (A) (A) (A) (A) (A) (A) (A) (A) (A)
                 (A) (A) (A) (A) (A) (A) (A) (A) (A) (A) (A) (A)
                 (A) (A) (A) (A) (A) (A) (A) (A) (A) (A) (A) (A)
                 (A) (A) (A) (A) (A) (A) (A) (A) (A) (A) (A) (A)
                 (A) (A) (A) (A) (A) (A) (A) (A) (A) (A) (A) (A)
                 (A) (A) (A) (A) (A) (A) (A) (A) (A) (A) (A) (A)
                 (A) (A) (A) (A) (A) (A) (A) (A) (A) (A) (A) (A)
                 (A) (A) (A) (A) (A) (A) (A) (A) (A) (A) (A) (A)
                 (A) (A) (A) (A) (A) (A) (A) (A) (A) (A) (A) (A)
                 (A) (A) (A) (A) (A) (A) (A) (A) (A) (A) (A) (A)
                 (A) (A) (A) (A) (A) (A) (A) (A) (A) (A) (A) (A)
                 (A) (A) (A) (A) (A) (A) (A) (A) (A) (A) (A) (A)
                 (A) (A) (A) (A) (A) (A) (A) (A) (A) (A) (A) (A)
                 (A) (A) (A) (A) (A) (A) (A) (A) (A) (A) (A) (A)
                 (A) (A) (A) (A) (A) (A) (A) (A) (A) (A) (A) (A)
                 (A) (A) (A) (A) (A) (A) (A) (A) (A) (A) (A) (A)
                 (A) (A) (A) (A) (A) (A) (A) (A) (A) (A) (A) (A)
                 (A) (A) (A) (A) (A) (A) (A) (A) (A) (A) (A) (A)
                 (A) (A) (A) (A) (A) (A) (A) (A) (A) (A) (A) (A)
                 (A) (A) (A) (A) (A) (A) (A) (A) (A) (A) (A) (A)
                 (A) (A) (A) (A) (A) (A) (A) (A) (A) (A) (A) (A)
                 (A) (A) (A) (A) (A) (A) (A) (A) (A) (A) (A) (A)
                 (A) (A) (A) (A) (A) (A) (A) (A) (A) (A) (A) (A)
                 (A) (A) (A) (A) (A) (A) (A) (A) (A) (A) (A) (A)
                 (A) (A) (A) (A) (A) (A) (A) (A) (A) (A) (A) (A)
                 (A) (A) (A) (A) (A) (A) (A) (A) (A) (A) (A) (A)
                 (A) (A) (A) (A) (A) (A) (A) (A) (A) (A) (A) (A)
                 (A) (A) (A) (A) (A) (A) (A) (A) (A) (A) (A) (A)
                 (A) (A) (A) (A) (A) (A) (A) (A) (A) (A) (A) (A)
                 (A) (A) (A) (A) (A) (A) (A) (A) (A) (A) (A) (A)
                 (A) (A) (A) (A) (A) (A) (A) (A) (A) (A) (A) (A)
                 (A) (A) (A) (A) (A) (A) (A) (A) (A) (A) (A) (A)
                 (A) (A) (A) (A) (A) (A) (A) (A) (A) (A) (A) (A)
                 (A) (A) (A) (A) (A) (A) (A) (A) (A) (A) (A) (A)
                 (A) (A) (A) (A) (A) (A) (A) (A) (A) (A) (A) (A)
                 (A) (A) (A) (A) (A) (A) (A) (A) (A) (A) (A) (A)
                 (A) (A) (A) (A) (A) (A) (A) (A) (A) (A) (A) (A)
                 (A) (A) (A) (A) (A) (A) (A) (A) (A) (A) (A) (A)
                 (A) (A) (A) (A) (A) (A) (A) (A) (A) (A) (A) (A)
                 (A) (A) (A) (A) (A) (A) (A) (A) (A) (A) (A) (A)
                 (A) (A) (A) (A) (A) (A) (A) (A) (A) (A) (A) (A)
                 (A) (A) (A) (A) (A) (A) (A) (A) (A) (A) (A) (A)
                 (A) (A) (A) (A) (A) (A) (A) (A) (A) (A) (A) (A)
                 (A) (A) (A) (A) (A) (A) (A) (A) (A) (A) (A) (A)
                 (A) (A) (A) (A) (A) (A) (A) (A) (A) (A) (A) (A)
                 (A) (A) (A) (A) (A) (A) (A) (A) (A) (A) (A) (A)
                 (A) (A) (A)
 The electronic state is 1-A.
 Alpha  occ. eigenvalues -- -145.46558 -19.20401 -19.17680 -19.15064 -19.13782
 Alpha  occ. eigenvalues --  -19.12989 -19.11978 -19.11816 -19.09262 -19.09104
 Alpha  occ. eigenvalues --  -19.09070 -19.09019 -19.08575 -19.08166 -19.07921
 Alpha  occ. eigenvalues --  -19.07627 -19.07603 -19.07586 -19.07384 -19.06482
 Alpha  occ. eigenvalues --  -19.04596 -19.03747 -18.97163 -18.95623 -15.52516
 Alpha  occ. eigenvalues --  -14.57623 -14.40553 -14.38390 -14.38203 -14.37516
 Alpha  occ. eigenvalues --  -14.35968 -14.35691 -14.35270 -14.35188 -14.33220
 Alpha  occ. eigenvalues --  -14.33188 -14.32511 -14.32063 -14.30514 -14.29677
 Alpha  occ. eigenvalues --  -12.66122 -12.66095 -12.66000 -10.34474 -10.32330
 Alpha  occ. eigenvalues --  -10.31579 -10.30642 -10.30032 -10.28260 -10.28082
 Alpha  occ. eigenvalues --  -10.28006 -10.27724 -10.27562 -10.27500 -10.27017
 Alpha  occ. eigenvalues --  -10.26915 -10.26674 -10.26569 -10.26493 -10.26224
 Alpha  occ. eigenvalues --  -10.26106 -10.25981 -10.25630 -10.25313 -10.25116
 Alpha  occ. eigenvalues --  -10.24494 -10.23685 -10.23612 -10.23590 -10.23246
 Alpha  occ. eigenvalues --  -10.23216 -10.23187 -10.23063 -10.23056 -10.22098
 Alpha  occ. eigenvalues --  -10.21005 -10.20761 -10.20717 -10.20527 -10.20417
 Alpha  occ. eigenvalues --  -10.20320 -10.20307 -10.19656 -10.19493 -10.19096
 Alpha  occ. eigenvalues --  -10.18962 -10.18909 -10.17943 -10.17519 -10.17349
 Alpha  occ. eigenvalues --  -10.17056 -10.16912 -10.16904 -10.16553 -10.16091
 Alpha  occ. eigenvalues --  -10.15163 -10.10385  -1.89301  -1.16921  -1.16525
 Alpha  occ. eigenvalues --   -1.16084  -1.12588  -1.07157  -1.06621  -1.06487
 Alpha  occ. eigenvalues --   -1.06236  -1.05128  -1.04834  -1.03966  -1.03369
 Alpha  occ. eigenvalues --   -1.03302  -1.02749  -1.02447  -1.02147  -1.01706
 Alpha  occ. eigenvalues --   -1.00641  -1.00624  -1.00277  -0.99824  -0.98088
 Alpha  occ. eigenvalues --   -0.97994  -0.97042  -0.95308  -0.94621  -0.94101
 Alpha  occ. eigenvalues --   -0.92848  -0.92835  -0.92538  -0.91961  -0.91922
 Alpha  occ. eigenvalues --   -0.91230  -0.91177  -0.90670  -0.90262  -0.90130
 Alpha  occ. eigenvalues --   -0.88259  -0.87975  -0.87147  -0.86356  -0.84706
 Alpha  occ. eigenvalues --   -0.83119  -0.81597  -0.81573  -0.81033  -0.79695
 Alpha  occ. eigenvalues --   -0.79235  -0.78881  -0.78269  -0.76944  -0.76672
 Alpha  occ. eigenvalues --   -0.75587  -0.75553  -0.75365  -0.75115  -0.73501
 Alpha  occ. eigenvalues --   -0.72819  -0.72637  -0.72382  -0.71406  -0.71132
 Alpha  occ. eigenvalues --   -0.71129  -0.69360  -0.68798  -0.68536  -0.67668
 Alpha  occ. eigenvalues --   -0.67014  -0.66826  -0.65971  -0.65768  -0.64310
 Alpha  occ. eigenvalues --   -0.63954  -0.63718  -0.63557  -0.63243  -0.62361
 Alpha  occ. eigenvalues --   -0.62027  -0.61580  -0.61512  -0.60797  -0.60513
 Alpha  occ. eigenvalues --   -0.59760  -0.59751  -0.59329  -0.59178  -0.59150
 Alpha  occ. eigenvalues --   -0.58150  -0.58043  -0.57451  -0.57084  -0.56855
 Alpha  occ. eigenvalues --   -0.56720  -0.56543  -0.56155  -0.55751  -0.54955
 Alpha  occ. eigenvalues --   -0.54909  -0.54384  -0.54126  -0.54060  -0.53787
 Alpha  occ. eigenvalues --   -0.53568  -0.53306  -0.52743  -0.52712  -0.52199
 Alpha  occ. eigenvalues --   -0.52126  -0.51799  -0.51665  -0.51509  -0.50283
 Alpha  occ. eigenvalues --   -0.50187  -0.50011  -0.49569  -0.49510  -0.49303
 Alpha  occ. eigenvalues --   -0.48849  -0.48639  -0.48321  -0.48004  -0.47886
 Alpha  occ. eigenvalues --   -0.47729  -0.47523  -0.47485  -0.47226  -0.46922
 Alpha  occ. eigenvalues --   -0.46721  -0.46496  -0.46400  -0.46152  -0.46053
 Alpha  occ. eigenvalues --   -0.46023  -0.45844  -0.45503  -0.45344  -0.45247
 Alpha  occ. eigenvalues --   -0.45170  -0.44598  -0.44504  -0.44376  -0.44227
 Alpha  occ. eigenvalues --   -0.44094  -0.44067  -0.44049  -0.43847  -0.43741
 Alpha  occ. eigenvalues --   -0.43412  -0.43365  -0.42956  -0.42900  -0.42554
 Alpha  occ. eigenvalues --   -0.42468  -0.42166  -0.42030  -0.42027  -0.41774
 Alpha  occ. eigenvalues --   -0.41634  -0.41460  -0.41377  -0.41331  -0.41098
 Alpha  occ. eigenvalues --   -0.41021  -0.40878  -0.40555  -0.40495  -0.40446
 Alpha  occ. eigenvalues --   -0.40279  -0.40247  -0.40190  -0.40025  -0.39832
 Alpha  occ. eigenvalues --   -0.39676  -0.39501  -0.39476  -0.39280  -0.39219
 Alpha  occ. eigenvalues --   -0.38889  -0.38619  -0.38613  -0.38477  -0.38443
 Alpha  occ. eigenvalues --   -0.38067  -0.38039  -0.37852  -0.37747  -0.37559
 Alpha  occ. eigenvalues --   -0.37207  -0.37147  -0.36938  -0.36933  -0.36732
 Alpha  occ. eigenvalues --   -0.36554  -0.36452  -0.36313  -0.36148  -0.35905
 Alpha  occ. eigenvalues --   -0.35608  -0.35535  -0.35271  -0.35005  -0.34816
 Alpha  occ. eigenvalues --   -0.34753  -0.34684  -0.34503  -0.34499  -0.34321
 Alpha  occ. eigenvalues --   -0.34115  -0.34030  -0.33923  -0.33857  -0.33714
 Alpha  occ. eigenvalues --   -0.33261  -0.33196  -0.32784  -0.32302  -0.31647
 Alpha  occ. eigenvalues --   -0.31593  -0.30652  -0.30180  -0.29812  -0.29540
 Alpha  occ. eigenvalues --   -0.28898  -0.28443  -0.28101  -0.27821  -0.27764
 Alpha  occ. eigenvalues --   -0.27725  -0.27374  -0.27010  -0.26974  -0.26775
 Alpha  occ. eigenvalues --   -0.26390  -0.26373  -0.26283  -0.25978  -0.25858
 Alpha  occ. eigenvalues --   -0.25818  -0.25285  -0.24964  -0.24760  -0.24498
 Alpha  occ. eigenvalues --   -0.24332  -0.24089  -0.23800  -0.23406  -0.23247
 Alpha  occ. eigenvalues --   -0.23205  -0.22940  -0.22849  -0.22701  -0.22672
 Alpha  occ. eigenvalues --   -0.22341  -0.22307  -0.20874  -0.20557  -0.19620
 Alpha  occ. eigenvalues --   -0.14077  -0.13982  -0.11674
 Alpha virt. eigenvalues --   -0.10732  -0.09312  -0.03823  -0.03115  -0.02927
 Alpha virt. eigenvalues --   -0.02506  -0.02204  -0.01415  -0.01089  -0.00850
 Alpha virt. eigenvalues --   -0.00560  -0.00116   0.00382   0.00486   0.00786
 Alpha virt. eigenvalues --    0.01345   0.01612   0.02179   0.02258   0.02522
 Alpha virt. eigenvalues --    0.02604   0.02931   0.03038   0.03428   0.03535
 Alpha virt. eigenvalues --    0.03671   0.03791   0.03923   0.04103   0.04416
 Alpha virt. eigenvalues --    0.04713   0.05066   0.05453   0.05511   0.05729
 Alpha virt. eigenvalues --    0.05983   0.06291   0.06488   0.06746   0.07088
 Alpha virt. eigenvalues --    0.07141   0.07214   0.07224   0.07747   0.07768
 Alpha virt. eigenvalues --    0.08101   0.08408   0.08441   0.08637   0.08802
 Alpha virt. eigenvalues --    0.09323   0.09374   0.09577   0.09875   0.10041
 Alpha virt. eigenvalues --    0.10174   0.10346   0.10531   0.10705   0.11107
 Alpha virt. eigenvalues --    0.11154   0.11286   0.11443   0.11778   0.11857
 Alpha virt. eigenvalues --    0.12049   0.12189   0.12444   0.12562   0.12668
 Alpha virt. eigenvalues --    0.12886   0.12975   0.13256   0.13376   0.13447
 Alpha virt. eigenvalues --    0.13508   0.13597   0.13780   0.14046   0.14182
 Alpha virt. eigenvalues --    0.14272   0.14397   0.14619   0.14713   0.14904
 Alpha virt. eigenvalues --    0.14980   0.15061   0.15184   0.15334   0.15468
 Alpha virt. eigenvalues --    0.15620   0.15767   0.15824   0.15980   0.16293
 Alpha virt. eigenvalues --    0.16390   0.16730   0.16817   0.16844   0.17007
 Alpha virt. eigenvalues --    0.17166   0.17420   0.17507   0.17642   0.18082
 Alpha virt. eigenvalues --    0.18288   0.18358   0.18388   0.18520   0.18636
 Alpha virt. eigenvalues --    0.18683   0.18881   0.19277   0.19705   0.20040
 Alpha virt. eigenvalues --    0.20166   0.20425   0.20745   0.20830   0.21161
 Alpha virt. eigenvalues --    0.21451   0.21636   0.21876   0.21985   0.22070
 Alpha virt. eigenvalues --    0.22170   0.22616   0.22682   0.22976   0.23342
 Alpha virt. eigenvalues --    0.23397   0.23758   0.23793   0.24020   0.24199
 Alpha virt. eigenvalues --    0.24309   0.24421   0.24686   0.25153   0.25261
 Alpha virt. eigenvalues --    0.25474   0.25607   0.26191   0.26390   0.26758
 Alpha virt. eigenvalues --    0.26878   0.27019   0.27246   0.27756   0.27863
 Alpha virt. eigenvalues --    0.27945   0.27974   0.28233   0.28522   0.28732
 Alpha virt. eigenvalues --    0.29009   0.29253   0.29445   0.29674   0.29824
 Alpha virt. eigenvalues --    0.30081   0.30231   0.30681   0.30955   0.31014
 Alpha virt. eigenvalues --    0.31266   0.31536   0.31802   0.32108   0.32199
 Alpha virt. eigenvalues --    0.32752   0.33003   0.33103   0.33684   0.34033
 Alpha virt. eigenvalues --    0.34263   0.34483   0.34667   0.34906   0.35262
 Alpha virt. eigenvalues --    0.35341   0.35942   0.36676   0.36930   0.37370
 Alpha virt. eigenvalues --    0.37708   0.37873   0.37895   0.38344   0.38834
 Alpha virt. eigenvalues --    0.38913   0.39180   0.39272   0.39451   0.39736
 Alpha virt. eigenvalues --    0.39895   0.40054   0.40389   0.40899   0.41198
 Alpha virt. eigenvalues --    0.41417   0.41559   0.41775   0.41922   0.41996
 Alpha virt. eigenvalues --    0.42359   0.42390   0.43019   0.43179   0.43222
 Alpha virt. eigenvalues --    0.43625   0.43876   0.44269   0.44755   0.44898
 Alpha virt. eigenvalues --    0.45034   0.45193   0.45412   0.45677   0.45761
 Alpha virt. eigenvalues --    0.46058   0.46117   0.46227   0.46598   0.46852
 Alpha virt. eigenvalues --    0.46926   0.47111   0.47192   0.47275   0.47512
 Alpha virt. eigenvalues --    0.47612   0.47730   0.48280   0.48391   0.48479
 Alpha virt. eigenvalues --    0.48648   0.48730   0.48874   0.49013   0.49114
 Alpha virt. eigenvalues --    0.49469   0.49773   0.50078   0.50115   0.50417
 Alpha virt. eigenvalues --    0.50564   0.50600   0.50731   0.51130   0.51484
 Alpha virt. eigenvalues --    0.51678   0.51760   0.51776   0.52028   0.52243
 Alpha virt. eigenvalues --    0.52684   0.52745   0.52776   0.52952   0.53354
 Alpha virt. eigenvalues --    0.53438   0.53692   0.53811   0.54043   0.54177
 Alpha virt. eigenvalues --    0.54396   0.54491   0.54776   0.54837   0.55052
 Alpha virt. eigenvalues --    0.55119   0.55333   0.55379   0.55576   0.55940
 Alpha virt. eigenvalues --    0.55977   0.56089   0.56137   0.56404   0.56494
 Alpha virt. eigenvalues --    0.56880   0.56942   0.57052   0.57218   0.57600
 Alpha virt. eigenvalues --    0.57778   0.57897   0.58040   0.58123   0.58487
 Alpha virt. eigenvalues --    0.58681   0.58825   0.59028   0.59267   0.59562
 Alpha virt. eigenvalues --    0.59657   0.59754   0.59812   0.60057   0.60159
 Alpha virt. eigenvalues --    0.60276   0.60422   0.60541   0.60742   0.60831
 Alpha virt. eigenvalues --    0.60960   0.61141   0.61306   0.61363   0.61503
 Alpha virt. eigenvalues --    0.61566   0.61765   0.61908   0.62075   0.62150
 Alpha virt. eigenvalues --    0.62229   0.62346   0.62531   0.62643   0.62820
 Alpha virt. eigenvalues --    0.62977   0.63005   0.63065   0.63305   0.63410
 Alpha virt. eigenvalues --    0.63655   0.63695   0.63844   0.63948   0.64160
 Alpha virt. eigenvalues --    0.64233   0.64435   0.64533   0.64703   0.64823
 Alpha virt. eigenvalues --    0.64847   0.64946   0.65008   0.65160   0.65229
 Alpha virt. eigenvalues --    0.65270   0.65361   0.65508   0.65545   0.65631
 Alpha virt. eigenvalues --    0.65733   0.65909   0.66011   0.66098   0.66252
 Alpha virt. eigenvalues --    0.66311   0.66354   0.66446   0.66587   0.66654
 Alpha virt. eigenvalues --    0.66845   0.66945   0.67189   0.67434   0.67512
 Alpha virt. eigenvalues --    0.67585   0.67590   0.67782   0.67834   0.67947
 Alpha virt. eigenvalues --    0.68022   0.68237   0.68264   0.68409   0.68560
 Alpha virt. eigenvalues --    0.68649   0.68761   0.68879   0.68967   0.69149
 Alpha virt. eigenvalues --    0.69212   0.69375   0.69440   0.69540   0.69659
 Alpha virt. eigenvalues --    0.69762   0.69872   0.69947   0.70094   0.70227
 Alpha virt. eigenvalues --    0.70274   0.70361   0.70604   0.70769   0.70789
 Alpha virt. eigenvalues --    0.70911   0.71136   0.71192   0.71323   0.71528
 Alpha virt. eigenvalues --    0.71668   0.71716   0.71902   0.71989   0.72021
 Alpha virt. eigenvalues --    0.72325   0.72642   0.72699   0.72840   0.73138
 Alpha virt. eigenvalues --    0.73242   0.73418   0.73708   0.73854   0.74244
 Alpha virt. eigenvalues --    0.74417   0.74704   0.74785   0.74937   0.74994
 Alpha virt. eigenvalues --    0.75002   0.75194   0.75292   0.75818   0.75973
 Alpha virt. eigenvalues --    0.76184   0.76274   0.76362   0.76631   0.76767
 Alpha virt. eigenvalues --    0.76799   0.77058   0.77315   0.77476   0.77640
 Alpha virt. eigenvalues --    0.77829   0.78149   0.78572   0.79206   0.79510
 Alpha virt. eigenvalues --    0.79903   0.80272   0.80319   0.80548   0.80765
 Alpha virt. eigenvalues --    0.81145   0.81316   0.81505   0.81777   0.82002
 Alpha virt. eigenvalues --    0.82268   0.82400   0.82666   0.82978   0.83160
 Alpha virt. eigenvalues --    0.83369   0.83901   0.84200   0.84396   0.84772
 Alpha virt. eigenvalues --    0.85230   0.85427   0.85499   0.85921   0.86571
 Alpha virt. eigenvalues --    0.86962   0.87184   0.87296   0.87459   0.87704
 Alpha virt. eigenvalues --    0.87915   0.88420   0.88758   0.89029   0.89465
 Alpha virt. eigenvalues --    0.89733   0.89776   0.89974   0.90286   0.90518
 Alpha virt. eigenvalues --    0.90729   0.90990   0.91406   0.92105   0.92257
 Alpha virt. eigenvalues --    0.92431   0.92845   0.92958   0.93138   0.93572
 Alpha virt. eigenvalues --    0.93715   0.94092   0.94229   0.94555   0.94712
 Alpha virt. eigenvalues --    0.94816   0.95509   0.95857   0.96041   0.96228
 Alpha virt. eigenvalues --    0.96520   0.96800   0.96935   0.97079   0.97138
 Alpha virt. eigenvalues --    0.97470   0.97688   0.97910   0.98149   0.98506
 Alpha virt. eigenvalues --    0.98596   0.98621   0.99084   0.99181   0.99650
 Alpha virt. eigenvalues --    1.00060   1.00249   1.00651   1.00774   1.00889
 Alpha virt. eigenvalues --    1.01056   1.01475   1.01811   1.02093   1.02344
 Alpha virt. eigenvalues --    1.02817   1.02926   1.03404   1.03794   1.04013
 Alpha virt. eigenvalues --    1.04240   1.04661   1.05224   1.05410   1.05573
 Alpha virt. eigenvalues --    1.05593   1.05942   1.06131   1.06288   1.07141
 Alpha virt. eigenvalues --    1.07679   1.07817   1.08065   1.08451   1.08688
 Alpha virt. eigenvalues --    1.09047   1.09088   1.09537   1.09825   1.10258
 Alpha virt. eigenvalues --    1.10427   1.10848   1.11224   1.11354   1.11552
 Alpha virt. eigenvalues --    1.11944   1.12005   1.12226   1.12429   1.12695
 Alpha virt. eigenvalues --    1.13200   1.13391   1.13719   1.13926   1.14054
 Alpha virt. eigenvalues --    1.14244   1.14698   1.14942   1.15166   1.15388
 Alpha virt. eigenvalues --    1.15534   1.15688   1.16016   1.16291   1.16503
 Alpha virt. eigenvalues --    1.16649   1.17022   1.17164   1.17569   1.17723
 Alpha virt. eigenvalues --    1.18042   1.18191   1.18618   1.18930   1.19048
 Alpha virt. eigenvalues --    1.19609   1.20122   1.20302   1.20350   1.20883
 Alpha virt. eigenvalues --    1.21094   1.21182   1.21373   1.21491   1.22278
 Alpha virt. eigenvalues --    1.22763   1.22842   1.22979   1.23072   1.23668
 Alpha virt. eigenvalues --    1.23826   1.24053   1.24204   1.24293   1.24460
 Alpha virt. eigenvalues --    1.24735   1.25113   1.25383   1.25729   1.25955
 Alpha virt. eigenvalues --    1.26132   1.26335   1.27058   1.27287   1.27476
 Alpha virt. eigenvalues --    1.27683   1.28054   1.28164   1.28344   1.28421
 Alpha virt. eigenvalues --    1.28527   1.28897   1.28943   1.29410   1.29618
 Alpha virt. eigenvalues --    1.29855   1.30158   1.30379   1.30500   1.30797
 Alpha virt. eigenvalues --    1.30943   1.31308   1.31580   1.32057   1.32192
 Alpha virt. eigenvalues --    1.32830   1.32905   1.33192   1.33341   1.34021
 Alpha virt. eigenvalues --    1.34515   1.34876   1.35084   1.35572   1.35709
 Alpha virt. eigenvalues --    1.36130   1.36229   1.36430   1.36519   1.37083
 Alpha virt. eigenvalues --    1.37921   1.38274   1.38560   1.39205   1.39371
 Alpha virt. eigenvalues --    1.39586   1.39694   1.39830   1.39930   1.40128
 Alpha virt. eigenvalues --    1.40360   1.40594   1.40968   1.41055   1.41342
 Alpha virt. eigenvalues --    1.41490   1.42272   1.42442   1.42871   1.43189
 Alpha virt. eigenvalues --    1.43403   1.43705   1.43851   1.44256   1.44367
 Alpha virt. eigenvalues --    1.44555   1.44723   1.45040   1.45068   1.45792
 Alpha virt. eigenvalues --    1.45973   1.46472   1.46824   1.47322   1.47812
 Alpha virt. eigenvalues --    1.47956   1.48296   1.48392   1.48635   1.48709
 Alpha virt. eigenvalues --    1.48891   1.49105   1.49268   1.49964   1.50086
 Alpha virt. eigenvalues --    1.50290   1.50805   1.51349   1.51925   1.52323
 Alpha virt. eigenvalues --    1.52561   1.53140   1.53434   1.53553   1.53600
 Alpha virt. eigenvalues --    1.54001   1.54124   1.54440   1.55082   1.55386
 Alpha virt. eigenvalues --    1.55710   1.55815   1.55847   1.55959   1.56342
 Alpha virt. eigenvalues --    1.56915   1.57324   1.57707   1.57987   1.58108
 Alpha virt. eigenvalues --    1.58820   1.58845   1.59289   1.59988   1.60434
 Alpha virt. eigenvalues --    1.60549   1.60735   1.61763   1.62013   1.62331
 Alpha virt. eigenvalues --    1.62334   1.62537   1.63231   1.63707   1.64407
 Alpha virt. eigenvalues --    1.64682   1.64704   1.65114   1.65257   1.65339
 Alpha virt. eigenvalues --    1.65569   1.65833   1.66216   1.66475   1.66571
 Alpha virt. eigenvalues --    1.66862   1.67346   1.67664   1.67751   1.68105
 Alpha virt. eigenvalues --    1.68436   1.68506   1.68852   1.69013   1.69282
 Alpha virt. eigenvalues --    1.69558   1.69719   1.70129   1.70245   1.70357
 Alpha virt. eigenvalues --    1.70824   1.71241   1.71459   1.71825   1.72219
 Alpha virt. eigenvalues --    1.72253   1.72618   1.73039   1.73283   1.73683
 Alpha virt. eigenvalues --    1.73692   1.74034   1.74156   1.74364   1.74381
 Alpha virt. eigenvalues --    1.74620   1.74890   1.74988   1.75607   1.75677
 Alpha virt. eigenvalues --    1.75720   1.75871   1.76148   1.76218   1.76269
 Alpha virt. eigenvalues --    1.76589   1.76877   1.77030   1.77210   1.77425
 Alpha virt. eigenvalues --    1.77488   1.77711   1.77823   1.78173   1.78415
 Alpha virt. eigenvalues --    1.78443   1.78727   1.78918   1.78976   1.79079
 Alpha virt. eigenvalues --    1.79125   1.79258   1.79484   1.79894   1.79912
 Alpha virt. eigenvalues --    1.80120   1.80307   1.80399   1.80481   1.80623
 Alpha virt. eigenvalues --    1.80701   1.80821   1.81128   1.81378   1.81502
 Alpha virt. eigenvalues --    1.81588   1.81839   1.81959   1.82031   1.82123
 Alpha virt. eigenvalues --    1.82289   1.82475   1.82720   1.82793   1.83032
 Alpha virt. eigenvalues --    1.83067   1.83218   1.83382   1.83657   1.83869
 Alpha virt. eigenvalues --    1.83984   1.84327   1.84369   1.84489   1.84678
 Alpha virt. eigenvalues --    1.84815   1.85215   1.85400   1.85670   1.85883
 Alpha virt. eigenvalues --    1.86053   1.86262   1.86414   1.86458   1.86717
 Alpha virt. eigenvalues --    1.86865   1.87097   1.87218   1.87379   1.87565
 Alpha virt. eigenvalues --    1.87774   1.87918   1.87968   1.88287   1.88446
 Alpha virt. eigenvalues --    1.88701   1.88936   1.89163   1.89435   1.89682
 Alpha virt. eigenvalues --    1.89885   1.90177   1.90523   1.90759   1.90856
 Alpha virt. eigenvalues --    1.91173   1.91322   1.91688   1.91843   1.91925
 Alpha virt. eigenvalues --    1.91995   1.92096   1.92530   1.92752   1.92868
 Alpha virt. eigenvalues --    1.93070   1.93149   1.93274   1.93480   1.93624
 Alpha virt. eigenvalues --    1.93639   1.93890   1.94306   1.94466   1.94624
 Alpha virt. eigenvalues --    1.95053   1.95084   1.95250   1.95653   1.95679
 Alpha virt. eigenvalues --    1.95997   1.96227   1.96520   1.96705   1.96911
 Alpha virt. eigenvalues --    1.97032   1.97474   1.97778   1.98214   1.98450
 Alpha virt. eigenvalues --    1.98507   1.98836   1.99086   1.99209   1.99398
 Alpha virt. eigenvalues --    1.99686   1.99849   2.00179   2.00298   2.00867
 Alpha virt. eigenvalues --    2.01240   2.01485   2.01661   2.01662   2.01697
 Alpha virt. eigenvalues --    2.01937   2.02345   2.02455   2.02477   2.02852
 Alpha virt. eigenvalues --    2.03092   2.03414   2.03666   2.03758   2.03987
 Alpha virt. eigenvalues --    2.04160   2.04443   2.04717   2.05024   2.05259
 Alpha virt. eigenvalues --    2.05395   2.05696   2.06650   2.07102   2.07224
 Alpha virt. eigenvalues --    2.07260   2.07644   2.07962   2.08212   2.08452
 Alpha virt. eigenvalues --    2.08779   2.08921   2.09151   2.09368   2.09812
 Alpha virt. eigenvalues --    2.10227   2.10498   2.10659   2.11048   2.11480
 Alpha virt. eigenvalues --    2.11748   2.11849   2.12376   2.12709   2.13037
 Alpha virt. eigenvalues --    2.13492   2.13621   2.13808   2.13914   2.14424
 Alpha virt. eigenvalues --    2.14503   2.14696   2.15000   2.15141   2.15401
 Alpha virt. eigenvalues --    2.15673   2.15738   2.16147   2.16462   2.16867
 Alpha virt. eigenvalues --    2.17227   2.17763   2.17952   2.18217   2.18465
 Alpha virt. eigenvalues --    2.18666   2.18816   2.19008   2.19405   2.20145
 Alpha virt. eigenvalues --    2.20458   2.20665   2.21083   2.21123   2.21354
 Alpha virt. eigenvalues --    2.21643   2.21946   2.22824   2.23502   2.23704
 Alpha virt. eigenvalues --    2.23741   2.23973   2.24251   2.24887   2.24990
 Alpha virt. eigenvalues --    2.25490   2.25523   2.25668   2.25919   2.26305
 Alpha virt. eigenvalues --    2.26737   2.26985   2.27558   2.27566   2.27938
 Alpha virt. eigenvalues --    2.28357   2.28435   2.28811   2.29429   2.29743
 Alpha virt. eigenvalues --    2.30360   2.30636   2.30984   2.31157   2.31205
 Alpha virt. eigenvalues --    2.31683   2.31868   2.31924   2.32032   2.32334
 Alpha virt. eigenvalues --    2.32385   2.32475   2.33045   2.33173   2.33644
 Alpha virt. eigenvalues --    2.33998   2.34064   2.34578   2.34998   2.35175
 Alpha virt. eigenvalues --    2.35492   2.35839   2.35906   2.36077   2.36147
 Alpha virt. eigenvalues --    2.36331   2.36663   2.37208   2.37447   2.37694
 Alpha virt. eigenvalues --    2.38777   2.39206   2.39309   2.39962   2.39977
 Alpha virt. eigenvalues --    2.40725   2.41257   2.41516   2.41647   2.41801
 Alpha virt. eigenvalues --    2.42330   2.42802   2.43469   2.43656   2.44048
 Alpha virt. eigenvalues --    2.44285   2.44597   2.45127   2.45711   2.46051
 Alpha virt. eigenvalues --    2.46161   2.46416   2.46828   2.47241   2.47466
 Alpha virt. eigenvalues --    2.47526   2.47816   2.47972   2.48242   2.48513
 Alpha virt. eigenvalues --    2.48560   2.50127   2.50422   2.50603   2.50959
 Alpha virt. eigenvalues --    2.51270   2.51711   2.51777   2.51872   2.52345
 Alpha virt. eigenvalues --    2.52707   2.53145   2.53390   2.53564   2.54128
 Alpha virt. eigenvalues --    2.54741   2.55001   2.55528   2.55915   2.56103
 Alpha virt. eigenvalues --    2.56730   2.57265   2.57375   2.58298   2.58519
 Alpha virt. eigenvalues --    2.58633   2.59058   2.59072   2.59742   2.59913
 Alpha virt. eigenvalues --    2.60689   2.60750   2.60899   2.61377   2.61580
 Alpha virt. eigenvalues --    2.62150   2.62214   2.62276   2.62435   2.62488
 Alpha virt. eigenvalues --    2.62985   2.63013   2.63543   2.63648   2.63788
 Alpha virt. eigenvalues --    2.64184   2.64368   2.64620   2.65546   2.65859
 Alpha virt. eigenvalues --    2.65975   2.65996   2.66120   2.66505   2.66643
 Alpha virt. eigenvalues --    2.66782   2.67208   2.67420   2.67826   2.67930
 Alpha virt. eigenvalues --    2.68719   2.69151   2.69306   2.69394   2.69724
 Alpha virt. eigenvalues --    2.69995   2.70077   2.70471   2.71256   2.71388
 Alpha virt. eigenvalues --    2.71499   2.71868   2.72065   2.72208   2.72507
 Alpha virt. eigenvalues --    2.72988   2.73275   2.73327   2.73782   2.74027
 Alpha virt. eigenvalues --    2.74231   2.74463   2.74941   2.75094   2.75791
 Alpha virt. eigenvalues --    2.75970   2.76082   2.76218   2.76715   2.77068
 Alpha virt. eigenvalues --    2.77576   2.77599   2.77824   2.78315   2.78386
 Alpha virt. eigenvalues --    2.78556   2.78946   2.79100   2.79382   2.79791
 Alpha virt. eigenvalues --    2.80010   2.80048   2.80303   2.80536   2.80681
 Alpha virt. eigenvalues --    2.81095   2.81231   2.81892   2.81981   2.82040
 Alpha virt. eigenvalues --    2.82428   2.82644   2.82724   2.83216   2.84167
 Alpha virt. eigenvalues --    2.84186   2.84523   2.84762   2.85075   2.85379
 Alpha virt. eigenvalues --    2.85750   2.86337   2.87352   2.87472   2.87547
 Alpha virt. eigenvalues --    2.87675   2.87745   2.88097   2.88569   2.88665
 Alpha virt. eigenvalues --    2.88813   2.89230   2.89611   2.89700   2.90012
 Alpha virt. eigenvalues --    2.90526   2.90967   2.91171   2.91765   2.91832
 Alpha virt. eigenvalues --    2.91849   2.92801   2.93187   2.93434   2.93647
 Alpha virt. eigenvalues --    2.93918   2.94058   2.94233   2.94352   2.94678
 Alpha virt. eigenvalues --    2.95161   2.95267   2.95458   2.95608   2.95722
 Alpha virt. eigenvalues --    2.96266   2.96669   2.96939   2.97194   2.97556
 Alpha virt. eigenvalues --    2.97806   2.98131   2.98369   2.98435   2.98573
 Alpha virt. eigenvalues --    2.98702   2.99402   2.99690   2.99931   3.00440
 Alpha virt. eigenvalues --    3.00857   3.01102   3.01472   3.01608   3.02201
 Alpha virt. eigenvalues --    3.02557   3.02949   3.03135   3.03199   3.03489
 Alpha virt. eigenvalues --    3.04011   3.04303   3.04725   3.05075   3.05283
 Alpha virt. eigenvalues --    3.05622   3.05688   3.05841   3.06474   3.06718
 Alpha virt. eigenvalues --    3.07816   3.08647   3.09578   3.10196   3.10471
 Alpha virt. eigenvalues --    3.11133   3.11533   3.11648   3.12083   3.13645
 Alpha virt. eigenvalues --    3.13771   3.14086   3.14351   3.15290   3.15469
 Alpha virt. eigenvalues --    3.15646   3.15807   3.16021   3.16918   3.17001
 Alpha virt. eigenvalues --    3.17309   3.17450   3.17844   3.18087   3.18207
 Alpha virt. eigenvalues --    3.18356   3.18592   3.18958   3.19846   3.20108
 Alpha virt. eigenvalues --    3.20691   3.20901   3.20949   3.21661   3.21715
 Alpha virt. eigenvalues --    3.22117   3.22267   3.22776   3.22845   3.23022
 Alpha virt. eigenvalues --    3.24176   3.24414   3.25083   3.25603   3.25969
 Alpha virt. eigenvalues --    3.26551   3.27334   3.27597   3.28003   3.28306
 Alpha virt. eigenvalues --    3.28416   3.28638   3.31757   3.32382   3.32999
 Alpha virt. eigenvalues --    3.34071   3.35552   3.36182   3.37701   3.37916
 Alpha virt. eigenvalues --    3.38699   3.39353   3.42556   3.44778   3.45144
 Alpha virt. eigenvalues --    3.47813   3.51007   3.53234   3.54178   3.54912
 Alpha virt. eigenvalues --    3.55962   3.56433   3.56920   3.57561   3.58252
 Alpha virt. eigenvalues --    3.58812   3.59388   3.60114   3.60851   3.61617
 Alpha virt. eigenvalues --    3.61636   3.62996   3.64707   3.66586   3.66661
 Alpha virt. eigenvalues --    3.67254   3.67891   3.68192   3.68963   3.69085
 Alpha virt. eigenvalues --    3.69326   3.69545   3.70112   3.70205   3.71746
 Alpha virt. eigenvalues --    3.72077   3.72122   3.73189   3.73617   3.75085
 Alpha virt. eigenvalues --    3.75595   3.76773   3.80830   3.81737
          Condensed to atoms (all electrons):
 Mulliken charges:
               1
     1  C    0.071160
     2  C    0.001721
     3  O   -0.314222
     4  H   -0.016143
     5  H    0.018313
     6  H    0.035589
     7  N   -0.106707
     8  C    0.064246
     9  C    0.115799
    10  O   -0.305608
    11  C    0.058051
    12  C    0.091348
    13  O   -0.422543
    14  O   -0.350667
    15  H    0.113858
    16  H   -0.016346
    17  H    0.013929
    18  H   -0.026938
    19  N   -0.107020
    20  C    0.111077
    21  C    0.048888
    22  O   -0.230666
    23  C    0.048105
    24  C    0.021509
    25  C   -0.005234
    26  C    0.014190
    27  N    0.084094
    28  H    0.099780
    29  H   -0.003348
    30  H   -0.017175
    31  H    0.029050
    32  H    0.027150
    33  H   -0.008401
    34  H    0.013201
    35  H    0.047045
    36  H    0.056329
    37  H    0.068562
    38  H    0.199915
    39  H    0.187060
    40  H    0.188550
    41  N   -0.164617
    42  C    0.109064
    43  C    0.101743
    44  O   -0.315654
    45  C    0.139018
    46  C    0.025807
    47  O   -0.496672
    48  O   -0.378326
    49  H    0.141222
    50  H    0.058583
    51  H   -0.007649
    52  H    0.029519
    53  N   -0.121405
    54  C    0.249856
    55  C    0.025379
    56  O   -0.251082
    57  H    0.128584
    58  H    0.022162
    59  H    0.009555
    60  N   -0.118413
    61  C    0.046780
    62  C    0.109124
    63  O   -0.312710
    64  C    0.155156
    65  C   -0.008724
    66  N   -0.045388
    67  O   -0.273667
    68  H    0.121729
    69  H    0.036597
    70  H   -0.013779
    71  H   -0.017424
    72  H    0.114046
    73  H    0.128036
    74  N   -0.120045
    75  C    0.171231
    76  C    0.062800
    77  O   -0.248286
    78  H    0.138606
    79  H    0.013822
    80  H    0.039763
    81  N   -0.176319
    82  C    0.127286
    83  C    0.041756
    84  O   -0.270407
    85  C    0.163432
    86  C   -0.021455
    87  C    0.026405
    88  C   -0.019988
    89  C   -0.016448
    90  C   -0.067833
    91  C    0.146953
    92  O   -0.179406
    93  H    0.123870
    94  H    0.009055
    95  H    0.031581
    96  H    0.022052
    97  H   -0.016809
    98  H   -0.043203
    99  H   -0.016650
   100  H   -0.047929
   101  H    0.169355
   102  N   -0.128033
   103  C    0.186646
   104  C    0.050874
   105  O   -0.291695
   106  C   -0.087391
   107  C    0.030844
   108  C    0.079552
   109  C   -0.022121
   110  H    0.105124
   111  H    0.001633
   112  H   -0.004180
   113  H    0.004906
   114  H    0.006403
   115  H    0.004566
   116  H    0.012960
   117  H    0.001090
   118  H   -0.018842
   119  H    0.022338
   120  H    0.013109
   121  N   -0.116985
   122  C    0.116639
   123  C    0.046651
   124  O   -0.269408
   125  C    0.220832
   126  O   -0.323475
   127  H    0.124702
   128  H    0.017679
   129  H    0.019207
   130  H   -0.008521
   131  H    0.174704
   132  N   -0.119956
   133  C    0.061127
   134  C    0.051678
   135  O   -0.285053
   136  C    0.095915
   137  H    0.125705
   138  H    0.016513
   139  H    0.030129
   140  H    0.017626
   141  H   -0.004838
   142  N   -0.129337
   143  C    0.080369
   144  C    0.070540
   145  O   -0.280620
   146  C    0.039637
   147  H    0.166288
   148  H    0.014597
   149  H    0.008928
   150  H    0.007816
   151  H    0.040000
   152  N   -0.145414
   153  C    0.125237
   154  C    0.065373
   155  O   -0.304936
   156  C    0.067832
   157  C    0.038923
   158  C    0.089203
   159  O   -0.456841
   160  O   -0.377908
   161  H    0.112920
   162  H   -0.007181
   163  H   -0.002038
   164  H    0.033762
   165  H   -0.006557
   166  H   -0.016651
   167  N   -0.124512
   168  C    0.132627
   169  H    0.039639
   170  H    0.023587
   171  H    0.016701
   172  H    0.108448
   173  Ca   1.361254
   174  O   -0.305740
   175  H    0.182530
   176  H    0.205726
 Sum of Mulliken charges =  -0.00000
 Mulliken charges with hydrogens summed into heavy atoms:
               1
     1  C    0.108919
     2  C    0.001721
     3  O   -0.314222
     7  N    0.007151
     8  C    0.047900
     9  C    0.115799
    10  O   -0.305608
    11  C    0.045042
    12  C    0.091348
    13  O   -0.422543
    14  O   -0.350667
    19  N   -0.007241
    20  C    0.107730
    21  C    0.048888
    22  O   -0.230666
    23  C    0.059980
    24  C    0.040258
    25  C    0.055012
    26  C    0.139081
    27  N    0.659619
    41  N   -0.023395
    42  C    0.167647
    43  C    0.101743
    44  O   -0.315654
    45  C    0.160889
    46  C    0.025807
    47  O   -0.496672
    48  O   -0.378326
    53  N    0.007179
    54  C    0.281573
    55  C    0.025379
    56  O   -0.251082
    60  N    0.003317
    61  C    0.083377
    62  C    0.109124
    63  O   -0.312710
    64  C    0.123953
    65  C   -0.008724
    66  N    0.196694
    67  O   -0.273667
    74  N    0.018561
    75  C    0.224816
    76  C    0.062800
    77  O   -0.248286
    81  N   -0.052449
    82  C    0.136341
    83  C    0.041756
    84  O   -0.270407
    85  C    0.217064
    86  C   -0.021455
    87  C    0.009597
    88  C   -0.063190
    89  C   -0.033098
    90  C   -0.115763
    91  C    0.146953
    92  O   -0.010051
   102  N   -0.022909
   103  C    0.188279
   104  C    0.050874
   105  O   -0.291695
   106  C   -0.091571
   107  C    0.042153
   108  C    0.098168
   109  C   -0.005516
   121  N    0.007717
   122  C    0.134318
   123  C    0.046651
   124  O   -0.269408
   125  C    0.231518
   126  O   -0.148771
   132  N    0.005749
   133  C    0.077641
   134  C    0.051678
   135  O   -0.285053
   136  C    0.138833
   142  N    0.036951
   143  C    0.094966
   144  C    0.070540
   145  O   -0.280620
   146  C    0.096382
   152  N   -0.032494
   153  C    0.118056
   154  C    0.065373
   155  O   -0.304936
   156  C    0.099556
   157  C    0.015716
   158  C    0.089203
   159  O   -0.456841
   160  O   -0.377908
   167  N   -0.016064
   168  C    0.212555
   173  Ca   1.361254
   174  O    0.082516
 DipInt: DoE/N= T F RetVal/Mat= T F Init=T NMatP=  1 IDeriv=0 Min/MaxMlt=  0  4
 Entering OneElI...
 OneElI was handed  1333951383 working-precision words.
 Multipole integrals L=0 to 4 MinM= 0 MaxM= 0.
 Requested accuracy = 0.1000D-12
 ShPair: Thresh= 1.00D-13 NBox=     0 BxSize= 0.00D+00 RnKept= 3.45D+01
         NSMCal=               327645 NSMKep=              121612
 PrmmSu-InSpLW:  IPartL=    0 NPrtUS=    1 NPrtUL=    1 DoSpLW=F IThBeg=    0 IThEnd=    0 NThAct=    1.
 PrsmSu:  NPrtUS=   1 ThrOK=F IAlg=1 NPAlg=1 LenDen=           0 ISkipM=0 DoSpLW=F IThBeg=    0 IThEnd=    0.
 Prism:   IPart=     0 DynPar=F LinDyn=F Incr=         512.
 PRISM was handed  1325385191 working-precision words and121612 shell-pairs
 IPart=  0 NShTot=      121612 NBatch=         284 AvBLen=       428.2
 PrsmSu-ThDecC:  IPartSL=    0    0 NPrtUSL=    1    1 IThBeg=    0 IThEnd=    0 CPU=   -1 GPU=   -1 NThAct=    1.
 PrSmSu:  NxtVal=            513.
 Electronic moments (au):
       -716.00000000          6.07066293          8.55332487         -9.52207846
     -98883.70881250     -38562.92921083     -14197.72576358       -265.20635340
         56.40255929         -5.57310597     133014.79167492     -35611.00227662
     -17543.07821489    -100514.77589577     128931.55167100    -234731.48942821
      69640.44731839      -1332.40679724        243.08829736       3985.02149091
  -27578381.85145656   -4009829.56674320    -934989.04523653    1336989.10989713
    1000241.25596323      -1894.53931316    -404371.61316825     470953.48670561
     137855.44620613   -3679037.27178021   -2314868.01424617    -554134.16300210
     936715.94159580    -414280.37710628      18119.04444737
 Electronic spatial extent (au):  <R**2>=         151644.3638
 DipInt: DoE/N= F T RetVal/Mat= T F Init=T NMatP=  1 IDeriv=0 Min/MaxMlt=  0  4
 Nuclear    moments (au):
        716.00000000          0.00000000          0.00000000          0.00000000
      98461.86568557      38098.24412494      13830.26692883          0.00000000
         -0.00000000         -0.00000000    -129481.05762531      36444.44133522
      16747.41925151     100105.80274115    -125547.83564071     232764.31425924
     -69576.67497055       1450.30801130       -639.56376827      -3650.35304692
   27217289.65974319    3863495.66453428     893829.62234180   -1433458.90539996
    -973687.54906491     -15879.36880677     403240.62284449    -465868.64175453
    -139148.23875817    3605764.04888170    2242479.02682269     524140.35849058
    -934604.57145995     413833.77578755     -18228.98406815
 Total      moments (au):
         -0.00000000          6.07066293          8.55332487         -9.52207846
       -421.84312693       -464.68508588       -367.45883475       -265.20635340
         56.40255929         -5.57310597       3533.73404961        833.43905859
       -795.65896338       -408.97315462       3383.71603029      -1967.17516897
         63.77234785        117.90121407       -396.47547090        334.66844399
    -361092.19171337    -146333.90220891     -41159.42289473     -96469.79550283
      26553.70689833     -17773.90811993      -1130.99032375       5084.84495108
      -1292.79255204     -73273.22289851     -72388.98742348     -29993.80451153
       2111.37013585       -446.60131873       -109.93962077
 Traceless Quadrup. (au):
         -3.84744441        -46.68940336         50.53684777       -265.20635340
         56.40255929         -5.57310597
 Charge=             -0.0000 electrons
 Dipole moment (field-independent basis, Debye):
    X=             15.4301    Y=             21.7404    Z=            -24.2027  Tot=             36.0070
 Quadrupole moment (field-independent basis, Debye-Ang):
   XX=           -567.3935   YY=           -625.0174   ZZ=           -494.2447
   XY=           -356.7116   XZ=             75.8634   YZ=             -7.4960
 Traceless Quadrupole moment (field-independent basis, Debye-Ang):
   XX=             -5.1749   YY=            -62.7988   ZZ=             67.9738
   XY=           -356.7116   XZ=             75.8634   YZ=             -7.4960
 Octapole moment (field-independent basis, Debye-Ang**2):
  XXX=           2515.1758  YYY=            593.2098  ZZZ=           -566.3194  XYY=           -291.0913
  XXY=           2408.3987  XXZ=          -1400.1595  XZZ=             45.3907  YZZ=             83.9175
  YYZ=           -282.1960  XYZ=            238.2041
 Hexadecapole moment (field-independent basis, Debye-Ang**3):
 XXXX=        -136004.6343 YYYY=         -55116.3645 ZZZZ=         -15502.6123 XXXY=         -36335.1509
 XXXZ=          10001.3993 YYYX=          -6694.5061 YYYZ=           -425.9852 ZZZX=           1915.1964
 ZZZY=           -486.9277 XXYY=         -27598.2093 XXZZ=         -27265.1638 YYZZ=         -11297.1050
 XXYZ=            795.2432 YYXZ=           -168.2115 ZZXY=            -41.4085
 N-N= 1.870434884430D+04 E-N=-4.988598491122D+04  KE= 5.290657385650D+03
 Leave Link  601 at Tue Sep 17 00:18:33 2019, MaxMem=  1342177280 cpu:              43.8 elap:               1.1
 FitSet:  NAtFit=   176 NAtPot=   176 NAtFrz=     0 MDM=   180 TotChg=   0.00000
 Merz-Kollman atomic radii used.
 Read replacement radii for each type of atom:
 Rad(20) =   1.700000000000D+00
 Atom Element Radius
    1     6    1.50
    2     6    1.50
    3     8    1.40
    4     1    1.20
    5     1    1.20
    6     1    1.20
    7     7    1.50
    8     6    1.50
    9     6    1.50
   10     8    1.40
   11     6    1.50
   12     6    1.50
   13     8    1.40
   14     8    1.40
   15     1    1.20
   16     1    1.20
   17     1    1.20
   18     1    1.20
   19     7    1.50
   20     6    1.50
   21     6    1.50
   22     8    1.40
   23     6    1.50
   24     6    1.50
   25     6    1.50
   26     6    1.50
   27     7    1.50
   28     1    1.20
   29     1    1.20
   30     1    1.20
   31     1    1.20
   32     1    1.20
   33     1    1.20
   34     1    1.20
   35     1    1.20
   36     1    1.20
   37     1    1.20
   38     1    1.20
   39     1    1.20
   40     1    1.20
   41     7    1.50
   42     6    1.50
   43     6    1.50
   44     8    1.40
   45     6    1.50
   46     6    1.50
   47     8    1.40
   48     8    1.40
   49     1    1.20
   50     1    1.20
   51     1    1.20
   52     1    1.20
   53     7    1.50
   54     6    1.50
   55     6    1.50
   56     8    1.40
   57     1    1.20
   58     1    1.20
   59     1    1.20
   60     7    1.50
   61     6    1.50
   62     6    1.50
   63     8    1.40
   64     6    1.50
   65     6    1.50
   66     7    1.50
   67     8    1.40
   68     1    1.20
   69     1    1.20
   70     1    1.20
   71     1    1.20
   72     1    1.20
   73     1    1.20
   74     7    1.50
   75     6    1.50
   76     6    1.50
   77     8    1.40
   78     1    1.20
   79     1    1.20
   80     1    1.20
   81     7    1.50
   82     6    1.50
   83     6    1.50
   84     8    1.40
   85     6    1.50
   86     6    1.50
   87     6    1.50
   88     6    1.50
   89     6    1.50
   90     6    1.50
   91     6    1.50
   92     8    1.40
   93     1    1.20
   94     1    1.20
   95     1    1.20
   96     1    1.20
   97     1    1.20
   98     1    1.20
   99     1    1.20
  100     1    1.20
  101     1    1.20
  102     7    1.50
  103     6    1.50
  104     6    1.50
  105     8    1.40
  106     6    1.50
  107     6    1.50
  108     6    1.50
  109     6    1.50
  110     1    1.20
  111     1    1.20
  112     1    1.20
  113     1    1.20
  114     1    1.20
  115     1    1.20
  116     1    1.20
  117     1    1.20
  118     1    1.20
  119     1    1.20
  120     1    1.20
  121     7    1.50
  122     6    1.50
  123     6    1.50
  124     8    1.40
  125     6    1.50
  126     8    1.40
  127     1    1.20
  128     1    1.20
  129     1    1.20
  130     1    1.20
  131     1    1.20
  132     7    1.50
  133     6    1.50
  134     6    1.50
  135     8    1.40
  136     6    1.50
  137     1    1.20
  138     1    1.20
  139     1    1.20
  140     1    1.20
  141     1    1.20
  142     7    1.50
  143     6    1.50
  144     6    1.50
  145     8    1.40
  146     6    1.50
  147     1    1.20
  148     1    1.20
  149     1    1.20
  150     1    1.20
  151     1    1.20
  152     7    1.50
  153     6    1.50
  154     6    1.50
  155     8    1.40
  156     6    1.50
  157     6    1.50
  158     6    1.50
  159     8    1.40
  160     8    1.40
  161     1    1.20
  162     1    1.20
  163     1    1.20
  164     1    1.20
  165     1    1.20
  166     1    1.20
  167     7    1.50
  168     6    1.50
[...]
 **** Fit      -0.003639
 **** Fit      -0.003888
 **** Fit      -0.004424
 **** Fit      -0.005196
 **** Fit      -0.009021
 **** Fit      -0.011755
 **** Fit      -0.011220
 **** Fit      -0.010069
 **** Fit      -0.008626
 **** Fit      -0.007181
 **** Fit      -0.005927
 **** Fit      -0.004973
 **** Fit      -0.004367
 **** Fit      -0.004122
 **** Fit      -0.004236
 **** Fit      -0.004693
 **** Fit      -0.005474
 **** Fit      -0.006536
 **** Fit      -0.011463
 **** Fit      -0.014743
 **** Fit      -0.013992
 **** Fit      -0.012431
 **** Fit      -0.010540
 **** Fit      -0.008695
 **** Fit      -0.007120
 **** Fit      -0.005921
 **** Fit      -0.005136
 **** Fit      -0.004768
 **** Fit      -0.004809
 **** Fit      -0.005251
 **** Fit      -0.006090
 **** Fit      -0.014320
 **** Fit      -0.017601
 **** Fit      -0.016559
 **** Fit      -0.014452
 **** Fit      -0.012020
 **** Fit      -0.009761
 **** Fit      -0.007922
 **** Fit      -0.006592
 **** Fit      -0.005782
 **** Fit      -0.005481
 **** Fit      -0.005674
 **** Fit      -0.006363
 **** Fit      -0.007571
 **** Fit      -0.017963
 **** Fit      -0.015475
 **** Fit      -0.012682
 **** Fit      -0.010211
 **** Fit      -0.008315
 **** Fit      -0.007058
 **** Fit      -0.006430
 **** Fit      -0.006410
 **** Fit      -0.006998
 **** Fit      -0.012425
 **** Fit      -0.010187
 **** Fit      -0.008560
 **** Fit      -0.007617
 **** Fit      -0.007360
 **** Fit      -0.007792
 **** Fit      -0.019655
 **** Fit      -0.016613
 **** Fit       0.020936
 **** Fit       0.019962
 **** Fit       0.027573
 **** Fit       0.030362
 **** Fit       0.030387
 **** Fit       0.034625
 **** Fit       0.037805
 **** Fit       0.038777
 **** Fit       0.036761
 **** Fit       0.038096
 **** Fit       0.042485
 **** Fit       0.044936
 **** Fit       0.044942
 **** Fit       0.041842
 **** Fit       0.039089
 **** Fit       0.044913
 **** Fit       0.048772
 **** Fit       0.050492
 **** Fit       0.049708
 **** Fit       0.045898
 **** Fit       0.040698
 **** Fit       0.047475
 **** Fit       0.052071
 **** Fit       0.054534
 **** Fit       0.054699
 **** Fit       0.052236
 **** Fit       0.046693
 **** Fit       0.041914
 **** Fit       0.049365
 **** Fit       0.054552
 **** Fit       0.057661
 **** Fit       0.058671
 **** Fit       0.057417
 **** Fit       0.053626
 **** Fit       0.046953
 **** Fit       0.048482
 **** Fit       0.054963
 **** Fit       0.059292
 **** Fit       0.061584
 **** Fit       0.061805
 **** Fit       0.059819
 **** Fit       0.055423
 **** Fit       0.048395
 **** Fit       0.043990
 **** Fit       0.047242
 **** Fit       0.054681
 **** Fit       0.060014
 **** Fit       0.063397
 **** Fit       0.064878
 **** Fit       0.064417
 **** Fit       0.061920
 **** Fit       0.057280
 **** Fit       0.050423
 **** Fit       0.048203
 **** Fit       0.052289
 **** Fit       0.057846
 **** Fit       0.048979
 **** Fit       0.056352
 **** Fit       0.061833
 **** Fit       0.065501
 **** Fit       0.067393
 **** Fit       0.067498
 **** Fit       0.065779
 **** Fit       0.062205
 **** Fit       0.056803
 **** Fit       0.049724
 **** Fit       0.051310
 **** Fit       0.054402
 **** Fit       0.057820
 **** Fit       0.061903
 **** Fit       0.066778
 **** Fit       0.043143
 **** Fit       0.051406
 **** Fit       0.058285
 **** Fit       0.063631
 **** Fit       0.067401
 **** Fit       0.069585
 **** Fit       0.070172
 **** Fit       0.069154
 **** Fit       0.066551
 **** Fit       0.062453
 **** Fit       0.057073
 **** Fit       0.050815
 **** Fit       0.048043
 **** Fit       0.052396
 **** Fit       0.056057
 **** Fit       0.059247
 **** Fit       0.062304
 **** Fit       0.065482
 **** Fit       0.068851
 **** Fit       0.072266
 **** Fit       0.036268
 **** Fit       0.044029
 **** Fit       0.051371
 **** Fit       0.058111
 **** Fit       0.063773
 **** Fit       0.068107
 **** Fit       0.070991
 **** Fit       0.072372
 **** Fit       0.072237
 **** Fit       0.070624
 **** Fit       0.067653
 **** Fit       0.063574
 **** Fit       0.058812
 **** Fit       0.053996
 **** Fit       0.049915
 **** Fit       0.048244
 **** Fit       0.051134
 **** Fit       0.054709
 **** Fit       0.058327
 **** Fit       0.061655
 **** Fit       0.064657
 **** Fit       0.067444
 **** Fit       0.070095
 **** Fit       0.072542
 **** Fit       0.074490
 **** Fit       0.075351
 **** Fit       0.051835
 **** Fit       0.048497
 **** Fit       0.045182
 **** Fit       0.042310
 **** Fit       0.040617
 **** Fit       0.040789
 **** Fit       0.043118
 **** Fit       0.047341
 **** Fit       0.052762
 **** Fit       0.058544
 **** Fit       0.063965
 **** Fit       0.068521
 **** Fit       0.071906
 **** Fit       0.073956
 **** Fit       0.074608
 **** Fit       0.073885
 **** Fit       0.071912
 **** Fit       0.068950
 **** Fit       0.065419
 **** Fit       0.061903
 **** Fit       0.059066
 **** Fit       0.057486
 **** Fit       0.057444
 **** Fit       0.058812
 **** Fit       0.061139
 **** Fit       0.063892
 **** Fit       0.066668
 **** Fit       0.069269
 **** Fit       0.071627
 **** Fit       0.073678
 **** Fit       0.075243
 **** Fit       0.075975
 **** Fit       0.075385
 **** Fit       0.061932
 **** Fit       0.058781
 **** Fit       0.055949
 **** Fit       0.053542
 **** Fit       0.051958
 **** Fit       0.051701
 **** Fit       0.053092
 **** Fit       0.056057
 **** Fit       0.060129
 **** Fit       0.064636
 **** Fit       0.068926
 **** Fit       0.072496
 **** Fit       0.075018
 **** Fit       0.076324
 **** Fit       0.076377
 **** Fit       0.075276
 **** Fit       0.073269
 **** Fit       0.070758
 **** Fit       0.068271
 **** Fit       0.066368
 **** Fit       0.065478
 **** Fit       0.065752
 **** Fit       0.067022
 **** Fit       0.068918
 **** Fit       0.071055
 **** Fit       0.073147
 **** Fit       0.075002
 **** Fit       0.076444
 **** Fit       0.077235
 **** Fit       0.077061
 **** Fit       0.075633
 **** Fit       0.072917
 **** Fit       0.069305
 **** Fit       0.065474
 **** Fit       0.067513
 **** Fit       0.064762
 **** Fit       0.062490
 **** Fit       0.060952
 **** Fit       0.060519
 **** Fit       0.061476
 **** Fit       0.063788
 **** Fit       0.067051
 **** Fit       0.070641
 **** Fit       0.073929
 **** Fit       0.076431
 **** Fit       0.077860
 **** Fit       0.078131
 **** Fit       0.077355
 **** Fit       0.075840
 **** Fit       0.074056
 **** Fit       0.072544
 **** Fit       0.071754
 **** Fit       0.071885
 **** Fit       0.072836
 **** Fit       0.074297
 **** Fit       0.075912
 **** Fit       0.077371
 **** Fit       0.078401
 **** Fit       0.078725
 **** Fit       0.078080
 **** Fit       0.076341
 **** Fit       0.073687
 **** Fit       0.070581
 **** Fit       0.072099
 **** Fit       0.069844
 **** Fit       0.068217
 **** Fit       0.067551
 **** Fit       0.068109
 **** Fit       0.069875
 **** Fit       0.072465
 **** Fit       0.075255
 **** Fit       0.077620
 **** Fit       0.079121
 **** Fit       0.079584
 **** Fit       0.079121
 **** Fit       0.078096
 **** Fit       0.077024
 **** Fit       0.076392
 **** Fit       0.076459
 **** Fit       0.077171
 **** Fit       0.078237
 **** Fit       0.079283
 **** Fit       0.079945
 **** Fit       0.079904
 **** Fit       0.078946
 **** Fit       0.077090
 **** Fit       0.074652
 **** Fit       0.075763
 **** Fit       0.073980
 **** Fit       0.073084
 **** Fit       0.073427
 **** Fit       0.074964
 **** Fit       0.077149
 **** Fit       0.079187
 **** Fit       0.080444
 **** Fit       0.080718
 **** Fit       0.080287
 **** Fit       0.079726
 **** Fit       0.079556
 **** Fit       0.079931
 **** Fit       0.080587
 **** Fit       0.081049
 **** Fit       0.080855
 **** Fit       0.079758
 **** Fit       0.077894
 **** Fit       0.078560
 **** Fit       0.077331
 **** Fit       0.077380
 **** Fit       0.078705
 **** Fit       0.080393
 **** Fit       0.081427
 **** Fit       0.081589
 **** Fit       0.081463
 **** Fit       0.081594
 **** Fit       0.081813
 **** Fit       0.081489
 **** Fit       0.080266
 **** Fit       0.080528
 **** Fit       0.080105
 **** Fit       0.081229
 **** Fit       0.082046
 **** Fit       0.082178
 **** Fit       0.081773
 **** Fit       0.081688
 **** Fit      -0.014831
 **** Fit      -0.015223
 **** Fit      -0.005822
 **** Fit      -0.000907
 **** Fit      -0.016600
 **** Fit      -0.005861
 **** Fit       0.001817
 **** Fit       0.007150
 **** Fit      -0.006313
 **** Fit       0.001874
 **** Fit       0.008222
 **** Fit       0.013569
 **** Fit       0.018154
 **** Fit       0.022953
 **** Fit       0.049532
 **** Fit       0.048689
 **** Fit       0.046653
 **** Fit       0.043011
 **** Fit       0.025185
 **** Fit       0.019038
 **** Fit       0.047793
 **** Fit       0.045391
 **** Fit       0.041749
 **** Fit       0.039033
 **** Fit       0.036113
 **** Fit       0.032840
 **** Fit       0.029131
 **** Fit       0.025054
 **** Fit       0.020975
 **** Fit       0.047141
 **** Fit       0.044416
 **** Fit       0.041157
 **** Fit       0.038403
 **** Fit       0.035652
 **** Fit       0.032903
 **** Fit       0.030337
 **** Fit       0.028479
 **** Fit       0.028479
 **** Fit       0.046922
 **** Fit       0.043979
 **** Fit       0.041550
 **** Fit       0.038897
 **** Fit       0.036635
 **** Fit       0.035056
 **** Fit       0.034871
 **** Fit       0.037464
 **** Fit       0.047714
 **** Fit       0.044501
 **** Fit       0.043269
 **** Fit       0.040946
 **** Fit       0.039951
 **** Fit       0.041333
 **** Fit       0.046962
 **** Fit       0.066714
 **** Fit       0.059814
 **** Fit       0.054597
 **** Fit       0.050225
 **** Fit       0.046433
 **** Fit       0.046716
 **** Fit       0.045428
 **** Fit       0.047957
 **** Fit       0.062607
 **** Fit       0.055496
 **** Fit       0.050275
 **** Fit       0.052411
 **** Fit       0.054596
 **** Fit       0.067105
 **** Fit       0.057611
 **** Fit       0.061061
 **** Fit       0.000287
 **** Fit       0.005546
 **** Fit       0.010276
 **** Fit       0.016314
 **** Fit       0.003940
 **** Fit       0.023151
 **** Fit       0.002643
 **** Fit       0.029518
 **** Fit       0.035447
 **** Fit       0.007457
 **** Fit       0.029039
 **** Fit       0.035528
 **** Fit       0.040457
 **** Fit       0.011467
 **** Fit       0.014035
 **** Fit       0.028165
 **** Fit       0.034691
 **** Fit       0.039999
 **** Fit       0.044031
 **** Fit       0.017840
 **** Fit       0.020033
 **** Fit       0.020964
 **** Fit       0.029571
 **** Fit       0.034777
 **** Fit       0.039611
 **** Fit       0.043488
 **** Fit       0.046503
 **** Fit       0.026273
 **** Fit       0.026895
 **** Fit       0.027587
 **** Fit       0.028096
 **** Fit       0.028717
 **** Fit       0.030057
 **** Fit       0.032517
 **** Fit       0.035924
 **** Fit       0.039650
 **** Fit       0.043039
 **** Fit       0.045760
 **** Fit       0.047910
 **** Fit       0.049806
 **** Fit       0.041300
 **** Fit       0.037078
 **** Fit       0.035234
 **** Fit       0.034612
 **** Fit       0.034583
 **** Fit       0.034987
 **** Fit       0.035978
 **** Fit       0.037715
 **** Fit       0.040084
 **** Fit       0.042689
 **** Fit       0.045078
 **** Fit       0.046993
 **** Fit       0.048468
 **** Fit       0.049203
 **** Fit       0.050576
 **** Fit       0.044976
 **** Fit       0.042073
 **** Fit       0.040736
 **** Fit       0.040353
 **** Fit       0.040678
 **** Fit       0.041640
 **** Fit       0.043110
 **** Fit       0.044814
 **** Fit       0.046412
 **** Fit       0.047668
 **** Fit       0.048547
 **** Fit       0.048490
 **** Fit       0.056409
 **** Fit       0.050499
 **** Fit       0.047196
 **** Fit       0.045523
 **** Fit       0.044912
 **** Fit       0.045044
 **** Fit       0.045689
 **** Fit       0.046593
 **** Fit       0.047480
 **** Fit       0.048132
 **** Fit       0.048459
 **** Fit       0.047985
 **** Fit       0.066041
 **** Fit       0.057615
 **** Fit       0.052646
 **** Fit       0.049892
 **** Fit       0.048554
 **** Fit       0.048115
 **** Fit       0.048194
 **** Fit       0.048453
 **** Fit       0.048608
 **** Fit       0.048479
 **** Fit       0.064003
 **** Fit       0.057467
 **** Fit       0.053609
 **** Fit       0.051485
 **** Fit       0.050411
 **** Fit       0.049873
 **** Fit       0.049467
 **** Fit       0.048900
 **** Fit       0.072762
 **** Fit       0.063625
 **** Fit       0.057788
 **** Fit       0.054340
 **** Fit       0.052363
 **** Fit       0.051114
 **** Fit       0.050046
 **** Fit       0.064118
 **** Fit       0.058076
 **** Fit       0.054541
 **** Fit       0.052401
 **** Fit       0.057066
 **** Fit      -0.007230
 **** Fit       0.000752
 **** Fit      -0.004959
 **** Fit       0.000223
 **** Fit       0.006766
 **** Fit       0.003196
 **** Fit      -0.001504
 **** Fit       0.007522
 **** Fit       0.009021
 **** Fit       0.011288
 **** Fit       0.008521
 **** Fit       0.014433
 **** Fit       0.016154
 **** Fit       0.014588
 **** Fit       0.014744
 **** Fit       0.020286
 **** Fit       0.022620
 **** Fit       0.022085
 **** Fit       0.018778
 **** Fit       0.017912
 **** Fit       0.028045
 **** Fit       0.028823
 **** Fit       0.026770
 **** Fit       0.022390
 **** Fit       0.021648
 **** Fit       0.034364
 **** Fit       0.033658
 **** Fit       0.030629
 **** Fit       0.026019
 **** Fit       0.026055
 **** Fit       0.039480
 **** Fit       0.037903
 **** Fit       0.034601
 **** Fit       0.030205
 **** Fit       0.030473
 **** Fit       0.027662
 **** Fit       0.043712
 **** Fit       0.041406
 **** Fit       0.038101
 **** Fit       0.034192
 **** Fit       0.034224
 **** Fit       0.031356
 **** Fit       0.029033
 **** Fit       0.047188
 **** Fit       0.044344
 **** Fit       0.041100
 **** Fit       0.037593
 **** Fit       0.037014
 **** Fit       0.034073
 **** Fit       0.031400
 **** Fit       0.028726
 **** Fit       0.025612
 **** Fit       0.021515
 **** Fit       0.015644
 **** Fit       0.046950
 **** Fit       0.043602
 **** Fit       0.040243
 **** Fit       0.038857
 **** Fit       0.035831
 **** Fit       0.032895
 **** Fit       0.029796
 **** Fit       0.026110
 **** Fit       0.021223
 **** Fit       0.014184
 **** Fit       0.049067
 **** Fit       0.045441
 **** Fit       0.042063
 **** Fit       0.039909
 **** Fit       0.036846
 **** Fit       0.033763
 **** Fit       0.030404
 **** Fit       0.026370
 **** Fit       0.021085
 **** Fit       0.046523
 **** Fit       0.043096
 **** Fit       0.040355
 **** Fit       0.037100
 **** Fit       0.033744
 **** Fit       0.029990
 **** Fit       0.025432
 **** Fit       0.019602
 **** Fit       0.043730
 **** Fit       0.036991
 **** Fit       0.033482
 **** Fit       0.029596
 -----------------------------------------------------------------
 Leave Link  602 at Tue Sep 17 00:18:35 2019, MaxMem=  1342177280 cpu:             131.6 elap:               2.8

 Test job not archived.
 1\1\GINC-C506-073\SP\RB3LYP\SVP\C54H83Ca1N15O23\PENGZHI\17-Sep-2019\0\
 \#b3lyp/svp scf=(tight,noincore) Test #IOP(5/87=12) Density=Current Po
 p=(MK,readradii) iop(6/33=2) iop(6/42=6)\\Ng-293_loop3_22.0\\0,1\C,0,4
 0.65,77.67,71.87\C,0,41.06,77.54,70.41\O,0,42.07,78.17,70.11\H,0,39.61
 7,77.344,71.987\H,0,41.299,77.048,72.487\H,0,40.739,78.711,72.182\N,0,
 40.3,76.87,69.55\C,0,40.47,76.97,68.11\C,0,39.98,75.69,67.44\O,0,39.33
 ,74.85,68.06\C,0,39.71,78.19,67.62\C,0,39.98,78.64,66.19\O,0,41.06,78.
 25,65.7\O,0,39.27,79.52,65.66\H,0,39.6,76.24,69.9\H,0,41.5,77.17,67.8\
 H,0,39.98,79.,68.3\H,0,38.64,78.06,67.75\N,0,40.58,75.5,66.27\C,0,40.3
 8,74.36,65.41\C,0,38.98,74.34,64.8\O,0,38.45,75.4,64.48\C,0,41.,73.1,6
 6.\C,0,42.52,73.12,66.17\C,0,43.33,72.91,64.89\C,0,44.82,73.21,65.03\N
 ,0,45.2,74.64,65.08\H,0,41.12,76.28,65.9\H,0,40.9,74.53,64.47\H,0,40.7
 2,72.23,65.4\H,0,40.56,72.72,66.92\H,0,42.74,72.35,66.91\H,0,42.75,74.
 1,66.6\H,0,43.,73.51,64.05\H,0,43.21,71.88,64.55\H,0,45.35,72.74,64.2\
 H,0,45.24,72.66,65.87\H,0,44.65,75.23,65.69\H,0,46.18,74.71,65.31\H,0,
 45.11,75.01,64.14\N,0,38.35,73.17,64.69\C,0,37.15,73.01,63.9\C,0,35.98
 ,72.33,64.6\O,0,34.93,72.2,63.97\C,0,37.52,72.18,62.67\C,0,38.27,70.89
 ,62.98\O,0,39.29,70.58,62.32\O,0,37.77,69.95,63.64\H,0,38.9,72.36,64.9
 3\H,0,36.77,73.98,63.57\H,0,38.24,72.75,62.09\H,0,36.68,71.95,62.02\N,
 0,36.1,72.05,65.9\C,0,35.16,71.46,66.83\C,0,33.69,71.52,66.44\O,0,32.9
 5,72.35,66.95\H,0,36.97,72.35,66.32\H,0,35.32,71.94,67.8\H,0,35.39,70.
 42,67.03\N,0,33.27,70.55,65.62\C,0,31.85,70.33,65.45\C,0,31.64,68.82,6
 5.4\O,0,32.63,68.15,65.12\C,0,31.39,71.,64.16\C,0,31.45,72.52,64.28\N,
 0,32.37,73.26,63.65\O,0,30.6,73.15,64.9\H,0,33.88,69.8,65.35\H,0,31.25
 ,70.75,66.26\H,0,30.34,70.75,64.01\H,0,31.94,70.58,63.31\H,0,33.19,72.
 69,63.51\H,0,32.4,74.27,63.74\N,0,30.4,68.33,65.45\C,0,30.09,66.92,65.
 46\C,0,30.06,66.37,66.88\O,0,30.21,67.14,67.83\H,0,29.65,68.96,65.72\H
 ,0,30.89,66.37,64.97\H,0,29.16,66.76,64.9\N,0,29.96,65.04,66.87\C,0,30
 .03,64.14,68.01\C,0,31.44,63.73,68.41\O,0,31.73,63.26,69.5\C,0,29.27,6
 4.75,69.18\C,0,28.42,63.82,70.01\C,0,28.41,63.94,71.4\C,0,27.7,62.8,69
 .37\C,0,27.66,63.01,72.13\C,0,26.91,61.91,70.11\C,0,26.92,61.98,71.52\
 O,0,26.15,61.18,72.31\H,0,29.88,64.55,65.99\H,0,29.54,63.25,67.62\H,0,
 28.61,65.56,68.88\H,0,29.95,65.24,69.88\H,0,28.9,64.79,71.86\H,0,27.67
 ,62.63,68.3\H,0,27.5,63.07,73.2\H,0,26.29,61.17,69.62\H,0,25.81,60.5,7
 1.73\N,0,32.42,64.13,67.59\C,0,33.84,64.21,67.85\C,0,34.42,62.81,67.68
 \O,0,35.55,62.7,67.2\C,0,34.22,64.92,69.15\C,0,33.51,66.2,69.57\C,0,35
 .71,65.21,69.16\C,0,33.42,67.23,68.45\H,0,32.06,64.58,66.76\H,0,34.28,
 64.8,67.05\H,0,34.03,64.27,70.01\H,0,34.01,66.76,70.36\H,0,32.47,66.01
 ,69.86\H,0,36.3,64.3,69.02\H,0,35.89,65.99,68.41\H,0,35.96,65.53,70.17
 \H,0,32.99,66.8,67.54\H,0,32.67,67.98,68.69\H,0,34.39,67.66,68.2\N,0,3
 3.73,61.74,68.08\C,0,34.17,60.36,67.95\C,0,35.46,60.14,68.72\O,0,36.28
 ,59.34,68.28\C,0,33.19,59.37,68.57\O,0,33.05,59.6,69.96\H,0,32.8,61.9,
 68.43\H,0,34.23,60.05,66.9\H,0,33.59,58.37,68.42\H,0,32.22,59.41,68.09
 \H,0,32.23,59.29,70.34\N,0,35.74,60.94,69.75\C,0,36.97,61.04,70.51\C,0
 ,38.23,61.31,69.7\O,0,39.3,60.88,70.12\C,0,37.09,59.92,71.55\H,0,35.,6
 1.57,70.02\H,0,36.9,61.98,71.06\H,0,37.29,58.92,71.18\H,0,37.9,60.21,7
 2.21\H,0,36.13,59.93,72.07\N,0,38.13,61.91,68.51\C,0,39.25,62.11,67.61
 \C,0,39.92,63.45,67.86\O,0,39.38,64.35,68.5\C,0,38.77,61.93,66.17\H,0,
 37.2,62.1,68.16\H,0,39.96,61.28,67.68\H,0,38.14,62.79,65.93\H,0,39.61,
 61.83,65.49\H,0,38.09,61.09,66.01\N,0,41.15,63.67,67.41\C,0,41.9,64.91
 ,67.46\C,0,42.26,65.44,68.84\O,0,42.93,66.45,69.05\C,0,41.19,65.94,66.
 59\C,0,41.08,65.4,65.16\C,0,40.39,66.36,64.2\O,0,40.34,65.92,63.03\O,0
 ,39.82,67.41,64.58\H,0,41.55,62.9,66.89\H,0,42.84,64.62,66.98\H,0,41.7
 5,66.87,66.52\H,0,40.22,66.2,67.01\H,0,40.67,64.39,65.14\H,0,42.07,65.
 33,64.72\N,0,41.82,64.85,69.95\C,0,42.01,65.29,71.32\H,0,42.707,66.128
 ,71.339\H,0,41.053,65.605,71.737\H,0,42.413,64.469,71.913\H,0,41.19,64
 .09,69.76\Ca,0,39.25,68.11,62.02\O,0,37.4,66.52,62.78\H,0,36.49,66.78,
 62.66\H,0,37.36,65.74,63.33\\Version=ES64L-G16RevA.03\State=1-A\HF=-53
 33.3848349\RMSD=1.029e-09\Dipole=3.6844241,-11.5031663,-7.4016536\Quad
 rupole=200.3342788,-260.7361247,60.4018459,122.9076639,-67.8927235,17.
 9603441\PG=C01 [X(C54H83Ca1N15O23)]\\@


 HIGGLEDY-PIGGLEDY
 NIC'LAUS COPERNICUS
 LOOKED AT THE UNIVERSE,
 SPOKE TO THE THRONG;
 GIVE UP YOUR PTOLOMY,
 RISE UP AND FOLLOW ME,
 HELIOCENTRICALLY
 PTOLEMY'S WRONG.
   -- NANCY L. STARK
 Job cpu time:       0 days  8 hours  7 minutes 53.6 seconds.
 Elapsed time:       0 days  0 hours 10 minutes 18.3 seconds.
 File lengths (MBytes):  RWF=   1517 Int=      0 D2E=      0 Chk=    171 Scr=      1
 Normal termination of Gaussian 16 at Tue Sep 17 00:18:37 2019.
