 Entering Gaussian System, Link 0=g16
 Initial command:
 /home1/apps/gaussian/16rA.03/g16/l1.exe "/scratch/01990/pengzhi/4345069/Gau-404054.inp" -scrdir="/scratch/01990/pengzhi/4345069/"
 Entering Link 1 = /home1/apps/gaussian/16rA.03/g16/l1.exe PID=    404055.
  
 Copyright (c) 1988,1990,1992,1993,1995,1998,2003,2009,2016,
            Gaussian, Inc.  All Rights Reserved.
  
 This is part of the Gaussian(R) 16 program.  It is based on
 the Gaussian(R) 09 system (copyright 2009, Gaussian, Inc.),
 the Gaussian(R) 03 system (copyright 2003, Gaussian, Inc.),
 the Gaussian(R) 98 system (copyright 1998, Gaussian, Inc.),
 the Gaussian(R) 94 system (copyright 1995, Gaussian, Inc.),
 the Gaussian 92(TM) system (copyright 1992, Gaussian, Inc.),
 the Gaussian 90(TM) system (copyright 1990, Gaussian, Inc.),
 the Gaussian 88(TM) system (copyright 1988, Gaussian, Inc.),
 the Gaussian 86(TM) system (copyright 1986, Carnegie Mellon
 University), and the Gaussian 82(TM) system (copyright 1983,
 Carnegie Mellon University). Gaussian is a federally registered
 trademark of Gaussian, Inc.
  
 This software contains proprietary and confidential information,
 including trade secrets, belonging to Gaussian, Inc.
  
 This software is provided under written license and may be
 used, copied, transmitted, or stored only in accord with that
 written license.
  
 The following legend is applicable only to US Government
 contracts under FAR:
  
                    RESTRICTED RIGHTS LEGEND
  
 Use, reproduction and disclosure by the US Government is
 subject to restrictions as set forth in subparagraphs (a)
 and (c) of the Commercial Computer Software - Restricted
 Rights clause in FAR 52.227-19.
  
 Gaussian, Inc.
 340 Quinnipiac St., Bldg. 40, Wallingford CT 06492
  
  
 ---------------------------------------------------------------
 Warning -- This program may not be used in any manner that
 competes with the business of Gaussian, Inc. or will provide
 assistance to any competitor of Gaussian, Inc.  The licensee
 of this program is prohibited from giving any competitor of
 Gaussian, Inc. access to this program.  By using this program,
 the user acknowledges that Gaussian, Inc. is engaged in the
 business of creating and licensing software in the field of
 computational chemistry and represents and warrants to the
 licensee that it is not a competitor of Gaussian, Inc. and that
 it will not use this program in any manner prohibited above.
 ---------------------------------------------------------------
  

 Cite this work as:
 Gaussian 16, Revision A.03,
 M. J. Frisch, G. W. Trucks, H. B. Schlegel, G. E. Scuseria, 
 M. A. Robb, J. R. Cheeseman, G. Scalmani, V. Barone, 
 G. A. Petersson, H. Nakatsuji, X. Li, M. Caricato, A. V. Marenich, 
 J. Bloino, B. G. Janesko, R. Gomperts, B. Mennucci, H. P. Hratchian, 
 J. V. Ortiz, A. F. Izmaylov, J. L. Sonnenberg, D. Williams-Young, 
 F. Ding, F. Lipparini, F. Egidi, J. Goings, B. Peng, A. Petrone, 
 T. Henderson, D. Ranasinghe, V. G. Zakrzewski, J. Gao, N. Rega, 
 G. Zheng, W. Liang, M. Hada, M. Ehara, K. Toyota, R. Fukuda, 
 J. Hasegawa, M. Ishida, T. Nakajima, Y. Honda, O. Kitao, H. Nakai, 
 T. Vreven, K. Throssell, J. A. Montgomery, Jr., J. E. Peralta, 
 F. Ogliaro, M. J. Bearpark, J. J. Heyd, E. N. Brothers, K. N. Kudin, 
 V. N. Staroverov, T. A. Keith, R. Kobayashi, J. Normand, 
 K. Raghavachari, A. P. Rendell, J. C. Burant, S. S. Iyengar, 
 J. Tomasi, M. Cossi, J. M. Millam, M. Klene, C. Adamo, R. Cammi, 
 J. W. Ochterski, R. L. Martin, K. Morokuma, O. Farkas, 
 J. B. Foresman, and D. J. Fox, Gaussian, Inc., Wallingford CT, 2016.
 
 ******************************************
 Gaussian 16:  ES64L-G16RevA.03 25-Dec-2016
                17-Sep-2019 
 ******************************************
 %chk=Ng-293_loop3_5.0.chk
 %nprocshared=48
 Will use up to   48 processors via shared memory.
 %mem=10GB
 %nosave
 ----------------------------------------------------------------------
 #b3lyp/svp scf=(tight,noincore) Test #IOP(5/87=12) Density=Current Pop
 =(MK,readradii) iop(6/33=2) iop(6/42=6)
 ----------------------------------------------------------------------
 1/30=1,38=1,172=1/1;
 2/12=2,17=6,18=5,40=1/2;
 3/5=18,7=101,11=2,25=1,30=1,74=-5/1,2,3;
 4//1;
 5/5=4,32=2,38=5,87=12/2;
 6/7=2,8=2,9=2,10=2,15=8,20=101,22=-1,28=1,33=2,42=6/1,2;
 99/5=1,9=1/99;
 ----------------
 Ng-293_loop3_5.0
 ----------------
 Symbolic Z-matrix:
 Charge =  0 Multiplicity = 1
 C                     42.26     83.21     67.66 
 C                     42.4      83.12     66.15 
 O                     43.48     83.36     65.63 
 H                     41.203    83.202    67.927 
 H                     42.758    82.358    68.123 
 H                     42.716    84.135    68.013 
 N                     41.39     82.65     65.41 
 C                     41.43     82.65     63.96 
 C                     41.03     81.32     63.32 
 O                     40.39     80.5      63.98 
 C                     40.63     83.87     63.52 
 C                     40.71     84.1      62.01 
 O                     41.73     83.85     61.34 
 O                     39.67     84.57     61.5 
 H                     40.48     82.43     65.8 
 H                     42.45     82.82     63.63 
 H                     41.17     84.7      63.96 
 H                     39.56     83.83     63.76 
 N                     41.48     81.09     62.09 
 C                     41.32     79.85     61.36 
 C                     39.91     79.56     60.87 
 O                     38.91     80.18     61.23 
 C                     41.95     78.69     62.14 
 C                     43.4      78.94     62.53 
 C                     44.34     79.13     61.34 
 C                     45.82     79.13     61.72 
 N                     46.16     80.35     62.47 
 H                     41.96     81.87     61.66 
 H                     41.87     79.97     60.43 
 H                     41.94     77.78     61.54 
 H                     41.29     78.42     62.96 
 H                     43.67     78.06     63.1 
 H                     43.45     79.77     63.24 
 H                     44.13     80.06     60.81 
 H                     44.17     78.35     60.6 
 H                     46.4      79.11     60.79 
 H                     46.13     78.24     62.26 
 H                     45.97     81.16     61.89 
 H                     45.54     80.34     63.27 
 H                     47.12     80.35     62.78 
 N                     39.84     78.51     60.05 
 C                     38.58     78.14     59.41 
 C                     37.6      77.66     60.47 
 O                     36.54     78.24     60.7 
 C                     38.85     77.14     58.29 
 C                     39.96     77.5      57.32 
 O                     39.79     78.35     56.42 
 O                     41.04     76.89     57.44 
 H                     40.68     78.08     59.7 
 H                     38.19     78.96     58.81 
 H                     37.98     77.09     57.64 
 H                     39.01     76.17     58.76 
 N                     38.03     76.61     61.17 
 C                     37.28     75.96     62.22 
 C                     35.78     75.77     62.08 
 O                     35.03     76.2      62.95 
 H                     38.86     76.07     60.96 
 H                     37.41     76.53     63.14 
 H                     37.66     74.95     62.37 
 N                     35.23     75.2      61. 
 C                     33.83     75.36     60.66 
 C                     32.88     74.4      61.36 
 O                     33.04     73.18     61.32 
 C                     33.64     75.25     59.15 
 C                     32.25     75.75     58.79 
 N                     31.95     77.       59.15 
 O                     31.44     74.98     58.28 
 H                     35.83     74.79     60.3 
 H                     33.66     76.38     61.01 
 H                     33.75     74.25     58.73 
 H                     34.36     75.9      58.65 
 H                     32.53     77.59     59.74 
 H                     31.03     77.37     58.96 
 N                     31.79     74.91     61.93 
 C                     30.6      74.19     62.32 
 C                     30.93     73.16     63.4 
 O                     31.33     73.44     64.53 
 H                     31.69     75.9      62.1 
 H                     30.24     73.65     61.45 
 H                     29.8      74.83     62.7 
 N                     30.76     71.87     63.11 
 C                     31.08     70.75     63.97 
 C                     32.54     70.59     64.38 
 O                     32.86     69.66     65.11 
 C                     30.13     70.63     65.17 
 C                     28.77     70.06     64.88 
 C                     27.87     70.84     64.14 
 C                     28.41     68.75     65.24 
 C                     26.59     70.35     63.84 
 C                     27.12     68.29     64.94 
 C                     26.17     69.07     64.25 
 O                     24.94     68.54     63.96 
 H                     30.28     71.71     62.23 
 H                     30.94     69.85     63.38 
 H                     30.05     71.59     65.68 
 H                     30.55     69.92     65.88 
 H                     28.15     71.8      63.75 
 H                     29.09     68.13     65.8 
 H                     25.88     70.95     63.3 
 H                     26.93     67.26     65.18 
 H                     24.8      67.63     64.2 
 N                     33.38     71.47     63.84 
 C                     34.83     71.56     63.84 
 C                     35.64     70.42     63.26 
 O                     36.51     70.67     62.42 
 C                     35.24     71.89     65.28 
 C                     34.78     73.3      65.63 
 C                     36.72     71.63     65.52 
 C                     34.99     73.65     67.1 
 H                     32.97     72.03     63.1 
 H                     35.02     72.44     63.23 
 H                     34.66     71.27     65.95 
 H                     33.71     73.3      65.42 
 H                     35.28     73.98     64.94 
 H                     36.95     71.69     66.59 
 H                     36.8      70.59     65.2 
 H                     37.33     72.34     64.97 
 H                     34.73     74.69     67.31 
 H                     34.4      72.98     67.73 
 H                     36.04     73.57     67.37 
 N                     35.28     69.18     63.59 
 C                     35.69     67.94     62.96 
 C                     37.12     67.51     63.24 
 O                     37.66     66.81     62.4 
 C                     34.68     66.81     63.15 
 O                     33.49     67.08     62.44 
 H                     34.59     69.13     64.33 
 H                     35.8      68.19     61.91 
 H                     34.32     66.6      64.16 
 H                     35.1      65.93     62.67 
 H                     32.79     66.65     62.94 
 N                     37.74     67.94     64.34 
 C                     39.1      67.63     64.75 
 C                     40.11     67.8      63.63 
 O                     40.93     66.92     63.39 
 C                     39.16     66.31     65.51 
 H                     37.25     68.58     64.95 
 H                     39.3      68.32     65.57 
 H                     38.93     65.47     64.85 
 H                     40.13     66.18     65.98 
 H                     38.35     66.36     66.24 
 N                     40.01     68.89     62.86 
 C                     40.98     69.18     61.82 
 C                     41.66     70.53     62.04 
 O                     41.12     71.59     62.34 
 C                     40.23     69.11     60.5 
 H                     39.41     69.65     63.13 
 H                     41.81     68.47     61.83 
 H                     39.7      68.16     60.43 
 H                     39.62     70.01     60.37 
 H                     40.99     69.21     59.73 
 N                     42.95     70.42     61.7 
 C                     43.92     71.5      61.74 
 C                     44.31     71.88     63.17 
 O                     44.59     73.05     63.4 
 C                     43.71     72.66     60.79 
 C                     43.41     72.21     59.36 
 C                     43.23     73.3      58.31 
 O                     42.12     73.8      58.05 
 O                     44.14     73.7      57.56 
 H                     43.33     69.54     61.4 
 H                     44.81     71.03     61.32 
 H                     44.49     73.43     60.79 
 H                     42.85     73.26     61.11 
 H                     42.51     71.6      59.33 
 H                     44.31     71.65     59.11 
 N                     44.23     70.93     64.1 
 C                     44.45     71.2      65.51 
 H                     45.181    72.001    65.616 
 H                     43.511    71.502    65.974 
 H                     44.824    70.3      65.999 
 H                     44.05     69.98     63.83 
 Ca                    42.17     75.16     55.82 
 O                     44.11     76.81     56.57 
 H                     44.5      76.7      57.44 
 H                     44.82     77.15     56.03 
 
 Stoichiometry    C54H83CaN15O23
 Framework group  C1[X(C54H83CaN15O23)]
 Deg. of freedom   522
 Full point group                 C1      NOp   1
 Largest Abelian subgroup         C1      NOp   1
 Largest concise Abelian subgroup C1      NOp   1
                         Standard orientation:                         
 ---------------------------------------------------------------------
 Center     Atomic      Atomic             Coordinates (Angstroms)
 Number     Number       Type             X           Y           Z
 ---------------------------------------------------------------------
      1          6           0        8.303725   -4.045717   -6.619606
      2          6           0        8.578018   -3.818544   -5.142800
      3          8           0        9.614997   -3.269099   -4.800477
      4          1           0        7.473715   -4.743805   -6.730776
      5          1           0        8.046570   -3.097551   -7.091972
      6          1           0        9.192534   -4.460765   -7.094920
      7          7           0        7.634026   -4.092225   -4.235840
      8          6           0        7.883788   -4.001121   -2.809860
      9          6           0        6.815614   -3.231008   -2.032409
     10          8           0        5.705095   -3.061015   -2.537831
     11          6           0        8.153691   -5.425713   -2.341148
     12          6           0        8.592436   -5.479250   -0.876895
     13          8           0        9.287680   -4.592706   -0.345410
     14          8           0        8.205120   -6.492043   -0.254932
     15          1           0        6.755974   -4.539616   -4.475561
     16          1           0        8.801698   -3.446662   -2.641886
     17          1           0        9.029583   -5.717976   -2.908153
     18          1           0        7.297237   -6.106962   -2.421672
     19          7           0        7.185995   -2.707746   -0.867371
     20          6           0        6.368326   -1.844341   -0.041508
     21          6           0        5.207145   -2.526949    0.664187
     22          8           0        4.815413   -3.665660    0.411435
     23          6           0        5.959864   -0.591559   -0.825470
     24          6           0        7.139780    0.151898   -1.435528
     25          6           0        8.141925    0.677379   -0.408215
     26          6           0        9.182361    1.629538   -0.996166
     27          7           0       10.117488    0.898198   -1.866327
     28          1           0        8.116767   -2.962632   -0.563405
     29          1           0        6.995929   -1.533077    0.789774
     30          1           0        5.449258    0.115289   -0.171370
     31          1           0        5.169386   -0.856766   -1.522400
     32          1           0        6.678931    0.967094   -1.978919
     33          1           0        7.611126   -0.473326   -2.198698
     34          1           0        8.673872   -0.138039    0.083747
     35          1           0        7.618747    1.187643    0.398517
     36          1           0        9.740799    2.066068   -0.159931
     37          1           0        8.749215    2.479815   -1.515023
     38          1           0       10.593500    0.188648   -1.319928
     39          1           0        9.529512    0.463926   -2.566464
     40          1           0       10.782725    1.512971   -2.310414
     41          7           0        4.593989   -1.743922    1.553405
     42          6           0        3.514629   -2.261235    2.390943
     43          6           0        2.313159   -2.588304    1.516933
     44          8           0        1.870519   -3.730308    1.403814
     45          6           0        3.231928   -1.279852    3.524199
     46          6           0        4.437831   -0.781150    4.298598
     47          8           0        5.003374   -1.493456    5.155442
     48          8           0        4.822596    0.380917    4.065236
     49          1           0        4.989564   -0.853777    1.806708
     50          1           0        3.851814   -3.108403    2.985176
     51          1           0        2.652423   -1.782748    4.294374
     52          1           0        2.645869   -0.464313    3.101315
     53          7           0        1.840278   -1.545898    0.833431
     54          6           0        0.699963   -1.593651   -0.052515
     55          6           0       -0.515815   -2.426307    0.313909
     56          8           0       -0.923539   -3.280794   -0.465779
     57          1           0        2.135351   -0.585580    0.957215
     58          1           0        1.029006   -1.979734   -1.017332
     59          1           0        0.299586   -0.589544   -0.188407
     60          7           0       -1.132199   -2.308096    1.497081
     61          6           0       -2.014864   -3.330368    2.023448
     62          6           0       -3.452888   -3.259546    1.532356
     63          8           0       -4.124796   -2.232568    1.629591
     64          6           0       -1.998481   -3.304204    3.549013
     65          6           0       -2.648662   -4.575541    4.071190
     66          7           0       -2.109609   -5.731156    3.676125
     67          8           0       -3.675079   -4.502218    4.742153
     68          1           0       -0.848512   -1.574534    2.129149
     69          1           0       -1.528034   -4.226885    1.634792
     70          1           0       -2.506144   -2.458933    4.014088
     71          1           0       -0.963905   -3.300717    3.896202
     72          1           0       -1.383532   -5.822875    2.971143
     73          1           0       -2.521760   -6.604249    3.971489
     74          7           0       -4.015105   -4.383606    1.092467
     75          6           0       -5.427422   -4.637135    0.926083
     76          6           0       -6.019116   -3.692313   -0.119579
     77          8           0       -5.710994   -3.692202   -1.311368
     78          1           0       -3.468607   -5.203593    0.873466
     79          1           0       -5.915116   -4.426537    1.872605
     80          1           0       -5.660736   -5.660861    0.623511
     81          7           0       -6.943640   -2.817431    0.276574
     82          6           0       -7.568133   -1.801410   -0.544468
     83          6           0       -6.651575   -0.742981   -1.148578
     84          8           0       -7.132261    0.135517   -1.853831
     85          6           0       -8.533504   -2.386698   -1.584850
     86          6           0       -9.870790   -2.834275   -1.065292
     87          6           0       -9.916882   -3.978970   -0.256867
     88          6           0      -11.048007   -2.097823   -1.282314
     89          6           0      -11.141050   -4.434067    0.255771
     90          6           0      -12.260004   -2.582101   -0.770224
     91          6           0      -12.350783   -3.761776   -0.003982
     92          8           0      -13.565492   -4.154401    0.494242
     93          1           0       -7.270701   -2.971653    1.225071
     94          1           0       -8.170183   -1.187683    0.117783
     95          1           0       -8.043364   -3.186175   -2.140456
     96          1           0       -8.793293   -1.607797   -2.299289
     97          1           0       -9.023029   -4.502414    0.024439
     98          1           0      -11.033344   -1.209846   -1.891973
     99          1           0      -11.194069   -5.327495    0.851317
    100          1           0      -13.110025   -1.940196   -0.911725
    101          1           0      -14.300051   -3.570286    0.337613
    102          7           0       -5.371695   -0.832643   -0.794363
    103          6           0       -4.237068    0.048982   -1.008746
    104          6           0       -4.292492    1.465428   -0.477042
    105          8           0       -3.356226    1.884137    0.210773
    106          6           0       -3.935928    0.004042   -2.511375
    107          6           0       -3.409587   -1.376610   -2.884156
    108          6           0       -3.044029    1.158622   -2.943884
    109          6           0       -3.248333   -1.568951   -4.388982
    110          1           0       -5.197887   -1.490487   -0.041813
    111          1           0       -3.428843   -0.463195   -0.491981
    112          1           0       -4.872840    0.061990   -3.048532
    113          1           0       -4.171619   -2.067893   -2.522997
    114          1           0       -2.489815   -1.531317   -2.319723
    115          1           0       -2.996602    1.216070   -4.037434
    116          1           0       -3.615251    2.009948   -2.570590
    117          1           0       -2.044299    1.047047   -2.535485
    118          1           0       -2.793970   -2.533226   -4.627789
    119          1           0       -4.219246   -1.478039   -4.881896
    120          1           0       -2.562490   -0.833096   -4.801216
    121          7           0       -5.419443    2.150413   -0.669075
    122          6           0       -5.829369    3.382603   -0.023886
    123          6           0       -5.091655    4.630904   -0.477453
    124          8           0       -5.020615    5.550229    0.320667
    125          6           0       -7.345517    3.565219    0.008471
    126          8           0       -7.944376    2.614039    0.862710
    127          1           0       -6.076371    1.703166   -1.297259
    128          1           0       -5.425124    3.313031    0.980528
    129          1           0       -7.903060    3.442693   -0.923158
    130          1           0       -7.535699    4.525645    0.480288
    131          1           0       -8.820447    2.457674    0.498087
    132          7           0       -4.517792    4.663258   -1.681170
    133          6           0       -3.773385    5.769368   -2.260979
    134          6           0       -2.742987    6.352644   -1.311522
    135          8           0       -2.672810    7.564264   -1.134178
    136          6           0       -4.706218    6.770493   -2.932671
    137          1           0       -4.556006    3.832238   -2.255405
    138          1           0       -3.298863    5.343068   -3.145059
    139          1           0       -5.325238    7.283151   -2.192337
    140          1           0       -4.142739    7.482729   -3.527577
    141          1           0       -5.385361    6.169669   -3.540351
    142          7           0       -1.988511    5.499293   -0.608985
    143          6           0       -0.921571    5.962261    0.259289
    144          6           0        0.431163    5.379217   -0.145026
    145          8           0        0.677176    4.212468   -0.433774
    146          6           0       -1.323407    5.583029    1.675096
    147          1           0       -1.978372    4.520927   -0.839633
    148          1           0       -0.770905    7.040984    0.177095
    149          1           0       -2.326402    5.955810    1.883268
    150          1           0       -1.168551    4.510400    1.831580
    151          1           0       -0.577337    6.039736    2.319531
    152          7           0        1.368075    6.322175    0.012541
    153          6           0        2.786983    6.140791   -0.237858
    154          6           0        3.107453    6.045480   -1.731048
    155          8           0        4.044337    5.335849   -2.075827
    156          6           0        3.532875    5.170654    0.653590
    157          6           0        3.233470    5.377712    2.138475
    158          6           0        3.971087    4.484508    3.128984
    159          8           0        3.513479    3.392051    3.512173
    160          8           0        5.021325    4.812216    3.712256
    161          1           0        1.120893    7.248350    0.312377
    162          1           0        3.204160    7.096990    0.080023
    163          1           0        4.614441    5.100517    0.490513
    164          1           0        3.238029    4.140501    0.421534
    165          1           0        2.171905    5.249902    2.337835
    166          1           0        3.573491    6.400748    2.293017
    167          7           0        2.286563    6.668175   -2.574960
    168          6           0        2.412101    6.545424   -4.016685
    169          1           0        3.461466    6.415066   -4.279435
    170          1           0        1.842180    5.681914   -4.359850
    171          1           0        2.027651    7.447439   -4.493723
    172          1           0        1.573613    7.279105   -2.219619
    173         20           0        4.777169    2.498587    5.616884
    174          8           0        7.180247    2.490590    4.488278
    175          1           0        7.265731    2.790021    3.580460
    176          1           0        8.011036    2.723194    4.896916
 ---------------------------------------------------------------------
 Rotational constants (GHZ):           0.0176880           0.0089080           0.0073872
 Standard basis: SVP (5D, 7F)
 There are  1809 symmetry adapted cartesian basis functions of A   symmetry.
 There are  1717 symmetry adapted basis functions of A   symmetry.
  1717 basis functions,  2922 primitive gaussians,  1809 cartesian basis functions
   358 alpha electrons      358 beta electrons
       nuclear repulsion energy     18719.9754955044 Hartrees.
 NAtoms=  176 NActive=  176 NUniq=  176 SFac= 1.00D+00 NAtFMM=   60 NAOKFM=T Big=T
 Integral buffers will be    131072 words long.
 Raffenetti 2 integral format.
 Two-electron integral symmetry is turned on.
 One-electron integrals computed using PRISM.
 NBasis=  1717 RedAO= T EigKep=  2.74D-04  NBF=  1717
 NBsUse=  1717 1.00D-06 EigRej= -1.00D+00 NBFU=  1717
 ExpMin= 1.98D-02 ExpMax= 3.51D+04 ExpMxC= 5.28D+03 IAcc=3 IRadAn=         5 AccDes= 0.00D+00
 Harris functional with IExCor=  402 and IRadAn=       5 diagonalized for initial guess.
 HarFok:  IExCor=  402 AccDes= 0.00D+00 IRadAn=         5 IDoV= 1 UseB2=F ITyADJ=14
 ICtDFT=  3500011 ScaDFX=  1.000000  1.000000  1.000000  1.000000
 FoFCou: FMM=F IPFlag=           0 FMFlag=      100000 FMFlg1=        2001
         NFxFlg=           0 DoJE=T BraDBF=F KetDBF=T FulRan=T
         wScrn=  0.000000 ICntrl=       500 IOpCl=  0 I1Cent=   200000004 NGrid=           0
         NMat0=    1 NMatS0=      1 NMatT0=    0 NMatD0=    1 NMtDS0=    0 NMtDT0=    0
 Petite list used in FoFCou.
 Requested convergence on RMS density matrix=1.00D-08 within 128 cycles.
 Requested convergence on MAX density matrix=1.00D-06.
 Requested convergence on             energy=1.00D-06.
 No special actions if energy rises.
 EnCoef did     2 forward-backward iterations
 EnCoef did     3 forward-backward iterations
 EnCoef did     3 forward-backward iterations
 EnCoef did     2 forward-backward iterations
 EnCoef did     7 forward-backward iterations
 EnCoef did   100 forward-backward iterations
 EnCoef did   100 forward-backward iterations
 EnCoef did   100 forward-backward iterations
 Rare condition: small coef for last iteration:  0.000D+00
 Restarting incremental Fock formation.
 EnCoef did     7 forward-backward iterations
 EnCoef did    21 forward-backward iterations
 EnCoef did    13 forward-backward iterations
 Rare condition: small coef for last iteration: -0.444D-15
 EnCoef did   100 forward-backward iterations
 EnCoef did   100 forward-backward iterations
 EnCoef did    18 forward-backward iterations
 SCF Done:  E(RB3LYP) =  -5333.34897142     A.U. after   36 cycles
            NFock= 36  Conv=0.55D-09     -V/T= 2.0081
 SCF density gives NOpUse=  1 NOpAll=  1.
 Hyperfine terms turned off by default for NAtoms > 100.

 **********************************************************************

            Population analysis using the SCF density.

 **********************************************************************

 Orbital symmetries:
 BldTbl:  Degeneracy threshold= 1.00D-02
       Occupied  (A) (A) (A) (A) (A) (A) (A) (A) (A) (A) (A) (A)
                 (A) (A) (A) (A) (A) (A) (A) (A) (A) (A) (A) (A)
                 (A) (A) (A) (A) (A) (A) (A) (A) (A) (A) (A) (A)
                 (A) (A) (A) (A) (A) (A) (A) (A) (A) (A) (A) (A)
                 (A) (A) (A) (A) (A) (A) (A) (A) (A) (A) (A) (A)
                 (A) (A) (A) (A) (A) (A) (A) (A) (A) (A) (A) (A)
                 (A) (A) (A) (A) (A) (A) (A) (A) (A) (A) (A) (A)
                 (A) (A) (A) (A) (A) (A) (A) (A) (A) (A) (A) (A)
                 (A) (A) (A) (A) (A) (A) (A) (A) (A) (A) (A) (A)
                 (A) (A) (A) (A) (A) (A) (A) (A) (A) (A) (A) (A)
                 (A) (A) (A) (A) (A) (A) (A) (A) (A) (A) (A) (A)
                 (A) (A) (A) (A) (A) (A) (A) (A) (A) (A) (A) (A)
                 (A) (A) (A) (A) (A) (A) (A) (A) (A) (A) (A) (A)
                 (A) (A) (A) (A) (A) (A) (A) (A) (A) (A) (A) (A)
                 (A) (A) (A) (A) (A) (A) (A) (A) (A) (A) (A) (A)
                 (A) (A) (A) (A) (A) (A) (A) (A) (A) (A) (A) (A)
                 (A) (A) (A) (A) (A) (A) (A) (A) (A) (A) (A) (A)
                 (A) (A) (A) (A) (A) (A) (A) (A) (A) (A) (A) (A)
                 (A) (A) (A) (A) (A) (A) (A) (A) (A) (A) (A) (A)
                 (A) (A) (A) (A) (A) (A) (A) (A) (A) (A) (A) (A)
                 (A) (A) (A) (A) (A) (A) (A) (A) (A) (A) (A) (A)
                 (A) (A) (A) (A) (A) (A) (A) (A) (A) (A) (A) (A)
                 (A) (A) (A) (A) (A) (A) (A) (A) (A) (A) (A) (A)
                 (A) (A) (A) (A) (A) (A) (A) (A) (A) (A) (A) (A)
                 (A) (A) (A) (A) (A) (A) (A) (A) (A) (A) (A) (A)
                 (A) (A) (A) (A) (A) (A) (A) (A) (A) (A) (A) (A)
                 (A) (A) (A) (A) (A) (A) (A) (A) (A) (A) (A) (A)
                 (A) (A) (A) (A) (A) (A) (A) (A) (A) (A) (A) (A)
                 (A) (A) (A) (A) (A) (A) (A) (A) (A) (A) (A) (A)
                 (A) (A) (A) (A) (A) (A) (A) (A) (A) (A)
       Virtual   (A) (A) (A) (A) (A) (A) (A) (A) (A) (A) (A) (A)
                 (A) (A) (A) (A) (A) (A) (A) (A) (A) (A) (A) (A)
                 (A) (A) (A) (A) (A) (A) (A) (A) (A) (A) (A) (A)
                 (A) (A) (A) (A) (A) (A) (A) (A) (A) (A) (A) (A)
                 (A) (A) (A) (A) (A) (A) (A) (A) (A) (A) (A) (A)
                 (A) (A) (A) (A) (A) (A) (A) (A) (A) (A) (A) (A)
                 (A) (A) (A) (A) (A) (A) (A) (A) (A) (A) (A) (A)
                 (A) (A) (A) (A) (A) (A) (A) (A) (A) (A) (A) (A)
                 (A) (A) (A) (A) (A) (A) (A) (A) (A) (A) (A) (A)
                 (A) (A) (A) (A) (A) (A) (A) (A) (A) (A) (A) (A)
                 (A) (A) (A) (A) (A) (A) (A) (A) (A) (A) (A) (A)
                 (A) (A) (A) (A) (A) (A) (A) (A) (A) (A) (A) (A)
                 (A) (A) (A) (A) (A) (A) (A) (A) (A) (A) (A) (A)
                 (A) (A) (A) (A) (A) (A) (A) (A) (A) (A) (A) (A)
                 (A) (A) (A) (A) (A) (A) (A) (A) (A) (A) (A) (A)
                 (A) (A) (A) (A) (A) (A) (A) (A) (A) (A) (A) (A)
                 (A) (A) (A) (A) (A) (A) (A) (A) (A) (A) (A) (A)
                 (A) (A) (A) (A) (A) (A) (A) (A) (A) (A) (A) (A)
                 (A) (A) (A) (A) (A) (A) (A) (A) (A) (A) (A) (A)
                 (A) (A) (A) (A) (A) (A) (A) (A) (A) (A) (A) (A)
                 (A) (A) (A) (A) (A) (A) (A) (A) (A) (A) (A) (A)
                 (A) (A) (A) (A) (A) (A) (A) (A) (A) (A) (A) (A)
                 (A) (A) (A) (A) (A) (A) (A) (A) (A) (A) (A) (A)
                 (A) (A) (A) (A) (A) (A) (A) (A) (A) (A) (A) (A)
                 (A) (A) (A) (A) (A) (A) (A) (A) (A) (A) (A) (A)
                 (A) (A) (A) (A) (A) (A) (A) (A) (A) (A) (A) (A)
                 (A) (A) (A) (A) (A) (A) (A) (A) (A) (A) (A) (A)
                 (A) (A) (A) (A) (A) (A) (A) (A) (A) (A) (A) (A)
                 (A) (A) (A) (A) (A) (A) (A) (A) (A) (A) (A) (A)
                 (A) (A) (A) (A) (A) (A) (A) (A) (A) (A) (A) (A)
                 (A) (A) (A) (A) (A) (A) (A) (A) (A) (A) (A) (A)
                 (A) (A) (A) (A) (A) (A) (A) (A) (A) (A) (A) (A)
                 (A) (A) (A) (A) (A) (A) (A) (A) (A) (A) (A) (A)
                 (A) (A) (A) (A) (A) (A) (A) (A) (A) (A) (A) (A)
                 (A) (A) (A) (A) (A) (A) (A) (A) (A) (A) (A) (A)
                 (A) (A) (A) (A) (A) (A) (A) (A) (A) (A) (A) (A)
                 (A) (A) (A) (A) (A) (A) (A) (A) (A) (A) (A) (A)
                 (A) (A) (A) (A) (A) (A) (A) (A) (A) (A) (A) (A)
                 (A) (A) (A) (A) (A) (A) (A) (A) (A) (A) (A) (A)
                 (A) (A) (A) (A) (A) (A) (A) (A) (A) (A) (A) (A)
                 (A) (A) (A) (A) (A) (A) (A) (A) (A) (A) (A) (A)
                 (A) (A) (A) (A) (A) (A) (A) (A) (A) (A) (A) (A)
                 (A) (A) (A) (A) (A) (A) (A) (A) (A) (A) (A) (A)
                 (A) (A) (A) (A) (A) (A) (A) (A) (A) (A) (A) (A)
                 (A) (A) (A) (A) (A) (A) (A) (A) (A) (A) (A) (A)
                 (A) (A) (A) (A) (A) (A) (A) (A) (A) (A) (A) (A)
                 (A) (A) (A) (A) (A) (A) (A) (A) (A) (A) (A) (A)
                 (A) (A) (A) (A) (A) (A) (A) (A) (A) (A) (A) (A)
                 (A) (A) (A) (A) (A) (A) (A) (A) (A) (A) (A) (A)
                 (A) (A) (A) (A) (A) (A) (A) (A) (A) (A) (A) (A)
                 (A) (A) (A) (A) (A) (A) (A) (A) (A) (A) (A) (A)
                 (A) (A) (A) (A) (A) (A) (A) (A) (A) (A) (A) (A)
                 (A) (A) (A) (A) (A) (A) (A) (A) (A) (A) (A) (A)
                 (A) (A) (A) (A) (A) (A) (A) (A) (A) (A) (A) (A)
                 (A) (A) (A) (A) (A) (A) (A) (A) (A) (A) (A) (A)
                 (A) (A) (A) (A) (A) (A) (A) (A) (A) (A) (A) (A)
                 (A) (A) (A) (A) (A) (A) (A) (A) (A) (A) (A) (A)
                 (A) (A) (A) (A) (A) (A) (A) (A) (A) (A) (A) (A)
                 (A) (A) (A) (A) (A) (A) (A) (A) (A) (A) (A) (A)
                 (A) (A) (A) (A) (A) (A) (A) (A) (A) (A) (A) (A)
                 (A) (A) (A) (A) (A) (A) (A) (A) (A) (A) (A) (A)
                 (A) (A) (A) (A) (A) (A) (A) (A) (A) (A) (A) (A)
                 (A) (A) (A) (A) (A) (A) (A) (A) (A) (A) (A) (A)
                 (A) (A) (A) (A) (A) (A) (A) (A) (A) (A) (A) (A)
                 (A) (A) (A) (A) (A) (A) (A) (A) (A) (A) (A) (A)
                 (A) (A) (A) (A) (A) (A) (A) (A) (A) (A) (A) (A)
                 (A) (A) (A) (A) (A) (A) (A) (A) (A) (A) (A) (A)
                 (A) (A) (A) (A) (A) (A) (A) (A) (A) (A) (A) (A)
                 (A) (A) (A) (A) (A) (A) (A) (A) (A) (A) (A) (A)
                 (A) (A) (A) (A) (A) (A) (A) (A) (A) (A) (A) (A)
                 (A) (A) (A) (A) (A) (A) (A) (A) (A) (A) (A) (A)
                 (A) (A) (A) (A) (A) (A) (A) (A) (A) (A) (A) (A)
                 (A) (A) (A) (A) (A) (A) (A) (A) (A) (A) (A) (A)
                 (A) (A) (A) (A) (A) (A) (A) (A) (A) (A) (A) (A)
                 (A) (A) (A) (A) (A) (A) (A) (A) (A) (A) (A) (A)
                 (A) (A) (A) (A) (A) (A) (A) (A) (A) (A) (A) (A)
                 (A) (A) (A) (A) (A) (A) (A) (A) (A) (A) (A) (A)
                 (A) (A) (A) (A) (A) (A) (A) (A) (A) (A) (A) (A)
                 (A) (A) (A) (A) (A) (A) (A) (A) (A) (A) (A) (A)
                 (A) (A) (A) (A) (A) (A) (A) (A) (A) (A) (A) (A)
                 (A) (A) (A) (A) (A) (A) (A) (A) (A) (A) (A) (A)
                 (A) (A) (A) (A) (A) (A) (A) (A) (A) (A) (A) (A)
                 (A) (A) (A) (A) (A) (A) (A) (A) (A) (A) (A) (A)
                 (A) (A) (A) (A) (A) (A) (A) (A) (A) (A) (A) (A)
                 (A) (A) (A) (A) (A) (A) (A) (A) (A) (A) (A) (A)
                 (A) (A) (A) (A) (A) (A) (A) (A) (A) (A) (A) (A)
                 (A) (A) (A) (A) (A) (A) (A) (A) (A) (A) (A) (A)
                 (A) (A) (A) (A) (A) (A) (A) (A) (A) (A) (A) (A)
                 (A) (A) (A) (A) (A) (A) (A) (A) (A) (A) (A) (A)
                 (A) (A) (A) (A) (A) (A) (A) (A) (A) (A) (A) (A)
                 (A) (A) (A) (A) (A) (A) (A) (A) (A) (A) (A) (A)
                 (A) (A) (A) (A) (A) (A) (A) (A) (A) (A) (A) (A)
                 (A) (A) (A) (A) (A) (A) (A) (A) (A) (A) (A) (A)
                 (A) (A) (A) (A) (A) (A) (A) (A) (A) (A) (A) (A)
                 (A) (A) (A) (A) (A) (A) (A) (A) (A) (A) (A) (A)
                 (A) (A) (A) (A) (A) (A) (A) (A) (A) (A) (A) (A)
                 (A) (A) (A) (A) (A) (A) (A) (A) (A) (A) (A) (A)
                 (A) (A) (A) (A) (A) (A) (A) (A) (A) (A) (A) (A)
                 (A) (A) (A) (A) (A) (A) (A) (A) (A) (A) (A) (A)
                 (A) (A) (A) (A) (A) (A) (A) (A) (A) (A) (A) (A)
                 (A) (A) (A) (A) (A) (A) (A) (A) (A) (A) (A) (A)
                 (A) (A) (A) (A) (A) (A) (A) (A) (A) (A) (A) (A)
                 (A) (A) (A) (A) (A) (A) (A) (A) (A) (A) (A) (A)
                 (A) (A) (A) (A) (A) (A) (A) (A) (A) (A) (A) (A)
                 (A) (A) (A) (A) (A) (A) (A) (A) (A) (A) (A) (A)
                 (A) (A) (A) (A) (A) (A) (A) (A) (A) (A) (A) (A)
                 (A) (A) (A) (A) (A) (A) (A) (A) (A) (A) (A) (A)
                 (A) (A) (A) (A) (A) (A) (A) (A) (A) (A) (A) (A)
                 (A) (A) (A) (A) (A) (A) (A) (A) (A) (A) (A) (A)
                 (A) (A) (A) (A) (A) (A) (A) (A) (A) (A) (A) (A)
                 (A) (A) (A) (A) (A) (A) (A) (A) (A) (A) (A) (A)
                 (A) (A) (A) (A) (A) (A) (A) (A) (A) (A) (A) (A)
                 (A) (A) (A) (A) (A) (A) (A) (A) (A) (A) (A) (A)
                 (A) (A) (A)
 The electronic state is 1-A.
 Alpha  occ. eigenvalues -- -145.48078 -19.20638 -19.16003 -19.12272 -19.10987
 Alpha  occ. eigenvalues --  -19.10964 -19.09944 -19.09933 -19.09602 -19.09319
 Alpha  occ. eigenvalues --  -19.08786 -19.08545 -19.08521 -19.08349 -19.07712
 Alpha  occ. eigenvalues --  -19.06746 -19.06373 -19.06368 -19.06248 -19.06194
 Alpha  occ. eigenvalues --  -19.06162 -19.03655 -19.00145 -18.99574 -15.53987
 Alpha  occ. eigenvalues --  -14.57334 -14.37184 -14.37150 -14.36457 -14.36270
 Alpha  occ. eigenvalues --  -14.35781 -14.35585 -14.35034 -14.34837 -14.34217
 Alpha  occ. eigenvalues --  -14.34067 -14.34005 -14.33459 -14.32444 -14.32247
 Alpha  occ. eigenvalues --  -12.67572 -12.67540 -12.67531 -10.34438 -10.29549
 Alpha  occ. eigenvalues --  -10.29006 -10.28750 -10.28748 -10.28686 -10.28227
 Alpha  occ. eigenvalues --  -10.27568 -10.27498 -10.27396 -10.27050 -10.26969
 Alpha  occ. eigenvalues --  -10.26568 -10.25907 -10.25821 -10.25664 -10.25220
 Alpha  occ. eigenvalues --  -10.24912 -10.24868 -10.24589 -10.24303 -10.24289
 Alpha  occ. eigenvalues --  -10.23644 -10.23626 -10.23465 -10.23445 -10.23114
 Alpha  occ. eigenvalues --  -10.22821 -10.22783 -10.22460 -10.22074 -10.21429
 Alpha  occ. eigenvalues --  -10.21010 -10.20261 -10.20184 -10.18948 -10.18890
 Alpha  occ. eigenvalues --  -10.18822 -10.18789 -10.18689 -10.18678 -10.18635
 Alpha  occ. eigenvalues --  -10.18607 -10.18257 -10.17766 -10.17711 -10.17683
 Alpha  occ. eigenvalues --  -10.17672 -10.16955 -10.16886 -10.16872 -10.15401
 Alpha  occ. eigenvalues --  -10.14890 -10.12949  -1.90613  -1.17987  -1.17638
 Alpha  occ. eigenvalues --   -1.17571  -1.12657  -1.06639  -1.04422  -1.04364
 Alpha  occ. eigenvalues --   -1.03897  -1.03390  -1.02901  -1.02743  -1.02493
 Alpha  occ. eigenvalues --   -1.02383  -1.02002  -1.01946  -1.01500  -1.01037
 Alpha  occ. eigenvalues --   -1.00807  -1.00752  -1.00224  -0.99869  -0.99668
 Alpha  occ. eigenvalues --   -0.98710  -0.94365  -0.94256  -0.93377  -0.92867
 Alpha  occ. eigenvalues --   -0.92615  -0.92408  -0.91720  -0.91519  -0.91259
 Alpha  occ. eigenvalues --   -0.91112  -0.90566  -0.90397  -0.90049  -0.90032
 Alpha  occ. eigenvalues --   -0.89786  -0.89268  -0.88709  -0.87715  -0.84573
 Alpha  occ. eigenvalues --   -0.84334  -0.81033  -0.80509  -0.80406  -0.79574
 Alpha  occ. eigenvalues --   -0.78474  -0.77977  -0.77390  -0.76326  -0.75235
 Alpha  occ. eigenvalues --   -0.75115  -0.75007  -0.73945  -0.73768  -0.73767
 Alpha  occ. eigenvalues --   -0.72934  -0.72451  -0.72201  -0.71531  -0.71425
 Alpha  occ. eigenvalues --   -0.70269  -0.69984  -0.69285  -0.68908  -0.67658
 Alpha  occ. eigenvalues --   -0.66335  -0.65645  -0.65056  -0.64455  -0.64088
 Alpha  occ. eigenvalues --   -0.63114  -0.62466  -0.62289  -0.61673  -0.61401
 Alpha  occ. eigenvalues --   -0.61288  -0.60816  -0.60707  -0.60429  -0.59996
 Alpha  occ. eigenvalues --   -0.59861  -0.59828  -0.59591  -0.59292  -0.58658
 Alpha  occ. eigenvalues --   -0.58605  -0.58056  -0.57865  -0.57705  -0.57180
 Alpha  occ. eigenvalues --   -0.56191  -0.55603  -0.55361  -0.55326  -0.55079
 Alpha  occ. eigenvalues --   -0.54781  -0.54294  -0.54115  -0.54039  -0.53672
 Alpha  occ. eigenvalues --   -0.53037  -0.53022  -0.52375  -0.51791  -0.51399
 Alpha  occ. eigenvalues --   -0.51276  -0.51083  -0.50688  -0.50222  -0.50159
 Alpha  occ. eigenvalues --   -0.49622  -0.49409  -0.49250  -0.48731  -0.48340
 Alpha  occ. eigenvalues --   -0.47964  -0.47703  -0.47648  -0.47464  -0.47112
 Alpha  occ. eigenvalues --   -0.46947  -0.46799  -0.46777  -0.46486  -0.46377
 Alpha  occ. eigenvalues --   -0.46058  -0.45632  -0.45549  -0.45445  -0.45344
 Alpha  occ. eigenvalues --   -0.44890  -0.44861  -0.44731  -0.44449  -0.44338
 Alpha  occ. eigenvalues --   -0.44131  -0.44003  -0.43873  -0.43696  -0.43649
 Alpha  occ. eigenvalues --   -0.43508  -0.43366  -0.43338  -0.43023  -0.42943
 Alpha  occ. eigenvalues --   -0.42786  -0.42707  -0.42453  -0.42187  -0.42153
 Alpha  occ. eigenvalues --   -0.42004  -0.41959  -0.41625  -0.41380  -0.41173
 Alpha  occ. eigenvalues --   -0.41038  -0.40956  -0.40742  -0.40706  -0.40636
 Alpha  occ. eigenvalues --   -0.40506  -0.40442  -0.40388  -0.40200  -0.40103
 Alpha  occ. eigenvalues --   -0.39808  -0.39776  -0.39578  -0.39452  -0.39358
 Alpha  occ. eigenvalues --   -0.39212  -0.39137  -0.39103  -0.38886  -0.38738
 Alpha  occ. eigenvalues --   -0.38645  -0.38442  -0.38380  -0.38171  -0.37992
 Alpha  occ. eigenvalues --   -0.37843  -0.37793  -0.37664  -0.37569  -0.37241
 Alpha  occ. eigenvalues --   -0.37150  -0.37033  -0.36911  -0.36873  -0.36759
 Alpha  occ. eigenvalues --   -0.36440  -0.36281  -0.36063  -0.35925  -0.35785
 Alpha  occ. eigenvalues --   -0.35689  -0.35675  -0.35376  -0.35133  -0.35053
 Alpha  occ. eigenvalues --   -0.34686  -0.34606  -0.34533  -0.34499  -0.34347
 Alpha  occ. eigenvalues --   -0.34229  -0.33691  -0.33197  -0.32970  -0.32850
 Alpha  occ. eigenvalues --   -0.32825  -0.32667  -0.32164  -0.31923  -0.30923
 Alpha  occ. eigenvalues --   -0.30345  -0.29760  -0.29247  -0.29098  -0.28900
 Alpha  occ. eigenvalues --   -0.28051  -0.27686  -0.27509  -0.27307  -0.26875
 Alpha  occ. eigenvalues --   -0.26717  -0.26609  -0.26554  -0.26490  -0.26207
 Alpha  occ. eigenvalues --   -0.25707  -0.25602  -0.25356  -0.25167  -0.25086
 Alpha  occ. eigenvalues --   -0.25032  -0.24845  -0.24691  -0.24653  -0.24359
 Alpha  occ. eigenvalues --   -0.24000  -0.23916  -0.23828  -0.23595  -0.23386
 Alpha  occ. eigenvalues --   -0.23207  -0.22941  -0.22766  -0.22615  -0.22085
 Alpha  occ. eigenvalues --   -0.22031  -0.21949  -0.21147  -0.20773  -0.19532
 Alpha  occ. eigenvalues --   -0.17144  -0.16680  -0.14152
 Alpha virt. eigenvalues --   -0.13244  -0.08875  -0.03308  -0.03134  -0.01863
 Alpha virt. eigenvalues --   -0.01409  -0.00411  -0.00342   0.00170   0.00359
 Alpha virt. eigenvalues --    0.00597   0.00839   0.01018   0.01358   0.01642
 Alpha virt. eigenvalues --    0.01763   0.01809   0.01979   0.02764   0.02784
 Alpha virt. eigenvalues --    0.02931   0.02975   0.03091   0.03398   0.03856
 Alpha virt. eigenvalues --    0.03904   0.04055   0.04382   0.04603   0.04670
 Alpha virt. eigenvalues --    0.04783   0.04926   0.05053   0.05120   0.05202
 Alpha virt. eigenvalues --    0.05535   0.05964   0.06539   0.06588   0.06806
 Alpha virt. eigenvalues --    0.07024   0.07527   0.07579   0.07716   0.07950
 Alpha virt. eigenvalues --    0.08159   0.08308   0.08578   0.08971   0.09201
 Alpha virt. eigenvalues --    0.09412   0.09534   0.09680   0.09898   0.10047
 Alpha virt. eigenvalues --    0.10594   0.10878   0.10942   0.11058   0.11196
 Alpha virt. eigenvalues --    0.11289   0.11467   0.11548   0.11977   0.12166
 Alpha virt. eigenvalues --    0.12216   0.12313   0.12476   0.12746   0.12933
 Alpha virt. eigenvalues --    0.13185   0.13225   0.13313   0.13408   0.13503
 Alpha virt. eigenvalues --    0.13599   0.13789   0.13951   0.14035   0.14254
 Alpha virt. eigenvalues --    0.14480   0.14495   0.14669   0.14818   0.14957
 Alpha virt. eigenvalues --    0.15003   0.15566   0.15758   0.15808   0.15911
 Alpha virt. eigenvalues --    0.16076   0.16182   0.16292   0.16340   0.16549
 Alpha virt. eigenvalues --    0.16614   0.16748   0.16802   0.16993   0.17225
 Alpha virt. eigenvalues --    0.17360   0.17639   0.17977   0.18306   0.18453
 Alpha virt. eigenvalues --    0.18620   0.18947   0.19079   0.19343   0.19607
 Alpha virt. eigenvalues --    0.19652   0.19897   0.20179   0.20460   0.20611
 Alpha virt. eigenvalues --    0.20717   0.20878   0.21158   0.21247   0.21331
 Alpha virt. eigenvalues --    0.21539   0.21690   0.21738   0.22199   0.22347
 Alpha virt. eigenvalues --    0.22862   0.23241   0.23430   0.23530   0.23645
 Alpha virt. eigenvalues --    0.23884   0.23925   0.24358   0.24729   0.24898
 Alpha virt. eigenvalues --    0.24988   0.25173   0.25380   0.25442   0.25560
 Alpha virt. eigenvalues --    0.25926   0.26054   0.26242   0.26437   0.26617
 Alpha virt. eigenvalues --    0.26816   0.27073   0.27367   0.27565   0.28094
 Alpha virt. eigenvalues --    0.28187   0.28463   0.28519   0.29025   0.29041
 Alpha virt. eigenvalues --    0.29255   0.29903   0.30210   0.30376   0.30452
 Alpha virt. eigenvalues --    0.30515   0.30663   0.30971   0.31189   0.31218
 Alpha virt. eigenvalues --    0.31634   0.31673   0.32162   0.32263   0.32513
 Alpha virt. eigenvalues --    0.32566   0.32983   0.33352   0.33544   0.33991
 Alpha virt. eigenvalues --    0.34498   0.34632   0.34842   0.35285   0.35877
 Alpha virt. eigenvalues --    0.36080   0.36206   0.36442   0.36552   0.36643
 Alpha virt. eigenvalues --    0.37005   0.37632   0.37979   0.38068   0.38935
 Alpha virt. eigenvalues --    0.39234   0.39253   0.39380   0.39767   0.40188
 Alpha virt. eigenvalues --    0.40370   0.40476   0.40508   0.41170   0.41432
 Alpha virt. eigenvalues --    0.41770   0.41832   0.42103   0.42306   0.42655
 Alpha virt. eigenvalues --    0.42981   0.43303   0.43330   0.43548   0.43585
 Alpha virt. eigenvalues --    0.43951   0.44328   0.44482   0.44749   0.44891
 Alpha virt. eigenvalues --    0.45009   0.45258   0.45384   0.45631   0.45842
 Alpha virt. eigenvalues --    0.45930   0.46034   0.46238   0.46363   0.46502
 Alpha virt. eigenvalues --    0.46763   0.46938   0.47214   0.47281   0.47519
 Alpha virt. eigenvalues --    0.47598   0.47725   0.47786   0.47947   0.48128
 Alpha virt. eigenvalues --    0.48268   0.48409   0.48682   0.49050   0.49209
 Alpha virt. eigenvalues --    0.49518   0.49786   0.49875   0.49971   0.50134
 Alpha virt. eigenvalues --    0.50284   0.50337   0.50381   0.50720   0.50810
 Alpha virt. eigenvalues --    0.50892   0.51683   0.51930   0.52161   0.52248
 Alpha virt. eigenvalues --    0.52467   0.52681   0.53025   0.53093   0.53412
 Alpha virt. eigenvalues --    0.53676   0.53816   0.53919   0.54082   0.54182
 Alpha virt. eigenvalues --    0.54301   0.54451   0.54568   0.54758   0.55033
 Alpha virt. eigenvalues --    0.55274   0.55509   0.55641   0.55821   0.56087
 Alpha virt. eigenvalues --    0.56372   0.56578   0.56879   0.56963   0.57156
 Alpha virt. eigenvalues --    0.57231   0.57413   0.57609   0.57736   0.57866
 Alpha virt. eigenvalues --    0.58000   0.58228   0.58335   0.58604   0.58846
 Alpha virt. eigenvalues --    0.58928   0.59063   0.59244   0.59490   0.59627
 Alpha virt. eigenvalues --    0.59859   0.59942   0.60153   0.60245   0.60719
 Alpha virt. eigenvalues --    0.60824   0.60959   0.61214   0.61479   0.61721
 Alpha virt. eigenvalues --    0.61817   0.62113   0.62260   0.62320   0.62357
 Alpha virt. eigenvalues --    0.62596   0.62681   0.62727   0.62981   0.63115
 Alpha virt. eigenvalues --    0.63144   0.63215   0.63466   0.63540   0.63613
 Alpha virt. eigenvalues --    0.63740   0.63799   0.63932   0.64028   0.64061
 Alpha virt. eigenvalues --    0.64250   0.64392   0.64451   0.64608   0.64716
 Alpha virt. eigenvalues --    0.64910   0.64927   0.64985   0.65076   0.65150
 Alpha virt. eigenvalues --    0.65179   0.65238   0.65562   0.65572   0.65666
 Alpha virt. eigenvalues --    0.65769   0.65831   0.66029   0.66107   0.66135
 Alpha virt. eigenvalues --    0.66276   0.66377   0.66465   0.66556   0.66688
 Alpha virt. eigenvalues --    0.66824   0.66867   0.66921   0.67117   0.67184
 Alpha virt. eigenvalues --    0.67327   0.67377   0.67458   0.67489   0.67647
 Alpha virt. eigenvalues --    0.67779   0.67826   0.67972   0.68052   0.68129
 Alpha virt. eigenvalues --    0.68166   0.68314   0.68387   0.68508   0.68694
 Alpha virt. eigenvalues --    0.68867   0.68933   0.68981   0.69038   0.69269
 Alpha virt. eigenvalues --    0.69452   0.69491   0.69680   0.69792   0.69837
 Alpha virt. eigenvalues --    0.69992   0.70048   0.70101   0.70269   0.70424
 Alpha virt. eigenvalues --    0.70476   0.70550   0.70725   0.70857   0.70916
 Alpha virt. eigenvalues --    0.71179   0.71296   0.71422   0.71565   0.71669
 Alpha virt. eigenvalues --    0.71751   0.71899   0.72039   0.72177   0.72293
 Alpha virt. eigenvalues --    0.72600   0.72750   0.72921   0.73192   0.73430
 Alpha virt. eigenvalues --    0.73714   0.73797   0.74025   0.74199   0.74470
 Alpha virt. eigenvalues --    0.74586   0.74720   0.74822   0.75061   0.75457
 Alpha virt. eigenvalues --    0.75559   0.75672   0.75971   0.76154   0.76519
 Alpha virt. eigenvalues --    0.76592   0.76831   0.77120   0.77255   0.77469
 Alpha virt. eigenvalues --    0.77680   0.77933   0.78108   0.78238   0.78417
 Alpha virt. eigenvalues --    0.78628   0.78663   0.79271   0.79301   0.79485
 Alpha virt. eigenvalues --    0.79746   0.79905   0.80397   0.80569   0.80811
 Alpha virt. eigenvalues --    0.81305   0.81403   0.81577   0.81628   0.82033
 Alpha virt. eigenvalues --    0.82062   0.82624   0.82710   0.82839   0.82988
 Alpha virt. eigenvalues --    0.83179   0.83466   0.83880   0.84105   0.84722
 Alpha virt. eigenvalues --    0.85255   0.85489   0.85640   0.85823   0.86298
 Alpha virt. eigenvalues --    0.86381   0.86577   0.87043   0.87632   0.87777
 Alpha virt. eigenvalues --    0.87842   0.88450   0.88650   0.88714   0.89685
 Alpha virt. eigenvalues --    0.89835   0.89968   0.90187   0.90448   0.90537
 Alpha virt. eigenvalues --    0.90886   0.91101   0.91199   0.91456   0.91786
 Alpha virt. eigenvalues --    0.92133   0.92485   0.92922   0.93289   0.93411
 Alpha virt. eigenvalues --    0.93895   0.94168   0.94436   0.95109   0.95348
 Alpha virt. eigenvalues --    0.95414   0.95488   0.96227   0.96438   0.96620
 Alpha virt. eigenvalues --    0.96831   0.96936   0.97338   0.97666   0.97875
 Alpha virt. eigenvalues --    0.98308   0.98419   0.98678   0.98993   0.99224
 Alpha virt. eigenvalues --    0.99351   0.99694   1.00061   1.00235   1.00344
 Alpha virt. eigenvalues --    1.00607   1.00748   1.01014   1.01571   1.02031
 Alpha virt. eigenvalues --    1.02067   1.02305   1.02489   1.02594   1.02978
 Alpha virt. eigenvalues --    1.03341   1.03579   1.03653   1.04262   1.04491
 Alpha virt. eigenvalues --    1.04790   1.05018   1.05167   1.05315   1.05548
 Alpha virt. eigenvalues --    1.05854   1.06068   1.07048   1.07327   1.07504
 Alpha virt. eigenvalues --    1.07612   1.07820   1.08028   1.08153   1.08616
 Alpha virt. eigenvalues --    1.08956   1.09163   1.09261   1.09535   1.09612
 Alpha virt. eigenvalues --    1.10177   1.10414   1.11129   1.11157   1.11298
 Alpha virt. eigenvalues --    1.11752   1.12011   1.12360   1.12471   1.12848
 Alpha virt. eigenvalues --    1.12893   1.13095   1.13314   1.13479   1.13892
 Alpha virt. eigenvalues --    1.13980   1.14137   1.14588   1.14910   1.15049
 Alpha virt. eigenvalues --    1.15743   1.15955   1.16232   1.16413   1.16536
 Alpha virt. eigenvalues --    1.16885   1.17046   1.17297   1.17477   1.17755
 Alpha virt. eigenvalues --    1.18282   1.18443   1.18776   1.19132   1.19297
 Alpha virt. eigenvalues --    1.19555   1.19916   1.20364   1.20489   1.20695
 Alpha virt. eigenvalues --    1.21080   1.21268   1.21485   1.21549   1.21828
 Alpha virt. eigenvalues --    1.22169   1.22680   1.22877   1.23032   1.23358
 Alpha virt. eigenvalues --    1.23544   1.23614   1.23670   1.23919   1.24310
 Alpha virt. eigenvalues --    1.24781   1.24854   1.25388   1.25801   1.25876
 Alpha virt. eigenvalues --    1.26096   1.26347   1.26492   1.26774   1.26862
 Alpha virt. eigenvalues --    1.27248   1.27723   1.27803   1.27985   1.28256
 Alpha virt. eigenvalues --    1.28541   1.28850   1.29145   1.29223   1.29615
 Alpha virt. eigenvalues --    1.29967   1.30340   1.30655   1.30669   1.30848
 Alpha virt. eigenvalues --    1.31030   1.31369   1.31729   1.32081   1.32220
 Alpha virt. eigenvalues --    1.32480   1.33053   1.33284   1.33317   1.33459
 Alpha virt. eigenvalues --    1.33634   1.34031   1.34527   1.34929   1.35386
 Alpha virt. eigenvalues --    1.35842   1.36082   1.36307   1.36554   1.36647
 Alpha virt. eigenvalues --    1.36909   1.37316   1.37662   1.37813   1.38571
 Alpha virt. eigenvalues --    1.38749   1.38901   1.39519   1.39717   1.40248
 Alpha virt. eigenvalues --    1.40534   1.40802   1.40942   1.41317   1.41476
 Alpha virt. eigenvalues --    1.42248   1.42602   1.42928   1.43001   1.43275
 Alpha virt. eigenvalues --    1.43420   1.43663   1.43951   1.44117   1.44416
 Alpha virt. eigenvalues --    1.44655   1.45019   1.45306   1.45472   1.45522
 Alpha virt. eigenvalues --    1.45971   1.46330   1.46710   1.47440   1.47987
 Alpha virt. eigenvalues --    1.48153   1.48536   1.48691   1.48866   1.48929
 Alpha virt. eigenvalues --    1.49590   1.49948   1.50174   1.50424   1.51051
 Alpha virt. eigenvalues --    1.51149   1.51317   1.51571   1.51620   1.51945
 Alpha virt. eigenvalues --    1.52146   1.52686   1.52925   1.53436   1.53696
 Alpha virt. eigenvalues --    1.53783   1.54032   1.54295   1.55103   1.55201
 Alpha virt. eigenvalues --    1.55813   1.55927   1.55974   1.56203   1.56399
 Alpha virt. eigenvalues --    1.56619   1.57279   1.58038   1.59316   1.59704
 Alpha virt. eigenvalues --    1.60118   1.60904   1.61188   1.61583   1.61592
 Alpha virt. eigenvalues --    1.61946   1.62473   1.62886   1.63071   1.63227
 Alpha virt. eigenvalues --    1.63321   1.63409   1.63673   1.64268   1.64722
 Alpha virt. eigenvalues --    1.65424   1.65735   1.65782   1.65877   1.65983
 Alpha virt. eigenvalues --    1.66338   1.66717   1.66851   1.67016   1.67202
 Alpha virt. eigenvalues --    1.67560   1.67835   1.68131   1.68450   1.68858
 Alpha virt. eigenvalues --    1.68997   1.69160   1.69620   1.69981   1.70324
 Alpha virt. eigenvalues --    1.70600   1.70782   1.71051   1.71130   1.71857
 Alpha virt. eigenvalues --    1.71990   1.72212   1.72413   1.72462   1.72647
 Alpha virt. eigenvalues --    1.72796   1.72961   1.73168   1.73271   1.73459
 Alpha virt. eigenvalues --    1.73930   1.74100   1.74601   1.74633   1.74856
 Alpha virt. eigenvalues --    1.75071   1.75223   1.75344   1.75557   1.75592
 Alpha virt. eigenvalues --    1.75623   1.75705   1.76167   1.76397   1.76513
 Alpha virt. eigenvalues --    1.76712   1.77040   1.77104   1.77346   1.77535
 Alpha virt. eigenvalues --    1.77696   1.77775   1.77973   1.78239   1.78317
 Alpha virt. eigenvalues --    1.78602   1.78721   1.78783   1.78905   1.79045
 Alpha virt. eigenvalues --    1.79086   1.79332   1.79421   1.79468   1.79649
 Alpha virt. eigenvalues --    1.79870   1.80032   1.80083   1.80415   1.80574
 Alpha virt. eigenvalues --    1.80796   1.80894   1.80979   1.81245   1.81364
 Alpha virt. eigenvalues --    1.81649   1.81827   1.81906   1.82106   1.82383
 Alpha virt. eigenvalues --    1.82425   1.82639   1.82785   1.82910   1.83053
 Alpha virt. eigenvalues --    1.83112   1.83562   1.83755   1.83903   1.84022
 Alpha virt. eigenvalues --    1.84195   1.84458   1.84461   1.84583   1.84797
 Alpha virt. eigenvalues --    1.85096   1.85177   1.85500   1.85668   1.85897
 Alpha virt. eigenvalues --    1.86002   1.86293   1.86382   1.86603   1.86738
 Alpha virt. eigenvalues --    1.87034   1.87072   1.87364   1.87693   1.87740
 Alpha virt. eigenvalues --    1.87823   1.88360   1.88609   1.88648   1.88714
 Alpha virt. eigenvalues --    1.88883   1.89155   1.89554   1.89726   1.89835
 Alpha virt. eigenvalues --    1.90273   1.90302   1.90584   1.90647   1.90855
 Alpha virt. eigenvalues --    1.90987   1.91084   1.91376   1.91678   1.91823
 Alpha virt. eigenvalues --    1.91913   1.92126   1.92353   1.92506   1.92735
 Alpha virt. eigenvalues --    1.92975   1.93227   1.93665   1.93759   1.93897
 Alpha virt. eigenvalues --    1.94724   1.94913   1.94995   1.95139   1.95586
 Alpha virt. eigenvalues --    1.95621   1.95787   1.96030   1.96085   1.96170
 Alpha virt. eigenvalues --    1.96388   1.96422   1.96824   1.97030   1.97397
 Alpha virt. eigenvalues --    1.97575   1.97743   1.98161   1.98168   1.98435
 Alpha virt. eigenvalues --    1.98745   1.98795   1.99060   1.99321   1.99422
 Alpha virt. eigenvalues --    1.99628   1.99790   1.99980   2.00290   2.00568
 Alpha virt. eigenvalues --    2.00777   2.00979   2.01137   2.01566   2.01844
 Alpha virt. eigenvalues --    2.02272   2.02316   2.02461   2.02616   2.02701
 Alpha virt. eigenvalues --    2.03188   2.03612   2.03761   2.03986   2.04150
 Alpha virt. eigenvalues --    2.04365   2.05230   2.05311   2.05556   2.05608
 Alpha virt. eigenvalues --    2.05964   2.06377   2.06670   2.06726   2.07011
 Alpha virt. eigenvalues --    2.07371   2.07917   2.08116   2.08246   2.08735
 Alpha virt. eigenvalues --    2.09199   2.09472   2.09837   2.10095   2.10265
 Alpha virt. eigenvalues --    2.10425   2.10554   2.11058   2.11227   2.11377
 Alpha virt. eigenvalues --    2.11570   2.11987   2.12155   2.12336   2.12601
 Alpha virt. eigenvalues --    2.12791   2.12853   2.13454   2.13712   2.13839
 Alpha virt. eigenvalues --    2.13986   2.14234   2.14502   2.15221   2.15434
 Alpha virt. eigenvalues --    2.15615   2.15686   2.16056   2.16296   2.16447
 Alpha virt. eigenvalues --    2.16535   2.16994   2.17352   2.17584   2.17827
 Alpha virt. eigenvalues --    2.18740   2.18776   2.18895   2.19145   2.19416
 Alpha virt. eigenvalues --    2.19666   2.19892   2.19956   2.20076   2.20600
 Alpha virt. eigenvalues --    2.21167   2.21312   2.21867   2.21930   2.22554
 Alpha virt. eigenvalues --    2.22708   2.23521   2.24093   2.24427   2.24883
 Alpha virt. eigenvalues --    2.25145   2.25287   2.25580   2.25668   2.25940
 Alpha virt. eigenvalues --    2.26350   2.27109   2.27189   2.27342   2.27853
 Alpha virt. eigenvalues --    2.28249   2.28696   2.29203   2.29532   2.29872
 Alpha virt. eigenvalues --    2.30121   2.30309   2.30486   2.30604   2.31153
 Alpha virt. eigenvalues --    2.31395   2.31578   2.31924   2.32899   2.33298
 Alpha virt. eigenvalues --    2.33606   2.33810   2.34093   2.34147   2.34289
 Alpha virt. eigenvalues --    2.34608   2.35298   2.35368   2.35725   2.35784
 Alpha virt. eigenvalues --    2.36026   2.36817   2.37031   2.37059   2.37327
 Alpha virt. eigenvalues --    2.37509   2.38004   2.38270   2.38377   2.38440
 Alpha virt. eigenvalues --    2.39526   2.39751   2.40008   2.40168   2.40469
 Alpha virt. eigenvalues --    2.40895   2.40964   2.41205   2.41258   2.42542
 Alpha virt. eigenvalues --    2.42819   2.43062   2.43224   2.43752   2.44258
 Alpha virt. eigenvalues --    2.45069   2.45260   2.45394   2.45455   2.45674
 Alpha virt. eigenvalues --    2.46269   2.46551   2.46745   2.46771   2.47331
 Alpha virt. eigenvalues --    2.47961   2.49072   2.49346   2.49948   2.50350
 Alpha virt. eigenvalues --    2.51247   2.51515   2.51699   2.51959   2.52624
 Alpha virt. eigenvalues --    2.53070   2.53753   2.53854   2.53964   2.54125
 Alpha virt. eigenvalues --    2.54153   2.54235   2.54789   2.55229   2.55583
 Alpha virt. eigenvalues --    2.55682   2.56187   2.56506   2.56644   2.56663
 Alpha virt. eigenvalues --    2.57367   2.57430   2.57898   2.57975   2.58292
 Alpha virt. eigenvalues --    2.58485   2.58910   2.58974   2.59266   2.59304
 Alpha virt. eigenvalues --    2.59780   2.59880   2.60168   2.60240   2.60563
 Alpha virt. eigenvalues --    2.60862   2.61568   2.61746   2.62079   2.62717
 Alpha virt. eigenvalues --    2.62858   2.63204   2.63665   2.63790   2.64098
 Alpha virt. eigenvalues --    2.64377   2.64922   2.65030   2.65349   2.65395
 Alpha virt. eigenvalues --    2.65513   2.65666   2.65808   2.66133   2.66400
 Alpha virt. eigenvalues --    2.66759   2.67693   2.67752   2.68416   2.68695
 Alpha virt. eigenvalues --    2.69094   2.69567   2.69703   2.69776   2.70845
 Alpha virt. eigenvalues --    2.71518   2.71529   2.71846   2.72021   2.72460
 Alpha virt. eigenvalues --    2.72521   2.73062   2.73217   2.73290   2.73446
 Alpha virt. eigenvalues --    2.73983   2.74035   2.74483   2.74655   2.74740
 Alpha virt. eigenvalues --    2.75074   2.75725   2.75835   2.76029   2.76441
 Alpha virt. eigenvalues --    2.76630   2.76689   2.77182   2.77274   2.77474
 Alpha virt. eigenvalues --    2.77739   2.78277   2.78314   2.78429   2.78960
 Alpha virt. eigenvalues --    2.79062   2.79239   2.79363   2.79929   2.80100
 Alpha virt. eigenvalues --    2.80255   2.80398   2.80919   2.81085   2.81235
 Alpha virt. eigenvalues --    2.81377   2.81800   2.82182   2.82504   2.82666
 Alpha virt. eigenvalues --    2.83040   2.83136   2.83541   2.83808   2.84210
 Alpha virt. eigenvalues --    2.84683   2.84891   2.85679   2.85907   2.86095
 Alpha virt. eigenvalues --    2.86272   2.86625   2.86984   2.87110   2.87239
 Alpha virt. eigenvalues --    2.87401   2.87592   2.87650   2.88127   2.88319
 Alpha virt. eigenvalues --    2.88507   2.88580   2.88665   2.89537   2.89636
 Alpha virt. eigenvalues --    2.89988   2.90881   2.91083   2.91169   2.91569
 Alpha virt. eigenvalues --    2.91815   2.91884   2.92346   2.92601   2.92994
 Alpha virt. eigenvalues --    2.93080   2.93299   2.93404   2.93757   2.94055
 Alpha virt. eigenvalues --    2.94369   2.94871   2.95015   2.95090   2.95288
 Alpha virt. eigenvalues --    2.95775   2.95891   2.96469   2.97343   2.97827
 Alpha virt. eigenvalues --    2.98077   2.98389   2.98536   2.98647   2.99239
 Alpha virt. eigenvalues --    2.99762   3.00338   3.00799   3.01009   3.01358
 Alpha virt. eigenvalues --    3.01515   3.01618   3.01877   3.02011   3.02479
 Alpha virt. eigenvalues --    3.02632   3.02881   3.03178   3.04436   3.04596
 Alpha virt. eigenvalues --    3.05139   3.05239   3.05736   3.06330   3.06419
 Alpha virt. eigenvalues --    3.07031   3.07540   3.08518   3.08608   3.08655
 Alpha virt. eigenvalues --    3.09153   3.09489   3.10293   3.10464   3.11025
 Alpha virt. eigenvalues --    3.11053   3.11512   3.11984   3.12970   3.13519
 Alpha virt. eigenvalues --    3.13551   3.13630   3.13854   3.14381   3.14386
 Alpha virt. eigenvalues --    3.14531   3.15008   3.15480   3.15575   3.15676
 Alpha virt. eigenvalues --    3.16259   3.16339   3.17259   3.18251   3.18688
 Alpha virt. eigenvalues --    3.18865   3.19060   3.19351   3.19619   3.19753
 Alpha virt. eigenvalues --    3.19828   3.20293   3.20372   3.20535   3.20616
 Alpha virt. eigenvalues --    3.21351   3.21680   3.21783   3.21855   3.21915
 Alpha virt. eigenvalues --    3.22754   3.23195   3.23545   3.25309   3.26079
 Alpha virt. eigenvalues --    3.27336   3.27464   3.27562   3.28689   3.29425
 Alpha virt. eigenvalues --    3.29866   3.31708   3.32309   3.33655   3.34076
 Alpha virt. eigenvalues --    3.34443   3.34932   3.35510   3.35930   3.36783
 Alpha virt. eigenvalues --    3.37235   3.38731   3.43869   3.47717   3.49438
 Alpha virt. eigenvalues --    3.50941   3.51981   3.52462   3.54903   3.55884
 Alpha virt. eigenvalues --    3.56089   3.56929   3.57226   3.58127   3.58695
 Alpha virt. eigenvalues --    3.58803   3.59115   3.59872   3.60301   3.61059
 Alpha virt. eigenvalues --    3.64425   3.66304   3.66931   3.67608   3.67698
 Alpha virt. eigenvalues --    3.68041   3.68784   3.69030   3.69146   3.69239
 Alpha virt. eigenvalues --    3.69729   3.69998   3.70011   3.70460   3.70745
 Alpha virt. eigenvalues --    3.71382   3.71877   3.72098   3.72230   3.72946
 Alpha virt. eigenvalues --    3.75692   3.78689   3.78840   3.80129
          Condensed to atoms (all electrons):
 Mulliken charges:
               1
     1  C    0.079799
     2  C    0.008845
     3  O   -0.324026
     4  H   -0.002670
     5  H    0.029284
     6  H    0.030227
     7  N   -0.116409
     8  C    0.071874
     9  C    0.088376
    10  O   -0.288558
    11  C    0.099290
    12  C    0.047099
    13  O   -0.385260
    14  O   -0.302046
    15  H    0.120699
    16  H   -0.032774
    17  H    0.003185
    18  H    0.004377
    19  N   -0.126633
    20  C    0.081555
    21  C    0.116605
    22  O   -0.213980
    23  C    0.049768
    24  C    0.020425
    25  C   -0.055788
    26  C    0.026162
    27  N    0.076431
    28  H    0.109261
    29  H   -0.004121
    30  H   -0.014901
    31  H    0.038217
    32  H    0.015189
    33  H    0.012340
    34  H    0.039220
    35  H    0.043027
    36  H    0.058738
    37  H    0.076719
    38  H    0.206444
    39  H    0.198355
    40  H    0.194255
    41  N   -0.169719
    42  C    0.097831
    43  C    0.099925
    44  O   -0.238336
    45  C    0.108862
    46  C    0.025181
    47  O   -0.330325
    48  O   -0.462931
    49  H    0.117820
    50  H    0.018974
    51  H    0.004392
    52  H   -0.042487
    53  N   -0.146508
    54  C    0.212082
    55  C    0.038869
    56  O   -0.276980
    57  H    0.127479
    58  H    0.036391
    59  H    0.028045
    60  N   -0.119541
    61  C    0.076530
    62  C    0.140336
    63  O   -0.300843
    64  C    0.097702
    65  C   -0.023790
    66  N   -0.064245
    67  O   -0.245136
    68  H    0.113363
    69  H   -0.003132
    70  H    0.031390
    71  H    0.031438
    72  H    0.133003
    73  H    0.126067
    74  N   -0.114399
    75  C    0.240506
    76  C   -0.001498
    77  O   -0.263881
    78  H    0.127867
    79  H    0.004788
    80  H    0.041574
    81  N   -0.136021
    82  C    0.133591
    83  C    0.089080
    84  O   -0.315108
    85  C    0.164766
    86  C   -0.059306
    87  C    0.002274
    88  C    0.001555
    89  C   -0.037748
    90  C   -0.055934
    91  C    0.207488
    92  O   -0.202799
    93  H    0.126530
    94  H    0.012828
    95  H    0.025441
    96  H   -0.008376
    97  H   -0.051179
    98  H   -0.030637
    99  H   -0.031998
   100  H   -0.049670
   101  H    0.173791
   102  N   -0.117035
   103  C    0.203204
   104  C    0.017134
   105  O   -0.276171
   106  C   -0.200244
   107  C    0.014310
   108  C    0.133582
   109  C    0.048541
   110  H    0.157516
   111  H   -0.005606
   112  H   -0.010986
   113  H    0.022391
   114  H   -0.013805
   115  H    0.002540
   116  H   -0.031698
   117  H    0.013477
   118  H    0.012628
   119  H    0.000857
   120  H   -0.011465
   121  N   -0.142686
   122  C    0.143079
   123  C    0.041559
   124  O   -0.270754
   125  C    0.233147
   126  O   -0.313871
   127  H    0.125574
   128  H    0.026051
   129  H   -0.002453
   130  H    0.007981
   131  H    0.160714
   132  N   -0.134834
   133  C    0.056276
   134  C    0.082549
   135  O   -0.271364
   136  C    0.085434
   137  H    0.124834
   138  H    0.004427
   139  H    0.032132
   140  H    0.016635
   141  H   -0.012882
   142  N   -0.125017
   143  C    0.054334
   144  C    0.083753
   145  O   -0.254466
   146  C    0.101485
   147  H    0.125378
   148  H   -0.012184
   149  H    0.058394
   150  H    0.027907
   151  H   -0.023113
   152  N   -0.163894
   153  C    0.101099
   154  C    0.073442
   155  O   -0.272517
   156  C    0.026716
   157  C    0.111555
   158  C    0.060179
   159  O   -0.445130
   160  O   -0.413270
   161  H    0.126864
   162  H   -0.003661
   163  H   -0.003238
   164  H    0.017859
   165  H    0.008881
   166  H   -0.027491
   167  N   -0.145384
   168  C    0.129759
   169  H    0.034896
   170  H    0.034564
   171  H    0.016457
   172  H    0.109646
   173  Ca   1.247464
   174  O   -0.288435
   175  H    0.190106
   176  H    0.172506
 Sum of Mulliken charges =  -0.00000
 Mulliken charges with hydrogens summed into heavy atoms:
               1
     1  C    0.136640
     2  C    0.008845
     3  O   -0.324026
     7  N    0.004290
     8  C    0.039100
     9  C    0.088376
    10  O   -0.288558
    11  C    0.106853
    12  C    0.047099
    13  O   -0.385260
    14  O   -0.302046
    19  N   -0.017372
    20  C    0.077434
    21  C    0.116605
    22  O   -0.213980
    23  C    0.073085
    24  C    0.047954
    25  C    0.026459
    26  C    0.161619
    27  N    0.675485
    41  N   -0.051899
    42  C    0.116805
    43  C    0.099925
    44  O   -0.238336
    45  C    0.070767
    46  C    0.025181
    47  O   -0.330325
    48  O   -0.462931
    53  N   -0.019029
    54  C    0.276518
    55  C    0.038869
    56  O   -0.276980
    60  N   -0.006178
    61  C    0.073398
    62  C    0.140336
    63  O   -0.300843
    64  C    0.160529
    65  C   -0.023790
    66  N    0.194825
    67  O   -0.245136
    74  N    0.013468
    75  C    0.286869
    76  C   -0.001498
    77  O   -0.263881
    81  N   -0.009491
    82  C    0.146419
    83  C    0.089080
    84  O   -0.315108
    85  C    0.181832
    86  C   -0.059306
    87  C   -0.048905
    88  C   -0.029082
    89  C   -0.069746
    90  C   -0.105604
    91  C    0.207488
    92  O   -0.029008
   102  N    0.040481
   103  C    0.197597
   104  C    0.017134
   105  O   -0.276171
   106  C   -0.211230
   107  C    0.022896
   108  C    0.117901
   109  C    0.050561
   121  N   -0.017112
   122  C    0.169130
   123  C    0.041559
   124  O   -0.270754
   125  C    0.238675
   126  O   -0.153156
   132  N   -0.010000
   133  C    0.060703
   134  C    0.082549
   135  O   -0.271364
   136  C    0.121319
   142  N    0.000360
   143  C    0.042151
   144  C    0.083753
   145  O   -0.254466
   146  C    0.164673
   152  N   -0.037030
   153  C    0.097438
   154  C    0.073442
   155  O   -0.272517
   156  C    0.041336
   157  C    0.092945
   158  C    0.060179
   159  O   -0.445130
   160  O   -0.413270
   167  N   -0.035738
   168  C    0.215676
   173  Ca   1.247464
   174  O    0.074178
 DipInt: DoE/N= T F RetVal/Mat= T F Init=T NMatP=  1 IDeriv=0 Min/MaxMlt=  0  4
 Entering OneElI...
 OneElI was handed  1333951383 working-precision words.
 Multipole integrals L=0 to 4 MinM= 0 MaxM= 0.
 Requested accuracy = 0.1000D-12
 ShPair: Thresh= 1.00D-13 NBox=     0 BxSize= 0.00D+00 RnKept= 3.91D+01
         NSMCal=               327645 NSMKep=              123468
 PrmmSu-InSpLW:  IPartL=    0 NPrtUS=    1 NPrtUL=    1 DoSpLW=F IThBeg=    0 IThEnd=    0 NThAct=    1.
 PrsmSu:  NPrtUS=   1 ThrOK=F IAlg=1 NPAlg=1 LenDen=           0 ISkipM=0 DoSpLW=F IThBeg=    0 IThEnd=    0.
 Prism:   IPart=     0 DynPar=F LinDyn=F Incr=         512.
 PRISM was handed  1325342493 working-precision words and123468 shell-pairs
 IPart=  0 NShTot=      123468 NBatch=         287 AvBLen=       430.2
 PrsmSu-ThDecC:  IPartSL=    0    0 NPrtUSL=    1    1 IThBeg=    0 IThEnd=    0 CPU=   -1 GPU=   -1 NThAct=    1.
 PrSmSu:  NxtVal=            513.
 Electronic moments (au):
       -716.00000000          3.98176900         10.04355884          0.87978339
     -92186.94925558     -38767.23773875     -16573.94857693        184.84030940
         10.71347699          6.44771830     190995.87362394    -107762.87959138
     -12350.76181575      -6016.79851958     271257.12700812     108932.30344975
     -95003.26474229      11881.72348897      23132.79031385     -81383.24941105
  -25014578.00726559   -3907567.81980685   -1185161.26749024   -1258650.34451560
    1098606.07108769     381865.18019700     328915.29922542     121323.90333433
    -220283.64328759   -4162411.15937779   -1941851.99574974    -812267.84314193
    -864974.25706656     299264.74736849     148243.38571628
 Electronic spatial extent (au):  <R**2>=         147528.1356
 DipInt: DoE/N= F T RetVal/Mat= T F Init=T NMatP=  1 IDeriv=0 Min/MaxMlt=  0  4
 Nuclear    moments (au):
        716.00000000         -0.00000000          0.00000000         -0.00000000
      91910.29834428      38285.81829988      16211.77084712          0.00000000
          0.00000000          0.00000000    -189567.83793489     108160.71416547
      12979.57436412       5220.18384506    -268419.40881785    -109170.91162520
      95804.12308269     -11232.58999177     -23161.58368211      81762.11537899
   24789584.88462671    3767497.80043041    1138867.53327385    1303180.65280401
   -1100867.45479569    -363638.14259661    -331469.59018780    -113583.56413253
     227155.93407463    4065359.12779517    1882594.68947521     783182.76694840
     865128.15529379    -300306.23102178    -144729.84238552
 Total      moments (au):
         -0.00000000          3.98176900         10.04355884          0.87978339
       -276.65091130       -481.41943887       -362.17772981        184.84030940
         10.71347699          6.44771830       1428.03568905        397.83457409
        628.81254837       -796.61467452       2837.71819027       -238.60817545
        800.85834041        649.13349720        -28.79336827        378.86596795
    -224993.12263888    -140070.01937644     -46293.73421638      44530.30828842
      -2261.38370799      18227.03760038      -2554.29096238       7740.33920180
       6872.29078704     -97052.03158262     -59257.30627453     -29085.07619354
        153.89822723      -1041.48365329       3513.54333076
 Traceless Quadrup. (au):
         96.76511536       -108.00341221         11.23829685        184.84030940
         10.71347699          6.44771830
 Charge=             -0.0000 electrons
 Dipole moment (field-independent basis, Debye):
    X=             10.1206    Y=             25.5282    Z=              2.2362  Tot=             27.5521
 Quadrupole moment (field-independent basis, Debye-Ang):
   XX=           -372.1050   YY=           -647.5256   ZZ=           -487.1415
   XY=            248.6165   XZ=             14.4100   YZ=              8.6724
 Traceless Quadrupole moment (field-independent basis, Debye-Ang):
   XX=            130.1524   YY=           -145.2683   ZZ=             15.1159
   XY=            248.6165   XZ=             14.4100   YZ=              8.6724
 Octapole moment (field-independent basis, Debye-Ang**2):
  XXX=           1016.4208  YYY=            283.1633  ZZZ=            447.5645  XYY=           -566.9996
  XXY=           2019.7785  XXZ=           -169.8321  XZZ=            570.0201  YZZ=            462.0282
  YYZ=            -20.4940  XYZ=            269.6622
 Hexadecapole moment (field-independent basis, Debye-Ang**3):
 XXXX=         -84743.1988 YYYY=         -52757.0859 ZZZZ=         -17436.4402 XXXY=          16772.2494
 XXXZ=           -851.7455 YYYX=           6865.1764 YYYZ=           -962.0685 ZZZX=           2915.3829
 ZZZY=           2588.4342 XXYY=         -36554.4489 XXZZ=         -22319.1430 YYZZ=         -10954.8344
 XXYZ=             57.9655 YYXZ=           -392.2727 ZZXY=           1323.3689
 N-N= 1.871997549550D+04 E-N=-4.991974631437D+04  KE= 5.290511749347D+03
 Leave Link  601 at Tue Sep 17 10:21:19 2019, MaxMem=  1342177280 cpu:              44.3 elap:               1.1
 FitSet:  NAtFit=   176 NAtPot=   176 NAtFrz=     0 MDM=   180 TotChg=   0.00000
 Merz-Kollman atomic radii used.
 Read replacement radii for each type of atom:
 Rad(20) =   1.700000000000D+00
 Atom Element Radius
    1     6    1.50
    2     6    1.50
    3     8    1.40
    4     1    1.20
    5     1    1.20
    6     1    1.20
    7     7    1.50
    8     6    1.50
    9     6    1.50
   10     8    1.40
   11     6    1.50
   12     6    1.50
   13     8    1.40
   14     8    1.40
   15     1    1.20
   16     1    1.20
   17     1    1.20
   18     1    1.20
   19     7    1.50
   20     6    1.50
   21     6    1.50
   22     8    1.40
   23     6    1.50
   24     6    1.50
   25     6    1.50
   26     6    1.50
   27     7    1.50
   28     1    1.20
   29     1    1.20
   30     1    1.20
   31     1    1.20
   32     1    1.20
   33     1    1.20
   34     1    1.20
   35     1    1.20
   36     1    1.20
   37     1    1.20
   38     1    1.20
   39     1    1.20
   40     1    1.20
   41     7    1.50
   42     6    1.50
   43     6    1.50
   44     8    1.40
   45     6    1.50
   46     6    1.50
   47     8    1.40
   48     8    1.40
   49     1    1.20
   50     1    1.20
   51     1    1.20
   52     1    1.20
   53     7    1.50
   54     6    1.50
   55     6    1.50
   56     8    1.40
   57     1    1.20
   58     1    1.20
   59     1    1.20
   60     7    1.50
   61     6    1.50
   62     6    1.50
   63     8    1.40
   64     6    1.50
   65     6    1.50
   66     7    1.50
   67     8    1.40
   68     1    1.20
   69     1    1.20
   70     1    1.20
   71     1    1.20
   72     1    1.20
   73     1    1.20
   74     7    1.50
   75     6    1.50
   76     6    1.50
   77     8    1.40
   78     1    1.20
   79     1    1.20
   80     1    1.20
   81     7    1.50
   82     6    1.50
   83     6    1.50
   84     8    1.40
   85     6    1.50
   86     6    1.50
   87     6    1.50
   88     6    1.50
   89     6    1.50
   90     6    1.50
   91     6    1.50
   92     8    1.40
   93     1    1.20
   94     1    1.20
   95     1    1.20
   96     1    1.20
   97     1    1.20
   98     1    1.20
   99     1    1.20
  100     1    1.20
  101     1    1.20
  102     7    1.50
  103     6    1.50
  104     6    1.50
  105     8    1.40
  106     6    1.50
  107     6    1.50
  108     6    1.50
  109     6    1.50
  110     1    1.20
  111     1    1.20
  112     1    1.20
  113     1    1.20
  114     1    1.20
  115     1    1.20
  116     1    1.20
  117     1    1.20
  118     1    1.20
  119     1    1.20
  120     1    1.20
  121     7    1.50
  122     6    1.50
  123     6    1.50
  124     8    1.40
  125     6    1.50
  126     8    1.40
  127     1    1.20
  128     1    1.20
  129     1    1.20
  130     1    1.20
  131     1    1.20
  132     7    1.50
  133     6    1.50
  134     6    1.50
  135     8    1.40
  136     6    1.50
  137     1    1.20
[...]
 **** Fit       0.069811
 **** Fit       0.068214
 **** Fit       0.068455
 **** Fit       0.070575
 **** Fit       0.072159
 **** Fit       0.072677
 **** Fit       0.072428
 **** Fit       0.071728
 **** Fit       0.070658
 **** Fit       0.069168
 **** Fit       0.067332
 **** Fit       0.065622
 **** Fit       0.064923
 **** Fit       0.065889
 **** Fit       0.068158
 **** Fit       0.070539
 **** Fit       0.072258
 **** Fit       0.073037
 **** Fit       0.073085
 **** Fit       0.072714
 **** Fit       0.072157
 **** Fit       0.071497
 **** Fit       0.070696
 **** Fit       0.069656
 **** Fit       0.068275
 **** Fit       0.066503
 **** Fit       0.064437
 **** Fit       0.062422
 **** Fit       0.061067
 **** Fit       0.060995
 **** Fit       0.062434
 **** Fit       0.065010
 **** Fit       0.067964
 **** Fit       0.070414
 **** Fit       0.072224
 **** Fit       0.073115
 **** Fit       0.073258
 **** Fit       0.072918
 **** Fit       0.072353
 **** Fit       0.071745
 **** Fit       0.071171
 **** Fit       0.070619
 **** Fit       0.070023
 **** Fit       0.069295
 **** Fit       0.068346
 **** Fit       0.067087
 **** Fit       0.065440
 **** Fit       0.063381
 **** Fit       0.060997
 **** Fit       0.058561
 **** Fit       0.056558
 **** Fit       0.055573
 **** Fit       0.056028
 **** Fit       0.057945
 **** Fit       0.060936
 **** Fit       0.064395
 **** Fit       0.067714
 **** Fit       0.070256
 **** Fit       0.072189
 **** Fit       0.073114
 **** Fit       0.073208
 **** Fit       0.072739
 **** Fit       0.071982
 **** Fit       0.071162
 **** Fit       0.070426
 **** Fit       0.069831
 **** Fit       0.069355
 **** Fit       0.068931
 **** Fit       0.068477
 **** Fit       0.067915
 **** Fit       0.067173
 **** Fit       0.066173
 **** Fit       0.064828
 **** Fit       0.063051
 **** Fit       0.060781
 **** Fit       0.058040
 **** Fit       0.054997
 **** Fit       0.052033
 **** Fit       0.049732
 **** Fit       0.048722
 **** Fit       0.049396
 **** Fit       0.051710
 **** Fit       0.055237
 **** Fit       0.059383
 **** Fit       0.063571
 **** Fit       0.067317
 **** Fit       0.070160
 **** Fit       0.072199
 **** Fit       0.073110
 **** Fit       0.073085
 **** Fit       0.072407
 **** Fit       0.071367
 **** Fit       0.070216
 **** Fit       0.069145
 **** Fit       0.068270
 **** Fit       0.067633
 **** Fit       0.067201
 **** Fit       0.066898
 **** Fit       0.066635
 **** Fit       0.066333
 **** Fit       0.065934
 **** Fit       0.065386
 **** Fit       0.064632
 **** Fit       0.063599
 **** Fit       0.062192
 **** Fit       0.060308
 **** Fit       0.057854
 **** Fit       0.054791
 **** Fit       0.051188
 **** Fit       0.047304
 **** Fit       0.043649
 **** Fit       0.040945
 **** Fit       0.039898
 **** Fit       0.040879
 **** Fit       0.043747
 **** Fit       0.047973
 **** Fit       0.052920
 **** Fit       0.058023
 **** Fit       0.062834
 **** Fit       0.066980
 **** Fit       0.070295
 **** Fit       0.072477
 **** Fit       0.073290
 **** Fit       0.072983
 **** Fit       0.071909
 **** Fit       0.070413
 **** Fit       0.068778
 **** Fit       0.067226
 **** Fit       0.065918
 **** Fit       0.064946
 **** Fit       0.064322
 **** Fit       0.063985
 **** Fit       0.063829
 **** Fit       0.063743
 **** Fit       0.063634
 **** Fit       0.063445
 **** Fit       0.063141
 **** Fit       0.062693
 **** Fit       0.062055
 **** Fit       0.061156
 **** Fit       0.059895
 **** Fit       0.058148
 **** Fit       0.055782
 **** Fit       0.052675
 **** Fit       0.048761
 **** Fit       0.044093
 **** Fit       0.038962
 **** Fit       0.034003
 **** Fit       0.030171
 **** Fit       0.028453
 **** Fit       0.029383
 **** Fit       0.032774
 **** Fit       0.037906
 **** Fit       0.043951
 **** Fit       0.050256
 **** Fit       0.056377
 **** Fit       0.061976
 **** Fit       0.066724
 **** Fit       0.070977
 **** Fit       0.073314
 **** Fit       0.073919
 **** Fit       0.073147
 **** Fit       0.071483
 **** Fit       0.069354
 **** Fit       0.067075
 **** Fit       0.064883
 **** Fit       0.062961
 **** Fit       0.061451
 **** Fit       0.060424
 **** Fit       0.059866
 **** Fit       0.059684
 **** Fit       0.059735
 **** Fit       0.059871
 **** Fit       0.059979
 **** Fit       0.059997
 **** Fit       0.059901
 **** Fit       0.059688
 **** Fit       0.059351
 **** Fit       0.058853
 **** Fit       0.058127
 **** Fit       0.057065
 **** Fit       0.055535
 **** Fit       0.053379
 **** Fit       0.050428
 **** Fit       0.046514
 **** Fit       0.041511
 **** Fit       0.035420
 **** Fit       0.028533
 **** Fit       0.021645
 **** Fit       0.018435
 **** Fit       0.024913
 **** Fit       0.032452
 **** Fit       0.040223
 **** Fit       0.047787
 **** Fit       0.054916
 **** Fit       0.061398
 **** Fit       0.066897
 **** Fit       0.073983
 **** Fit       0.071382
 **** Fit       0.068336
 **** Fit       0.065191
 **** Fit       0.062163
 **** Fit       0.059428
 **** Fit       0.057151
 **** Fit       0.055464
 **** Fit       0.054430
 **** Fit       0.054014
 **** Fit       0.054079
 **** Fit       0.054432
 **** Fit       0.054874
 **** Fit       0.055259
 **** Fit       0.055507
 **** Fit       0.055605
 **** Fit       0.055577
 **** Fit       0.055451
 **** Fit       0.055238
 **** Fit       0.054909
 **** Fit       0.054394
 **** Fit       0.053586
 **** Fit       0.052344
 **** Fit       0.050501
 **** Fit       0.047867
 **** Fit       0.044227
 **** Fit       0.039338
 **** Fit       0.032955
 **** Fit       0.024937
 **** Fit       0.017784
 **** Fit       0.027527
 **** Fit       0.036786
 **** Fit       0.045505
 **** Fit       0.053730
 **** Fit       0.061358
 **** Fit       0.071308
 **** Fit       0.066671
 **** Fit       0.062189
 **** Fit       0.057987
 **** Fit       0.054188
 **** Fit       0.050966
 **** Fit       0.048519
 **** Fit       0.046989
 **** Fit       0.046395
 **** Fit       0.046593
 **** Fit       0.047310
 **** Fit       0.048234
 **** Fit       0.049096
 **** Fit       0.049738
 **** Fit       0.050119
 **** Fit       0.050283
 **** Fit       0.050310
 **** Fit       0.050274
 **** Fit       0.050206
 **** Fit       0.050080
 **** Fit       0.049816
 **** Fit       0.049288
 **** Fit       0.048332
 **** Fit       0.046757
 **** Fit       0.044344
 **** Fit       0.040838
 **** Fit       0.035913
 **** Fit       0.029131
 **** Fit       0.008158
 **** Fit       0.020381
 **** Fit       0.031436
 **** Fit       0.041754
 **** Fit       0.058678
 **** Fit       0.052957
 **** Fit       0.047756
 **** Fit       0.043220
 **** Fit       0.039624
 **** Fit       0.037253
 **** Fit       0.036255
 **** Fit       0.036540
 **** Fit       0.037763
 **** Fit       0.039438
 **** Fit       0.041095
 **** Fit       0.042410
 **** Fit       0.043258
 **** Fit       0.043684
 **** Fit       0.043830
 **** Fit       0.043862
 **** Fit       0.043905
 **** Fit       0.044009
 **** Fit       0.044145
 **** Fit       0.044214
 **** Fit       0.044063
 **** Fit       0.043504
 **** Fit       0.042324
 **** Fit       0.040294
 **** Fit       0.037160
 **** Fit       0.032589
 **** Fit       0.013304
 **** Fit       0.046011
 **** Fit       0.038959
 **** Fit       0.031434
 **** Fit       0.033756
 **** Fit       0.035204
 **** Fit       0.035864
 **** Fit       0.036007
 **** Fit       0.035953
 **** Fit       0.035960
 **** Fit       0.036166
 **** Fit       0.036582
 **** Fit       0.037109
 **** Fit       0.037571
 **** Fit       0.037747
 **** Fit       0.037395
 **** Fit       0.036268
 **** Fit       0.034129
 **** Fit       0.030741
 **** Fit       0.026811
 **** Fit       0.026406
 **** Fit       0.026115
 **** Fit       0.026233
 **** Fit       0.026836
 **** Fit       0.027820
 **** Fit       0.028965
 **** Fit       0.029994
 **** Fit       0.030610
 **** Fit       0.030523
 **** Fit       0.029481
 **** Fit       0.027304
 **** Fit       0.019702
 **** Fit       0.021534
 **** Fit       0.022661
 **** Fit       0.022738
 **** Fit       0.012256
 **** Fit       0.013881
 **** Fit       0.054485
 **** Fit       0.042974
 **** Fit       0.043856
 **** Fit       0.029670
 **** Fit       0.033297
 **** Fit       0.016175
 **** Fit       0.022127
 **** Fit       0.029212
 **** Fit       0.047886
 **** Fit      -0.004502
 **** Fit       0.003166
 **** Fit       0.011442
 **** Fit       0.019889
 **** Fit       0.028411
 **** Fit       0.040930
 **** Fit       0.035373
 **** Fit      -0.010571
 **** Fit       0.000084
 **** Fit       0.009980
 **** Fit       0.019377
 **** Fit       0.035076
 **** Fit      -0.014956
 **** Fit      -0.002743
 **** Fit       0.008150
 **** Fit       0.018234
 **** Fit       0.027808
 **** Fit       0.031554
 **** Fit      -0.014607
 **** Fit      -0.002203
 **** Fit       0.008838
 **** Fit       0.019024
 **** Fit       0.028625
 **** Fit       0.039253
 **** Fit       0.027891
 **** Fit      -0.013099
 **** Fit      -0.000843
 **** Fit       0.010154
 **** Fit       0.020328
 **** Fit       0.029890
 **** Fit       0.038878
 **** Fit       0.046820
 **** Fit       0.036560
 **** Fit      -0.010722
 **** Fit       0.001244
 **** Fit       0.012104
 **** Fit       0.022222
 **** Fit       0.031742
 **** Fit       0.040644
 **** Fit      -0.004876
 **** Fit       0.006206
 **** Fit       0.016466
 **** Fit       0.026169
 **** Fit       0.035367
 **** Fit       0.043965
 **** Fit       0.051779
 **** Fit       0.058576
 **** Fit       0.070861
 **** Fit       0.009572
 **** Fit       0.019577
 **** Fit       0.029168
 **** Fit       0.038382
 **** Fit       0.047065
 **** Fit       0.054957
 **** Fit       0.061746
 **** Fit       0.067131
 **** Fit       0.022730
 **** Fit       0.032171
 **** Fit       0.041406
 **** Fit       0.050281
 **** Fit       0.058450
 **** Fit       0.054873
 **** Fit       0.046428
 **** Fit       0.035934
 **** Fit       0.069423
 **** Fit       0.065541
 **** Fit       0.060133
 **** Fit       0.053234
 **** Fit       0.044658
 **** Fit       0.033883
 **** Fit       0.073399
 **** Fit       0.072403
 **** Fit       0.069540
 **** Fit       0.065059
 **** Fit       0.059109
 **** Fit       0.051675
 **** Fit       0.042512
 **** Fit       0.031059
 **** Fit       0.068945
 **** Fit       0.072285
 **** Fit       0.076265
 **** Fit       0.074359
 **** Fit       0.070642
 **** Fit       0.065426
 **** Fit       0.058872
 **** Fit       0.050961
 **** Fit       0.041482
 **** Fit       0.030050
 **** Fit       0.068564
 **** Fit       0.073382
 **** Fit       0.076003
 **** Fit       0.076332
 **** Fit       0.071248
 **** Fit       0.064676
 **** Fit       0.056821
 **** Fit       0.047688
 **** Fit       0.037202
 **** Fit       0.077386
 **** Fit       0.070972
 **** Fit       0.063137
 **** Fit       0.054215
 **** Fit       0.044446
 **** Fit       0.034333
 **** Fit       0.020730
 **** Fit       0.076256
 **** Fit       0.068355
 **** Fit       0.059143
 **** Fit       0.049411
 **** Fit       0.040207
 **** Fit       0.033020
 **** Fit       0.028940
 **** Fit       0.028986
 **** Fit       0.062073
 **** Fit       0.051932
 **** Fit       0.044051
 **** Fit       0.040413
 **** Fit       0.067814
 **** Fit       0.061539
 **** Fit       0.065374
 **** Fit       0.072915
 **** Fit       0.069879
 **** Fit       0.062084
 **** Fit       0.057567
 **** Fit       0.059802
 **** Fit       0.062871
 **** Fit       0.068027
 **** Fit       0.060328
 **** Fit       0.056116
 **** Fit       0.055983
 **** Fit       0.055120
 **** Fit       0.056907
 **** Fit       0.058557
 **** Fit       0.060478
 **** Fit       0.063508
 **** Fit       0.069041
 **** Fit       0.051483
 **** Fit       0.050207
 **** Fit       0.051238
 **** Fit       0.053131
 **** Fit       0.053731
 **** Fit       0.055368
 **** Fit       0.056563
 **** Fit       0.057488
 **** Fit       0.058484
 **** Fit       0.060158
 **** Fit       0.063561
 **** Fit       0.043658
 **** Fit       0.044314
 **** Fit       0.046476
 **** Fit       0.049097
 **** Fit       0.051609
 **** Fit       0.053119
 **** Fit       0.054686
 **** Fit       0.055671
 **** Fit       0.056167
 **** Fit       0.056336
 **** Fit       0.056449
 **** Fit       0.056979
 **** Fit       0.058785
 **** Fit       0.063438
 **** Fit       0.037913
 **** Fit       0.041298
 **** Fit       0.044856
 **** Fit       0.048143
 **** Fit       0.050931
 **** Fit       0.053121
 **** Fit       0.054604
 **** Fit       0.055458
 **** Fit       0.055739
 **** Fit       0.055522
 **** Fit       0.054915
 **** Fit       0.054089
 **** Fit       0.053353
 **** Fit       0.053298
 **** Fit       0.031339
 **** Fit       0.036036
 **** Fit       0.040572
 **** Fit       0.044658
 **** Fit       0.048147
 **** Fit       0.050974
 **** Fit       0.053653
 **** Fit       0.055096
 **** Fit       0.055841
 **** Fit       0.055931
 **** Fit       0.055411
 **** Fit       0.054325
 **** Fit       0.052730
 **** Fit       0.050728
 **** Fit       0.048543
 **** Fit       0.046708
 **** Fit       0.028914
 **** Fit       0.034897
 **** Fit       0.040208
 **** Fit       0.044757
 **** Fit       0.048512
 **** Fit       0.051470
 **** Fit       0.054689
 **** Fit       0.056051
 **** Fit       0.056686
 **** Fit       0.056631
 **** Fit       0.055909
 **** Fit       0.054528
 **** Fit       0.052471
 **** Fit       0.049707
 **** Fit       0.046206
 **** Fit       0.042010
 **** Fit       0.028813
 **** Fit       0.035409
 **** Fit       0.041057
 **** Fit       0.045777
 **** Fit       0.049596
 **** Fit       0.052553
 **** Fit       0.056241
 **** Fit       0.057508
 **** Fit       0.058011
 **** Fit       0.057788
 **** Fit       0.056852
 **** Fit       0.055187
 **** Fit       0.052733
 **** Fit       0.049375
 **** Fit       0.044929
 **** Fit       0.036535
 **** Fit       0.042450
 **** Fit       0.047321
 **** Fit       0.051205
 **** Fit       0.054159
 **** Fit       0.058347
 **** Fit       0.059514
 **** Fit       0.059828
 **** Fit       0.059329
 **** Fit       0.058027
 **** Fit       0.055877
 **** Fit       0.052766
 **** Fit       0.048476
 **** Fit       0.042642
 **** Fit       0.037231
 **** Fit       0.043744
 **** Fit       0.049035
 **** Fit       0.053182
 **** Fit       0.056261
 **** Fit       0.061048
 **** Fit       0.062077
 **** Fit       0.062137
 **** Fit       0.061281
 **** Fit       0.059512
 **** Fit       0.056754
 **** Fit       0.052816
 **** Fit       0.047339
 **** Fit       0.045448
 **** Fit       0.051257
 **** Fit       0.055735
 **** Fit       0.058967
 **** Fit       0.064369
 **** Fit       0.065207
 **** Fit       0.064996
 **** Fit       0.063808
 **** Fit       0.061646
 **** Fit       0.058418
 **** Fit       0.054450
 **** Fit       0.059101
 **** Fit       0.062373
 **** Fit       0.068293
 **** Fit       0.068930
 **** Fit       0.068348
 **** Fit       0.066664
 **** Fit       0.066267
 -----------------------------------------------------------------
 Leave Link  602 at Tue Sep 17 10:21:22 2019, MaxMem=  1342177280 cpu:             133.1 elap:               2.8

 Test job not archived.
 1\1\GINC-C491-031\SP\RB3LYP\SVP\C54H83Ca1N15O23\PENGZHI\17-Sep-2019\0\
 \#b3lyp/svp scf=(tight,noincore) Test #IOP(5/87=12) Density=Current Po
 p=(MK,readradii) iop(6/33=2) iop(6/42=6)\\Ng-293_loop3_5.0\\0,1\C,0,42
 .26,83.21,67.66\C,0,42.4,83.12,66.15\O,0,43.48,83.36,65.63\H,0,41.203,
 83.202,67.927\H,0,42.758,82.358,68.123\H,0,42.716,84.135,68.013\N,0,41
 .39,82.65,65.41\C,0,41.43,82.65,63.96\C,0,41.03,81.32,63.32\O,0,40.39,
 80.5,63.98\C,0,40.63,83.87,63.52\C,0,40.71,84.1,62.01\O,0,41.73,83.85,
 61.34\O,0,39.67,84.57,61.5\H,0,40.48,82.43,65.8\H,0,42.45,82.82,63.63\
 H,0,41.17,84.7,63.96\H,0,39.56,83.83,63.76\N,0,41.48,81.09,62.09\C,0,4
 1.32,79.85,61.36\C,0,39.91,79.56,60.87\O,0,38.91,80.18,61.23\C,0,41.95
 ,78.69,62.14\C,0,43.4,78.94,62.53\C,0,44.34,79.13,61.34\C,0,45.82,79.1
 3,61.72\N,0,46.16,80.35,62.47\H,0,41.96,81.87,61.66\H,0,41.87,79.97,60
 .43\H,0,41.94,77.78,61.54\H,0,41.29,78.42,62.96\H,0,43.67,78.06,63.1\H
 ,0,43.45,79.77,63.24\H,0,44.13,80.06,60.81\H,0,44.17,78.35,60.6\H,0,46
 .4,79.11,60.79\H,0,46.13,78.24,62.26\H,0,45.97,81.16,61.89\H,0,45.54,8
 0.34,63.27\H,0,47.12,80.35,62.78\N,0,39.84,78.51,60.05\C,0,38.58,78.14
 ,59.41\C,0,37.6,77.66,60.47\O,0,36.54,78.24,60.7\C,0,38.85,77.14,58.29
 \C,0,39.96,77.5,57.32\O,0,39.79,78.35,56.42\O,0,41.04,76.89,57.44\H,0,
 40.68,78.08,59.7\H,0,38.19,78.96,58.81\H,0,37.98,77.09,57.64\H,0,39.01
 ,76.17,58.76\N,0,38.03,76.61,61.17\C,0,37.28,75.96,62.22\C,0,35.78,75.
 77,62.08\O,0,35.03,76.2,62.95\H,0,38.86,76.07,60.96\H,0,37.41,76.53,63
 .14\H,0,37.66,74.95,62.37\N,0,35.23,75.2,61.\C,0,33.83,75.36,60.66\C,0
 ,32.88,74.4,61.36\O,0,33.04,73.18,61.32\C,0,33.64,75.25,59.15\C,0,32.2
 5,75.75,58.79\N,0,31.95,77.,59.15\O,0,31.44,74.98,58.28\H,0,35.83,74.7
 9,60.3\H,0,33.66,76.38,61.01\H,0,33.75,74.25,58.73\H,0,34.36,75.9,58.6
 5\H,0,32.53,77.59,59.74\H,0,31.03,77.37,58.96\N,0,31.79,74.91,61.93\C,
 0,30.6,74.19,62.32\C,0,30.93,73.16,63.4\O,0,31.33,73.44,64.53\H,0,31.6
 9,75.9,62.1\H,0,30.24,73.65,61.45\H,0,29.8,74.83,62.7\N,0,30.76,71.87,
 63.11\C,0,31.08,70.75,63.97\C,0,32.54,70.59,64.38\O,0,32.86,69.66,65.1
 1\C,0,30.13,70.63,65.17\C,0,28.77,70.06,64.88\C,0,27.87,70.84,64.14\C,
 0,28.41,68.75,65.24\C,0,26.59,70.35,63.84\C,0,27.12,68.29,64.94\C,0,26
 .17,69.07,64.25\O,0,24.94,68.54,63.96\H,0,30.28,71.71,62.23\H,0,30.94,
 69.85,63.38\H,0,30.05,71.59,65.68\H,0,30.55,69.92,65.88\H,0,28.15,71.8
 ,63.75\H,0,29.09,68.13,65.8\H,0,25.88,70.95,63.3\H,0,26.93,67.26,65.18
 \H,0,24.8,67.63,64.2\N,0,33.38,71.47,63.84\C,0,34.83,71.56,63.84\C,0,3
 5.64,70.42,63.26\O,0,36.51,70.67,62.42\C,0,35.24,71.89,65.28\C,0,34.78
 ,73.3,65.63\C,0,36.72,71.63,65.52\C,0,34.99,73.65,67.1\H,0,32.97,72.03
 ,63.1\H,0,35.02,72.44,63.23\H,0,34.66,71.27,65.95\H,0,33.71,73.3,65.42
 \H,0,35.28,73.98,64.94\H,0,36.95,71.69,66.59\H,0,36.8,70.59,65.2\H,0,3
 7.33,72.34,64.97\H,0,34.73,74.69,67.31\H,0,34.4,72.98,67.73\H,0,36.04,
 73.57,67.37\N,0,35.28,69.18,63.59\C,0,35.69,67.94,62.96\C,0,37.12,67.5
 1,63.24\O,0,37.66,66.81,62.4\C,0,34.68,66.81,63.15\O,0,33.49,67.08,62.
 44\H,0,34.59,69.13,64.33\H,0,35.8,68.19,61.91\H,0,34.32,66.6,64.16\H,0
 ,35.1,65.93,62.67\H,0,32.79,66.65,62.94\N,0,37.74,67.94,64.34\C,0,39.1
 ,67.63,64.75\C,0,40.11,67.8,63.63\O,0,40.93,66.92,63.39\C,0,39.16,66.3
 1,65.51\H,0,37.25,68.58,64.95\H,0,39.3,68.32,65.57\H,0,38.93,65.47,64.
 85\H,0,40.13,66.18,65.98\H,0,38.35,66.36,66.24\N,0,40.01,68.89,62.86\C
 ,0,40.98,69.18,61.82\C,0,41.66,70.53,62.04\O,0,41.12,71.59,62.34\C,0,4
 0.23,69.11,60.5\H,0,39.41,69.65,63.13\H,0,41.81,68.47,61.83\H,0,39.7,6
 8.16,60.43\H,0,39.62,70.01,60.37\H,0,40.99,69.21,59.73\N,0,42.95,70.42
 ,61.7\C,0,43.92,71.5,61.74\C,0,44.31,71.88,63.17\O,0,44.59,73.05,63.4\
 C,0,43.71,72.66,60.79\C,0,43.41,72.21,59.36\C,0,43.23,73.3,58.31\O,0,4
 2.12,73.8,58.05\O,0,44.14,73.7,57.56\H,0,43.33,69.54,61.4\H,0,44.81,71
 .03,61.32\H,0,44.49,73.43,60.79\H,0,42.85,73.26,61.11\H,0,42.51,71.6,5
 9.33\H,0,44.31,71.65,59.11\N,0,44.23,70.93,64.1\C,0,44.45,71.2,65.51\H
 ,0,45.181,72.001,65.616\H,0,43.511,71.502,65.974\H,0,44.824,70.3,65.99
 9\H,0,44.05,69.98,63.83\Ca,0,42.17,75.16,55.82\O,0,44.11,76.81,56.57\H
 ,0,44.5,76.7,57.44\H,0,44.82,77.15,56.03\\Version=ES64L-G16RevA.03\Sta
 te=1-A\HF=-5333.3489714\RMSD=5.457e-10\Dipole=9.4048514,-5.0352473,-1.
 9226625\Quadrupole=183.3079058,-202.570652,19.2627462,74.813914,-42.39
 03068,1.2799859\PG=C01 [X(C54H83Ca1N15O23)]\\@


 FIREWORKS ENDED
 AND SPECTATORS GONE AWAY....
 AH, HOW VAST AND DARK
                     SHIKI
 Job cpu time:       0 days 10 hours 33 minutes 28.0 seconds.
 Elapsed time:       0 days  0 hours 13 minutes 22.6 seconds.
 File lengths (MBytes):  RWF=   1517 Int=      0 D2E=      0 Chk=    171 Scr=      1
 Normal termination of Gaussian 16 at Tue Sep 17 10:21:24 2019.
