 Entering Gaussian System, Link 0=g16
 Initial command:
 /home1/apps/gaussian/16rA.03/g16/l1.exe "/scratch/01990/pengzhi/4345062/Gau-238695.inp" -scrdir="/scratch/01990/pengzhi/4345062/"
 Entering Link 1 = /home1/apps/gaussian/16rA.03/g16/l1.exe PID=    238696.
  
 Copyright (c) 1988,1990,1992,1993,1995,1998,2003,2009,2016,
            Gaussian, Inc.  All Rights Reserved.
  
 This is part of the Gaussian(R) 16 program.  It is based on
 the Gaussian(R) 09 system (copyright 2009, Gaussian, Inc.),
 the Gaussian(R) 03 system (copyright 2003, Gaussian, Inc.),
 the Gaussian(R) 98 system (copyright 1998, Gaussian, Inc.),
 the Gaussian(R) 94 system (copyright 1995, Gaussian, Inc.),
 the Gaussian 92(TM) system (copyright 1992, Gaussian, Inc.),
 the Gaussian 90(TM) system (copyright 1990, Gaussian, Inc.),
 the Gaussian 88(TM) system (copyright 1988, Gaussian, Inc.),
 the Gaussian 86(TM) system (copyright 1986, Carnegie Mellon
 University), and the Gaussian 82(TM) system (copyright 1983,
 Carnegie Mellon University). Gaussian is a federally registered
 trademark of Gaussian, Inc.
  
 This software contains proprietary and confidential information,
 including trade secrets, belonging to Gaussian, Inc.
  
 This software is provided under written license and may be
 used, copied, transmitted, or stored only in accord with that
 written license.
  
 The following legend is applicable only to US Government
 contracts under FAR:
  
                    RESTRICTED RIGHTS LEGEND
  
 Use, reproduction and disclosure by the US Government is
 subject to restrictions as set forth in subparagraphs (a)
 and (c) of the Commercial Computer Software - Restricted
 Rights clause in FAR 52.227-19.
  
 Gaussian, Inc.
 340 Quinnipiac St., Bldg. 40, Wallingford CT 06492
  
  
 ---------------------------------------------------------------
 Warning -- This program may not be used in any manner that
 competes with the business of Gaussian, Inc. or will provide
 assistance to any competitor of Gaussian, Inc.  The licensee
 of this program is prohibited from giving any competitor of
 Gaussian, Inc. access to this program.  By using this program,
 the user acknowledges that Gaussian, Inc. is engaged in the
 business of creating and licensing software in the field of
 computational chemistry and represents and warrants to the
 licensee that it is not a competitor of Gaussian, Inc. and that
 it will not use this program in any manner prohibited above.
 ---------------------------------------------------------------
  

 Cite this work as:
 Gaussian 16, Revision A.03,
 M. J. Frisch, G. W. Trucks, H. B. Schlegel, G. E. Scuseria, 
 M. A. Robb, J. R. Cheeseman, G. Scalmani, V. Barone, 
 G. A. Petersson, H. Nakatsuji, X. Li, M. Caricato, A. V. Marenich, 
 J. Bloino, B. G. Janesko, R. Gomperts, B. Mennucci, H. P. Hratchian, 
 J. V. Ortiz, A. F. Izmaylov, J. L. Sonnenberg, D. Williams-Young, 
 F. Ding, F. Lipparini, F. Egidi, J. Goings, B. Peng, A. Petrone, 
 T. Henderson, D. Ranasinghe, V. G. Zakrzewski, J. Gao, N. Rega, 
 G. Zheng, W. Liang, M. Hada, M. Ehara, K. Toyota, R. Fukuda, 
 J. Hasegawa, M. Ishida, T. Nakajima, Y. Honda, O. Kitao, H. Nakai, 
 T. Vreven, K. Throssell, J. A. Montgomery, Jr., J. E. Peralta, 
 F. Ogliaro, M. J. Bearpark, J. J. Heyd, E. N. Brothers, K. N. Kudin, 
 V. N. Staroverov, T. A. Keith, R. Kobayashi, J. Normand, 
 K. Raghavachari, A. P. Rendell, J. C. Burant, S. S. Iyengar, 
 J. Tomasi, M. Cossi, J. M. Millam, M. Klene, C. Adamo, R. Cammi, 
 J. W. Ochterski, R. L. Martin, K. Morokuma, O. Farkas, 
 J. B. Foresman, and D. J. Fox, Gaussian, Inc., Wallingford CT, 2016.
 
 ******************************************
 Gaussian 16:  ES64L-G16RevA.03 25-Dec-2016
                17-Sep-2019 
 ******************************************
 %chk=Ng-293_loop3_44.0.chk
 %nprocshared=48
 Will use up to   48 processors via shared memory.
 %mem=10GB
 %nosave
 ----------------------------------------------------------------------
 #b3lyp/svp scf=(tight,noincore) Test #IOP(5/87=12) Density=Current Pop
 =(MK,readradii) iop(6/33=2) iop(6/42=6)
 ----------------------------------------------------------------------
 1/30=1,38=1,172=1/1;
 2/12=2,17=6,18=5,40=1/2;
 3/5=18,7=101,11=2,25=1,30=1,74=-5/1,2,3;
 4//1;
 5/5=4,32=2,38=5,87=12/2;
 6/7=2,8=2,9=2,10=2,15=8,20=101,22=-1,28=1,33=2,42=6/1,2;
 99/5=1,9=1/99;
 -----------------
 Ng-293_loop3_44.0
 -----------------
 Symbolic Z-matrix:
 Charge =  0 Multiplicity = 1
 C                     53.34     26.4      11.83 
 C                     53.07     27.39     10.7 
 O                     52.28     27.06     9.82 
 H                     54.159    26.769    12.448 
 H                     52.444    26.293    12.442 
 H                     53.611    25.432    11.409 
 N                     53.74     28.54     10.65 
 C                     53.49     29.62     9.71 
 C                     52.48     30.6      10.3 
 O                     52.24     30.69     11.5 
 C                     54.79     30.25     9.24 
 C                     55.76     30.61     10.36 
 O                     56.95     30.86     10.06 
 O                     55.26     30.81     11.49 
 H                     54.4      28.79     11.37 
 H                     53.03     29.26     8.79 
 H                     54.6      31.15     8.65 
 H                     55.17     29.6      8.46 
 N                     51.96     31.48     9.44 
 C                     50.88     32.43     9.63 
 C                     51.17     33.57     10.59 
 O                     51.03     34.68     10.07 
 C                     49.55     31.75     9.92 
 C                     49.04     30.85     8.79 
 C                     47.73     30.09     8.86 
 C                     46.61     31.07     9.22 
 N                     45.31     30.38     9.28 
 H                     52.24     31.39     8.47 
 H                     50.8      32.94     8.67 
 H                     48.76     32.43     10.23 
 H                     49.71     31.16     10.82 
 H                     49.8      30.07     8.75 
 H                     49.       31.38     7.84 
 H                     47.91     29.18     9.44 
 H                     47.51     29.82     7.83 
 H                     46.74     31.77     8.4 
 H                     46.83     31.58     10.16 
 H                     45.23     29.82     10.11 
 H                     44.54     31.03     9.28 
 H                     45.05     29.86     8.45 
 N                     51.58     33.34     11.84 
 C                     51.65     34.33     12.89 
 C                     52.61     33.94     14. 
 O                     52.64     32.79     14.44 
 C                     50.23     34.57     13.39 
 C                     50.23     35.62     14.5 
 O                     50.51     36.83     14.35 
 O                     49.86     35.15     15.6 
 H                     51.59     32.36     12.11 
 H                     52.03     35.25     12.44 
 H                     49.96     33.63     13.86 
 H                     49.56     34.84     12.58 
 N                     53.43     34.86     14.52 
 C                     54.22     34.52     15.69 
 C                     53.53     34.51     17.04 
 O                     52.32     34.67     17.15 
 H                     53.4      35.8      14.16 
 H                     55.02     35.27     15.74 
 H                     54.68     33.56     15.43 
 N                     54.29     34.29     18.12 
 C                     53.88     34.14     19.5 
 C                     54.66     34.86     20.59 
 O                     54.19     34.86     21.73 
 C                     53.89     32.62     19.64 
 C                     52.8      31.83     18.93 
 N                     53.26     31.01     17.98 
 O                     51.61     32.09     19.03 
 H                     55.27     34.33     17.88 
 H                     52.92     34.6      19.78 
 H                     53.87     32.47     20.72 
 H                     54.9      32.33     19.37 
 H                     54.21     30.68     17.87 
 H                     52.57     30.47     17.49 
 N                     55.68     35.64     20.25 
 C                     56.21     36.64     21.15 
 C                     57.06     36.15     22.32 
 O                     57.61     35.05     22.34 
 H                     55.74     35.93     19.28 
 H                     55.48     37.36     21.52 
 H                     56.98     37.24     20.67 
 N                     56.79     36.75     23.48 
 C                     57.05     36.24     24.82 
 C                     56.49     34.87     25.15 
 O                     56.76     34.31     26.22 
 C                     58.5      36.34     25.28 
 C                     59.12     37.67     24.95 
 C                     58.89     38.77     25.79 
 C                     59.83     37.89     23.76 
 C                     59.39     40.03     25.46 
 C                     60.34     39.14     23.38 
 C                     60.06     40.22     24.23 
 O                     60.48     41.48     23.9 
 H                     56.38     37.67     23.43 
 H                     56.41     36.89     25.42 
 H                     59.06     35.57     24.75 
 H                     58.64     36.2      26.35 
 H                     58.29     38.68     26.69 
 H                     60.03     37.06     23.1 
 H                     59.38     40.85     26.16 
 H                     60.89     39.26     22.46 
 H                     61.18     41.37     23.25 
 N                     55.59     34.35     24.32 
 C                     54.79     33.15     24.4 
 C                     53.73     33.15     25.5 
 O                     52.57     32.83     25.29 
 C                     55.67     31.9      24.45 
 C                     56.45     31.85     23.14 
 C                     54.92     30.61     24.76 
 C                     57.72     31.       23.2 
 H                     55.34     34.91     23.51 
 H                     54.23     33.15     23.47 
 H                     56.4      32.1      25.23 
 H                     56.87     32.84     22.95 
 H                     55.71     31.69     22.36 
 H                     55.59     29.76     24.93 
 H                     54.38     30.73     25.7 
 H                     54.1      30.33     24.1 
 H                     57.59     29.94     23.39 
 H                     58.22     31.13     22.24 
 H                     58.51     31.39     23.84 
 N                     54.04     33.54     26.74 
 C                     53.06     33.94     27.73 
 C                     52.28     32.85     28.45 
 O                     51.3      33.06     29.16 
 C                     53.85     34.63     28.83 
 O                     54.17     35.86     28.22 
 H                     54.95     33.84     27.05 
 H                     52.41     34.68     27.25 
 H                     54.67     34.       29.18 
 H                     53.16     34.84     29.65 
 H                     54.64     36.37     28.89 
 N                     52.68     31.59     28.27 
 C                     51.84     30.43     28.48 
 C                     50.5      30.53     27.78 
 O                     49.53     29.89     28.18 
 C                     51.68     30.05     29.95 
 H                     53.54     31.49     27.75 
 H                     52.32     29.6      27.96 
 H                     51.07     30.77     30.5 
 H                     51.13     29.11     30.06 
 H                     52.68     29.83     30.34 
 N                     50.38     31.31     26.7 
 C                     49.22     31.63     25.88 
 C                     48.99     30.76     24.66 
 O                     49.96     30.26     24.1 
 C                     49.26     33.11     25.49 
 H                     51.19     31.86     26.48 
 H                     48.32     31.56     26.5 
 H                     49.39     33.77     26.35 
 H                     50.01     33.26     24.72 
 H                     48.31     33.35     25.01 
 N                     47.75     30.55     24.19 
 C                     47.27     29.77     23.07 
 C                     47.45     28.27     23.22 
 O                     47.55     27.61     22.18 
 C                     47.66     30.4      21.73 
 C                     47.27     31.86     21.53 
 C                     47.81     32.26     20.16 
 O                     48.8      33.01     20.01 
 O                     47.32     31.76     19.13 
 H                     47.09     31.18     24.62 
 H                     46.19     29.93     23.15 
 H                     47.07     29.79     21.05 
 H                     48.72     30.28     21.51 
 H                     47.65     32.51     22.31 
 H                     46.19     31.94     21.41 
 N                     47.51     27.67     24.41 
 C                     48.01     26.32     24.55 
 H                     48.964    26.339    25.078 
 H                     47.294    25.724    25.116 
 H                     48.15     25.88     23.563 
 H                     47.24     28.2      25.23 
 Ca                    49.92     34.11     18.01 
 O                     50.58     35.81     19.78 
 H                     51.32     36.34     20.07 
 H                     50.       35.77     20.54 
 
 Stoichiometry    C54H83CaN15O23
 Framework group  C1[X(C54H83CaN15O23)]
 Deg. of freedom   522
 Full point group                 C1      NOp   1
 Largest Abelian subgroup         C1      NOp   1
 Largest concise Abelian subgroup C1      NOp   1
                         Standard orientation:                         
 ---------------------------------------------------------------------
 Center     Atomic      Atomic             Coordinates (Angstroms)
 Number     Number       Type             X           Y           Z
 ---------------------------------------------------------------------
      1          6           0       -8.504325    1.130978    5.417722
      2          6           0       -9.476213    0.476527    4.439445
      3          8           0      -10.538522    1.048389    4.211686
      4          1           0       -7.682313    0.445601    5.626051
      5          1           0       -8.109347    2.048025    4.979740
      6          1           0       -9.024892    1.365720    6.345953
      7          7           0       -9.192687   -0.716272    3.919115
      8          6           0       -9.961696   -1.388104    2.884820
      9          6           0       -9.421932   -1.011959    1.507950
     10          8           0       -8.295909   -0.562979    1.317713
     11          6           0      -10.049175   -2.881515    3.149147
     12          6           0       -8.714554   -3.547404    3.465815
     13          8           0       -8.725639   -4.692912    3.972066
     14          8           0       -7.688338   -2.978097    3.030303
     15          1           0       -8.324301   -1.183268    4.129640
     16          1           0      -11.002631   -1.065604    2.877881
     17          1           0      -10.499860   -3.404955    2.302333
     18          1           0      -10.839441   -3.007845    3.880461
     19          7           0      -10.201763   -1.338562    0.473738
     20          6           0      -10.066962   -0.995671   -0.929563
     21          6           0       -8.885724   -1.623248   -1.647982
     22          8           0       -9.222574   -2.287628   -2.631461
     23          6           0      -10.167751    0.502552   -1.175668
     24          6           0      -11.514833    1.118637   -0.784760
     25          6           0      -11.837813    2.589602   -0.959532
     26          6           0      -11.541685    2.990859   -2.407186
     27          7           0      -11.860198    4.411285   -2.632216
     28          1           0      -11.097972   -1.758331    0.692832
     29          1           0      -10.920555   -1.477663   -1.406179
     30          1           0       -9.906726    0.806724   -2.186581
     31          1           0       -9.370124    0.952638   -0.588374
     32          1           0      -11.538619    0.965848    0.293984
     33          1           0      -12.347410    0.596750   -1.253215
     34          1           0      -11.400486    3.123920   -0.110916
     35          1           0      -12.921875    2.645402   -0.897108
     36          1           0      -12.185776    2.273571   -2.907132
     37          1           0      -10.502835    2.773794   -2.663647
     38          1           0      -11.172304    5.012072   -2.214178
     39          1           0      -11.899528    4.635937   -3.613738
     40          1           0      -12.802550    4.693945   -2.389366
     41          7           0       -7.638594   -1.482015   -1.191671
     42          6           0       -6.439983   -1.829231   -1.919870
     43          6           0       -5.247064   -2.059707   -1.009033
     44          8           0       -5.016062   -1.307971   -0.061124
     45          6           0       -6.196367   -0.733950   -2.951864
     46          6           0       -4.943284   -1.045546   -3.768743
     47          8           0       -4.822855   -1.996306   -4.572827
     48          8           0       -4.036544   -0.200607   -3.590697
     49          1           0       -7.546081   -0.856822   -0.395446
     50          1           0       -6.639555   -2.769814   -2.438305
     51          1           0       -5.959244    0.137982   -2.351108
     52          1           0       -7.063376   -0.581093   -3.586554
     53          7           0       -4.423846   -3.087640   -1.243265
     54          6           0       -3.197936   -3.199155   -0.472999
     55          6           0       -2.033400   -2.304290   -0.849524
     56          8           0       -2.138475   -1.428251   -1.700003
     57          1           0       -4.614082   -3.697942   -2.021367
     58          1           0       -2.861628   -4.237164   -0.593136
     59          1           0       -3.524452   -3.073499    0.565461
     60          7           0       -0.879439   -2.484944   -0.195202
     61          6           0        0.345058   -1.719195   -0.291310
     62          6           0        1.675649   -2.452025   -0.377261
     63          8           0        2.682750   -1.788640   -0.634493
     64          6           0        0.218485   -0.818262    0.934414
     65          6           0       -0.818827    0.294849    0.898815
     66          7           0       -1.786802    0.159430    1.810509
     67          8           0       -0.912257    1.095378   -0.019947
     68          1           0       -0.910527   -3.331288    0.354648
     69          1           0        0.505408   -1.164741   -1.228577
     70          1           0        1.230549   -0.433760    1.065511
     71          1           0        0.107142   -1.506426    1.765757
     72          1           0       -1.762557   -0.417310    2.641343
     73          1           0       -2.489496    0.876332    1.819057
     74          7           0        1.684319   -3.780143   -0.397949
     75          6           0        2.830782   -4.529371   -0.861825
     76          6           0        4.042524   -4.601394    0.064453
     77          8           0        3.979657   -4.391914    1.274852
     78          1           0        0.810569   -4.247187   -0.614814
     79          1           0        3.168483   -4.278991   -1.867543
     80          1           0        2.623784   -5.596888   -0.891146
     81          7           0        5.212482   -4.432196   -0.552857
     82          6           0        6.468262   -3.990345    0.039665
     83          6           0        6.438458   -2.683347    0.807954
     84          8           0        7.427035   -2.291302    1.440740
     85          6           0        7.215787   -5.052474    0.837907
     86          6           0        7.250503   -6.383087    0.137576
     87          6           0        8.206329   -6.615609   -0.862839
     88          6           0        6.280713   -7.372034    0.361384
     89          6           0        8.205206   -7.812938   -1.579010
     90          6           0        6.231588   -8.584485   -0.341858
     91          6           0        7.183719   -8.764111   -1.355998
     92          8           0        7.166797   -9.899357   -2.120086
     93          1           0        5.242833   -4.654917   -1.535951
     94          1           0        7.033511   -3.709398   -0.851212
     95          1           0        6.681466   -5.184156    1.778418
     96          1           0        8.251534   -4.800496    1.056620
     97          1           0        8.940585   -5.862578   -1.131002
     98          1           0        5.539461   -7.223975    1.131530
     99          1           0        9.020839   -8.092230   -2.226497
    100          1           0        5.473363   -9.321164   -0.128083
    101          1           0        6.658812  -10.549761   -1.626603
    102          7           0        5.369715   -1.904018    0.667468
    103          6           0        5.080789   -0.573790    1.150597
    104          6           0        5.932780    0.536983    0.539127
    105          8           0        5.445580    1.565764    0.096018
    106          6           0        5.086022   -0.526490    2.679366
    107          6           0        3.967446   -1.446299    3.158680
    108          6           0        5.013274    0.876821    3.269387
    109          6           0        4.128722   -1.928516    4.601059
    110          1           0        4.635948   -2.243472    0.052199
    111          1           0        4.072895   -0.382836    0.795371
    112          1           0        6.017450   -1.003407    2.973122
    113          1           0        4.038774   -2.389971    2.613707
    114          1           0        3.040981   -0.984570    2.826915
    115          1           0        5.162190    0.889048    4.354732
    116          1           0        5.834395    1.473292    2.869909
    117          1           0        4.165978    1.500914    2.988320
    118          1           0        4.102525   -1.169738    5.375765
    119          1           0        3.323764   -2.642608    4.776028
    120          1           0        4.969874   -2.597673    4.775676
    121          7           0        7.258044    0.397509    0.439022
    122          6           0        8.089076    1.187903   -0.447072
    123          6           0        8.440676    2.607164   -0.026388
    124          8           0        8.968599    3.433209   -0.766351
    125          6           0        9.426087    0.467143   -0.502806
    126          8           0        9.114058   -0.646639   -1.308739
    127          1           0        7.788888   -0.399591    0.750531
    128          1           0        7.625930    1.142051   -1.438987
    129          1           0        9.816454    0.283904    0.500108
    130          1           0       10.117414    1.096951   -1.066729
    131          1           0        9.941773   -1.128446   -1.421210
    132          7           0        8.127468    2.972449    1.217987
    133          6           0        7.963009    4.344827    1.647906
    134          6           0        7.040333    5.143979    0.750340
    135          8           0        7.123708    6.368695    0.690184
    136          6           0        9.283822    5.072093    1.887569
    137          1           0        7.778244    2.226196    1.802067
    138          1           0        7.412131    4.312270    2.588743
    139          1           0        9.818893    5.276501    0.957561
    140          1           0        9.118306    6.067008    2.312949
    141          1           0        9.819439    4.524429    2.670945
    142          7           0        6.109887    4.506695    0.031076
    143          6           0        5.145134    5.008510   -0.937342
    144          6           0        3.771715    5.366514   -0.404657
    145          8           0        3.336246    4.753897    0.564656
    146          6           0        5.033433    4.026230   -2.106422
    147          1           0        6.152976    3.504933    0.071277
    148          1           0        5.553458    5.909529   -1.407167
    149          1           0        6.003338    3.771998   -2.538567
    150          1           0        4.464635    3.156426   -1.793676
    151          1           0        4.424323    4.500040   -2.877777
    152          7           0        3.036936    6.326160   -0.989275
    153          6           0        1.726239    6.852740   -0.676244
    154          6           0        1.646356    7.612891    0.635506
    155          8           0        0.548201    7.641479    1.201578
    156          6           0        0.619636    5.837616   -0.975501
    157          6           0        0.602868    5.250283   -2.382078
    158          6           0       -0.542948    4.242843   -2.408016
    159          8           0       -0.362085    3.004992   -2.418611
    160          8           0       -1.720221    4.640126   -2.323197
    161          1           0        3.430742    6.589567   -1.879742
    162          1           0        1.617892    7.620034   -1.449497
    163          1           0       -0.258769    6.467298   -0.855069
    164          1           0        0.595894    5.026219   -0.249229
    165          1           0        1.543223    4.786819   -2.658182
    166          1           0        0.287677    6.011079   -3.095552
    167          7           0        2.702304    8.222289    1.177086
    168          6           0        2.701984    8.645432    2.560216
    169          1           0        3.403117    8.032505    3.127661
    170          1           0        3.003315    9.691277    2.620510
    171          1           0        1.701021    8.530649    2.975267
    172          1           0        3.532074    8.342576    0.608569
    173         20           0       -1.879802    0.980819   -2.670916
    174          8           0        0.253151   -0.042970   -3.598744
    175          1           0        0.771017   -0.845331   -3.573599
    176          1           0        0.864952    0.629180   -3.897935
 ---------------------------------------------------------------------
 Rotational constants (GHZ):           0.0186747           0.0080268           0.0064554
 Standard basis: SVP (5D, 7F)
 There are  1809 symmetry adapted cartesian basis functions of A   symmetry.
 There are  1717 symmetry adapted basis functions of A   symmetry.
  1717 basis functions,  2922 primitive gaussians,  1809 cartesian basis functions
   358 alpha electrons      358 beta electrons
       nuclear repulsion energy     18613.3892072464 Hartrees.
 NAtoms=  176 NActive=  176 NUniq=  176 SFac= 1.00D+00 NAtFMM=   60 NAOKFM=T Big=T
 Integral buffers will be    131072 words long.
 Raffenetti 2 integral format.
 Two-electron integral symmetry is turned on.
 One-electron integrals computed using PRISM.
 NBasis=  1717 RedAO= T EigKep=  2.88D-04  NBF=  1717
 NBsUse=  1717 1.00D-06 EigRej= -1.00D+00 NBFU=  1717
 ExpMin= 1.98D-02 ExpMax= 3.51D+04 ExpMxC= 5.28D+03 IAcc=3 IRadAn=         5 AccDes= 0.00D+00
 Harris functional with IExCor=  402 and IRadAn=       5 diagonalized for initial guess.
 HarFok:  IExCor=  402 AccDes= 0.00D+00 IRadAn=         5 IDoV= 1 UseB2=F ITyADJ=14
 ICtDFT=  3500011 ScaDFX=  1.000000  1.000000  1.000000  1.000000
 FoFCou: FMM=F IPFlag=           0 FMFlag=      100000 FMFlg1=        2001
         NFxFlg=           0 DoJE=T BraDBF=F KetDBF=T FulRan=T
         wScrn=  0.000000 ICntrl=       500 IOpCl=  0 I1Cent=   200000004 NGrid=           0
         NMat0=    1 NMatS0=      1 NMatT0=    0 NMatD0=    1 NMtDS0=    0 NMtDT0=    0
 Petite list used in FoFCou.
 Requested convergence on RMS density matrix=1.00D-08 within 128 cycles.
 Requested convergence on MAX density matrix=1.00D-06.
 Requested convergence on             energy=1.00D-06.
 No special actions if energy rises.
 EnCoef did     4 forward-backward iterations
 Rare condition: small coef for last iteration:  0.000D+00
 Rare condition: small coef for last iteration:  0.000D+00
 Rare condition: small coef for last iteration:  0.000D+00
 Rare condition: small coef for last iteration:  0.000D+00
 EnCoef did   100 forward-backward iterations
 Restarting incremental Fock formation.
 SCF Done:  E(RB3LYP) =  -5333.37344374     A.U. after   30 cycles
            NFock= 30  Conv=0.78D-09     -V/T= 2.0081
 SCF density gives NOpUse=  1 NOpAll=  1.
 Hyperfine terms turned off by default for NAtoms > 100.

 **********************************************************************

            Population analysis using the SCF density.

 **********************************************************************

 Orbital symmetries:
 BldTbl:  Degeneracy threshold= 1.00D-02
       Occupied  (A) (A) (A) (A) (A) (A) (A) (A) (A) (A) (A) (A)
                 (A) (A) (A) (A) (A) (A) (A) (A) (A) (A) (A) (A)
                 (A) (A) (A) (A) (A) (A) (A) (A) (A) (A) (A) (A)
                 (A) (A) (A) (A) (A) (A) (A) (A) (A) (A) (A) (A)
                 (A) (A) (A) (A) (A) (A) (A) (A) (A) (A) (A) (A)
                 (A) (A) (A) (A) (A) (A) (A) (A) (A) (A) (A) (A)
                 (A) (A) (A) (A) (A) (A) (A) (A) (A) (A) (A) (A)
                 (A) (A) (A) (A) (A) (A) (A) (A) (A) (A) (A) (A)
                 (A) (A) (A) (A) (A) (A) (A) (A) (A) (A) (A) (A)
                 (A) (A) (A) (A) (A) (A) (A) (A) (A) (A) (A) (A)
                 (A) (A) (A) (A) (A) (A) (A) (A) (A) (A) (A) (A)
                 (A) (A) (A) (A) (A) (A) (A) (A) (A) (A) (A) (A)
                 (A) (A) (A) (A) (A) (A) (A) (A) (A) (A) (A) (A)
                 (A) (A) (A) (A) (A) (A) (A) (A) (A) (A) (A) (A)
                 (A) (A) (A) (A) (A) (A) (A) (A) (A) (A) (A) (A)
                 (A) (A) (A) (A) (A) (A) (A) (A) (A) (A) (A) (A)
                 (A) (A) (A) (A) (A) (A) (A) (A) (A) (A) (A) (A)
                 (A) (A) (A) (A) (A) (A) (A) (A) (A) (A) (A) (A)
                 (A) (A) (A) (A) (A) (A) (A) (A) (A) (A) (A) (A)
                 (A) (A) (A) (A) (A) (A) (A) (A) (A) (A) (A) (A)
                 (A) (A) (A) (A) (A) (A) (A) (A) (A) (A) (A) (A)
                 (A) (A) (A) (A) (A) (A) (A) (A) (A) (A) (A) (A)
                 (A) (A) (A) (A) (A) (A) (A) (A) (A) (A) (A) (A)
                 (A) (A) (A) (A) (A) (A) (A) (A) (A) (A) (A) (A)
                 (A) (A) (A) (A) (A) (A) (A) (A) (A) (A) (A) (A)
                 (A) (A) (A) (A) (A) (A) (A) (A) (A) (A) (A) (A)
                 (A) (A) (A) (A) (A) (A) (A) (A) (A) (A) (A) (A)
                 (A) (A) (A) (A) (A) (A) (A) (A) (A) (A) (A) (A)
                 (A) (A) (A) (A) (A) (A) (A) (A) (A) (A) (A) (A)
                 (A) (A) (A) (A) (A) (A) (A) (A) (A) (A)
       Virtual   (A) (A) (A) (A) (A) (A) (A) (A) (A) (A) (A) (A)
                 (A) (A) (A) (A) (A) (A) (A) (A) (A) (A) (A) (A)
                 (A) (A) (A) (A) (A) (A) (A) (A) (A) (A) (A) (A)
                 (A) (A) (A) (A) (A) (A) (A) (A) (A) (A) (A) (A)
                 (A) (A) (A) (A) (A) (A) (A) (A) (A) (A) (A) (A)
                 (A) (A) (A) (A) (A) (A) (A) (A) (A) (A) (A) (A)
                 (A) (A) (A) (A) (A) (A) (A) (A) (A) (A) (A) (A)
                 (A) (A) (A) (A) (A) (A) (A) (A) (A) (A) (A) (A)
                 (A) (A) (A) (A) (A) (A) (A) (A) (A) (A) (A) (A)
                 (A) (A) (A) (A) (A) (A) (A) (A) (A) (A) (A) (A)
                 (A) (A) (A) (A) (A) (A) (A) (A) (A) (A) (A) (A)
                 (A) (A) (A) (A) (A) (A) (A) (A) (A) (A) (A) (A)
                 (A) (A) (A) (A) (A) (A) (A) (A) (A) (A) (A) (A)
                 (A) (A) (A) (A) (A) (A) (A) (A) (A) (A) (A) (A)
                 (A) (A) (A) (A) (A) (A) (A) (A) (A) (A) (A) (A)
                 (A) (A) (A) (A) (A) (A) (A) (A) (A) (A) (A) (A)
                 (A) (A) (A) (A) (A) (A) (A) (A) (A) (A) (A) (A)
                 (A) (A) (A) (A) (A) (A) (A) (A) (A) (A) (A) (A)
                 (A) (A) (A) (A) (A) (A) (A) (A) (A) (A) (A) (A)
                 (A) (A) (A) (A) (A) (A) (A) (A) (A) (A) (A) (A)
                 (A) (A) (A) (A) (A) (A) (A) (A) (A) (A) (A) (A)
                 (A) (A) (A) (A) (A) (A) (A) (A) (A) (A) (A) (A)
                 (A) (A) (A) (A) (A) (A) (A) (A) (A) (A) (A) (A)
                 (A) (A) (A) (A) (A) (A) (A) (A) (A) (A) (A) (A)
                 (A) (A) (A) (A) (A) (A) (A) (A) (A) (A) (A) (A)
                 (A) (A) (A) (A) (A) (A) (A) (A) (A) (A) (A) (A)
                 (A) (A) (A) (A) (A) (A) (A) (A) (A) (A) (A) (A)
                 (A) (A) (A) (A) (A) (A) (A) (A) (A) (A) (A) (A)
                 (A) (A) (A) (A) (A) (A) (A) (A) (A) (A) (A) (A)
                 (A) (A) (A) (A) (A) (A) (A) (A) (A) (A) (A) (A)
                 (A) (A) (A) (A) (A) (A) (A) (A) (A) (A) (A) (A)
                 (A) (A) (A) (A) (A) (A) (A) (A) (A) (A) (A) (A)
                 (A) (A) (A) (A) (A) (A) (A) (A) (A) (A) (A) (A)
                 (A) (A) (A) (A) (A) (A) (A) (A) (A) (A) (A) (A)
                 (A) (A) (A) (A) (A) (A) (A) (A) (A) (A) (A) (A)
                 (A) (A) (A) (A) (A) (A) (A) (A) (A) (A) (A) (A)
                 (A) (A) (A) (A) (A) (A) (A) (A) (A) (A) (A) (A)
                 (A) (A) (A) (A) (A) (A) (A) (A) (A) (A) (A) (A)
                 (A) (A) (A) (A) (A) (A) (A) (A) (A) (A) (A) (A)
                 (A) (A) (A) (A) (A) (A) (A) (A) (A) (A) (A) (A)
                 (A) (A) (A) (A) (A) (A) (A) (A) (A) (A) (A) (A)
                 (A) (A) (A) (A) (A) (A) (A) (A) (A) (A) (A) (A)
                 (A) (A) (A) (A) (A) (A) (A) (A) (A) (A) (A) (A)
                 (A) (A) (A) (A) (A) (A) (A) (A) (A) (A) (A) (A)
                 (A) (A) (A) (A) (A) (A) (A) (A) (A) (A) (A) (A)
                 (A) (A) (A) (A) (A) (A) (A) (A) (A) (A) (A) (A)
                 (A) (A) (A) (A) (A) (A) (A) (A) (A) (A) (A) (A)
                 (A) (A) (A) (A) (A) (A) (A) (A) (A) (A) (A) (A)
                 (A) (A) (A) (A) (A) (A) (A) (A) (A) (A) (A) (A)
                 (A) (A) (A) (A) (A) (A) (A) (A) (A) (A) (A) (A)
                 (A) (A) (A) (A) (A) (A) (A) (A) (A) (A) (A) (A)
                 (A) (A) (A) (A) (A) (A) (A) (A) (A) (A) (A) (A)
                 (A) (A) (A) (A) (A) (A) (A) (A) (A) (A) (A) (A)
                 (A) (A) (A) (A) (A) (A) (A) (A) (A) (A) (A) (A)
                 (A) (A) (A) (A) (A) (A) (A) (A) (A) (A) (A) (A)
                 (A) (A) (A) (A) (A) (A) (A) (A) (A) (A) (A) (A)
                 (A) (A) (A) (A) (A) (A) (A) (A) (A) (A) (A) (A)
                 (A) (A) (A) (A) (A) (A) (A) (A) (A) (A) (A) (A)
                 (A) (A) (A) (A) (A) (A) (A) (A) (A) (A) (A) (A)
                 (A) (A) (A) (A) (A) (A) (A) (A) (A) (A) (A) (A)
                 (A) (A) (A) (A) (A) (A) (A) (A) (A) (A) (A) (A)
                 (A) (A) (A) (A) (A) (A) (A) (A) (A) (A) (A) (A)
                 (A) (A) (A) (A) (A) (A) (A) (A) (A) (A) (A) (A)
                 (A) (A) (A) (A) (A) (A) (A) (A) (A) (A) (A) (A)
                 (A) (A) (A) (A) (A) (A) (A) (A) (A) (A) (A) (A)
                 (A) (A) (A) (A) (A) (A) (A) (A) (A) (A) (A) (A)
                 (A) (A) (A) (A) (A) (A) (A) (A) (A) (A) (A) (A)
                 (A) (A) (A) (A) (A) (A) (A) (A) (A) (A) (A) (A)
                 (A) (A) (A) (A) (A) (A) (A) (A) (A) (A) (A) (A)
                 (A) (A) (A) (A) (A) (A) (A) (A) (A) (A) (A) (A)
                 (A) (A) (A) (A) (A) (A) (A) (A) (A) (A) (A) (A)
                 (A) (A) (A) (A) (A) (A) (A) (A) (A) (A) (A) (A)
                 (A) (A) (A) (A) (A) (A) (A) (A) (A) (A) (A) (A)
                 (A) (A) (A) (A) (A) (A) (A) (A) (A) (A) (A) (A)
                 (A) (A) (A) (A) (A) (A) (A) (A) (A) (A) (A) (A)
                 (A) (A) (A) (A) (A) (A) (A) (A) (A) (A) (A) (A)
                 (A) (A) (A) (A) (A) (A) (A) (A) (A) (A) (A) (A)
                 (A) (A) (A) (A) (A) (A) (A) (A) (A) (A) (A) (A)
                 (A) (A) (A) (A) (A) (A) (A) (A) (A) (A) (A) (A)
                 (A) (A) (A) (A) (A) (A) (A) (A) (A) (A) (A) (A)
                 (A) (A) (A) (A) (A) (A) (A) (A) (A) (A) (A) (A)
                 (A) (A) (A) (A) (A) (A) (A) (A) (A) (A) (A) (A)
                 (A) (A) (A) (A) (A) (A) (A) (A) (A) (A) (A) (A)
                 (A) (A) (A) (A) (A) (A) (A) (A) (A) (A) (A) (A)
                 (A) (A) (A) (A) (A) (A) (A) (A) (A) (A) (A) (A)
                 (A) (A) (A) (A) (A) (A) (A) (A) (A) (A) (A) (A)
                 (A) (A) (A) (A) (A) (A) (A) (A) (A) (A) (A) (A)
                 (A) (A) (A) (A) (A) (A) (A) (A) (A) (A) (A) (A)
                 (A) (A) (A) (A) (A) (A) (A) (A) (A) (A) (A) (A)
                 (A) (A) (A) (A) (A) (A) (A) (A) (A) (A) (A) (A)
                 (A) (A) (A) (A) (A) (A) (A) (A) (A) (A) (A) (A)
                 (A) (A) (A) (A) (A) (A) (A) (A) (A) (A) (A) (A)
                 (A) (A) (A) (A) (A) (A) (A) (A) (A) (A) (A) (A)
                 (A) (A) (A) (A) (A) (A) (A) (A) (A) (A) (A) (A)
                 (A) (A) (A) (A) (A) (A) (A) (A) (A) (A) (A) (A)
                 (A) (A) (A) (A) (A) (A) (A) (A) (A) (A) (A) (A)
                 (A) (A) (A) (A) (A) (A) (A) (A) (A) (A) (A) (A)
                 (A) (A) (A) (A) (A) (A) (A) (A) (A) (A) (A) (A)
                 (A) (A) (A) (A) (A) (A) (A) (A) (A) (A) (A) (A)
                 (A) (A) (A) (A) (A) (A) (A) (A) (A) (A) (A) (A)
                 (A) (A) (A) (A) (A) (A) (A) (A) (A) (A) (A) (A)
                 (A) (A) (A) (A) (A) (A) (A) (A) (A) (A) (A) (A)
                 (A) (A) (A) (A) (A) (A) (A) (A) (A) (A) (A) (A)
                 (A) (A) (A) (A) (A) (A) (A) (A) (A) (A) (A) (A)
                 (A) (A) (A) (A) (A) (A) (A) (A) (A) (A) (A) (A)
                 (A) (A) (A) (A) (A) (A) (A) (A) (A) (A) (A) (A)
                 (A) (A) (A) (A) (A) (A) (A) (A) (A) (A) (A) (A)
                 (A) (A) (A) (A) (A) (A) (A) (A) (A) (A) (A) (A)
                 (A) (A) (A) (A) (A) (A) (A) (A) (A) (A) (A) (A)
                 (A) (A) (A) (A) (A) (A) (A) (A) (A) (A) (A) (A)
                 (A) (A) (A) (A) (A) (A) (A) (A) (A) (A) (A) (A)
                 (A) (A) (A) (A) (A) (A) (A) (A) (A) (A) (A) (A)
                 (A) (A) (A) (A) (A) (A) (A) (A) (A) (A) (A) (A)
                 (A) (A) (A)
 The electronic state is 1-A.
 Alpha  occ. eigenvalues -- -145.42520 -19.21425 -19.17739 -19.16493 -19.15104
 Alpha  occ. eigenvalues --  -19.14816 -19.13644 -19.13554 -19.11345 -19.10773
 Alpha  occ. eigenvalues --  -19.09144 -19.08262 -19.06857 -19.06687 -19.06513
 Alpha  occ. eigenvalues --  -19.06450 -19.06243 -19.03993 -19.03812 -19.03318
 Alpha  occ. eigenvalues --  -19.01270 -19.01257 -18.96455 -18.95738 -15.48371
 Alpha  occ. eigenvalues --  -14.58071 -14.42732 -14.41263 -14.39562 -14.38307
 Alpha  occ. eigenvalues --  -14.36342 -14.35526 -14.35429 -14.34887 -14.33693
 Alpha  occ. eigenvalues --  -14.33620 -14.33122 -14.31932 -14.31695 -14.29523
 Alpha  occ. eigenvalues --  -12.62001 -12.61972 -12.61869 -10.35199 -10.34405
 Alpha  occ. eigenvalues --  -10.33533 -10.32761 -10.32611 -10.30371 -10.29721
 Alpha  occ. eigenvalues --  -10.29094 -10.28837 -10.27847 -10.26955 -10.26797
 Alpha  occ. eigenvalues --  -10.26710 -10.26688 -10.25732 -10.25708 -10.25640
 Alpha  occ. eigenvalues --  -10.25619 -10.25521 -10.25142 -10.24849 -10.23662
 Alpha  occ. eigenvalues --  -10.23632 -10.23492 -10.23293 -10.22848 -10.22748
 Alpha  occ. eigenvalues --  -10.22578 -10.22063 -10.21841 -10.21690 -10.21528
 Alpha  occ. eigenvalues --  -10.21030 -10.20988 -10.20943 -10.20907 -10.20766
 Alpha  occ. eigenvalues --  -10.20597 -10.20596 -10.20444 -10.19777 -10.18935
 Alpha  occ. eigenvalues --  -10.18524 -10.17747 -10.17655 -10.17425 -10.17314
 Alpha  occ. eigenvalues --  -10.16272 -10.16138 -10.15340 -10.14919 -10.14818
 Alpha  occ. eigenvalues --  -10.14740 -10.12111  -1.84944  -1.13357  -1.12763
 Alpha  occ. eigenvalues --   -1.12548  -1.11623  -1.09700  -1.07943  -1.07272
 Alpha  occ. eigenvalues --   -1.06914  -1.06523  -1.06266  -1.04876  -1.03966
 Alpha  occ. eigenvalues --   -1.03395  -1.02459  -1.01668  -1.00499  -1.00409
 Alpha  occ. eigenvalues --   -0.99506  -0.99224  -0.99121  -0.99103  -0.97845
 Alpha  occ. eigenvalues --   -0.97755  -0.96989  -0.96585  -0.96107  -0.93503
 Alpha  occ. eigenvalues --   -0.93254  -0.92791  -0.91415  -0.91334  -0.90659
 Alpha  occ. eigenvalues --   -0.90600  -0.90381  -0.89178  -0.88824  -0.88719
 Alpha  occ. eigenvalues --   -0.88610  -0.86749  -0.86580  -0.86539  -0.86288
 Alpha  occ. eigenvalues --   -0.84371  -0.82550  -0.81235  -0.80848  -0.80831
 Alpha  occ. eigenvalues --   -0.78813  -0.78341  -0.77195  -0.77046  -0.76220
 Alpha  occ. eigenvalues --   -0.76090  -0.75680  -0.75240  -0.74171  -0.73894
 Alpha  occ. eigenvalues --   -0.73515  -0.73398  -0.72917  -0.71984  -0.70862
 Alpha  occ. eigenvalues --   -0.70854  -0.70670  -0.68312  -0.68079  -0.67330
 Alpha  occ. eigenvalues --   -0.67204  -0.65976  -0.65600  -0.64873  -0.64791
 Alpha  occ. eigenvalues --   -0.63982  -0.63851  -0.63651  -0.63419  -0.63354
 Alpha  occ. eigenvalues --   -0.62960  -0.62408  -0.62248  -0.61863  -0.61654
 Alpha  occ. eigenvalues --   -0.60578  -0.60040  -0.59990  -0.59677  -0.59625
 Alpha  occ. eigenvalues --   -0.59056  -0.58100  -0.58000  -0.57399  -0.57174
 Alpha  occ. eigenvalues --   -0.56767  -0.56392  -0.56256  -0.56230  -0.56172
 Alpha  occ. eigenvalues --   -0.55416  -0.55232  -0.54886  -0.54884  -0.54526
 Alpha  occ. eigenvalues --   -0.54423  -0.54293  -0.53398  -0.52993  -0.52895
 Alpha  occ. eigenvalues --   -0.52528  -0.52052  -0.51909  -0.51416  -0.50916
 Alpha  occ. eigenvalues --   -0.50389  -0.49921  -0.49560  -0.49452  -0.49217
 Alpha  occ. eigenvalues --   -0.48879  -0.48642  -0.48450  -0.48155  -0.47934
 Alpha  occ. eigenvalues --   -0.47849  -0.47726  -0.47528  -0.47258  -0.47192
 Alpha  occ. eigenvalues --   -0.46975  -0.46974  -0.46515  -0.46436  -0.46084
 Alpha  occ. eigenvalues --   -0.45931  -0.45820  -0.45730  -0.45374  -0.45239
 Alpha  occ. eigenvalues --   -0.45146  -0.45069  -0.44595  -0.44519  -0.44467
 Alpha  occ. eigenvalues --   -0.44378  -0.44222  -0.44080  -0.43721  -0.43524
 Alpha  occ. eigenvalues --   -0.43400  -0.43324  -0.43278  -0.42646  -0.42472
 Alpha  occ. eigenvalues --   -0.42239  -0.42177  -0.42110  -0.41948  -0.41754
 Alpha  occ. eigenvalues --   -0.41456  -0.41351  -0.41034  -0.40801  -0.40712
 Alpha  occ. eigenvalues --   -0.40471  -0.40387  -0.40319  -0.40192  -0.40030
 Alpha  occ. eigenvalues --   -0.39940  -0.39873  -0.39686  -0.39305  -0.39243
 Alpha  occ. eigenvalues --   -0.39075  -0.39035  -0.38957  -0.38796  -0.38458
 Alpha  occ. eigenvalues --   -0.38434  -0.38273  -0.38214  -0.38074  -0.37833
 Alpha  occ. eigenvalues --   -0.37735  -0.37697  -0.37548  -0.37217  -0.37141
 Alpha  occ. eigenvalues --   -0.36870  -0.36709  -0.36665  -0.36652  -0.36315
 Alpha  occ. eigenvalues --   -0.36181  -0.36018  -0.35820  -0.35752  -0.35337
 Alpha  occ. eigenvalues --   -0.35150  -0.35024  -0.34692  -0.34619  -0.34525
 Alpha  occ. eigenvalues --   -0.34472  -0.34294  -0.34257  -0.34219  -0.33936
 Alpha  occ. eigenvalues --   -0.33522  -0.33131  -0.33039  -0.32916  -0.32504
 Alpha  occ. eigenvalues --   -0.32365  -0.32239  -0.31944  -0.31868  -0.31803
 Alpha  occ. eigenvalues --   -0.31287  -0.31230  -0.31088  -0.30943  -0.30872
 Alpha  occ. eigenvalues --   -0.30674  -0.30290  -0.30014  -0.29572  -0.29372
 Alpha  occ. eigenvalues --   -0.28593  -0.27913  -0.27784  -0.27663  -0.27023
 Alpha  occ. eigenvalues --   -0.26505  -0.26391  -0.25833  -0.25249  -0.25210
 Alpha  occ. eigenvalues --   -0.24739  -0.24441  -0.24257  -0.24115  -0.23438
 Alpha  occ. eigenvalues --   -0.23081  -0.22977  -0.22621  -0.22255  -0.22167
 Alpha  occ. eigenvalues --   -0.21927  -0.21595  -0.21570  -0.20639  -0.20096
 Alpha  occ. eigenvalues --   -0.20019  -0.19968  -0.19520  -0.17316  -0.17100
 Alpha  occ. eigenvalues --   -0.13741  -0.13678  -0.11409
 Alpha virt. eigenvalues --   -0.10450  -0.05601  -0.04286  -0.04251  -0.03773
 Alpha virt. eigenvalues --   -0.03608  -0.03369  -0.03143  -0.01895  -0.01597
 Alpha virt. eigenvalues --   -0.01406  -0.01136  -0.00847   0.00436   0.00849
 Alpha virt. eigenvalues --    0.01387   0.01840   0.02532   0.02624   0.02967
 Alpha virt. eigenvalues --    0.03029   0.03137   0.03354   0.03401   0.03671
 Alpha virt. eigenvalues --    0.04032   0.04186   0.04207   0.04730   0.04960
 Alpha virt. eigenvalues --    0.05144   0.05256   0.05563   0.05740   0.05797
 Alpha virt. eigenvalues --    0.06252   0.06350   0.06551   0.07096   0.07248
 Alpha virt. eigenvalues --    0.07365   0.07631   0.07653   0.08089   0.08368
 Alpha virt. eigenvalues --    0.08622   0.08711   0.08846   0.09245   0.09329
 Alpha virt. eigenvalues --    0.09755   0.09807   0.09840   0.09916   0.10139
 Alpha virt. eigenvalues --    0.10254   0.10341   0.10488   0.10602   0.10662
 Alpha virt. eigenvalues --    0.10862   0.11135   0.11272   0.11392   0.11464
 Alpha virt. eigenvalues --    0.11730   0.11992   0.12350   0.12410   0.12642
 Alpha virt. eigenvalues --    0.12994   0.13095   0.13213   0.13315   0.13426
 Alpha virt. eigenvalues --    0.13512   0.13810   0.14043   0.14101   0.14343
 Alpha virt. eigenvalues --    0.14604   0.14756   0.14800   0.14932   0.15051
 Alpha virt. eigenvalues --    0.15077   0.15170   0.15224   0.15345   0.15492
 Alpha virt. eigenvalues --    0.15620   0.15865   0.16038   0.16306   0.16511
 Alpha virt. eigenvalues --    0.16557   0.16786   0.16989   0.17019   0.17311
 Alpha virt. eigenvalues --    0.17463   0.17622   0.17771   0.17999   0.18303
 Alpha virt. eigenvalues --    0.18443   0.18649   0.18793   0.18945   0.19015
 Alpha virt. eigenvalues --    0.19079   0.19326   0.19476   0.19519   0.19865
 Alpha virt. eigenvalues --    0.20227   0.20367   0.20665   0.20799   0.20931
 Alpha virt. eigenvalues --    0.21383   0.21654   0.21689   0.21865   0.22065
 Alpha virt. eigenvalues --    0.22227   0.22463   0.22938   0.23067   0.23132
 Alpha virt. eigenvalues --    0.23328   0.23617   0.23719   0.24149   0.24414
 Alpha virt. eigenvalues --    0.24737   0.24823   0.25166   0.25370   0.25842
 Alpha virt. eigenvalues --    0.26055   0.26316   0.26341   0.26500   0.26819
 Alpha virt. eigenvalues --    0.26942   0.27136   0.27473   0.27708   0.28008
 Alpha virt. eigenvalues --    0.28100   0.28221   0.28410   0.28565   0.28741
 Alpha virt. eigenvalues --    0.28806   0.28979   0.29067   0.29404   0.29726
 Alpha virt. eigenvalues --    0.29812   0.30123   0.30284   0.30714   0.30835
 Alpha virt. eigenvalues --    0.31133   0.31603   0.31887   0.32156   0.32538
 Alpha virt. eigenvalues --    0.32872   0.33515   0.33650   0.34056   0.34191
 Alpha virt. eigenvalues --    0.34466   0.34685   0.35291   0.35361   0.35434
 Alpha virt. eigenvalues --    0.35769   0.36136   0.36216   0.36527   0.37123
 Alpha virt. eigenvalues --    0.37264   0.37926   0.38159   0.38438   0.38630
 Alpha virt. eigenvalues --    0.38903   0.39054   0.39220   0.39562   0.39841
 Alpha virt. eigenvalues --    0.40190   0.40374   0.40708   0.40931   0.41189
 Alpha virt. eigenvalues --    0.41352   0.41448   0.41835   0.41946   0.41974
 Alpha virt. eigenvalues --    0.42100   0.42211   0.42266   0.42547   0.42679
 Alpha virt. eigenvalues --    0.42796   0.43311   0.43487   0.43633   0.43827
 Alpha virt. eigenvalues --    0.44510   0.44525   0.44926   0.45003   0.45087
 Alpha virt. eigenvalues --    0.45213   0.45345   0.45547   0.45597   0.45961
 Alpha virt. eigenvalues --    0.46126   0.46222   0.46410   0.46725   0.47056
 Alpha virt. eigenvalues --    0.47317   0.47382   0.47677   0.47781   0.48219
 Alpha virt. eigenvalues --    0.48248   0.48484   0.48614   0.48854   0.49007
 Alpha virt. eigenvalues --    0.49113   0.49230   0.49391   0.49454   0.49934
 Alpha virt. eigenvalues --    0.50033   0.50613   0.50717   0.50949   0.51150
 Alpha virt. eigenvalues --    0.51443   0.51578   0.51691   0.51721   0.51934
 Alpha virt. eigenvalues --    0.52009   0.52097   0.52245   0.52612   0.53093
 Alpha virt. eigenvalues --    0.53158   0.53244   0.53271   0.53647   0.53687
 Alpha virt. eigenvalues --    0.53755   0.54038   0.54203   0.54504   0.54728
 Alpha virt. eigenvalues --    0.54738   0.54986   0.55368   0.55464   0.55605
 Alpha virt. eigenvalues --    0.56297   0.56432   0.56670   0.56725   0.57049
 Alpha virt. eigenvalues --    0.57164   0.57408   0.57502   0.57518   0.57574
 Alpha virt. eigenvalues --    0.57742   0.57989   0.58332   0.58603   0.58697
 Alpha virt. eigenvalues --    0.58846   0.58897   0.58936   0.59075   0.59243
 Alpha virt. eigenvalues --    0.59422   0.59573   0.59740   0.59808   0.60002
 Alpha virt. eigenvalues --    0.60075   0.60088   0.60203   0.60375   0.60562
 Alpha virt. eigenvalues --    0.60947   0.60987   0.61151   0.61277   0.61487
 Alpha virt. eigenvalues --    0.61592   0.61845   0.62085   0.62264   0.62292
 Alpha virt. eigenvalues --    0.62360   0.62684   0.62809   0.62996   0.63059
 Alpha virt. eigenvalues --    0.63113   0.63262   0.63294   0.63511   0.63648
 Alpha virt. eigenvalues --    0.63723   0.63761   0.63806   0.64088   0.64273
 Alpha virt. eigenvalues --    0.64359   0.64542   0.64650   0.64754   0.64781
 Alpha virt. eigenvalues --    0.64929   0.64956   0.65041   0.65169   0.65602
 Alpha virt. eigenvalues --    0.65742   0.65812   0.65858   0.65943   0.66042
 Alpha virt. eigenvalues --    0.66197   0.66314   0.66342   0.66501   0.66626
 Alpha virt. eigenvalues --    0.66673   0.66703   0.66865   0.66945   0.67039
 Alpha virt. eigenvalues --    0.67126   0.67158   0.67390   0.67707   0.67792
 Alpha virt. eigenvalues --    0.67856   0.68017   0.68127   0.68225   0.68313
 Alpha virt. eigenvalues --    0.68381   0.68472   0.68569   0.68673   0.68734
 Alpha virt. eigenvalues --    0.68927   0.69001   0.69208   0.69258   0.69408
 Alpha virt. eigenvalues --    0.69452   0.69504   0.69608   0.69677   0.69754
 Alpha virt. eigenvalues --    0.69882   0.70029   0.70187   0.70414   0.70533
 Alpha virt. eigenvalues --    0.70538   0.70595   0.70732   0.70803   0.70852
 Alpha virt. eigenvalues --    0.71158   0.71351   0.71381   0.71564   0.71782
 Alpha virt. eigenvalues --    0.71906   0.72010   0.72094   0.72174   0.72325
 Alpha virt. eigenvalues --    0.72408   0.72506   0.72577   0.72731   0.72869
 Alpha virt. eigenvalues --    0.72957   0.73272   0.73292   0.73535   0.73727
 Alpha virt. eigenvalues --    0.73882   0.74022   0.74299   0.74451   0.74487
 Alpha virt. eigenvalues --    0.74713   0.74880   0.74962   0.75146   0.75482
 Alpha virt. eigenvalues --    0.75636   0.75825   0.75952   0.76496   0.76654
 Alpha virt. eigenvalues --    0.76705   0.76778   0.77079   0.77601   0.77944
 Alpha virt. eigenvalues --    0.78227   0.78380   0.78412   0.78433   0.78610
 Alpha virt. eigenvalues --    0.79232   0.79500   0.79606   0.79834   0.80049
 Alpha virt. eigenvalues --    0.80432   0.80632   0.80660   0.80953   0.81084
 Alpha virt. eigenvalues --    0.81343   0.81572   0.82079   0.82216   0.82571
 Alpha virt. eigenvalues --    0.82812   0.82941   0.83798   0.83888   0.84055
 Alpha virt. eigenvalues --    0.84411   0.84669   0.85032   0.85481   0.85574
 Alpha virt. eigenvalues --    0.85912   0.86242   0.86447   0.86645   0.87183
 Alpha virt. eigenvalues --    0.87710   0.88159   0.88311   0.89111   0.89421
 Alpha virt. eigenvalues --    0.89800   0.89902   0.89988   0.90441   0.90539
 Alpha virt. eigenvalues --    0.90630   0.90790   0.91287   0.91559   0.91946
 Alpha virt. eigenvalues --    0.92309   0.92809   0.93176   0.93333   0.93583
 Alpha virt. eigenvalues --    0.93661   0.93817   0.94340   0.94422   0.94925
 Alpha virt. eigenvalues --    0.95248   0.95362   0.95664   0.96089   0.96237
 Alpha virt. eigenvalues --    0.96568   0.96650   0.97204   0.97444   0.97901
 Alpha virt. eigenvalues --    0.98276   0.98489   0.98682   0.99000   0.99150
 Alpha virt. eigenvalues --    0.99252   0.99330   0.99581   0.99727   1.00373
 Alpha virt. eigenvalues --    1.00666   1.00671   1.01079   1.01508   1.01642
 Alpha virt. eigenvalues --    1.01751   1.02346   1.02465   1.03072   1.03237
 Alpha virt. eigenvalues --    1.03405   1.03788   1.04071   1.04451   1.04600
 Alpha virt. eigenvalues --    1.04786   1.05424   1.05753   1.05931   1.06198
 Alpha virt. eigenvalues --    1.06731   1.06953   1.07466   1.07564   1.07782
 Alpha virt. eigenvalues --    1.07950   1.08285   1.08320   1.08531   1.08743
 Alpha virt. eigenvalues --    1.08983   1.09396   1.09530   1.10151   1.10421
 Alpha virt. eigenvalues --    1.10449   1.10691   1.11004   1.11052   1.11784
 Alpha virt. eigenvalues --    1.11964   1.12434   1.12572   1.12638   1.12733
 Alpha virt. eigenvalues --    1.13197   1.13379   1.13709   1.13871   1.14189
 Alpha virt. eigenvalues --    1.14396   1.14608   1.14734   1.15066   1.15139
 Alpha virt. eigenvalues --    1.15406   1.15840   1.15864   1.16058   1.16253
 Alpha virt. eigenvalues --    1.16730   1.16985   1.17041   1.17209   1.17481
 Alpha virt. eigenvalues --    1.17995   1.18145   1.18368   1.18521   1.18855
 Alpha virt. eigenvalues --    1.19262   1.19426   1.19850   1.20060   1.20255
 Alpha virt. eigenvalues --    1.20398   1.20790   1.20942   1.21146   1.21488
 Alpha virt. eigenvalues --    1.21653   1.22203   1.22422   1.22475   1.22886
 Alpha virt. eigenvalues --    1.23224   1.23608   1.23690   1.23781   1.24119
 Alpha virt. eigenvalues --    1.24180   1.24385   1.24966   1.25145   1.25348
 Alpha virt. eigenvalues --    1.25713   1.26083   1.26462   1.26606   1.26827
 Alpha virt. eigenvalues --    1.26987   1.27412   1.27702   1.28107   1.28524
 Alpha virt. eigenvalues --    1.28655   1.29114   1.29175   1.29587   1.29802
 Alpha virt. eigenvalues --    1.30116   1.30373   1.30506   1.30986   1.31140
 Alpha virt. eigenvalues --    1.31798   1.32229   1.32287   1.32619   1.32821
 Alpha virt. eigenvalues --    1.32906   1.33406   1.34204   1.34326   1.34506
 Alpha virt. eigenvalues --    1.35093   1.35097   1.35480   1.35530   1.35631
 Alpha virt. eigenvalues --    1.36025   1.36406   1.36715   1.36826   1.37357
 Alpha virt. eigenvalues --    1.37720   1.38139   1.38343   1.38506   1.38721
 Alpha virt. eigenvalues --    1.38920   1.39059   1.39367   1.39910   1.40070
 Alpha virt. eigenvalues --    1.40402   1.41039   1.41130   1.41484   1.41634
 Alpha virt. eigenvalues --    1.41883   1.42254   1.42436   1.42665   1.42817
 Alpha virt. eigenvalues --    1.43320   1.43761   1.43901   1.44027   1.44828
 Alpha virt. eigenvalues --    1.44954   1.45188   1.45217   1.45919   1.46584
 Alpha virt. eigenvalues --    1.47003   1.47074   1.47254   1.47596   1.48139
 Alpha virt. eigenvalues --    1.48212   1.48872   1.49132   1.49261   1.49296
 Alpha virt. eigenvalues --    1.49925   1.50066   1.50110   1.50872   1.50982
 Alpha virt. eigenvalues --    1.51016   1.51242   1.51549   1.51971   1.52031
 Alpha virt. eigenvalues --    1.52330   1.53018   1.53770   1.54046   1.54190
 Alpha virt. eigenvalues --    1.54247   1.54401   1.54439   1.54791   1.55048
 Alpha virt. eigenvalues --    1.55328   1.55448   1.55904   1.56173   1.56322
 Alpha virt. eigenvalues --    1.56341   1.56864   1.57091   1.57461   1.57958
 Alpha virt. eigenvalues --    1.58032   1.58366   1.59413   1.59439   1.60174
 Alpha virt. eigenvalues --    1.60354   1.60789   1.61842   1.62059   1.62117
 Alpha virt. eigenvalues --    1.62700   1.63111   1.63168   1.63293   1.63494
 Alpha virt. eigenvalues --    1.64037   1.64392   1.64951   1.65338   1.65804
 Alpha virt. eigenvalues --    1.66038   1.66434   1.66615   1.66899   1.67125
 Alpha virt. eigenvalues --    1.67630   1.67727   1.68005   1.68177   1.68250
 Alpha virt. eigenvalues --    1.68336   1.68886   1.69060   1.69418   1.69517
 Alpha virt. eigenvalues --    1.69684   1.69837   1.70008   1.70131   1.70593
 Alpha virt. eigenvalues --    1.71048   1.71192   1.71403   1.71609   1.71672
 Alpha virt. eigenvalues --    1.71838   1.72079   1.72399   1.72487   1.73009
 Alpha virt. eigenvalues --    1.73084   1.73380   1.73634   1.74135   1.74333
 Alpha virt. eigenvalues --    1.74483   1.74779   1.74896   1.75044   1.75149
 Alpha virt. eigenvalues --    1.75296   1.75561   1.75572   1.76002   1.76183
 Alpha virt. eigenvalues --    1.76421   1.76524   1.76809   1.76891   1.77181
 Alpha virt. eigenvalues --    1.77283   1.77337   1.77386   1.77555   1.77734
 Alpha virt. eigenvalues --    1.77921   1.78055   1.78207   1.78227   1.78489
 Alpha virt. eigenvalues --    1.78684   1.78994   1.79126   1.79202   1.79500
 Alpha virt. eigenvalues --    1.79745   1.80007   1.80054   1.80426   1.80499
 Alpha virt. eigenvalues --    1.80678   1.80932   1.81009   1.81053   1.81162
 Alpha virt. eigenvalues --    1.81375   1.81708   1.81965   1.82088   1.82199
 Alpha virt. eigenvalues --    1.82408   1.82686   1.82738   1.82869   1.83019
 Alpha virt. eigenvalues --    1.83040   1.83179   1.83275   1.83622   1.83824
 Alpha virt. eigenvalues --    1.83836   1.83910   1.84147   1.84223   1.84344
 Alpha virt. eigenvalues --    1.84661   1.84906   1.85068   1.85141   1.85392
 Alpha virt. eigenvalues --    1.85636   1.86136   1.86274   1.86511   1.86796
 Alpha virt. eigenvalues --    1.86927   1.87147   1.87398   1.87613   1.87763
 Alpha virt. eigenvalues --    1.87915   1.88106   1.88334   1.88528   1.88600
 Alpha virt. eigenvalues --    1.88732   1.88911   1.89032   1.89355   1.89680
 Alpha virt. eigenvalues --    1.89808   1.90004   1.90133   1.90450   1.90688
 Alpha virt. eigenvalues --    1.90862   1.90884   1.90915   1.91041   1.91243
 Alpha virt. eigenvalues --    1.91321   1.91667   1.91986   1.92162   1.92682
 Alpha virt. eigenvalues --    1.92757   1.93052   1.93225   1.93257   1.93393
 Alpha virt. eigenvalues --    1.93577   1.93638   1.94024   1.94345   1.94709
 Alpha virt. eigenvalues --    1.94872   1.94939   1.95272   1.95500   1.96037
 Alpha virt. eigenvalues --    1.96047   1.96187   1.96452   1.96684   1.96818
 Alpha virt. eigenvalues --    1.97095   1.97414   1.97487   1.98141   1.98569
 Alpha virt. eigenvalues --    1.98946   1.99277   1.99431   1.99552   1.99909
 Alpha virt. eigenvalues --    2.00239   2.00258   2.00360   2.00626   2.00749
 Alpha virt. eigenvalues --    2.00869   2.01039   2.01287   2.01498   2.01799
 Alpha virt. eigenvalues --    2.01911   2.02019   2.02690   2.02818   2.02953
 Alpha virt. eigenvalues --    2.03171   2.03395   2.03471   2.04065   2.04312
 Alpha virt. eigenvalues --    2.04413   2.04637   2.04828   2.05229   2.05486
 Alpha virt. eigenvalues --    2.05585   2.05843   2.06034   2.06107   2.06615
 Alpha virt. eigenvalues --    2.07488   2.07653   2.08200   2.08379   2.08485
 Alpha virt. eigenvalues --    2.08644   2.09486   2.09616   2.09696   2.09808
 Alpha virt. eigenvalues --    2.10264   2.10409   2.10599   2.10961   2.11472
 Alpha virt. eigenvalues --    2.11703   2.11730   2.12182   2.12327   2.12789
 Alpha virt. eigenvalues --    2.13144   2.13278   2.13445   2.13703   2.14017
 Alpha virt. eigenvalues --    2.14440   2.14534   2.15082   2.15211   2.15324
 Alpha virt. eigenvalues --    2.15488   2.15926   2.16464   2.16558   2.16764
 Alpha virt. eigenvalues --    2.17073   2.17311   2.17608   2.17774   2.18384
 Alpha virt. eigenvalues --    2.18480   2.18775   2.18827   2.19116   2.19421
 Alpha virt. eigenvalues --    2.19478   2.19568   2.19909   2.20280   2.20630
 Alpha virt. eigenvalues --    2.21062   2.21236   2.22123   2.22324   2.22566
 Alpha virt. eigenvalues --    2.22804   2.23637   2.23814   2.23910   2.24034
 Alpha virt. eigenvalues --    2.24152   2.24709   2.24734   2.25159   2.25699
 Alpha virt. eigenvalues --    2.25770   2.26263   2.26827   2.27282   2.27556
 Alpha virt. eigenvalues --    2.27658   2.27746   2.28181   2.28665   2.28724
 Alpha virt. eigenvalues --    2.28991   2.29673   2.29800   2.30784   2.30797
 Alpha virt. eigenvalues --    2.31004   2.31088   2.31716   2.32059   2.32105
 Alpha virt. eigenvalues --    2.32479   2.32603   2.33478   2.33722   2.33832
 Alpha virt. eigenvalues --    2.33964   2.34018   2.34630   2.35015   2.35249
 Alpha virt. eigenvalues --    2.35545   2.35801   2.36339   2.36502   2.37183
 Alpha virt. eigenvalues --    2.37221   2.37314   2.37727   2.38037   2.38738
 Alpha virt. eigenvalues --    2.39037   2.39188   2.39418   2.39533   2.39692
 Alpha virt. eigenvalues --    2.40017   2.40920   2.41618   2.42147   2.42292
 Alpha virt. eigenvalues --    2.42476   2.42863   2.43210   2.43240   2.43950
 Alpha virt. eigenvalues --    2.44727   2.44826   2.45255   2.45418   2.45572
 Alpha virt. eigenvalues --    2.45672   2.45883   2.46457   2.47050   2.47599
 Alpha virt. eigenvalues --    2.47887   2.48716   2.49013   2.49023   2.49256
 Alpha virt. eigenvalues --    2.49911   2.50211   2.50437   2.50456   2.50910
 Alpha virt. eigenvalues --    2.51223   2.51691   2.51776   2.52133   2.52258
 Alpha virt. eigenvalues --    2.52658   2.52935   2.53759   2.54021   2.54624
 Alpha virt. eigenvalues --    2.54690   2.55027   2.55298   2.55416   2.56049
 Alpha virt. eigenvalues --    2.56277   2.56470   2.56618   2.56738   2.57056
 Alpha virt. eigenvalues --    2.57256   2.58403   2.58871   2.58937   2.59090
 Alpha virt. eigenvalues --    2.59440   2.59619   2.59791   2.59920   2.60061
 Alpha virt. eigenvalues --    2.60562   2.60909   2.61044   2.61314   2.61486
 Alpha virt. eigenvalues --    2.62181   2.62243   2.62397   2.62742   2.62799
 Alpha virt. eigenvalues --    2.63431   2.63742   2.63923   2.64121   2.64346
 Alpha virt. eigenvalues --    2.64985   2.66304   2.66449   2.66836   2.67249
 Alpha virt. eigenvalues --    2.67477   2.67973   2.68165   2.68565   2.68930
 Alpha virt. eigenvalues --    2.69174   2.69349   2.69434   2.69862   2.70012
 Alpha virt. eigenvalues --    2.70054   2.70623   2.70678   2.70780   2.71355
 Alpha virt. eigenvalues --    2.71779   2.72147   2.72314   2.72424   2.72927
 Alpha virt. eigenvalues --    2.73032   2.73525   2.73717   2.74325   2.74365
 Alpha virt. eigenvalues --    2.74770   2.75221   2.75495   2.75721   2.76061
 Alpha virt. eigenvalues --    2.76401   2.76420   2.76704   2.76902   2.77045
 Alpha virt. eigenvalues --    2.77334   2.77453   2.77675   2.78993   2.79020
 Alpha virt. eigenvalues --    2.79071   2.79147   2.79523   2.79609   2.79821
 Alpha virt. eigenvalues --    2.80101   2.80417   2.80583   2.81169   2.81367
 Alpha virt. eigenvalues --    2.81429   2.81926   2.82157   2.82330   2.82586
 Alpha virt. eigenvalues --    2.83017   2.83416   2.83546   2.83648   2.83840
 Alpha virt. eigenvalues --    2.84717   2.84749   2.84844   2.85332   2.85707
 Alpha virt. eigenvalues --    2.85800   2.86063   2.86234   2.86307   2.86452
 Alpha virt. eigenvalues --    2.86857   2.87895   2.88145   2.88336   2.88491
 Alpha virt. eigenvalues --    2.88830   2.88920   2.89324   2.89851   2.90168
 Alpha virt. eigenvalues --    2.90210   2.90978   2.91025   2.91436   2.91486
 Alpha virt. eigenvalues --    2.91981   2.92141   2.92274   2.92979   2.93225
 Alpha virt. eigenvalues --    2.93468   2.93624   2.93679   2.94012   2.94476
 Alpha virt. eigenvalues --    2.95016   2.95249   2.95538   2.96018   2.96564
 Alpha virt. eigenvalues --    2.96661   2.96735   2.96828   2.97454   2.97633
 Alpha virt. eigenvalues --    2.97843   2.98324   2.98665   2.99294   2.99373
 Alpha virt. eigenvalues --    2.99609   2.99798   2.99863   3.00210   3.00366
 Alpha virt. eigenvalues --    3.01201   3.01520   3.01984   3.02282   3.02646
 Alpha virt. eigenvalues --    3.02824   3.02969   3.03664   3.03693   3.03914
 Alpha virt. eigenvalues --    3.04549   3.05277   3.06216   3.06271   3.06813
 Alpha virt. eigenvalues --    3.07509   3.07928   3.08038   3.08345   3.08948
 Alpha virt. eigenvalues --    3.09394   3.09434   3.10194   3.10599   3.10690
 Alpha virt. eigenvalues --    3.10849   3.11352   3.11797   3.12888   3.13246
 Alpha virt. eigenvalues --    3.13809   3.14189   3.14235   3.14652   3.14763
 Alpha virt. eigenvalues --    3.14797   3.15390   3.15698   3.15935   3.16164
 Alpha virt. eigenvalues --    3.16299   3.16352   3.17043   3.17119   3.17185
 Alpha virt. eigenvalues --    3.17513   3.18040   3.18379   3.18640   3.18918
 Alpha virt. eigenvalues --    3.19359   3.19731   3.20484   3.21225   3.21230
 Alpha virt. eigenvalues --    3.21883   3.21987   3.22597   3.22788   3.23117
 Alpha virt. eigenvalues --    3.23302   3.24485   3.24631   3.26034   3.26062
 Alpha virt. eigenvalues --    3.26198   3.27609   3.27870   3.27939   3.28184
 Alpha virt. eigenvalues --    3.28791   3.29957   3.30347   3.30645   3.32135
 Alpha virt. eigenvalues --    3.33327   3.34791   3.35519   3.35826   3.37290
 Alpha virt. eigenvalues --    3.37422   3.39585   3.43509   3.46754   3.48214
 Alpha virt. eigenvalues --    3.50838   3.51569   3.52374   3.52669   3.54166
 Alpha virt. eigenvalues --    3.55445   3.56079   3.56233   3.58082   3.58774
 Alpha virt. eigenvalues --    3.59874   3.60824   3.61111   3.61348   3.61996
 Alpha virt. eigenvalues --    3.63564   3.64148   3.64239   3.66120   3.67553
 Alpha virt. eigenvalues --    3.68561   3.68740   3.68887   3.69106   3.69112
 Alpha virt. eigenvalues --    3.69340   3.70207   3.70709   3.71043   3.72455
 Alpha virt. eigenvalues --    3.73157   3.73269   3.73892   3.74840   3.75046
 Alpha virt. eigenvalues --    3.75961   3.77024   3.78873   3.81705
          Condensed to atoms (all electrons):
 Mulliken charges:
               1
     1  C    0.072847
     2  C   -0.000621
     3  O   -0.332645
     4  H   -0.002941
     5  H    0.021987
     6  H    0.025492
     7  N   -0.098441
     8  C    0.125268
     9  C    0.091378
    10  O   -0.268020
    11  C    0.064065
    12  C    0.048826
    13  O   -0.364097
    14  O   -0.386310
    15  H    0.127357
    16  H   -0.028726
    17  H   -0.024765
    18  H   -0.021531
    19  N   -0.126621
    20  C    0.115899
    21  C    0.071227
    22  O   -0.298232
    23  C    0.027354
    24  C   -0.028117
    25  C    0.002246
    26  C   -0.009718
    27  N    0.125053
    28  H    0.113568
    29  H   -0.013148
    30  H   -0.012475
    31  H    0.017931
    32  H    0.041666
    33  H    0.000141
    34  H    0.055079
    35  H    0.011103
    36  H    0.075940
    37  H    0.095388
    38  H    0.177426
    39  H    0.154756
    40  H    0.157833
    41  N   -0.107173
    42  C    0.103395
    43  C    0.103598
    44  O   -0.287798
    45  C    0.112668
    46  C    0.081181
    47  O   -0.350660
    48  O   -0.498226
    49  H    0.142963
    50  H   -0.001620
    51  H   -0.035865
    52  H    0.005216
    53  N   -0.127244
    54  C    0.171192
    55  C    0.109392
    56  O   -0.334900
    57  H    0.131938
    58  H    0.011978
    59  H    0.075547
    60  N   -0.149926
    61  C    0.087903
    62  C    0.076618
    63  O   -0.284664
    64  C    0.064142
    65  C    0.105721
    66  N   -0.044017
    67  O   -0.283355
    68  H    0.126205
    69  H    0.021739
    70  H    0.065966
    71  H   -0.005283
    72  H    0.137577
    73  H    0.146888
    74  N   -0.085628
    75  C    0.163175
    76  C    0.046318
    77  O   -0.251864
    78  H    0.129015
    79  H    0.017711
    80  H    0.035950
    81  N   -0.158336
    82  C    0.109984
    83  C    0.086549
    84  O   -0.315648
    85  C    0.199931
    86  C   -0.033176
    87  C   -0.032794
    88  C   -0.029718
    89  C   -0.002349
    90  C   -0.036293
    91  C    0.145800
    92  O   -0.200374
    93  H    0.128478
    94  H    0.019034
    95  H    0.001799
    96  H    0.017011
    97  H   -0.026677
    98  H   -0.020734
    99  H   -0.018340
   100  H   -0.038855
   101  H    0.174284
   102  N   -0.106041
   103  C    0.183465
   104  C    0.052886
   105  O   -0.257450
   106  C   -0.132224
   107  C    0.015522
   108  C    0.113117
   109  C    0.052238
   110  H    0.131796
   111  H    0.002640
   112  H   -0.003290
   113  H    0.011218
   114  H   -0.041893
   115  H    0.009571
   116  H   -0.027119
   117  H    0.024558
   118  H    0.009936
   119  H   -0.008617
   120  H    0.006896
   121  N   -0.131145
   122  C    0.068797
   123  C    0.030742
   124  O   -0.262893
   125  C    0.197010
   126  O   -0.301359
   127  H    0.134368
   128  H    0.027334
   129  H    0.006783
   130  H    0.021182
   131  H    0.159950
   132  N   -0.126306
   133  C    0.084704
   134  C    0.028345
   135  O   -0.286202
   136  C    0.093190
   137  H    0.118390
   138  H    0.020704
   139  H    0.035051
   140  H    0.013267
   141  H   -0.013043
   142  N   -0.100005
   143  C    0.103037
   144  C    0.053156
   145  O   -0.269532
   146  C    0.031446
   147  H    0.123491
   148  H   -0.012614
   149  H    0.035627
   150  H    0.030236
   151  H   -0.012573
   152  N   -0.140453
   153  C    0.132088
   154  C    0.070341
   155  O   -0.282650
   156  C    0.019620
   157  C    0.123981
   158  C    0.063885
   159  O   -0.493264
   160  O   -0.374074
   161  H    0.105859
   162  H   -0.010330
   163  H    0.019208
   164  H    0.029989
   165  H   -0.038888
   166  H   -0.021332
   167  N   -0.144144
   168  C    0.128532
   169  H    0.026565
   170  H    0.009866
   171  H    0.047372
   172  H    0.114587
   173  Ca   1.380836
   174  O   -0.299858
   175  H    0.197030
   176  H    0.198118
 Sum of Mulliken charges =  -0.00000
 Mulliken charges with hydrogens summed into heavy atoms:
               1
     1  C    0.117385
     2  C   -0.000621
     3  O   -0.332645
     7  N    0.028915
     8  C    0.096542
     9  C    0.091378
    10  O   -0.268020
    11  C    0.017768
    12  C    0.048826
    13  O   -0.364097
    14  O   -0.386310
    19  N   -0.013053
    20  C    0.102751
    21  C    0.071227
    22  O   -0.298232
    23  C    0.032809
    24  C    0.013690
    25  C    0.068428
    26  C    0.161610
    27  N    0.615069
    41  N    0.035791
    42  C    0.101775
    43  C    0.103598
    44  O   -0.287798
    45  C    0.082020
    46  C    0.081181
    47  O   -0.350660
    48  O   -0.498226
    53  N    0.004694
    54  C    0.258716
    55  C    0.109392
    56  O   -0.334900
    60  N   -0.023721
    61  C    0.109641
    62  C    0.076618
    63  O   -0.284664
    64  C    0.124824
    65  C    0.105721
    66  N    0.240448
    67  O   -0.283355
    74  N    0.043387
    75  C    0.216837
    76  C    0.046318
    77  O   -0.251864
    81  N   -0.029858
    82  C    0.129018
    83  C    0.086549
    84  O   -0.315648
    85  C    0.218740
    86  C   -0.033176
    87  C   -0.059472
    88  C   -0.050453
    89  C   -0.020689
    90  C   -0.075147
    91  C    0.145800
    92  O   -0.026091
   102  N    0.025755
   103  C    0.186105
   104  C    0.052886
   105  O   -0.257450
   106  C   -0.135514
   107  C   -0.015153
   108  C    0.120127
   109  C    0.060453
   121  N    0.003223
   122  C    0.096131
   123  C    0.030742
   124  O   -0.262893
   125  C    0.224975
   126  O   -0.141409
   132  N   -0.007916
   133  C    0.105408
   134  C    0.028345
   135  O   -0.286202
   136  C    0.128464
   142  N    0.023486
   143  C    0.090423
   144  C    0.053156
   145  O   -0.269532
   146  C    0.084736
   152  N   -0.034593
   153  C    0.121758
   154  C    0.070341
   155  O   -0.282650
   156  C    0.068817
   157  C    0.063760
   158  C    0.063885
   159  O   -0.493264
   160  O   -0.374074
   167  N   -0.029557
   168  C    0.212335
   173  Ca   1.380836
   174  O    0.095290
 DipInt: DoE/N= T F RetVal/Mat= T F Init=T NMatP=  1 IDeriv=0 Min/MaxMlt=  0  4
 Entering OneElI...
 OneElI was handed  1333951383 working-precision words.
 Multipole integrals L=0 to 4 MinM= 0 MaxM= 0.
 Requested accuracy = 0.1000D-12
 ShPair: Thresh= 1.00D-13 NBox=     0 BxSize= 0.00D+00 RnKept= 2.72D+01
         NSMCal=               327645 NSMKep=              117800
 PrmmSu-InSpLW:  IPartL=    0 NPrtUS=    1 NPrtUL=    1 DoSpLW=F IThBeg=    0 IThEnd=    0 NThAct=    1.
 PrsmSu:  NPrtUS=   1 ThrOK=F IAlg=1 NPAlg=1 LenDen=           0 ISkipM=0 DoSpLW=F IThBeg=    0 IThEnd=    0.
 Prism:   IPart=     0 DynPar=F LinDyn=F Incr=         512.
 PRISM was handed  1325509055 working-precision words and117800 shell-pairs
 IPart=  0 NShTot=      117800 NBatch=         280 AvBLen=       420.7
 PrsmSu-ThDecC:  IPartSL=    0    0 NPrtUSL=    1    1 IThBeg=    0 IThEnd=    0 CPU=   -1 GPU=   -1 NThAct=    1.
 PrSmSu:  NxtVal=            513.
 Electronic moments (au):
       -716.00000000         -1.85783312          2.72805244         -6.87674795
    -109765.81323402     -40857.41789660     -11845.98711412       -250.22509386
        125.53161203        -10.78528366     480612.91305500      -5613.39457973
     -18875.18292322    -250679.10469662      66186.08167444     -68807.02240612
      74746.38396213       2748.70062117       8504.60161687     -49995.15935779
  -30805438.00590283   -6597478.73268432    -561933.27024709     796656.02591893
     760451.48327325    1367688.69383604    -520532.41637232     242827.68491272
      31544.88624243   -5183747.40541740   -2092026.48699722    -431774.40604081
     159314.98881060     163408.61270317     -73550.48967486
 Electronic spatial extent (au):  <R**2>=         162469.2182
 DipInt: DoE/N= F T RetVal/Mat= T F Init=T NMatP=  1 IDeriv=0 Min/MaxMlt=  0  4
 Nuclear    moments (au):
        716.00000000         -0.00000000          0.00000000         -0.00000000
     109518.25995090      40456.14341596      11401.92019231         -0.00000000
         -0.00000000         -0.00000000    -486363.18902917       5427.91219490
      18740.64444803     250186.16666612     -62348.88180798      65703.93671902
     -74175.02496226      -2070.56032480      -9173.08903756      50567.73083526
   30583130.85256020    6468622.28141780     518874.34413761    -895988.03705644
    -692469.20332235   -1387812.99068614     519597.64770894    -239167.67272685
     -32230.87932528    5107545.73315406    2016427.37794605     399429.59433918
    -171112.14139200    -152682.19231267      65943.16021621
 Total      moments (au):
         -0.00000000         -1.85783312          2.72805244         -6.87674795
       -247.55328312       -401.27448064       -444.06692181       -250.22509386
        125.53161203        -10.78528366      -5750.27597417       -185.48238482
       -134.53847519       -492.93803050       3837.19986646      -3103.08568710
        571.35899987        678.14029637       -668.48742069        572.57147747
    -222307.15334263    -128856.45126652     -43058.92610949     -99332.01113751
      67982.27995090     -20124.29685011       -934.76866338       3660.01218587
       -685.99308285     -76201.67226334     -75599.10905116     -32344.81170163
     -11797.15258140      10726.42039050      -7607.32945864
 Traceless Quadrup. (au):
        116.74494540        -36.97625212        -79.76869328       -250.22509386
        125.53161203        -10.78528366
 Charge=             -0.0000 electrons
 Dipole moment (field-independent basis, Debye):
    X=             -4.7221    Y=              6.9340    Z=            -17.4789  Tot=             19.3880
 Quadrupole moment (field-independent basis, Debye-Ang):
   XX=           -332.9676   YY=           -539.7279   ZZ=           -597.2852
   XY=           -336.5613   XZ=            168.8443   YZ=            -14.5066
 Traceless Quadrupole moment (field-independent basis, Debye-Ang):
   XX=            157.0260   YY=            -49.7343   ZZ=           -107.2916
   XY=           -336.5613   XZ=            168.8443   YZ=            -14.5066
 Octapole moment (field-independent basis, Debye-Ang**2):
  XXX=          -4092.8249  YYY=           -132.0192  ZZZ=            -95.7593  XYY=           -350.8543
  XXY=           2731.1710  XXZ=          -2208.6568  XZZ=            406.6713  YZZ=            482.6741
  YYZ=           -475.8036  XYZ=            407.5343
 Hexadecapole moment (field-independent basis, Debye-Ang**3):
 XXXX=         -83731.5339 YYYY=         -48533.5184 ZZZZ=         -16218.0563 XXXY=         -37413.1985
 XXXZ=          25605.3865 YYYX=          -7579.7752 YYYZ=           -352.0787 ZZZX=           1378.5361
 ZZZY=           -258.3779 XXYY=         -28701.2038 XXZZ=         -28474.2496 YYZZ=         -12182.6071
 XXYZ=          -4443.3734 YYXZ=           4040.0843 ZZXY=          -2865.2851
 N-N= 1.861338920725D+04 E-N=-4.970513541571D+04  KE= 5.290385987691D+03
 Leave Link  601 at Tue Sep 17 10:18:48 2019, MaxMem=  1342177280 cpu:              47.8 elap:               1.2
 FitSet:  NAtFit=   176 NAtPot=   176 NAtFrz=     0 MDM=   180 TotChg=   0.00000
 Merz-Kollman atomic radii used.
 Read replacement radii for each type of atom:
 Rad(20) =   1.700000000000D+00
 Atom Element Radius
    1     6    1.50
    2     6    1.50
    3     8    1.40
    4     1    1.20
    5     1    1.20
    6     1    1.20
    7     7    1.50
    8     6    1.50
    9     6    1.50
   10     8    1.40
   11     6    1.50
   12     6    1.50
   13     8    1.40
   14     8    1.40
   15     1    1.20
   16     1    1.20
   17     1    1.20
   18     1    1.20
   19     7    1.50
   20     6    1.50
   21     6    1.50
   22     8    1.40
   23     6    1.50
   24     6    1.50
   25     6    1.50
   26     6    1.50
   27     7    1.50
   28     1    1.20
   29     1    1.20
   30     1    1.20
   31     1    1.20
   32     1    1.20
   33     1    1.20
   34     1    1.20
   35     1    1.20
   36     1    1.20
   37     1    1.20
   38     1    1.20
   39     1    1.20
   40     1    1.20
   41     7    1.50
   42     6    1.50
   43     6    1.50
   44     8    1.40
   45     6    1.50
   46     6    1.50
   47     8    1.40
   48     8    1.40
   49     1    1.20
   50     1    1.20
   51     1    1.20
   52     1    1.20
   53     7    1.50
   54     6    1.50
   55     6    1.50
   56     8    1.40
   57     1    1.20
   58     1    1.20
   59     1    1.20
   60     7    1.50
   61     6    1.50
   62     6    1.50
   63     8    1.40
   64     6    1.50
   65     6    1.50
   66     7    1.50
   67     8    1.40
   68     1    1.20
   69     1    1.20
   70     1    1.20
   71     1    1.20
   72     1    1.20
   73     1    1.20
   74     7    1.50
   75     6    1.50
   76     6    1.50
   77     8    1.40
   78     1    1.20
   79     1    1.20
   80     1    1.20
   81     7    1.50
   82     6    1.50
   83     6    1.50
   84     8    1.40
   85     6    1.50
   86     6    1.50
   87     6    1.50
   88     6    1.50
   89     6    1.50
   90     6    1.50
   91     6    1.50
   92     8    1.40
   93     1    1.20
   94     1    1.20
   95     1    1.20
   96     1    1.20
   97     1    1.20
   98     1    1.20
   99     1    1.20
  100     1    1.20
  101     1    1.20
  102     7    1.50
  103     6    1.50
  104     6    1.50
  105     8    1.40
  106     6    1.50
  107     6    1.50
  108     6    1.50
  109     6    1.50
  110     1    1.20
  111     1    1.20
  112     1    1.20
  113     1    1.20
  114     1    1.20
  115     1    1.20
  116     1    1.20
  117     1    1.20
  118     1    1.20
  119     1    1.20
  120     1    1.20
  121     7    1.50
  122     6    1.50
  123     6    1.50
  124     8    1.40
  125     6    1.50
  126     8    1.40
  127     1    1.20
  128     1    1.20
  129     1    1.20
  130     1    1.20
  131     1    1.20
  132     7    1.50
  133     6    1.50
  134     6    1.50
  135     8    1.40
  136     6    1.50
  137     1    1.20
  138     1    1.20
  139     1    1.20
  140     1    1.20
  141     1    1.20
  142     7    1.50
  143     6    1.50
  144     6    1.50
  145     8    1.40
  146     6    1.50
  147     1    1.20
  148     1    1.20
  149     1    1.20
  150     1    1.20
  151     1    1.20
  152     7    1.50
  153     6    1.50
  154     6    1.50
  155     8    1.40
  156     6    1.50
  157     6    1.50
  158     6    1.50
  159     8    1.40
[...]
 **** Fit      -0.006658
 **** Fit      -0.007458
 **** Fit      -0.008518
 **** Fit      -0.007711
 **** Fit      -0.006903
 **** Fit      -0.006218
 **** Fit      -0.005764
 **** Fit      -0.005606
 **** Fit      -0.005778
 **** Fit      -0.006290
 **** Fit      -0.007135
 **** Fit      -0.008280
 **** Fit      -0.009653
 **** Fit      -0.008167
 **** Fit      -0.007181
 **** Fit      -0.006318
 **** Fit      -0.005670
 **** Fit      -0.005287
 **** Fit      -0.005200
 **** Fit      -0.005424
 **** Fit      -0.005968
 **** Fit      -0.006830
 **** Fit      -0.008003
 **** Fit      -0.009461
 **** Fit      -0.008581
 **** Fit      -0.007384
 **** Fit      -0.006351
 **** Fit      -0.005561
 **** Fit      -0.005052
 **** Fit      -0.004846
 **** Fit      -0.004954
 **** Fit      -0.005386
 **** Fit      -0.006148
 **** Fit      -0.007246
 **** Fit      -0.008684
 **** Fit      -0.010460
 **** Fit      -0.008866
 **** Fit      -0.007515
 **** Fit      -0.006369
 **** Fit      -0.005484
 **** Fit      -0.004888
 **** Fit      -0.004590
 **** Fit      -0.004599
 **** Fit      -0.004921
 **** Fit      -0.005564
 **** Fit      -0.006540
 **** Fit      -0.007865
 **** Fit      -0.009562
 **** Fit      -0.011656
 **** Fit      -0.008753
 **** Fit      -0.007344
 **** Fit      -0.006169
 **** Fit      -0.005271
 **** Fit      -0.004666
 **** Fit      -0.004360
 **** Fit      -0.004357
 **** Fit      -0.004662
 **** Fit      -0.005284
 **** Fit      -0.006240
 **** Fit      -0.007553
 **** Fit      -0.009257
 **** Fit      -0.011404
 **** Fit      -0.014067
 **** Fit      -0.007911
 **** Fit      -0.006609
 **** Fit      -0.005544
 **** Fit      -0.004760
 **** Fit      -0.004276
 **** Fit      -0.004099
 **** Fit      -0.004236
 **** Fit      -0.004700
 **** Fit      -0.005506
 **** Fit      -0.006680
 **** Fit      -0.008264
 **** Fit      -0.010315
 **** Fit      -0.012930
 **** Fit      -0.006114
 **** Fit      -0.005251
 **** Fit      -0.004527
 **** Fit      -0.004031
 **** Fit      -0.003811
 **** Fit      -0.003892
 **** Fit      -0.004300
 **** Fit      -0.005060
 **** Fit      -0.006206
 **** Fit      -0.007787
 **** Fit      -0.009874
 **** Fit      -0.012580
 **** Fit      -0.003297
 **** Fit      -0.003208
 **** Fit      -0.003193
 **** Fit      -0.003367
 **** Fit      -0.003803
 **** Fit      -0.004557
 **** Fit      -0.005679
 **** Fit      -0.007231
 **** Fit      -0.009291
 **** Fit      -0.011978
 **** Fit      -0.000968
 **** Fit      -0.001803
 **** Fit      -0.002490
 **** Fit      -0.003283
 **** Fit      -0.004339
 **** Fit      -0.005773
 **** Fit      -0.007694
 **** Fit      -0.010229
 **** Fit      -0.002331
 **** Fit      -0.003906
 **** Fit      -0.005790
 **** Fit      -0.012460
 **** Fit      -0.013974
 **** Fit      -0.014420
 **** Fit      -0.012435
 **** Fit      -0.014034
 **** Fit      -0.015528
 **** Fit      -0.016466
 **** Fit      -0.016510
 **** Fit      -0.015616
 **** Fit      -0.012661
 **** Fit      -0.014273
 **** Fit      -0.015967
 **** Fit      -0.017537
 **** Fit      -0.018715
 **** Fit      -0.019275
 **** Fit      -0.019124
 **** Fit      -0.018301
 **** Fit      -0.012102
 **** Fit      -0.013702
 **** Fit      -0.015485
 **** Fit      -0.017395
 **** Fit      -0.019289
 **** Fit      -0.020952
 **** Fit      -0.022152
 **** Fit      -0.022716
 **** Fit      -0.022601
 **** Fit      -0.021874
 **** Fit      -0.020631
 **** Fit      -0.013906
 **** Fit      -0.015828
 **** Fit      -0.017965
 **** Fit      -0.020251
 **** Fit      -0.022537
 **** Fit      -0.024598
 **** Fit      -0.026179
 **** Fit      -0.027072
 **** Fit      -0.027194
 **** Fit      -0.026615
 **** Fit      -0.025489
 **** Fit      -0.014297
 **** Fit      -0.016352
 **** Fit      -0.018670
 **** Fit      -0.021250
 **** Fit      -0.024016
 **** Fit      -0.026809
 **** Fit      -0.029386
 **** Fit      -0.031460
 **** Fit      -0.032771
 **** Fit      -0.033173
 **** Fit      -0.032701
 **** Fit      -0.031545
 **** Fit      -0.029947
 **** Fit      -0.016318
 **** Fit      -0.018861
 **** Fit      -0.021772
 **** Fit      -0.025056
 **** Fit      -0.028635
 **** Fit      -0.032318
 **** Fit      -0.035797
 **** Fit      -0.038939
 **** Fit      -0.036759
 **** Fit      -0.018976
 **** Fit      -0.022134
 **** Fit      -0.025802
 **** Fit      -0.030003
 **** Fit      -0.034663
 **** Fit      -0.023737
 **** Fit      -0.028045
 **** Fit      -0.033132
 **** Fit      -0.028971
 **** Fit      -0.021963
 **** Fit      -0.014218
 **** Fit      -0.008440
 **** Fit      -0.015982
 **** Fit      -0.009588
 **** Fit      -0.005106
 **** Fit      -0.002125
 **** Fit      -0.016193
 **** Fit      -0.009658
 **** Fit      -0.005102
 **** Fit      -0.002096
 **** Fit      -0.000347
 **** Fit      -0.014163
 **** Fit      -0.008055
 **** Fit      -0.003835
 **** Fit      -0.001123
 **** Fit       0.000343
 **** Fit       0.000724
 **** Fit      -0.017647
 **** Fit      -0.010611
 **** Fit      -0.005425
 **** Fit      -0.001863
 **** Fit       0.000331
 **** Fit       0.001357
 **** Fit       0.001349
 **** Fit      -0.011643
 **** Fit      -0.006469
 **** Fit      -0.002483
 **** Fit       0.000270
 **** Fit       0.001893
 **** Fit       0.002508
 **** Fit       0.002231
 **** Fit      -0.008719
 **** Fit      -0.005225
 **** Fit      -0.001712
 **** Fit       0.001072
 **** Fit       0.002900
 **** Fit       0.003774
 **** Fit       0.003796
 **** Fit       0.000631
 **** Fit       0.002653
 **** Fit       0.004329
 **** Fit       0.005331
 **** Fit       0.005637
 **** Fit       0.005425
 **** Fit       0.006681
 **** Fit       0.007471
 **** Fit       0.007906
 **** Fit       0.008186
 **** Fit      -0.013407
 **** Fit      -0.005396
 **** Fit      -0.001036
 **** Fit      -0.000812
 **** Fit      -0.004969
 **** Fit      -0.021884
 **** Fit      -0.011509
 **** Fit      -0.004723
 **** Fit      -0.001913
 **** Fit      -0.003217
 **** Fit      -0.008736
 **** Fit      -0.019267
 **** Fit      -0.009468
 **** Fit      -0.003832
 **** Fit      -0.002236
 **** Fit      -0.004500
 **** Fit      -0.010501
 **** Fit      -0.015890
 **** Fit      -0.007209
 **** Fit      -0.002831
 **** Fit      -0.002289
 **** Fit      -0.014574
 **** Fit      -0.006154
 **** Fit      -0.002323
 **** Fit      -0.002362
 **** Fit      -0.012439
 **** Fit      -0.004987
 **** Fit      -0.002157
 **** Fit      -0.007052
 **** Fit      -0.003019
 **** Fit      -0.003327
 **** Fit      -0.009071
 **** Fit      -0.004140
 **** Fit      -0.003860
 **** Fit      -0.012562
 **** Fit      -0.005834
 **** Fit      -0.004165
 **** Fit      -0.007349
 **** Fit      -0.004401
 **** Fit      -0.006226
 **** Fit      -0.012607
 **** Fit      -0.006095
 **** Fit      -0.004006
 **** Fit      -0.006524
 **** Fit      -0.008804
 **** Fit      -0.004062
 **** Fit      -0.003000
 **** Fit      -0.006115
 **** Fit      -0.005768
 **** Fit      -0.001980
 **** Fit      -0.001108
 **** Fit      -0.003991
 **** Fit      -0.006892
 **** Fit      -0.004518
 **** Fit      -0.001412
 **** Fit       0.001035
 **** Fit       0.001482
 **** Fit      -0.001169
 **** Fit       0.016786
 **** Fit       0.010292
 **** Fit       0.006199
 **** Fit       0.003822
 **** Fit       0.002753
 **** Fit       0.002873
 **** Fit       0.003844
 **** Fit       0.004824
 **** Fit       0.004648
 **** Fit       0.002149
 **** Fit      -0.003658
 **** Fit       0.024388
 **** Fit       0.018376
 **** Fit       0.014113
 **** Fit       0.011446
 **** Fit       0.010020
 **** Fit       0.009418
 **** Fit       0.008956
 **** Fit       0.007604
 **** Fit       0.004199
 **** Fit      -0.002260
 **** Fit      -0.011541
 **** Fit       0.027679
 **** Fit       0.023162
 **** Fit       0.019245
 **** Fit       0.016397
 **** Fit       0.014427
 **** Fit       0.012756
 **** Fit       0.010454
 **** Fit       0.006400
 **** Fit      -0.000347
 **** Fit      -0.009410
 **** Fit       0.026843
 **** Fit       0.024385
 **** Fit       0.021156
 **** Fit       0.018200
 **** Fit       0.015405
 **** Fit       0.011862
 **** Fit       0.006393
 **** Fit      -0.001605
 **** Fit      -0.008453
 **** Fit       0.001757
 **** Fit       0.022524
 **** Fit       0.022926
 **** Fit       0.020638
 **** Fit       0.017220
 **** Fit       0.012629
 **** Fit       0.006014
 **** Fit      -0.001762
 **** Fit      -0.006665
 **** Fit      -0.004721
 **** Fit       0.002845
 **** Fit       0.011451
 **** Fit       0.018391
 **** Fit       0.018082
 **** Fit       0.017825
 **** Fit       0.012893
 **** Fit       0.006195
 **** Fit       0.005313
 **** Fit       0.012257
 **** Fit       0.012749
 **** Fit      -0.011256
 **** Fit       0.001067
 **** Fit      -0.005472
 **** Fit       0.030343
 **** Fit       0.005048
 **** Fit       0.017632
 **** Fit      -0.010672
 **** Fit       0.000036
 **** Fit       0.011239
 **** Fit      -0.008781
 **** Fit       0.000221
 **** Fit       0.010132
 **** Fit       0.020032
 **** Fit      -0.007348
 **** Fit      -0.001056
 **** Fit       0.007160
 **** Fit       0.016014
 **** Fit      -0.001826
 **** Fit      -0.002947
 **** Fit       0.000136
 **** Fit       0.006058
 **** Fit       0.013395
 **** Fit       0.021022
 **** Fit       0.042654
 **** Fit       0.042406
 **** Fit       0.026729
 **** Fit       0.026190
 **** Fit       0.009352
 **** Fit       0.004348
 **** Fit       0.002905
 **** Fit       0.005229
 **** Fit       0.010301
 **** Fit       0.016728
 **** Fit       0.023282
 **** Fit       0.029040
 **** Fit       0.033421
 **** Fit       0.036241
 **** Fit       0.037722
 **** Fit       0.038326
 **** Fit       0.025513
 **** Fit       0.023304
 **** Fit       0.020456
 **** Fit       0.016154
 **** Fit       0.011316
 **** Fit       0.008306
 **** Fit       0.008818
 **** Fit       0.012640
 **** Fit       0.018278
 **** Fit       0.024066
 **** Fit       0.028794
 **** Fit       0.031945
 **** Fit       0.033651
 **** Fit       0.029907
 **** Fit       0.024790
 **** Fit       0.021550
 **** Fit       0.017790
 **** Fit       0.014050
 **** Fit       0.012741
 **** Fit       0.015299
 **** Fit       0.020295
 **** Fit       0.025223
 **** Fit       0.028512
 **** Fit       0.025491
 **** Fit       0.024464
 **** Fit       0.020880
 **** Fit       0.017411
 **** Fit       0.018195
 **** Fit       0.022717
 **** Fit       0.021271
 **** Fit       0.034324
 **** Fit       0.050444
 **** Fit       0.058184
 **** Fit       0.040967
 **** Fit       0.039819
 **** Fit       0.038111
 **** Fit       0.046698
 **** Fit       0.053363
 **** Fit       0.058121
 **** Fit       0.061031
 **** Fit       0.062173
 **** Fit       0.061547
 **** Fit       0.059158
 **** Fit       0.055358
 **** Fit       0.050937
 **** Fit       0.046738
 **** Fit       0.043324
 **** Fit       0.044305
 **** Fit       0.043714
 **** Fit       0.030170
 **** Fit       0.038860
 **** Fit       0.045918
 **** Fit       0.051285
 **** Fit       0.055000
 **** Fit       0.057128
 **** Fit       0.057712
 **** Fit       0.056807
 **** Fit       0.054647
 **** Fit       0.051734
 **** Fit       0.048697
 **** Fit       0.046084
 **** Fit       0.046166
 **** Fit       0.046223
 **** Fit       0.029485
 **** Fit       0.037270
 **** Fit       0.043562
 **** Fit       0.048295
 **** Fit       0.051503
 **** Fit       0.053247
 **** Fit       0.053610
 **** Fit       0.052776
 **** Fit       0.051105
 **** Fit       0.049099
 **** Fit       0.047289
 **** Fit       0.046815
 **** Fit       0.021583
 **** Fit       0.029422
 **** Fit       0.036213
 **** Fit       0.041664
 **** Fit       0.045705
 **** Fit       0.048365
 **** Fit       0.049731
 **** Fit       0.049965
 **** Fit       0.049351
 **** Fit       0.048297
 **** Fit       0.047284
 **** Fit       0.046403
 **** Fit       0.025413
 **** Fit       0.032211
 **** Fit       0.037818
 **** Fit       0.042033
 **** Fit       0.044845
 **** Fit       0.046373
 **** Fit       0.046858
 **** Fit       0.046682
 **** Fit       0.046342
 **** Fit       0.045013
 **** Fit       0.029110
 **** Fit       0.034655
 **** Fit       0.038909
 **** Fit       0.041789
 **** Fit       0.043436
 **** Fit       0.044181
 **** Fit       0.044512
 **** Fit       0.030848
 **** Fit       0.035506
 **** Fit       0.038763
 **** Fit       0.040721
 **** Fit       0.041820
 **** Fit       0.031536
 **** Fit       0.035653
 **** Fit       0.038122
 **** Fit       0.000872
 **** Fit      -0.007312
 **** Fit       0.011965
 **** Fit       0.006300
 **** Fit      -0.000227
 **** Fit      -0.008853
 **** Fit       0.017361
 **** Fit       0.012230
 **** Fit       0.006892
 **** Fit       0.000491
 **** Fit      -0.008292
 **** Fit       0.022744
 **** Fit       0.022642
 **** Fit       0.017687
 **** Fit       0.012850
 **** Fit       0.007473
 **** Fit       0.000606
 **** Fit       0.028130
 **** Fit       0.027202
 **** Fit       0.022562
 **** Fit       0.018180
 **** Fit       0.013613
 **** Fit       0.008256
 **** Fit       0.001335
 **** Fit       0.032450
 **** Fit       0.030781
 **** Fit       0.026495
 **** Fit       0.022505
 **** Fit       0.018494
 **** Fit       0.014063
 **** Fit       0.008711
 **** Fit       0.001838
 **** Fit       0.041431
 **** Fit       0.035646
 **** Fit       0.033344
 **** Fit       0.029345
 **** Fit       0.025633
 **** Fit       0.021952
 **** Fit       0.017994
 **** Fit       0.013400
 **** Fit       0.007827
 **** Fit       0.043200
 **** Fit       0.037872
 **** Fit       0.034964
 **** Fit       0.031274
 **** Fit       0.027832
 **** Fit       0.024429
 **** Fit       0.020829
 **** Fit       0.016804
 **** Fit       0.012255
 **** Fit       0.007400
 **** Fit       0.043847
 **** Fit       0.039092
 **** Fit       0.035745
 **** Fit       0.032470
 **** Fit       0.029372
 **** Fit       0.026309
 **** Fit       0.023138
 **** Fit       0.019780
 **** Fit       0.016341
 **** Fit       0.013252
 **** Fit       0.011362
 **** Fit       0.043272
 **** Fit       0.039319
 **** Fit       0.035798
 **** Fit       0.032815
 **** Fit       0.029935
 **** Fit       0.027080
 **** Fit       0.024212
 **** Fit       0.021442
 **** Fit       0.019148
 **** Fit       0.018031
 **** Fit       0.018993
 **** Fit       0.022712
 **** Fit       0.042172
 **** Fit       0.038929
 **** Fit       0.035218
 **** Fit       0.032609
 **** Fit       0.030015
 **** Fit       0.027474
 **** Fit       0.025107
 **** Fit       0.023236
 **** Fit       0.022400
 **** Fit       0.023151
 **** Fit       0.025547
 **** Fit       0.040082
 **** Fit       0.037776
 **** Fit       0.034097
 **** Fit       0.031825
 **** Fit       0.029489
 **** Fit       0.027328
 **** Fit       0.025710
 **** Fit       0.025087
 **** Fit       0.025604
 **** Fit       0.037206
 **** Fit       0.036042
 **** Fit       0.032522
 **** Fit       0.030501
 **** Fit       0.028411
 **** Fit       0.026924
 **** Fit       0.026342
 **** Fit       0.033702
 **** Fit       0.030598
 **** Fit       0.028776
 **** Fit       0.027206
 **** Fit       0.030354
 **** Fit       0.028468
 -----------------------------------------------------------------
 Leave Link  602 at Tue Sep 17 10:18:51 2019, MaxMem=  1342177280 cpu:             138.1 elap:               3.2

 Test job not archived.
 1\1\GINC-C490-112\SP\RB3LYP\SVP\C54H83Ca1N15O23\PENGZHI\17-Sep-2019\0\
 \#b3lyp/svp scf=(tight,noincore) Test #IOP(5/87=12) Density=Current Po
 p=(MK,readradii) iop(6/33=2) iop(6/42=6)\\Ng-293_loop3_44.0\\0,1\C,0,5
 3.34,26.4,11.83\C,0,53.07,27.39,10.7\O,0,52.28,27.06,9.82\H,0,54.159,2
 6.769,12.448\H,0,52.444,26.293,12.442\H,0,53.611,25.432,11.409\N,0,53.
 74,28.54,10.65\C,0,53.49,29.62,9.71\C,0,52.48,30.6,10.3\O,0,52.24,30.6
 9,11.5\C,0,54.79,30.25,9.24\C,0,55.76,30.61,10.36\O,0,56.95,30.86,10.0
 6\O,0,55.26,30.81,11.49\H,0,54.4,28.79,11.37\H,0,53.03,29.26,8.79\H,0,
 54.6,31.15,8.65\H,0,55.17,29.6,8.46\N,0,51.96,31.48,9.44\C,0,50.88,32.
 43,9.63\C,0,51.17,33.57,10.59\O,0,51.03,34.68,10.07\C,0,49.55,31.75,9.
 92\C,0,49.04,30.85,8.79\C,0,47.73,30.09,8.86\C,0,46.61,31.07,9.22\N,0,
 45.31,30.38,9.28\H,0,52.24,31.39,8.47\H,0,50.8,32.94,8.67\H,0,48.76,32
 .43,10.23\H,0,49.71,31.16,10.82\H,0,49.8,30.07,8.75\H,0,49.,31.38,7.84
 \H,0,47.91,29.18,9.44\H,0,47.51,29.82,7.83\H,0,46.74,31.77,8.4\H,0,46.
 83,31.58,10.16\H,0,45.23,29.82,10.11\H,0,44.54,31.03,9.28\H,0,45.05,29
 .86,8.45\N,0,51.58,33.34,11.84\C,0,51.65,34.33,12.89\C,0,52.61,33.94,1
 4.\O,0,52.64,32.79,14.44\C,0,50.23,34.57,13.39\C,0,50.23,35.62,14.5\O,
 0,50.51,36.83,14.35\O,0,49.86,35.15,15.6\H,0,51.59,32.36,12.11\H,0,52.
 03,35.25,12.44\H,0,49.96,33.63,13.86\H,0,49.56,34.84,12.58\N,0,53.43,3
 4.86,14.52\C,0,54.22,34.52,15.69\C,0,53.53,34.51,17.04\O,0,52.32,34.67
 ,17.15\H,0,53.4,35.8,14.16\H,0,55.02,35.27,15.74\H,0,54.68,33.56,15.43
 \N,0,54.29,34.29,18.12\C,0,53.88,34.14,19.5\C,0,54.66,34.86,20.59\O,0,
 54.19,34.86,21.73\C,0,53.89,32.62,19.64\C,0,52.8,31.83,18.93\N,0,53.26
 ,31.01,17.98\O,0,51.61,32.09,19.03\H,0,55.27,34.33,17.88\H,0,52.92,34.
 6,19.78\H,0,53.87,32.47,20.72\H,0,54.9,32.33,19.37\H,0,54.21,30.68,17.
 87\H,0,52.57,30.47,17.49\N,0,55.68,35.64,20.25\C,0,56.21,36.64,21.15\C
 ,0,57.06,36.15,22.32\O,0,57.61,35.05,22.34\H,0,55.74,35.93,19.28\H,0,5
 5.48,37.36,21.52\H,0,56.98,37.24,20.67\N,0,56.79,36.75,23.48\C,0,57.05
 ,36.24,24.82\C,0,56.49,34.87,25.15\O,0,56.76,34.31,26.22\C,0,58.5,36.3
 4,25.28\C,0,59.12,37.67,24.95\C,0,58.89,38.77,25.79\C,0,59.83,37.89,23
 .76\C,0,59.39,40.03,25.46\C,0,60.34,39.14,23.38\C,0,60.06,40.22,24.23\
 O,0,60.48,41.48,23.9\H,0,56.38,37.67,23.43\H,0,56.41,36.89,25.42\H,0,5
 9.06,35.57,24.75\H,0,58.64,36.2,26.35\H,0,58.29,38.68,26.69\H,0,60.03,
 37.06,23.1\H,0,59.38,40.85,26.16\H,0,60.89,39.26,22.46\H,0,61.18,41.37
 ,23.25\N,0,55.59,34.35,24.32\C,0,54.79,33.15,24.4\C,0,53.73,33.15,25.5
 \O,0,52.57,32.83,25.29\C,0,55.67,31.9,24.45\C,0,56.45,31.85,23.14\C,0,
 54.92,30.61,24.76\C,0,57.72,31.,23.2\H,0,55.34,34.91,23.51\H,0,54.23,3
 3.15,23.47\H,0,56.4,32.1,25.23\H,0,56.87,32.84,22.95\H,0,55.71,31.69,2
 2.36\H,0,55.59,29.76,24.93\H,0,54.38,30.73,25.7\H,0,54.1,30.33,24.1\H,
 0,57.59,29.94,23.39\H,0,58.22,31.13,22.24\H,0,58.51,31.39,23.84\N,0,54
 .04,33.54,26.74\C,0,53.06,33.94,27.73\C,0,52.28,32.85,28.45\O,0,51.3,3
 3.06,29.16\C,0,53.85,34.63,28.83\O,0,54.17,35.86,28.22\H,0,54.95,33.84
 ,27.05\H,0,52.41,34.68,27.25\H,0,54.67,34.,29.18\H,0,53.16,34.84,29.65
 \H,0,54.64,36.37,28.89\N,0,52.68,31.59,28.27\C,0,51.84,30.43,28.48\C,0
 ,50.5,30.53,27.78\O,0,49.53,29.89,28.18\C,0,51.68,30.05,29.95\H,0,53.5
 4,31.49,27.75\H,0,52.32,29.6,27.96\H,0,51.07,30.77,30.5\H,0,51.13,29.1
 1,30.06\H,0,52.68,29.83,30.34\N,0,50.38,31.31,26.7\C,0,49.22,31.63,25.
 88\C,0,48.99,30.76,24.66\O,0,49.96,30.26,24.1\C,0,49.26,33.11,25.49\H,
 0,51.19,31.86,26.48\H,0,48.32,31.56,26.5\H,0,49.39,33.77,26.35\H,0,50.
 01,33.26,24.72\H,0,48.31,33.35,25.01\N,0,47.75,30.55,24.19\C,0,47.27,2
 9.77,23.07\C,0,47.45,28.27,23.22\O,0,47.55,27.61,22.18\C,0,47.66,30.4,
 21.73\C,0,47.27,31.86,21.53\C,0,47.81,32.26,20.16\O,0,48.8,33.01,20.01
 \O,0,47.32,31.76,19.13\H,0,47.09,31.18,24.62\H,0,46.19,29.93,23.15\H,0
 ,47.07,29.79,21.05\H,0,48.72,30.28,21.51\H,0,47.65,32.51,22.31\H,0,46.
 19,31.94,21.41\N,0,47.51,27.67,24.41\C,0,48.01,26.32,24.55\H,0,48.964,
 26.339,25.078\H,0,47.294,25.724,25.116\H,0,48.15,25.88,23.563\H,0,47.2
 4,28.2,25.23\Ca,0,49.92,34.11,18.01\O,0,50.58,35.81,19.78\H,0,51.32,36
 .34,20.07\H,0,50.,35.77,20.54\\Version=ES64L-G16RevA.03\State=1-A\HF=-
 5333.3734437\RMSD=7.839e-10\Dipole=-6.6028897,3.61751,-1.2243145\Quadr
 upole=70.0885822,-54.7409185,-15.3476637,78.0132019,274.7165627,59.493
 0825\PG=C01 [X(C54H83Ca1N15O23)]\\@


 PICNIC:  A SNACK IN THE GRASS.
 Job cpu time:       0 days  8 hours 33 minutes  4.8 seconds.
 Elapsed time:       0 days  0 hours 10 minutes 50.7 seconds.
 File lengths (MBytes):  RWF=   1517 Int=      0 D2E=      0 Chk=    171 Scr=      1
 Normal termination of Gaussian 16 at Tue Sep 17 10:18:52 2019.
