 Entering Gaussian System, Link 0=g16
 Initial command:
 /home1/apps/gaussian/16rA.03/g16/l1.exe "/scratch/01990/pengzhi/4345065/Gau-219222.inp" -scrdir="/scratch/01990/pengzhi/4345065/"
 Entering Link 1 = /home1/apps/gaussian/16rA.03/g16/l1.exe PID=    219223.
  
 Copyright (c) 1988,1990,1992,1993,1995,1998,2003,2009,2016,
            Gaussian, Inc.  All Rights Reserved.
  
 This is part of the Gaussian(R) 16 program.  It is based on
 the Gaussian(R) 09 system (copyright 2009, Gaussian, Inc.),
 the Gaussian(R) 03 system (copyright 2003, Gaussian, Inc.),
 the Gaussian(R) 98 system (copyright 1998, Gaussian, Inc.),
 the Gaussian(R) 94 system (copyright 1995, Gaussian, Inc.),
 the Gaussian 92(TM) system (copyright 1992, Gaussian, Inc.),
 the Gaussian 90(TM) system (copyright 1990, Gaussian, Inc.),
 the Gaussian 88(TM) system (copyright 1988, Gaussian, Inc.),
 the Gaussian 86(TM) system (copyright 1986, Carnegie Mellon
 University), and the Gaussian 82(TM) system (copyright 1983,
 Carnegie Mellon University). Gaussian is a federally registered
 trademark of Gaussian, Inc.
  
 This software contains proprietary and confidential information,
 including trade secrets, belonging to Gaussian, Inc.
  
 This software is provided under written license and may be
 used, copied, transmitted, or stored only in accord with that
 written license.
  
 The following legend is applicable only to US Government
 contracts under FAR:
  
                    RESTRICTED RIGHTS LEGEND
  
 Use, reproduction and disclosure by the US Government is
 subject to restrictions as set forth in subparagraphs (a)
 and (c) of the Commercial Computer Software - Restricted
 Rights clause in FAR 52.227-19.
  
 Gaussian, Inc.
 340 Quinnipiac St., Bldg. 40, Wallingford CT 06492
  
  
 ---------------------------------------------------------------
 Warning -- This program may not be used in any manner that
 competes with the business of Gaussian, Inc. or will provide
 assistance to any competitor of Gaussian, Inc.  The licensee
 of this program is prohibited from giving any competitor of
 Gaussian, Inc. access to this program.  By using this program,
 the user acknowledges that Gaussian, Inc. is engaged in the
 business of creating and licensing software in the field of
 computational chemistry and represents and warrants to the
 licensee that it is not a competitor of Gaussian, Inc. and that
 it will not use this program in any manner prohibited above.
 ---------------------------------------------------------------
  

 Cite this work as:
 Gaussian 16, Revision A.03,
 M. J. Frisch, G. W. Trucks, H. B. Schlegel, G. E. Scuseria, 
 M. A. Robb, J. R. Cheeseman, G. Scalmani, V. Barone, 
 G. A. Petersson, H. Nakatsuji, X. Li, M. Caricato, A. V. Marenich, 
 J. Bloino, B. G. Janesko, R. Gomperts, B. Mennucci, H. P. Hratchian, 
 J. V. Ortiz, A. F. Izmaylov, J. L. Sonnenberg, D. Williams-Young, 
 F. Ding, F. Lipparini, F. Egidi, J. Goings, B. Peng, A. Petrone, 
 T. Henderson, D. Ranasinghe, V. G. Zakrzewski, J. Gao, N. Rega, 
 G. Zheng, W. Liang, M. Hada, M. Ehara, K. Toyota, R. Fukuda, 
 J. Hasegawa, M. Ishida, T. Nakajima, Y. Honda, O. Kitao, H. Nakai, 
 T. Vreven, K. Throssell, J. A. Montgomery, Jr., J. E. Peralta, 
 F. Ogliaro, M. J. Bearpark, J. J. Heyd, E. N. Brothers, K. N. Kudin, 
 V. N. Staroverov, T. A. Keith, R. Kobayashi, J. Normand, 
 K. Raghavachari, A. P. Rendell, J. C. Burant, S. S. Iyengar, 
 J. Tomasi, M. Cossi, J. M. Millam, M. Klene, C. Adamo, R. Cammi, 
 J. W. Ochterski, R. L. Martin, K. Morokuma, O. Farkas, 
 J. B. Foresman, and D. J. Fox, Gaussian, Inc., Wallingford CT, 2016.
 
 ******************************************
 Gaussian 16:  ES64L-G16RevA.03 25-Dec-2016
                17-Sep-2019 
 ******************************************
 %chk=Ng-293_loop3_47.0.chk
 %nprocshared=48
 Will use up to   48 processors via shared memory.
 %mem=10GB
 %nosave
 ----------------------------------------------------------------------
 #b3lyp/svp scf=(tight,noincore) Test #IOP(5/87=12) Density=Current Pop
 =(MK,readradii) iop(6/33=2) iop(6/42=6)
 ----------------------------------------------------------------------
 1/30=1,38=1,172=1/1;
 2/12=2,17=6,18=5,40=1/2;
 3/5=18,7=101,11=2,25=1,30=1,74=-5/1,2,3;
 4//1;
 5/5=4,32=2,38=5,87=12/2;
 6/7=2,8=2,9=2,10=2,15=8,20=101,22=-1,28=1,33=2,42=6/1,2;
 99/5=1,9=1/99;
 -----------------
 Ng-293_loop3_47.0
 -----------------
 Symbolic Z-matrix:
 Charge =  0 Multiplicity = 1
 C                     59.59     83.44     76.869 
 C                     60.24     82.88     75.609 
 O                     61.37     82.4      75.709 
 H                     58.58     83.042    76.964 
 H                     60.177    83.151    77.741 
 H                     59.547    84.527    76.804 
 N                     59.5      82.9      74.499 
 C                     59.81     82.38     73.189 
 C                     58.83     81.29     72.759 
 O                     57.73     81.16     73.299 
 C                     59.97     83.5      72.169 
 C                     60.8      83.06     70.969 
 O                     60.53     83.61     69.879 
 O                     61.68     82.17     71.079 
 H                     58.51     83.11     74.609 
 H                     60.83     82.02     73.319 
 H                     60.35     84.37     72.679 
 H                     58.99     83.8      71.809 
 N                     59.14     80.61     71.659 
 C                     58.38     79.6      70.939 
 C                     56.92     79.76     70.529 
 O                     56.42     78.86     69.859 
 C                     58.55     78.24     71.619 
 C                     59.96     77.8      71.969 
 C                     59.9      76.42     72.629 
 C                     61.27     76.       73.139 
 N                     61.26     74.67     73.769 
 H                     60.12     80.71     71.439 
 H                     58.9      79.57     69.989 
 H                     58.12     77.47     70.979 
 H                     57.84     78.13     72.439 
 H                     60.41     78.52     72.649 
 H                     60.66     77.78     71.129 
 H                     59.5      75.68     71.929 
 H                     59.23     76.42     73.489 
 H                     61.61     76.77     73.839 
 H                     61.98     76.       72.309 
 H                     62.12     74.41     74.219 
 H                     60.51     74.68     74.449 
 H                     60.82     73.98     73.179 
 N                     56.26     80.88     70.839 
 C                     54.98     81.23     70.249 
 C                     54.85     82.73     70.079 
 O                     55.3      83.46     70.959 
 C                     53.87     80.74     71.179 
 C                     52.43     80.82     70.689 
 O                     51.51     80.25     71.319 
 O                     52.19     81.34     69.579 
 H                     56.63     81.55     71.499 
 H                     54.86     80.78     69.269 
 H                     54.02     81.24     72.129 
 H                     53.98     79.66     71.259 
 N                     54.25     83.19     68.979 
 C                     53.81     84.56     68.789 
 C                     52.31     84.49     68.499 
 O                     51.78     83.55     67.929 
 H                     54.06     82.53     68.239 
 H                     54.25     85.13     67.969 
 H                     53.94     85.07     69.739 
 N                     51.74     85.63     68.889 
 C                     50.33     85.9      68.719 
 C                     50.11     87.29     68.139 
 O                     49.       87.59     67.699 
 C                     49.64     85.76     70.079 
 C                     49.48     84.31     70.539 
 N                     49.57     84.04     71.839 
 O                     49.34     83.34     69.799 
 H                     52.36     86.33     69.269 
 H                     49.9      85.07     68.159 
 H                     48.67     86.25     70.049 
 H                     50.22     86.41     70.729 
 H                     49.7      84.77     72.519 
 H                     49.31     83.1      72.119 
 N                     51.07     88.22     68.129 
 C                     51.12     89.47     67.389 
 C                     50.04     90.49     67.729 
 O                     50.08     90.97     68.859 
 H                     51.94     88.       68.579 
 H                     51.08     89.29     66.319 
 H                     52.04     90.       67.629 
 N                     49.11     90.82     66.839 
 C                     47.81     91.42     67.099 
 C                     47.04     90.83     68.259 
 O                     46.16     91.48     68.819 
 C                     47.99     92.94     67.179 
 C                     48.67     93.58     65.999 
 C                     50.01     93.99     66.049 
 C                     47.93     93.83     64.839 
 C                     50.58     94.61     64.939 
 C                     48.53     94.39     63.699 
 C                     49.89     94.77     63.719 
 O                     50.5      95.48     62.729 
 H                     49.19     90.39     65.929 
 H                     47.12     91.25     66.269 
 H                     48.53     93.1      68.109 
 H                     46.99     93.35     67.329 
 H                     50.6      93.77     66.919 
 H                     46.88     93.58     64.889 
 H                     51.61     94.94     64.869 
 H                     48.01     94.56     62.769 
 H                     49.93     95.67     61.979 
 N                     47.3      89.56     68.609 
 C                     46.62     88.64     69.509 
 C                     45.18     88.33     69.139 
 O                     44.79     87.2      68.869 
 C                     46.81     89.01     70.979 
 C                     48.26     89.25     71.399 
 C                     46.32     87.87     71.859 
 C                     48.43     89.88     72.779 
 H                     48.13     89.18     68.189 
 H                     47.12     87.69     69.359 
 H                     46.2      89.86     71.269 
 H                     48.6      90.03     70.709 
 H                     48.94     88.42     71.279 
 H                     46.78     86.9      71.679 
 H                     46.36     88.15     72.909 
 H                     45.24     87.77     71.719 
 H                     49.47     90.02     73.079 
 H                     48.18     90.93     72.619 
 H                     47.82     89.42     73.559 
 N                     44.36     89.36     68.919 
 C                     43.07     89.2      68.279 
 C                     42.01     88.53     69.129 
 O                     41.04     88.06     68.539 
 C                     42.68     90.59     67.759 
 O                     42.62     91.41     68.899 
 H                     44.78     90.27     69.069 
 H                     43.25     88.62     67.369 
 H                     41.67     90.56     67.339 
 H                     43.41     90.85     66.999 
 H                     41.78     91.87     68.919 
 N                     42.18     88.41     70.449 
 C                     41.36     87.76     71.449 
 C                     41.33     86.24     71.309 
 O                     40.42     85.59     71.819 
 C                     39.99     88.41     71.469 
 H                     43.01     88.86     70.839 
 H                     41.79     87.96     72.429 
 H                     40.04     89.46     71.169 
 H                     39.3      87.85     70.829 
 H                     39.7      88.35     72.509 
 N                     42.36     85.74     70.629 
 C                     42.65     84.33     70.449 
 C                     44.       83.95     71.059 
 O                     44.82     84.84     71.259 
 C                     42.55     84.14     68.939 
 H                     43.04     86.35     70.199 
 H                     41.84     83.71     70.819 
 H                     42.55     83.1      68.639 
 H                     41.63     84.56     68.549 
 H                     43.43     84.53     68.419 
 N                     44.14     82.7      71.499 
 C                     45.17     82.27     72.429 
 C                     45.44     83.1      73.669 
 O                     46.4      82.81     74.389 
 C                     46.42     81.95     71.619 
 C                     46.14     80.98     70.469 
 C                     47.28     81.08     69.469 
 O                     47.19     81.88     68.509 
 O                     48.29     80.34     69.579 
 H                     43.38     82.07     71.269 
 H                     44.8      81.3      72.759 
 H                     47.21     81.51     72.219 
 H                     46.71     82.94     71.269 
 H                     45.18     81.17     70.009 
 H                     46.04     80.       70.949 
 N                     44.62     84.09     74.049 
 C                     44.6      84.89     75.249 
 H                     43.832    85.659    75.16 
 H                     44.379    84.254    76.106 
 H                     45.572    85.363    75.387 
 H                     43.88     84.23     73.379 
 Ca                    50.06     81.46     68.15 
 O                     48.7      80.62     66.02 
 H                     47.92     80.16     66.32 
 H                     48.66     80.54     65.06 
 
 Stoichiometry    C54H83CaN15O23
 Framework group  C1[X(C54H83CaN15O23)]
 Deg. of freedom   522
 Full point group                 C1      NOp   1
 Largest Abelian subgroup         C1      NOp   1
 Largest concise Abelian subgroup C1      NOp   1
                         Standard orientation:                         
 ---------------------------------------------------------------------
 Center     Atomic      Atomic             Coordinates (Angstroms)
 Number     Number       Type             X           Y           Z
 ---------------------------------------------------------------------
      1          6           0        9.910612    1.438524    5.907925
      2          6           0       10.489816    1.884102    4.570134
      3          8           0       11.693915    2.139036    4.520584
      4          1           0        9.313992    0.538153    5.763335
      5          1           0       10.722454    1.227465    6.604229
      6          1           0        9.280668    2.229942    6.313476
      7          7           0        9.648435    1.903743    3.534860
      8          6           0        9.917205    2.204272    2.149203
      9          6           0        9.609719    1.018873    1.236142
     10          8           0        8.885478    0.091592    1.602373
     11          6           0        9.243856    3.501547    1.720160
     12          6           0        9.918626    4.113775    0.498537
     13          8           0        9.183337    4.778645   -0.263564
     14          8           0       11.138978    3.924385    0.267294
     15          1           0        8.745950    1.451387    3.665984
     16          1           0       10.972888    2.472461    2.171744
     17          1           0        9.192866    4.154990    2.575620
     18          1           0        8.206779    3.300692    1.466924
     19          7           0       10.006380    1.122410   -0.028943
     20          6           0        9.778201    0.231588   -1.156095
     21          6           0        8.412126   -0.324898   -1.542698
     22          8           0        8.348489   -1.007018   -2.562288
     23          6           0       10.782251   -0.922216   -1.117120
     24          6           0       12.245027   -0.574877   -0.907735
     25          6           0       13.067039   -1.866348   -0.908885
     26          6           0       14.518514   -1.588590   -0.549065
     27          7           0       15.348758   -2.803737   -0.552849
     28          1           0       10.712652    1.836848   -0.126706
     29          1           0       10.029603    0.869945   -1.994604
     30          1           0       10.712536   -1.481451   -2.049749
     31          1           0       10.423683   -1.720605   -0.467039
     32          1           0       12.365959   -0.055999    0.040653
     33          1           0       12.660917    0.130907   -1.632238
     34          1           0       12.993805   -2.363674   -1.880946
     35          1           0       12.690492   -2.577299   -0.173180
     36          1           0       14.526468   -1.103554    0.432351
     37          1           0       14.933922   -0.866404   -1.255382
     38          1           0       16.284099   -2.676544   -0.208379
     39          1           0       14.864975   -3.483841    0.020224
     40          1           0       15.238104   -3.329631   -1.406658
     41          7           0        7.333801   -0.004198   -0.821265
     42          6           0        5.977511   -0.251018   -1.277948
     43          6           0        5.034076    0.831725   -0.794835
     44          8           0        5.189931    1.281144    0.338095
     45          6           0        5.516209   -1.595564   -0.715370
     46          6           0        4.193236   -2.168194   -1.207243
     47          8           0        3.870218   -3.347806   -0.938219
     48          8           0        3.494585   -1.500419   -1.998485
     49          1           0        7.411817    0.440482    0.082932
     50          1           0        5.922472   -0.270683   -2.361408
     51          1           0        5.563070   -1.510948    0.364280
     52          1           0        6.200401   -2.349545   -1.100461
     53          7           0        4.074165    1.247294   -1.623976
     54          6           0        2.941905    2.066840   -1.232912
     55          6           0        1.690231    1.274213   -1.612457
     56          8           0        1.643517    0.507561   -2.560857
     57          1           0        4.122376    0.942940   -2.585404
     58          1           0        2.832830    3.046404   -1.701374
     59          1           0        2.967006    2.147360   -0.150144
     60          7           0        0.691158    1.629949   -0.805050
     61          6           0       -0.644417    1.089852   -0.925193
     62          6           0       -1.685405    2.198685   -0.864103
     63          8           0       -2.845255    1.954601   -1.197076
     64          6           0       -0.861785    0.073822    0.199855
     65          6           0       -0.124644   -1.248711   -0.017470
     66          7           0        0.355438   -1.892773    1.043522
     67          8           0        0.130450   -1.750197   -1.109047
     68          1           0        0.901861    2.346047   -0.125633
     69          1           0       -0.665921    0.456266   -1.811481
     70          1           0       -1.925860   -0.109711    0.326187
     71          1           0       -0.602780    0.627200    1.098793
     72          1           0        0.208463   -1.548582    1.977402
     73          1           0        0.701420   -2.832018    0.877044
     74          7           0       -1.397327    3.425109   -0.417453
     75          6           0       -2.174099    4.646996   -0.544801
     76          6           0       -3.537485    4.644594    0.136062
     77          8           0       -3.533930    4.583046    1.362886
     78          1           0       -0.475182    3.587093   -0.055224
     79          1           0       -2.326080    4.903812   -1.588758
     80          1           0       -1.654488    5.463704   -0.046914
     81          7           0       -4.656315    4.697349   -0.579017
     82          6           0       -5.991606    4.294938   -0.163490
     83          6           0       -6.074125    2.982720    0.583421
     84          8           0       -7.031153    2.740415    1.315464
     85          6           0       -6.641049    5.472591    0.571735
     86          6           0       -6.663152    6.777686   -0.177023
     87          6           0       -5.772994    7.818807    0.122788
     88          6           0       -7.637658    6.983865   -1.158618
     89          6           0       -5.860554    9.019942   -0.577932
     90          6           0       -7.674543    8.169912   -1.910372
     91          6           0       -6.757965    9.212087   -1.649302
     92          8           0       -6.836694   10.455412   -2.200885
     93          1           0       -4.543861    4.779107   -1.579052
     94          1           0       -6.633924    4.097332   -1.025046
     95          1           0       -6.096317    5.539257    1.510310
     96          1           0       -7.650690    5.144727    0.824183
     97          1           0       -4.996010    7.660427    0.847088
     98          1           0       -8.355343    6.185703   -1.282576
     99          1           0       -5.206108    9.872615   -0.438830
    100          1           0       -8.379424    8.354736   -2.706099
    101          1           0       -7.557053   10.557295   -2.828740
    102          7           0       -5.110836    2.072193    0.368911
    103          6           0       -4.995309    0.670792    0.745114
    104          6           0       -6.085457   -0.231653    0.193960
    105          8           0       -5.855237   -1.172048   -0.557409
    106          6           0       -4.741363    0.484050    2.239951
    107          6           0       -3.595489    1.322063    2.806703
    108          6           0       -4.356265   -0.961714    2.514845
    109          6           0       -3.515183    1.347663    4.330873
    110          1           0       -4.311098    2.428810   -0.123982
    111          1           0       -4.106997    0.321418    0.231462
    112          1           0       -5.638234    0.644396    2.830384
    113          1           0       -3.872790    2.347687    2.539681
    114          1           0       -2.617651    1.150849    2.382181
    115          1           0       -3.496112   -1.336876    1.963219
    116          1           0       -4.261814   -1.138094    3.583708
    117          1           0       -5.217079   -1.594893    2.282284
    118          1           0       -2.676370    1.925813    4.722455
    119          1           0       -4.314301    2.030899    4.622759
    120          1           0       -3.612498    0.366816    4.800522
    121          7           0       -7.353634    0.135927    0.389695
    122          6           0       -8.455333   -0.468485   -0.331585
    123          6           0       -8.795416   -1.884878    0.084556
    124          8           0       -9.458633   -2.552074   -0.705946
    125          6           0       -9.623722    0.520659   -0.226408
    126          8           0       -9.882111    0.645803    1.149519
    127          1           0       -7.465699    0.979345    0.940230
    128          1           0       -8.180577   -0.439007   -1.390141
    129          1           0      -10.520937    0.085649   -0.677153
    130          1           0       -9.316915    1.416544   -0.756843
    131          1           0      -10.813404    0.495181    1.315671
    132          7           0       -8.325922   -2.381979    1.232670
    133          6           0       -8.449583   -3.704898    1.806685
    134          6           0       -7.689149   -4.774235    1.026199
    135          8           0       -7.985325   -5.960330    1.153316
    136          6           0       -9.917388   -4.018650    2.023266
    137          1           0       -7.807146   -1.732210    1.826111
    138          1           0       -8.006437   -3.690861    2.801031
    139          1           0      -10.498553   -3.111107    2.206604
    140          1           0      -10.312785   -4.572929    1.165515
    141          1           0       -9.913803   -4.626237    2.917763
    142          7           0       -6.713467   -4.291449    0.259216
    143          6           0       -5.757386   -5.083436   -0.491294
    144          6           0       -4.323584   -4.826314   -0.025352
    145          8           0       -4.086685   -3.789177    0.585160
    146          6           0       -6.041848   -4.699196   -1.939618
    147          1           0       -6.568492   -3.295941    0.173513
    148          1           0       -6.015756   -6.137123   -0.471596
    149          1           0       -5.545832   -5.340825   -2.656472
    150          1           0       -7.099940   -4.767107   -2.164848
    151          1           0       -5.633193   -3.715507   -2.189130
    152          7           0       -3.451330   -5.825056   -0.157215
    153          6           0       -2.188895   -5.909056    0.556858
    154          6           0       -2.161737   -5.627353    2.046591
    155          8           0       -1.073926   -5.568718    2.627393
    156          6           0       -1.155189   -5.120319   -0.237085
    157          6           0       -1.097525   -5.544107   -1.706397
    158          6           0       -0.417043   -4.439418   -2.497730
    159          8           0       -1.112224   -3.540164   -3.024766
    160          8           0        0.829717   -4.445741   -2.656939
    161          1           0       -3.784148   -6.627381   -0.679619
    162          1           0       -1.907047   -6.951864    0.416100
    163          1           0       -0.150771   -5.221456    0.161183
    164          1           0       -1.517403   -4.100776   -0.110466
    165          1           0       -2.079476   -5.775261   -2.095806
    166          1           0       -0.558590   -6.498211   -1.700398
    167          7           0       -3.287690   -5.519084    2.765901
    168          6           0       -3.490477   -5.408767    4.189666
    169          1           0       -4.549968   -5.251790    4.394469
    170          1           0       -3.158954   -6.326019    4.676008
    171          1           0       -2.918244   -4.564830    4.574211
    172          1           0       -4.104672   -5.580946    2.178691
    173         20           0        1.394990   -2.076032   -3.359995
    174          8           0        0.299633   -2.643356   -5.720173
    175          1           0       -0.033822   -3.536707   -5.693110
    176          1           0        0.116301   -2.355982   -6.622063
 ---------------------------------------------------------------------
 Rotational constants (GHZ):           0.0207026           0.0074521           0.0061824
 Standard basis: SVP (5D, 7F)
 There are  1809 symmetry adapted cartesian basis functions of A   symmetry.
 There are  1717 symmetry adapted basis functions of A   symmetry.
  1717 basis functions,  2922 primitive gaussians,  1809 cartesian basis functions
   358 alpha electrons      358 beta electrons
       nuclear repulsion energy     18782.1152127979 Hartrees.
 NAtoms=  176 NActive=  176 NUniq=  176 SFac= 1.00D+00 NAtFMM=   60 NAOKFM=T Big=T
 Integral buffers will be    131072 words long.
 Raffenetti 2 integral format.
 Two-electron integral symmetry is turned on.
 One-electron integrals computed using PRISM.
 NBasis=  1717 RedAO= T EigKep=  2.81D-04  NBF=  1717
 NBsUse=  1717 1.00D-06 EigRej= -1.00D+00 NBFU=  1717
 ExpMin= 1.98D-02 ExpMax= 3.51D+04 ExpMxC= 5.28D+03 IAcc=3 IRadAn=         5 AccDes= 0.00D+00
 Harris functional with IExCor=  402 and IRadAn=       5 diagonalized for initial guess.
 HarFok:  IExCor=  402 AccDes= 0.00D+00 IRadAn=         5 IDoV= 1 UseB2=F ITyADJ=14
 ICtDFT=  3500011 ScaDFX=  1.000000  1.000000  1.000000  1.000000
 FoFCou: FMM=F IPFlag=           0 FMFlag=      100000 FMFlg1=        2001
         NFxFlg=           0 DoJE=T BraDBF=F KetDBF=T FulRan=T
         wScrn=  0.000000 ICntrl=       500 IOpCl=  0 I1Cent=   200000004 NGrid=           0
         NMat0=    1 NMatS0=      1 NMatT0=    0 NMatD0=    1 NMtDS0=    0 NMtDT0=    0
 Petite list used in FoFCou.
 Requested convergence on RMS density matrix=1.00D-08 within 128 cycles.
 Requested convergence on MAX density matrix=1.00D-06.
 Requested convergence on             energy=1.00D-06.
 No special actions if energy rises.
 EnCoef did     2 forward-backward iterations
 EnCoef did     3 forward-backward iterations
 EnCoef did     3 forward-backward iterations
 Rare condition: small coef for last iteration:  0.000D+00
 Restarting incremental Fock formation.
 SCF Done:  E(RB3LYP) =  -5333.42912411     A.U. after   26 cycles
            NFock= 26  Conv=0.21D-08     -V/T= 2.0081
 SCF density gives NOpUse=  1 NOpAll=  1.
 Hyperfine terms turned off by default for NAtoms > 100.

 **********************************************************************

            Population analysis using the SCF density.

 **********************************************************************

 Orbital symmetries:
 BldTbl:  Degeneracy threshold= 1.00D-02
       Occupied  (A) (A) (A) (A) (A) (A) (A) (A) (A) (A) (A) (A)
                 (A) (A) (A) (A) (A) (A) (A) (A) (A) (A) (A) (A)
                 (A) (A) (A) (A) (A) (A) (A) (A) (A) (A) (A) (A)
                 (A) (A) (A) (A) (A) (A) (A) (A) (A) (A) (A) (A)
                 (A) (A) (A) (A) (A) (A) (A) (A) (A) (A) (A) (A)
                 (A) (A) (A) (A) (A) (A) (A) (A) (A) (A) (A) (A)
                 (A) (A) (A) (A) (A) (A) (A) (A) (A) (A) (A) (A)
                 (A) (A) (A) (A) (A) (A) (A) (A) (A) (A) (A) (A)
                 (A) (A) (A) (A) (A) (A) (A) (A) (A) (A) (A) (A)
                 (A) (A) (A) (A) (A) (A) (A) (A) (A) (A) (A) (A)
                 (A) (A) (A) (A) (A) (A) (A) (A) (A) (A) (A) (A)
                 (A) (A) (A) (A) (A) (A) (A) (A) (A) (A) (A) (A)
                 (A) (A) (A) (A) (A) (A) (A) (A) (A) (A) (A) (A)
                 (A) (A) (A) (A) (A) (A) (A) (A) (A) (A) (A) (A)
                 (A) (A) (A) (A) (A) (A) (A) (A) (A) (A) (A) (A)
                 (A) (A) (A) (A) (A) (A) (A) (A) (A) (A) (A) (A)
                 (A) (A) (A) (A) (A) (A) (A) (A) (A) (A) (A) (A)
                 (A) (A) (A) (A) (A) (A) (A) (A) (A) (A) (A) (A)
                 (A) (A) (A) (A) (A) (A) (A) (A) (A) (A) (A) (A)
                 (A) (A) (A) (A) (A) (A) (A) (A) (A) (A) (A) (A)
                 (A) (A) (A) (A) (A) (A) (A) (A) (A) (A) (A) (A)
                 (A) (A) (A) (A) (A) (A) (A) (A) (A) (A) (A) (A)
                 (A) (A) (A) (A) (A) (A) (A) (A) (A) (A) (A) (A)
                 (A) (A) (A) (A) (A) (A) (A) (A) (A) (A) (A) (A)
                 (A) (A) (A) (A) (A) (A) (A) (A) (A) (A) (A) (A)
                 (A) (A) (A) (A) (A) (A) (A) (A) (A) (A) (A) (A)
                 (A) (A) (A) (A) (A) (A) (A) (A) (A) (A) (A) (A)
                 (A) (A) (A) (A) (A) (A) (A) (A) (A) (A) (A) (A)
                 (A) (A) (A) (A) (A) (A) (A) (A) (A) (A) (A) (A)
                 (A) (A) (A) (A) (A) (A) (A) (A) (A) (A)
       Virtual   (A) (A) (A) (A) (A) (A) (A) (A) (A) (A) (A) (A)
                 (A) (A) (A) (A) (A) (A) (A) (A) (A) (A) (A) (A)
                 (A) (A) (A) (A) (A) (A) (A) (A) (A) (A) (A) (A)
                 (A) (A) (A) (A) (A) (A) (A) (A) (A) (A) (A) (A)
                 (A) (A) (A) (A) (A) (A) (A) (A) (A) (A) (A) (A)
                 (A) (A) (A) (A) (A) (A) (A) (A) (A) (A) (A) (A)
                 (A) (A) (A) (A) (A) (A) (A) (A) (A) (A) (A) (A)
                 (A) (A) (A) (A) (A) (A) (A) (A) (A) (A) (A) (A)
                 (A) (A) (A) (A) (A) (A) (A) (A) (A) (A) (A) (A)
                 (A) (A) (A) (A) (A) (A) (A) (A) (A) (A) (A) (A)
                 (A) (A) (A) (A) (A) (A) (A) (A) (A) (A) (A) (A)
                 (A) (A) (A) (A) (A) (A) (A) (A) (A) (A) (A) (A)
                 (A) (A) (A) (A) (A) (A) (A) (A) (A) (A) (A) (A)
                 (A) (A) (A) (A) (A) (A) (A) (A) (A) (A) (A) (A)
                 (A) (A) (A) (A) (A) (A) (A) (A) (A) (A) (A) (A)
                 (A) (A) (A) (A) (A) (A) (A) (A) (A) (A) (A) (A)
                 (A) (A) (A) (A) (A) (A) (A) (A) (A) (A) (A) (A)
                 (A) (A) (A) (A) (A) (A) (A) (A) (A) (A) (A) (A)
                 (A) (A) (A) (A) (A) (A) (A) (A) (A) (A) (A) (A)
                 (A) (A) (A) (A) (A) (A) (A) (A) (A) (A) (A) (A)
                 (A) (A) (A) (A) (A) (A) (A) (A) (A) (A) (A) (A)
                 (A) (A) (A) (A) (A) (A) (A) (A) (A) (A) (A) (A)
                 (A) (A) (A) (A) (A) (A) (A) (A) (A) (A) (A) (A)
                 (A) (A) (A) (A) (A) (A) (A) (A) (A) (A) (A) (A)
                 (A) (A) (A) (A) (A) (A) (A) (A) (A) (A) (A) (A)
                 (A) (A) (A) (A) (A) (A) (A) (A) (A) (A) (A) (A)
                 (A) (A) (A) (A) (A) (A) (A) (A) (A) (A) (A) (A)
                 (A) (A) (A) (A) (A) (A) (A) (A) (A) (A) (A) (A)
                 (A) (A) (A) (A) (A) (A) (A) (A) (A) (A) (A) (A)
                 (A) (A) (A) (A) (A) (A) (A) (A) (A) (A) (A) (A)
                 (A) (A) (A) (A) (A) (A) (A) (A) (A) (A) (A) (A)
                 (A) (A) (A) (A) (A) (A) (A) (A) (A) (A) (A) (A)
                 (A) (A) (A) (A) (A) (A) (A) (A) (A) (A) (A) (A)
                 (A) (A) (A) (A) (A) (A) (A) (A) (A) (A) (A) (A)
                 (A) (A) (A) (A) (A) (A) (A) (A) (A) (A) (A) (A)
                 (A) (A) (A) (A) (A) (A) (A) (A) (A) (A) (A) (A)
                 (A) (A) (A) (A) (A) (A) (A) (A) (A) (A) (A) (A)
                 (A) (A) (A) (A) (A) (A) (A) (A) (A) (A) (A) (A)
                 (A) (A) (A) (A) (A) (A) (A) (A) (A) (A) (A) (A)
                 (A) (A) (A) (A) (A) (A) (A) (A) (A) (A) (A) (A)
                 (A) (A) (A) (A) (A) (A) (A) (A) (A) (A) (A) (A)
                 (A) (A) (A) (A) (A) (A) (A) (A) (A) (A) (A) (A)
                 (A) (A) (A) (A) (A) (A) (A) (A) (A) (A) (A) (A)
                 (A) (A) (A) (A) (A) (A) (A) (A) (A) (A) (A) (A)
                 (A) (A) (A) (A) (A) (A) (A) (A) (A) (A) (A) (A)
                 (A) (A) (A) (A) (A) (A) (A) (A) (A) (A) (A) (A)
                 (A) (A) (A) (A) (A) (A) (A) (A) (A) (A) (A) (A)
                 (A) (A) (A) (A) (A) (A) (A) (A) (A) (A) (A) (A)
                 (A) (A) (A) (A) (A) (A) (A) (A) (A) (A) (A) (A)
                 (A) (A) (A) (A) (A) (A) (A) (A) (A) (A) (A) (A)
                 (A) (A) (A) (A) (A) (A) (A) (A) (A) (A) (A) (A)
                 (A) (A) (A) (A) (A) (A) (A) (A) (A) (A) (A) (A)
                 (A) (A) (A) (A) (A) (A) (A) (A) (A) (A) (A) (A)
                 (A) (A) (A) (A) (A) (A) (A) (A) (A) (A) (A) (A)
                 (A) (A) (A) (A) (A) (A) (A) (A) (A) (A) (A) (A)
                 (A) (A) (A) (A) (A) (A) (A) (A) (A) (A) (A) (A)
                 (A) (A) (A) (A) (A) (A) (A) (A) (A) (A) (A) (A)
                 (A) (A) (A) (A) (A) (A) (A) (A) (A) (A) (A) (A)
                 (A) (A) (A) (A) (A) (A) (A) (A) (A) (A) (A) (A)
                 (A) (A) (A) (A) (A) (A) (A) (A) (A) (A) (A) (A)
                 (A) (A) (A) (A) (A) (A) (A) (A) (A) (A) (A) (A)
                 (A) (A) (A) (A) (A) (A) (A) (A) (A) (A) (A) (A)
                 (A) (A) (A) (A) (A) (A) (A) (A) (A) (A) (A) (A)
                 (A) (A) (A) (A) (A) (A) (A) (A) (A) (A) (A) (A)
                 (A) (A) (A) (A) (A) (A) (A) (A) (A) (A) (A) (A)
                 (A) (A) (A) (A) (A) (A) (A) (A) (A) (A) (A) (A)
                 (A) (A) (A) (A) (A) (A) (A) (A) (A) (A) (A) (A)
                 (A) (A) (A) (A) (A) (A) (A) (A) (A) (A) (A) (A)
                 (A) (A) (A) (A) (A) (A) (A) (A) (A) (A) (A) (A)
                 (A) (A) (A) (A) (A) (A) (A) (A) (A) (A) (A) (A)
                 (A) (A) (A) (A) (A) (A) (A) (A) (A) (A) (A) (A)
                 (A) (A) (A) (A) (A) (A) (A) (A) (A) (A) (A) (A)
                 (A) (A) (A) (A) (A) (A) (A) (A) (A) (A) (A) (A)
                 (A) (A) (A) (A) (A) (A) (A) (A) (A) (A) (A) (A)
                 (A) (A) (A) (A) (A) (A) (A) (A) (A) (A) (A) (A)
                 (A) (A) (A) (A) (A) (A) (A) (A) (A) (A) (A) (A)
                 (A) (A) (A) (A) (A) (A) (A) (A) (A) (A) (A) (A)
                 (A) (A) (A) (A) (A) (A) (A) (A) (A) (A) (A) (A)
                 (A) (A) (A) (A) (A) (A) (A) (A) (A) (A) (A) (A)
                 (A) (A) (A) (A) (A) (A) (A) (A) (A) (A) (A) (A)
                 (A) (A) (A) (A) (A) (A) (A) (A) (A) (A) (A) (A)
                 (A) (A) (A) (A) (A) (A) (A) (A) (A) (A) (A) (A)
                 (A) (A) (A) (A) (A) (A) (A) (A) (A) (A) (A) (A)
                 (A) (A) (A) (A) (A) (A) (A) (A) (A) (A) (A) (A)
                 (A) (A) (A) (A) (A) (A) (A) (A) (A) (A) (A) (A)
                 (A) (A) (A) (A) (A) (A) (A) (A) (A) (A) (A) (A)
                 (A) (A) (A) (A) (A) (A) (A) (A) (A) (A) (A) (A)
                 (A) (A) (A) (A) (A) (A) (A) (A) (A) (A) (A) (A)
                 (A) (A) (A) (A) (A) (A) (A) (A) (A) (A) (A) (A)
                 (A) (A) (A) (A) (A) (A) (A) (A) (A) (A) (A) (A)
                 (A) (A) (A) (A) (A) (A) (A) (A) (A) (A) (A) (A)
                 (A) (A) (A) (A) (A) (A) (A) (A) (A) (A) (A) (A)
                 (A) (A) (A) (A) (A) (A) (A) (A) (A) (A) (A) (A)
                 (A) (A) (A) (A) (A) (A) (A) (A) (A) (A) (A) (A)
                 (A) (A) (A) (A) (A) (A) (A) (A) (A) (A) (A) (A)
                 (A) (A) (A) (A) (A) (A) (A) (A) (A) (A) (A) (A)
                 (A) (A) (A) (A) (A) (A) (A) (A) (A) (A) (A) (A)
                 (A) (A) (A) (A) (A) (A) (A) (A) (A) (A) (A) (A)
                 (A) (A) (A) (A) (A) (A) (A) (A) (A) (A) (A) (A)
                 (A) (A) (A) (A) (A) (A) (A) (A) (A) (A) (A) (A)
                 (A) (A) (A) (A) (A) (A) (A) (A) (A) (A) (A) (A)
                 (A) (A) (A) (A) (A) (A) (A) (A) (A) (A) (A) (A)
                 (A) (A) (A) (A) (A) (A) (A) (A) (A) (A) (A) (A)
                 (A) (A) (A) (A) (A) (A) (A) (A) (A) (A) (A) (A)
                 (A) (A) (A) (A) (A) (A) (A) (A) (A) (A) (A) (A)
                 (A) (A) (A) (A) (A) (A) (A) (A) (A) (A) (A) (A)
                 (A) (A) (A) (A) (A) (A) (A) (A) (A) (A) (A) (A)
                 (A) (A) (A) (A) (A) (A) (A) (A) (A) (A) (A) (A)
                 (A) (A) (A) (A) (A) (A) (A) (A) (A) (A) (A) (A)
                 (A) (A) (A) (A) (A) (A) (A) (A) (A) (A) (A) (A)
                 (A) (A) (A) (A) (A) (A) (A) (A) (A) (A) (A) (A)
                 (A) (A) (A) (A) (A) (A) (A) (A) (A) (A) (A) (A)
                 (A) (A) (A) (A) (A) (A) (A) (A) (A) (A) (A) (A)
                 (A) (A) (A)
 The electronic state is 1-A.
 Alpha  occ. eigenvalues -- -145.40446 -19.19457 -19.17422 -19.14986 -19.14386
 Alpha  occ. eigenvalues --  -19.13573 -19.12092 -19.12056 -19.10945 -19.09259
 Alpha  occ. eigenvalues --  -19.09095 -19.08091 -19.07622 -19.07606 -19.07086
 Alpha  occ. eigenvalues --  -19.06772 -19.06416 -19.04333 -19.03585 -19.03149
 Alpha  occ. eigenvalues --  -19.03053 -18.99805 -18.96886 -18.95640 -15.46304
 Alpha  occ. eigenvalues --  -14.57758 -14.41226 -14.40367 -14.38695 -14.36096
 Alpha  occ. eigenvalues --  -14.35647 -14.35190 -14.34602 -14.34376 -14.33742
 Alpha  occ. eigenvalues --  -14.33578 -14.33084 -14.31658 -14.31653 -14.30317
 Alpha  occ. eigenvalues --  -12.59919 -12.59885 -12.59821 -10.33834 -10.33606
 Alpha  occ. eigenvalues --  -10.32584 -10.31299 -10.31253 -10.29665 -10.27820
 Alpha  occ. eigenvalues --  -10.27706 -10.27611 -10.27493 -10.27205 -10.26685
 Alpha  occ. eigenvalues --  -10.26622 -10.26424 -10.26109 -10.25935 -10.25845
 Alpha  occ. eigenvalues --  -10.25748 -10.24676 -10.24659 -10.24082 -10.23718
 Alpha  occ. eigenvalues --  -10.23263 -10.23125 -10.22796 -10.22526 -10.22312
 Alpha  occ. eigenvalues --  -10.22306 -10.22303 -10.21992 -10.21877 -10.21525
 Alpha  occ. eigenvalues --  -10.21018 -10.20206 -10.20171 -10.19862 -10.19801
 Alpha  occ. eigenvalues --  -10.19717 -10.19333 -10.19290 -10.18872 -10.18761
 Alpha  occ. eigenvalues --  -10.17363 -10.17151 -10.17089 -10.16599 -10.16554
 Alpha  occ. eigenvalues --  -10.16332 -10.16131 -10.15964 -10.15433 -10.14949
 Alpha  occ. eigenvalues --  -10.13926 -10.10870  -1.83034  -1.13288  -1.10661
 Alpha  occ. eigenvalues --   -1.10347  -1.09991  -1.08162  -1.07361  -1.05843
 Alpha  occ. eigenvalues --   -1.05545  -1.05207  -1.04912  -1.04018  -1.02910
 Alpha  occ. eigenvalues --   -1.02720  -1.01931  -1.01171  -1.00901  -1.00159
 Alpha  occ. eigenvalues --   -0.99987  -0.99960  -0.99215  -0.98482  -0.98084
 Alpha  occ. eigenvalues --   -0.96899  -0.96490  -0.96415  -0.95486  -0.92504
 Alpha  occ. eigenvalues --   -0.92414  -0.91916  -0.91036  -0.90877  -0.90838
 Alpha  occ. eigenvalues --   -0.90780  -0.89788  -0.89560  -0.89340  -0.88438
 Alpha  occ. eigenvalues --   -0.87771  -0.87492  -0.87203  -0.85736  -0.85497
 Alpha  occ. eigenvalues --   -0.83361  -0.81735  -0.80839  -0.80491  -0.80088
 Alpha  occ. eigenvalues --   -0.78429  -0.77621  -0.77287  -0.76238  -0.75822
 Alpha  occ. eigenvalues --   -0.75579  -0.74885  -0.74717  -0.74220  -0.74112
 Alpha  occ. eigenvalues --   -0.73252  -0.72860  -0.71948  -0.71796  -0.70184
 Alpha  occ. eigenvalues --   -0.70001  -0.69799  -0.68440  -0.68010  -0.66993
 Alpha  occ. eigenvalues --   -0.66941  -0.65739  -0.65164  -0.64522  -0.64241
 Alpha  occ. eigenvalues --   -0.63426  -0.63365  -0.63185  -0.62896  -0.62520
 Alpha  occ. eigenvalues --   -0.62060  -0.60916  -0.60789  -0.60684  -0.60329
 Alpha  occ. eigenvalues --   -0.59917  -0.59377  -0.58772  -0.58284  -0.58153
 Alpha  occ. eigenvalues --   -0.58106  -0.57867  -0.57564  -0.57069  -0.56456
 Alpha  occ. eigenvalues --   -0.56372  -0.56090  -0.55650  -0.55600  -0.55522
 Alpha  occ. eigenvalues --   -0.55123  -0.54773  -0.54480  -0.54369  -0.53809
 Alpha  occ. eigenvalues --   -0.53454  -0.53385  -0.52776  -0.52455  -0.52309
 Alpha  occ. eigenvalues --   -0.52120  -0.51880  -0.51598  -0.51137  -0.50605
 Alpha  occ. eigenvalues --   -0.50389  -0.50112  -0.49284  -0.48871  -0.48327
 Alpha  occ. eigenvalues --   -0.48142  -0.48003  -0.47651  -0.47605  -0.47513
 Alpha  occ. eigenvalues --   -0.47170  -0.47023  -0.46931  -0.46736  -0.46578
 Alpha  occ. eigenvalues --   -0.46433  -0.46355  -0.46283  -0.46116  -0.45842
 Alpha  occ. eigenvalues --   -0.45631  -0.45345  -0.45265  -0.45167  -0.45166
 Alpha  occ. eigenvalues --   -0.44731  -0.44417  -0.44366  -0.44140  -0.43785
 Alpha  occ. eigenvalues --   -0.43463  -0.43391  -0.43244  -0.43184  -0.42997
 Alpha  occ. eigenvalues --   -0.42956  -0.42891  -0.42606  -0.42209  -0.41961
 Alpha  occ. eigenvalues --   -0.41818  -0.41705  -0.41495  -0.41329  -0.41299
 Alpha  occ. eigenvalues --   -0.41257  -0.41091  -0.40648  -0.40586  -0.40487
 Alpha  occ. eigenvalues --   -0.40452  -0.40250  -0.40145  -0.40059  -0.39893
 Alpha  occ. eigenvalues --   -0.39794  -0.39679  -0.39437  -0.39348  -0.39134
 Alpha  occ. eigenvalues --   -0.38962  -0.38813  -0.38735  -0.38397  -0.38359
 Alpha  occ. eigenvalues --   -0.38180  -0.38082  -0.37947  -0.37816  -0.37463
 Alpha  occ. eigenvalues --   -0.37352  -0.37104  -0.36899  -0.36870  -0.36763
 Alpha  occ. eigenvalues --   -0.36457  -0.36228  -0.36216  -0.36041  -0.36024
 Alpha  occ. eigenvalues --   -0.35783  -0.35569  -0.35249  -0.35216  -0.35170
 Alpha  occ. eigenvalues --   -0.34830  -0.34495  -0.34475  -0.34318  -0.34296
 Alpha  occ. eigenvalues --   -0.34113  -0.33986  -0.33784  -0.33752  -0.33475
 Alpha  occ. eigenvalues --   -0.33418  -0.33035  -0.32967  -0.32746  -0.32669
 Alpha  occ. eigenvalues --   -0.31935  -0.31833  -0.31810  -0.31694  -0.31640
 Alpha  occ. eigenvalues --   -0.30853  -0.30723  -0.30496  -0.29728  -0.29609
 Alpha  occ. eigenvalues --   -0.28997  -0.28483  -0.28358  -0.28181  -0.27617
 Alpha  occ. eigenvalues --   -0.27587  -0.27271  -0.26854  -0.26803  -0.26606
 Alpha  occ. eigenvalues --   -0.26467  -0.26385  -0.26115  -0.25005  -0.24883
 Alpha  occ. eigenvalues --   -0.24355  -0.24238  -0.23916  -0.23911  -0.23378
 Alpha  occ. eigenvalues --   -0.23201  -0.23108  -0.23032  -0.22802  -0.22653
 Alpha  occ. eigenvalues --   -0.22431  -0.22219  -0.22055  -0.21124  -0.20857
 Alpha  occ. eigenvalues --   -0.20178  -0.20107  -0.18912  -0.18763  -0.15876
 Alpha  occ. eigenvalues --   -0.14168  -0.13907  -0.11287
 Alpha virt. eigenvalues --   -0.10139  -0.04070  -0.04066  -0.03783  -0.03658
 Alpha virt. eigenvalues --   -0.03055  -0.02382  -0.01396  -0.01071  -0.00575
 Alpha virt. eigenvalues --   -0.00124  -0.00022   0.00197   0.01608   0.01707
 Alpha virt. eigenvalues --    0.02318   0.02664   0.02806   0.02960   0.03073
 Alpha virt. eigenvalues --    0.03550   0.03671   0.03786   0.03792   0.03900
 Alpha virt. eigenvalues --    0.04186   0.04718   0.04833   0.04978   0.05246
 Alpha virt. eigenvalues --    0.05666   0.05682   0.06050   0.06711   0.06953
 Alpha virt. eigenvalues --    0.06983   0.07206   0.07319   0.07514   0.07633
 Alpha virt. eigenvalues --    0.07764   0.08091   0.08442   0.08638   0.09180
 Alpha virt. eigenvalues --    0.09252   0.09357   0.09498   0.09603   0.09780
 Alpha virt. eigenvalues --    0.10019   0.10198   0.10287   0.10668   0.10981
 Alpha virt. eigenvalues --    0.11089   0.11158   0.11426   0.11509   0.11646
 Alpha virt. eigenvalues --    0.11847   0.11908   0.12332   0.12568   0.12810
 Alpha virt. eigenvalues --    0.12884   0.13013   0.13190   0.13315   0.13420
 Alpha virt. eigenvalues --    0.13676   0.13760   0.13797   0.14017   0.14120
 Alpha virt. eigenvalues --    0.14200   0.14366   0.14440   0.14473   0.14685
 Alpha virt. eigenvalues --    0.14861   0.15109   0.15273   0.15390   0.15685
 Alpha virt. eigenvalues --    0.15748   0.15836   0.16058   0.16212   0.16414
 Alpha virt. eigenvalues --    0.16436   0.16521   0.16645   0.16725   0.17099
 Alpha virt. eigenvalues --    0.17133   0.17440   0.17654   0.17952   0.18081
 Alpha virt. eigenvalues --    0.18196   0.18284   0.18633   0.18775   0.18828
 Alpha virt. eigenvalues --    0.18964   0.19291   0.19410   0.19580   0.19902
 Alpha virt. eigenvalues --    0.20072   0.20212   0.20429   0.20472   0.20595
 Alpha virt. eigenvalues --    0.20973   0.21240   0.21557   0.21724   0.21949
 Alpha virt. eigenvalues --    0.22053   0.22259   0.22513   0.22916   0.23051
 Alpha virt. eigenvalues --    0.23074   0.23347   0.23419   0.23504   0.23939
 Alpha virt. eigenvalues --    0.24261   0.24298   0.24476   0.24966   0.25101
 Alpha virt. eigenvalues --    0.25232   0.25406   0.25555   0.25760   0.25806
 Alpha virt. eigenvalues --    0.26220   0.26521   0.26698   0.26828   0.27118
 Alpha virt. eigenvalues --    0.27158   0.27426   0.27966   0.28124   0.28305
 Alpha virt. eigenvalues --    0.28505   0.28772   0.29013   0.29368   0.29549
 Alpha virt. eigenvalues --    0.29703   0.29882   0.30026   0.30177   0.30199
 Alpha virt. eigenvalues --    0.30387   0.30541   0.31046   0.31243   0.31550
 Alpha virt. eigenvalues --    0.32122   0.32358   0.32460   0.32587   0.32928
 Alpha virt. eigenvalues --    0.33171   0.33617   0.33771   0.33932   0.34271
 Alpha virt. eigenvalues --    0.34686   0.34874   0.34939   0.35227   0.35459
 Alpha virt. eigenvalues --    0.35982   0.36124   0.36605   0.36739   0.37354
 Alpha virt. eigenvalues --    0.37668   0.38284   0.38637   0.38655   0.39063
 Alpha virt. eigenvalues --    0.39368   0.39480   0.39931   0.40074   0.40248
 Alpha virt. eigenvalues --    0.40375   0.40759   0.40938   0.40981   0.41389
 Alpha virt. eigenvalues --    0.41705   0.41841   0.42166   0.42345   0.42445
 Alpha virt. eigenvalues --    0.42670   0.43039   0.43326   0.43502   0.43695
 Alpha virt. eigenvalues --    0.43855   0.44254   0.44382   0.44781   0.44970
 Alpha virt. eigenvalues --    0.45153   0.45301   0.45697   0.45781   0.46022
 Alpha virt. eigenvalues --    0.46160   0.46238   0.46488   0.46733   0.46891
 Alpha virt. eigenvalues --    0.47070   0.47203   0.47312   0.47582   0.47814
 Alpha virt. eigenvalues --    0.48015   0.48167   0.48317   0.48388   0.48533
 Alpha virt. eigenvalues --    0.48864   0.48998   0.49005   0.49303   0.49440
 Alpha virt. eigenvalues --    0.49653   0.49976   0.50086   0.50361   0.50681
 Alpha virt. eigenvalues --    0.50949   0.51124   0.51242   0.51475   0.51610
 Alpha virt. eigenvalues --    0.51816   0.52112   0.52281   0.52321   0.52509
 Alpha virt. eigenvalues --    0.52753   0.52798   0.53085   0.53294   0.53492
 Alpha virt. eigenvalues --    0.53683   0.53929   0.54191   0.54438   0.54543
 Alpha virt. eigenvalues --    0.54579   0.54977   0.55015   0.55208   0.55333
 Alpha virt. eigenvalues --    0.55455   0.55516   0.55771   0.55975   0.56275
 Alpha virt. eigenvalues --    0.56656   0.56888   0.57006   0.57309   0.57568
 Alpha virt. eigenvalues --    0.57898   0.58040   0.58285   0.58365   0.58576
 Alpha virt. eigenvalues --    0.58884   0.58961   0.59074   0.59233   0.59293
 Alpha virt. eigenvalues --    0.59424   0.59571   0.59690   0.59896   0.59909
 Alpha virt. eigenvalues --    0.60165   0.60470   0.60615   0.60714   0.60826
 Alpha virt. eigenvalues --    0.60881   0.61047   0.61094   0.61261   0.61289
 Alpha virt. eigenvalues --    0.61398   0.61513   0.61703   0.61832   0.61963
 Alpha virt. eigenvalues --    0.62063   0.62297   0.62356   0.62531   0.62655
 Alpha virt. eigenvalues --    0.62759   0.62903   0.62971   0.63118   0.63202
 Alpha virt. eigenvalues --    0.63465   0.63600   0.63716   0.63804   0.63978
 Alpha virt. eigenvalues --    0.64086   0.64235   0.64468   0.64606   0.64664
 Alpha virt. eigenvalues --    0.64920   0.64944   0.65071   0.65221   0.65390
 Alpha virt. eigenvalues --    0.65487   0.65653   0.65756   0.65818   0.65896
 Alpha virt. eigenvalues --    0.65941   0.66100   0.66253   0.66425   0.66649
 Alpha virt. eigenvalues --    0.66710   0.66830   0.66884   0.66990   0.67147
 Alpha virt. eigenvalues --    0.67171   0.67260   0.67373   0.67503   0.67591
 Alpha virt. eigenvalues --    0.67674   0.67920   0.68037   0.68134   0.68213
 Alpha virt. eigenvalues --    0.68254   0.68356   0.68505   0.68642   0.68837
 Alpha virt. eigenvalues --    0.69024   0.69064   0.69146   0.69285   0.69370
 Alpha virt. eigenvalues --    0.69466   0.69526   0.69560   0.69752   0.69834
 Alpha virt. eigenvalues --    0.69870   0.70028   0.70139   0.70197   0.70442
 Alpha virt. eigenvalues --    0.70502   0.70654   0.70748   0.70942   0.71049
 Alpha virt. eigenvalues --    0.71155   0.71205   0.71249   0.71486   0.71549
 Alpha virt. eigenvalues --    0.71619   0.71758   0.72054   0.72114   0.72282
 Alpha virt. eigenvalues --    0.72391   0.72651   0.72660   0.72899   0.72932
 Alpha virt. eigenvalues --    0.73261   0.73484   0.73567   0.73721   0.73827
 Alpha virt. eigenvalues --    0.74014   0.74306   0.74380   0.74566   0.74782
 Alpha virt. eigenvalues --    0.74921   0.75081   0.75220   0.75493   0.75573
 Alpha virt. eigenvalues --    0.75749   0.75811   0.76122   0.76175   0.76332
 Alpha virt. eigenvalues --    0.76385   0.76895   0.77258   0.77336   0.77777
 Alpha virt. eigenvalues --    0.77790   0.78041   0.78095   0.78188   0.78455
 Alpha virt. eigenvalues --    0.78632   0.79064   0.79180   0.79827   0.80090
 Alpha virt. eigenvalues --    0.80168   0.80378   0.80530   0.80703   0.80872
 Alpha virt. eigenvalues --    0.81064   0.81316   0.81648   0.82005   0.82367
 Alpha virt. eigenvalues --    0.82680   0.82775   0.82932   0.83309   0.83717
 Alpha virt. eigenvalues --    0.83782   0.83977   0.84022   0.84429   0.85523
 Alpha virt. eigenvalues --    0.85692   0.85853   0.86078   0.86282   0.86428
 Alpha virt. eigenvalues --    0.86650   0.86893   0.87442   0.87853   0.88013
 Alpha virt. eigenvalues --    0.88204   0.88388   0.88934   0.89485   0.89678
 Alpha virt. eigenvalues --    0.89917   0.90253   0.90300   0.90759   0.91122
 Alpha virt. eigenvalues --    0.91408   0.91851   0.91970   0.92591   0.92864
 Alpha virt. eigenvalues --    0.93155   0.93397   0.93581   0.93805   0.94275
 Alpha virt. eigenvalues --    0.94769   0.95085   0.95146   0.95313   0.95696
 Alpha virt. eigenvalues --    0.95874   0.96020   0.96413   0.96800   0.96862
 Alpha virt. eigenvalues --    0.97222   0.97541   0.97580   0.98243   0.98307
 Alpha virt. eigenvalues --    0.98511   0.98927   0.99367   0.99468   0.99665
 Alpha virt. eigenvalues --    1.00251   1.00302   1.00585   1.01080   1.01334
 Alpha virt. eigenvalues --    1.01464   1.01873   1.02102   1.02707   1.02865
 Alpha virt. eigenvalues --    1.03107   1.03179   1.03405   1.03988   1.04242
 Alpha virt. eigenvalues --    1.04680   1.04830   1.04903   1.05047   1.05559
 Alpha virt. eigenvalues --    1.06050   1.06070   1.06216   1.06704   1.07194
 Alpha virt. eigenvalues --    1.07359   1.07462   1.07894   1.08020   1.08336
 Alpha virt. eigenvalues --    1.08808   1.09101   1.09196   1.09684   1.09775
 Alpha virt. eigenvalues --    1.10030   1.10219   1.10384   1.10812   1.11240
 Alpha virt. eigenvalues --    1.11348   1.11633   1.11715   1.11941   1.12195
 Alpha virt. eigenvalues --    1.12318   1.12430   1.12788   1.13001   1.13271
 Alpha virt. eigenvalues --    1.13502   1.13779   1.14181   1.14657   1.14784
 Alpha virt. eigenvalues --    1.14969   1.15464   1.15762   1.16302   1.16386
 Alpha virt. eigenvalues --    1.16814   1.16918   1.17056   1.17409   1.17633
 Alpha virt. eigenvalues --    1.17853   1.18089   1.18183   1.18375   1.18766
 Alpha virt. eigenvalues --    1.18996   1.19492   1.19796   1.20520   1.20691
 Alpha virt. eigenvalues --    1.20922   1.21304   1.21535   1.21923   1.21998
 Alpha virt. eigenvalues --    1.22331   1.22585   1.22736   1.22931   1.23454
 Alpha virt. eigenvalues --    1.23602   1.23871   1.23952   1.24070   1.24247
 Alpha virt. eigenvalues --    1.24310   1.24558   1.25212   1.25362   1.25844
 Alpha virt. eigenvalues --    1.25996   1.26203   1.26484   1.26735   1.26857
 Alpha virt. eigenvalues --    1.27047   1.27517   1.27591   1.27813   1.27924
 Alpha virt. eigenvalues --    1.28258   1.28472   1.28784   1.28858   1.29235
 Alpha virt. eigenvalues --    1.29586   1.29608   1.29812   1.30017   1.30033
 Alpha virt. eigenvalues --    1.30402   1.30713   1.31015   1.31100   1.31306
 Alpha virt. eigenvalues --    1.31571   1.31705   1.32096   1.32127   1.32616
 Alpha virt. eigenvalues --    1.33131   1.33399   1.33601   1.34130   1.34288
 Alpha virt. eigenvalues --    1.34626   1.34921   1.35294   1.35644   1.35786
 Alpha virt. eigenvalues --    1.36058   1.36293   1.36610   1.36742   1.37095
 Alpha virt. eigenvalues --    1.37421   1.37717   1.37843   1.38072   1.38541
 Alpha virt. eigenvalues --    1.38862   1.39332   1.39436   1.39840   1.40418
 Alpha virt. eigenvalues --    1.40484   1.40524   1.40951   1.41222   1.41746
 Alpha virt. eigenvalues --    1.41753   1.42220   1.42447   1.42577   1.42916
 Alpha virt. eigenvalues --    1.43947   1.44098   1.44296   1.44619   1.44669
 Alpha virt. eigenvalues --    1.45026   1.45244   1.45636   1.45820   1.46542
 Alpha virt. eigenvalues --    1.47179   1.47286   1.47533   1.48004   1.48226
 Alpha virt. eigenvalues --    1.48541   1.48607   1.48705   1.48889   1.49818
 Alpha virt. eigenvalues --    1.50050   1.50251   1.50771   1.51070   1.51312
 Alpha virt. eigenvalues --    1.51384   1.51981   1.52210   1.52519   1.52614
 Alpha virt. eigenvalues --    1.53386   1.53705   1.53778   1.54163   1.54410
 Alpha virt. eigenvalues --    1.54961   1.55051   1.55646   1.55691   1.55755
 Alpha virt. eigenvalues --    1.56275   1.56559   1.56740   1.57014   1.57255
 Alpha virt. eigenvalues --    1.57634   1.57960   1.58176   1.58635   1.59194
 Alpha virt. eigenvalues --    1.59527   1.60616   1.60834   1.61367   1.62188
 Alpha virt. eigenvalues --    1.62360   1.62512   1.62937   1.63455   1.63591
 Alpha virt. eigenvalues --    1.63726   1.63887   1.63961   1.64167   1.64580
 Alpha virt. eigenvalues --    1.65100   1.65650   1.66040   1.66075   1.66277
 Alpha virt. eigenvalues --    1.66421   1.66859   1.66965   1.67388   1.67697
 Alpha virt. eigenvalues --    1.67787   1.67980   1.68243   1.68289   1.68598
 Alpha virt. eigenvalues --    1.69763   1.69906   1.69997   1.70073   1.70232
 Alpha virt. eigenvalues --    1.70549   1.71125   1.71300   1.71370   1.71437
 Alpha virt. eigenvalues --    1.71696   1.71734   1.72192   1.72316   1.72545
 Alpha virt. eigenvalues --    1.72702   1.72937   1.73200   1.73379   1.73573
 Alpha virt. eigenvalues --    1.73842   1.74086   1.74169   1.74430   1.74557
 Alpha virt. eigenvalues --    1.74717   1.75006   1.75191   1.75321   1.75487
 Alpha virt. eigenvalues --    1.75752   1.75994   1.76239   1.76285   1.76494
 Alpha virt. eigenvalues --    1.76832   1.76987   1.77157   1.77189   1.77633
 Alpha virt. eigenvalues --    1.77960   1.78027   1.78142   1.78283   1.78589
 Alpha virt. eigenvalues --    1.78607   1.78774   1.78890   1.79013   1.79223
 Alpha virt. eigenvalues --    1.79503   1.79629   1.79810   1.79915   1.80008
 Alpha virt. eigenvalues --    1.80091   1.80283   1.80438   1.80543   1.80651
 Alpha virt. eigenvalues --    1.80966   1.81095   1.81302   1.81412   1.81443
 Alpha virt. eigenvalues --    1.81707   1.81912   1.82229   1.82430   1.82500
 Alpha virt. eigenvalues --    1.82685   1.83036   1.83180   1.83328   1.83466
 Alpha virt. eigenvalues --    1.83548   1.83810   1.83967   1.84119   1.84214
 Alpha virt. eigenvalues --    1.84304   1.84343   1.84671   1.85085   1.85339
 Alpha virt. eigenvalues --    1.85514   1.85615   1.85668   1.85908   1.86257
 Alpha virt. eigenvalues --    1.86348   1.86485   1.86545   1.86911   1.87026
 Alpha virt. eigenvalues --    1.87352   1.87680   1.87778   1.87871   1.88164
 Alpha virt. eigenvalues --    1.88341   1.88504   1.88597   1.88834   1.88986
 Alpha virt. eigenvalues --    1.89060   1.89226   1.89413   1.89660   1.90070
 Alpha virt. eigenvalues --    1.90196   1.90402   1.90563   1.90653   1.90961
 Alpha virt. eigenvalues --    1.91195   1.91272   1.91756   1.91927   1.92050
 Alpha virt. eigenvalues --    1.92221   1.92470   1.92680   1.92733   1.92820
 Alpha virt. eigenvalues --    1.93094   1.93306   1.93628   1.93745   1.94003
 Alpha virt. eigenvalues --    1.94766   1.94871   1.95072   1.95157   1.95272
 Alpha virt. eigenvalues --    1.95486   1.95703   1.96102   1.96247   1.96399
 Alpha virt. eigenvalues --    1.96502   1.96661   1.96688   1.97200   1.97392
 Alpha virt. eigenvalues --    1.97719   1.97836   1.98044   1.98494   1.98691
 Alpha virt. eigenvalues --    1.98809   1.99159   1.99246   1.99587   1.99749
 Alpha virt. eigenvalues --    2.00040   2.00403   2.00561   2.00670   2.01020
 Alpha virt. eigenvalues --    2.01198   2.01359   2.01547   2.01688   2.01962
 Alpha virt. eigenvalues --    2.02458   2.02826   2.02875   2.03460   2.03805
 Alpha virt. eigenvalues --    2.03937   2.04488   2.04799   2.04807   2.05509
 Alpha virt. eigenvalues --    2.05623   2.05832   2.06091   2.06389   2.06479
 Alpha virt. eigenvalues --    2.07058   2.07139   2.07180   2.07536   2.07694
 Alpha virt. eigenvalues --    2.08022   2.08528   2.08891   2.08991   2.09250
 Alpha virt. eigenvalues --    2.09629   2.09676   2.09877   2.10129   2.10400
 Alpha virt. eigenvalues --    2.10712   2.10980   2.11255   2.11368   2.11997
 Alpha virt. eigenvalues --    2.12153   2.12525   2.12854   2.12905   2.13135
 Alpha virt. eigenvalues --    2.13437   2.13632   2.13874   2.14475   2.14802
 Alpha virt. eigenvalues --    2.15117   2.15441   2.15881   2.15980   2.16094
 Alpha virt. eigenvalues --    2.16232   2.16394   2.16583   2.16857   2.17418
 Alpha virt. eigenvalues --    2.17659   2.17703   2.18367   2.18815   2.18889
 Alpha virt. eigenvalues --    2.19104   2.19203   2.19569   2.19800   2.19821
 Alpha virt. eigenvalues --    2.20159   2.20586   2.20810   2.22005   2.22206
 Alpha virt. eigenvalues --    2.22432   2.22912   2.23419   2.23645   2.23969
 Alpha virt. eigenvalues --    2.24168   2.24519   2.24930   2.24991   2.25341
 Alpha virt. eigenvalues --    2.25659   2.25946   2.26012   2.26393   2.27100
 Alpha virt. eigenvalues --    2.27281   2.27506   2.27723   2.27834   2.28252
 Alpha virt. eigenvalues --    2.28603   2.29022   2.29629   2.30159   2.30363
 Alpha virt. eigenvalues --    2.30624   2.30782   2.30961   2.31029   2.31613
 Alpha virt. eigenvalues --    2.31993   2.32121   2.32642   2.32835   2.33019
 Alpha virt. eigenvalues --    2.33501   2.33699   2.33813   2.34197   2.34380
 Alpha virt. eigenvalues --    2.34785   2.35079   2.35160   2.35462   2.35643
 Alpha virt. eigenvalues --    2.36120   2.36196   2.36666   2.37803   2.38093
 Alpha virt. eigenvalues --    2.38442   2.38696   2.38858   2.39061   2.39377
 Alpha virt. eigenvalues --    2.39790   2.40011   2.40090   2.40630   2.40855
 Alpha virt. eigenvalues --    2.41227   2.41515   2.42106   2.42409   2.42614
 Alpha virt. eigenvalues --    2.42772   2.43380   2.43967   2.44168   2.44965
 Alpha virt. eigenvalues --    2.45207   2.45459   2.45741   2.46289   2.46742
 Alpha virt. eigenvalues --    2.46922   2.47735   2.48042   2.48152   2.48163
 Alpha virt. eigenvalues --    2.48235   2.49074   2.49310   2.49519   2.50169
 Alpha virt. eigenvalues --    2.50207   2.50383   2.50843   2.51132   2.51458
 Alpha virt. eigenvalues --    2.52029   2.52402   2.52838   2.53007   2.53220
 Alpha virt. eigenvalues --    2.54282   2.54396   2.54635   2.54770   2.54911
 Alpha virt. eigenvalues --    2.55156   2.55279   2.55751   2.55901   2.56146
 Alpha virt. eigenvalues --    2.56396   2.56663   2.56830   2.57441   2.57726
 Alpha virt. eigenvalues --    2.58421   2.58702   2.58904   2.59106   2.59236
 Alpha virt. eigenvalues --    2.59452   2.59603   2.59768   2.60394   2.60627
 Alpha virt. eigenvalues --    2.61111   2.61296   2.61545   2.61658   2.62011
 Alpha virt. eigenvalues --    2.62440   2.63264   2.63503   2.63742   2.64006
 Alpha virt. eigenvalues --    2.64122   2.64466   2.64720   2.65106   2.65166
 Alpha virt. eigenvalues --    2.65698   2.65898   2.66243   2.66582   2.67290
 Alpha virt. eigenvalues --    2.67345   2.67848   2.68451   2.68668   2.69225
 Alpha virt. eigenvalues --    2.69562   2.69831   2.70341   2.70552   2.71152
 Alpha virt. eigenvalues --    2.71290   2.72064   2.72296   2.72487   2.72793
 Alpha virt. eigenvalues --    2.73078   2.73182   2.73224   2.73466   2.73646
 Alpha virt. eigenvalues --    2.73766   2.74026   2.74402   2.74506   2.74728
 Alpha virt. eigenvalues --    2.75124   2.75159   2.75204   2.75360   2.75752
 Alpha virt. eigenvalues --    2.75960   2.76156   2.76604   2.77100   2.77221
 Alpha virt. eigenvalues --    2.77597   2.77694   2.78053   2.79167   2.79380
 Alpha virt. eigenvalues --    2.79386   2.79524   2.79650   2.79774   2.79965
 Alpha virt. eigenvalues --    2.80179   2.80577   2.80634   2.80988   2.81211
 Alpha virt. eigenvalues --    2.81721   2.81867   2.82094   2.82683   2.82717
 Alpha virt. eigenvalues --    2.82839   2.82916   2.82971   2.83203   2.83220
 Alpha virt. eigenvalues --    2.83866   2.84061   2.84372   2.84552   2.85029
 Alpha virt. eigenvalues --    2.85210   2.85659   2.86081   2.86977   2.87141
 Alpha virt. eigenvalues --    2.87826   2.87988   2.88309   2.88498   2.89080
 Alpha virt. eigenvalues --    2.89354   2.89740   2.89876   2.90279   2.90472
 Alpha virt. eigenvalues --    2.91033   2.91222   2.91692   2.91919   2.92325
 Alpha virt. eigenvalues --    2.93032   2.93271   2.93369   2.93402   2.93507
 Alpha virt. eigenvalues --    2.93560   2.94022   2.94229   2.94491   2.94747
 Alpha virt. eigenvalues --    2.95443   2.95591   2.95859   2.96407   2.96483
 Alpha virt. eigenvalues --    2.97007   2.97278   2.97506   2.97955   2.98173
 Alpha virt. eigenvalues --    2.98350   2.98541   2.98723   2.98802   2.99331
 Alpha virt. eigenvalues --    2.99629   2.99774   3.00115   3.00447   3.01463
 Alpha virt. eigenvalues --    3.02049   3.02228   3.02379   3.03124   3.03307
 Alpha virt. eigenvalues --    3.03619   3.03846   3.04661   3.04773   3.04971
 Alpha virt. eigenvalues --    3.05127   3.05636   3.05780   3.06289   3.06522
 Alpha virt. eigenvalues --    3.07026   3.07875   3.08632   3.09962   3.10217
 Alpha virt. eigenvalues --    3.10657   3.11291   3.11434   3.12104   3.12263
 Alpha virt. eigenvalues --    3.12434   3.12526   3.12821   3.13642   3.13715
 Alpha virt. eigenvalues --    3.13771   3.13907   3.14212   3.15236   3.15650
 Alpha virt. eigenvalues --    3.15854   3.15993   3.16361   3.16784   3.16869
 Alpha virt. eigenvalues --    3.17209   3.17407   3.17634   3.17843   3.18168
 Alpha virt. eigenvalues --    3.18592   3.18804   3.19006   3.19700   3.20136
 Alpha virt. eigenvalues --    3.20482   3.21116   3.21378   3.22117   3.22296
 Alpha virt. eigenvalues --    3.22669   3.22738   3.22894   3.23371   3.23720
 Alpha virt. eigenvalues --    3.23987   3.24560   3.25064   3.25370   3.26066
 Alpha virt. eigenvalues --    3.26249   3.28075   3.28452   3.28585   3.29333
 Alpha virt. eigenvalues --    3.29747   3.30086   3.31630   3.31870   3.32517
 Alpha virt. eigenvalues --    3.32967   3.35834   3.35951   3.37390   3.38664
 Alpha virt. eigenvalues --    3.39445   3.40671   3.44439   3.49678   3.50437
 Alpha virt. eigenvalues --    3.51788   3.53073   3.53242   3.54888   3.55064
 Alpha virt. eigenvalues --    3.55368   3.55759   3.57199   3.57816   3.59469
 Alpha virt. eigenvalues --    3.59599   3.59913   3.60186   3.60303   3.61969
 Alpha virt. eigenvalues --    3.63058   3.64941   3.66560   3.67784   3.68311
 Alpha virt. eigenvalues --    3.68596   3.69040   3.69307   3.69542   3.70078
 Alpha virt. eigenvalues --    3.70598   3.70684   3.71320   3.71566   3.71708
 Alpha virt. eigenvalues --    3.72746   3.73132   3.73658   3.74478   3.76014
 Alpha virt. eigenvalues --    3.76872   3.78147   3.79290   3.80727
          Condensed to atoms (all electrons):
 Mulliken charges:
               1
     1  C    0.041521
     2  C    0.014878
     3  O   -0.300583
     4  H    0.011839
     5  H    0.014328
     6  H    0.025881
     7  N   -0.127262
     8  C    0.066941
     9  C    0.060592
    10  O   -0.319591
    11  C    0.105032
    12  C    0.047356
    13  O   -0.359252
    14  O   -0.404757
    15  H    0.109250
    16  H    0.004348
    17  H   -0.008269
    18  H   -0.025614
    19  N   -0.124641
    20  C    0.187368
    21  C    0.075208
    22  O   -0.305420
    23  C    0.001020
    24  C    0.048563
    25  C   -0.076179
    26  C    0.033931
    27  N    0.116979
    28  H    0.124666
    29  H    0.019423
    30  H   -0.002725
    31  H    0.000687
    32  H    0.023922
    33  H    0.015233
    34  H    0.022642
    35  H    0.021490
    36  H    0.087574
    37  H    0.071741
    38  H    0.180439
    39  H    0.159287
    40  H    0.163229
    41  N   -0.104953
    42  C    0.126140
    43  C    0.070408
    44  O   -0.287614
    45  C    0.071142
    46  C    0.096786
    47  O   -0.357013
    48  O   -0.504615
    49  H    0.145002
    50  H   -0.029583
    51  H    0.017872
    52  H    0.025443
    53  N   -0.101105
    54  C    0.182515
    55  C    0.102638
    56  O   -0.333373
    57  H    0.120209
    58  H    0.040142
    59  H    0.031213
    60  N   -0.146825
    61  C    0.096338
    62  C    0.105226
    63  O   -0.292811
    64  C    0.025457
    65  C    0.116972
    66  N   -0.022917
    67  O   -0.325805
    68  H    0.125233
    69  H    0.040815
    70  H    0.085529
    71  H    0.009520
    72  H    0.122022
    73  H    0.174508
    74  N   -0.110484
    75  C    0.230921
    76  C   -0.006342
    77  O   -0.263576
    78  H    0.106829
    79  H    0.002155
    80  H    0.043085
    81  N   -0.097324
    82  C    0.078240
    83  C    0.082617
    84  O   -0.298869
    85  C    0.155414
    86  C   -0.026631
    87  C    0.008548
    88  C   -0.001256
    89  C   -0.018575
    90  C   -0.036198
    91  C    0.142900
    92  O   -0.194958
    93  H    0.127604
    94  H    0.024942
    95  H    0.006006
    96  H    0.014659
    97  H   -0.024909
    98  H   -0.031917
    99  H   -0.019806
   100  H   -0.046556
   101  H    0.177647
   102  N   -0.123360
   103  C    0.213032
   104  C    0.021201
   105  O   -0.265406
   106  C   -0.107292
   107  C    0.017679
   108  C    0.077029
   109  C    0.031702
   110  H    0.129922
   111  H   -0.004932
   112  H   -0.012853
   113  H    0.014392
   114  H   -0.049891
   115  H    0.018585
   116  H   -0.012509
   117  H   -0.016397
   118  H   -0.001565
   119  H    0.004779
   120  H    0.012855
   121  N   -0.161863
   122  C    0.142101
   123  C    0.056526
   124  O   -0.281675
   125  C    0.213526
   126  O   -0.315974
   127  H    0.145057
   128  H    0.014134
   129  H    0.011470
   130  H   -0.000957
   131  H    0.169503
   132  N   -0.143074
   133  C    0.047235
   134  C    0.060468
   135  O   -0.280923
   136  C    0.089702
   137  H    0.127270
   138  H    0.015459
   139  H    0.000658
   140  H    0.038213
   141  H    0.002355
   142  N   -0.137674
   143  C    0.064079
   144  C    0.093619
   145  O   -0.269930
   146  C    0.053455
   147  H    0.160374
   148  H    0.000766
   149  H   -0.016152
   150  H    0.036028
   151  H    0.034665
   152  N   -0.143805
   153  C    0.128865
   154  C    0.055865
   155  O   -0.293823
   156  C   -0.038084
   157  C    0.145934
   158  C    0.091637
   159  O   -0.414327
   160  O   -0.454028
   161  H    0.129782
   162  H    0.002300
   163  H    0.041326
   164  H    0.017898
   165  H   -0.042529
   166  H   -0.024346
   167  N   -0.117611
   168  C    0.142351
   169  H    0.018112
   170  H    0.025742
   171  H    0.028532
   172  H    0.110830
   173  Ca   1.350016
   174  O   -0.311212
   175  H    0.199463
   176  H    0.185944
 Sum of Mulliken charges =  -0.00000
 Mulliken charges with hydrogens summed into heavy atoms:
               1
     1  C    0.093570
     2  C    0.014878
     3  O   -0.300583
     7  N   -0.018011
     8  C    0.071288
     9  C    0.060592
    10  O   -0.319591
    11  C    0.071149
    12  C    0.047356
    13  O   -0.359252
    14  O   -0.404757
    19  N    0.000025
    20  C    0.206791
    21  C    0.075208
    22  O   -0.305420
    23  C   -0.001017
    24  C    0.087717
    25  C   -0.032047
    26  C    0.193245
    27  N    0.619934
    41  N    0.040050
    42  C    0.096557
    43  C    0.070408
    44  O   -0.287614
    45  C    0.114457
    46  C    0.096786
    47  O   -0.357013
    48  O   -0.504615
    53  N    0.019103
    54  C    0.253869
    55  C    0.102638
    56  O   -0.333373
    60  N   -0.021592
    61  C    0.137154
    62  C    0.105226
    63  O   -0.292811
    64  C    0.120506
    65  C    0.116972
    66  N    0.273613
    67  O   -0.325805
    74  N   -0.003656
    75  C    0.276161
    76  C   -0.006342
    77  O   -0.263576
    81  N    0.030280
    82  C    0.103182
    83  C    0.082617
    84  O   -0.298869
    85  C    0.176080
    86  C   -0.026631
    87  C   -0.016361
    88  C   -0.033172
    89  C   -0.038381
    90  C   -0.082753
    91  C    0.142900
    92  O   -0.017310
   102  N    0.006561
   103  C    0.208100
   104  C    0.021201
   105  O   -0.265406
   106  C   -0.120145
   107  C   -0.017820
   108  C    0.066708
   109  C    0.047771
   121  N   -0.016806
   122  C    0.156235
   123  C    0.056526
   124  O   -0.281675
   125  C    0.224039
   126  O   -0.146471
   132  N   -0.015803
   133  C    0.062694
   134  C    0.060468
   135  O   -0.280923
   136  C    0.130929
   142  N    0.022700
   143  C    0.064845
   144  C    0.093619
   145  O   -0.269930
   146  C    0.107996
   152  N   -0.014023
   153  C    0.131165
   154  C    0.055865
   155  O   -0.293823
   156  C    0.021141
   157  C    0.079059
   158  C    0.091637
   159  O   -0.414327
   160  O   -0.454028
   167  N   -0.006781
   168  C    0.214736
   173  Ca   1.350016
   174  O    0.074195
 DipInt: DoE/N= T F RetVal/Mat= T F Init=T NMatP=  1 IDeriv=0 Min/MaxMlt=  0  4
 Entering OneElI...
 OneElI was handed  1333951383 working-precision words.
 Multipole integrals L=0 to 4 MinM= 0 MaxM= 0.
 Requested accuracy = 0.1000D-12
 PrtBox:  NBox=     1 Levels=  1 BoxLen=   98.75 SMaxX=       51.21
          Shift=           20.434371           13.137119           12.513885
 Box      1 Number                   0 centers from      1 to    809:
 ShPair: Thresh= 1.00D-13 NBox=     1 BxSize= 9.87D+01 RnKept= 2.93D+01
         NSMCal=               327645 NSMKep=              121501
 PrmmSu-InSpLW:  IPartL=    0 NPrtUS=    1 NPrtUL=    1 DoSpLW=F IThBeg=    0 IThEnd=    0 NThAct=    1.
 PrsmSu:  NPrtUS=   1 ThrOK=F IAlg=1 NPAlg=1 LenDen=           0 ISkipM=0 DoSpLW=F IThBeg=    0 IThEnd=    0.
 Prism:   IPart=     0 DynPar=F LinDyn=F Incr=         512.
 PRISM was handed  1325349115 working-precision words and121501 shell-pairs
 IPart=  0 NShTot=      121501 NBatch=         290 AvBLen=       419.0
 PrsmSu-ThDecC:  IPartSL=    0    0 NPrtUSL=    1    1 IThBeg=    0 IThEnd=    0 CPU=   -1 GPU=   -1 NThAct=    1.
 PrSmSu:  NxtVal=            513.
 Electronic moments (au):
       -716.00000000          5.08316950         -3.60838414         -5.04251502
    -120397.30579648     -36874.05241275     -10664.70333207       -256.88832962
        -46.08859105        -16.20299423    -794070.96382619    -128566.42299281
     -15608.10599218     241104.69242179     -86015.43443863     -99757.74703339
     -38902.97634691      11239.56772144      17990.49228995     -70461.65956418
  -42698595.00618572   -5619191.85401048    -615925.27256433    -153769.45460808
    -947677.03141904    1840433.63602754     643436.95002840    -346735.47662330
    -109891.38931261   -5098735.81133661   -1695432.87976536    -446871.57745080
    -143464.76488913    -290920.58778755    -175287.62283868
 Electronic spatial extent (au):  <R**2>=         167936.0615
 DipInt: DoE/N= F T RetVal/Mat= T F Init=T NMatP=  1 IDeriv=0 Min/MaxMlt=  0  4
 Nuclear    moments (au):
        716.00000000         -0.00000000          0.00000000          0.00000000
     120279.24610788      36423.62495021      10289.83023503         -0.00000000
         -0.00000000          0.00000000     806529.68523316     128288.40105191
      14928.65368149    -241554.19959966      81036.40698388      98211.36057888
      38601.72605222     -11431.27190701     -18419.97573368      70787.55991260
   42707551.79436171    5489535.92264289     586974.72982825     -15012.44458597
     908963.61948692   -1858538.59607778    -645819.70660114     344417.06106472
     111234.84368000    5006097.43637400    1615265.01432233     421617.67703606
     137775.54352529     295521.86451402     173393.04911714
 Total      moments (au):
         -0.00000000          5.08316950         -3.60838414         -5.04251502
       -118.05968860       -450.42746253       -374.87309704       -256.88832962
        -46.08859105        -16.20299423      12458.72140697       -278.02194091
       -679.45231070       -449.50717786      -4979.02745476      -1546.38645451
       -301.25029468       -191.70418557       -429.48344374        325.90034842
       8956.78817599    -129655.93136759     -28950.54273609    -168781.89919405
     -38713.41193212     -18104.96005024      -2382.75657274      -2318.41555857
       1343.45436739     -92638.37496261     -80167.86544303     -25253.90041474
      -5689.22136384       4601.27672647      -1894.57372154
 Traceless Quadrup. (au):
        196.39372746       -135.97404648        -60.41968098       -256.88832962
        -46.08859105        -16.20299423
 Charge=             -0.0000 electrons
 Dipole moment (field-independent basis, Debye):
    X=             12.9201    Y=             -9.1716    Z=            -12.8168  Tot=             20.3794
 Quadrupole moment (field-independent basis, Debye-Ang):
   XX=           -158.7943   YY=           -605.8404   ZZ=           -504.2172
   XY=           -345.5236   XZ=            -61.9907   YZ=            -21.7936
 Traceless Quadrupole moment (field-independent basis, Debye-Ang):
   XX=            264.1563   YY=           -182.8897   ZZ=            -81.2665
   XY=           -345.5236   XZ=            -61.9907   YZ=            -21.7936
 Octapole moment (field-independent basis, Debye-Ang**2):
  XXX=           8867.6379  YYY=           -197.8853  ZZZ=           -483.6080  XYY=           -319.9419
  XXY=          -3543.8799  XXZ=          -1100.6583  XZZ=           -214.4184  YZZ=           -136.4477
  YYZ=           -305.6898  XYZ=            231.9633
 Hexadecapole moment (field-independent basis, Debye-Ang**3):
 XXXX=           3373.5559 YYYY=         -48834.6410 ZZZZ=         -10904.1626 XXXY=         -63571.3566
 XXXZ=         -14581.3273 YYYX=          -6819.1961 YYYZ=           -897.4604 ZZZX=           -873.2265
 ZZZY=            506.0093 XXYY=         -34892.0542 XXZZ=         -30195.0623 YYZZ=          -9511.8299
 XXYZ=          -2142.8336 YYXZ=           1733.0615 ZZXY=           -713.5873
 N-N= 1.878211521280D+04 E-N=-5.004614800170D+04  KE= 5.290463195374D+03
 Leave Link  601 at Tue Sep 17 10:18:19 2019, MaxMem=  1342177280 cpu:              39.7 elap:               1.0
 FitSet:  NAtFit=   176 NAtPot=   176 NAtFrz=     0 MDM=   180 TotChg=   0.00000
 Merz-Kollman atomic radii used.
 Read replacement radii for each type of atom:
 Rad(20) =   1.700000000000D+00
 Atom Element Radius
    1     6    1.50
    2     6    1.50
    3     8    1.40
    4     1    1.20
    5     1    1.20
    6     1    1.20
    7     7    1.50
    8     6    1.50
    9     6    1.50
   10     8    1.40
   11     6    1.50
   12     6    1.50
   13     8    1.40
   14     8    1.40
   15     1    1.20
   16     1    1.20
   17     1    1.20
   18     1    1.20
   19     7    1.50
   20     6    1.50
   21     6    1.50
   22     8    1.40
   23     6    1.50
   24     6    1.50
   25     6    1.50
   26     6    1.50
   27     7    1.50
   28     1    1.20
   29     1    1.20
   30     1    1.20
   31     1    1.20
   32     1    1.20
   33     1    1.20
   34     1    1.20
   35     1    1.20
   36     1    1.20
   37     1    1.20
   38     1    1.20
   39     1    1.20
   40     1    1.20
   41     7    1.50
   42     6    1.50
   43     6    1.50
   44     8    1.40
   45     6    1.50
   46     6    1.50
   47     8    1.40
   48     8    1.40
   49     1    1.20
   50     1    1.20
   51     1    1.20
   52     1    1.20
   53     7    1.50
   54     6    1.50
   55     6    1.50
   56     8    1.40
   57     1    1.20
   58     1    1.20
   59     1    1.20
   60     7    1.50
   61     6    1.50
   62     6    1.50
   63     8    1.40
   64     6    1.50
   65     6    1.50
   66     7    1.50
   67     8    1.40
   68     1    1.20
   69     1    1.20
   70     1    1.20
   71     1    1.20
   72     1    1.20
   73     1    1.20
   74     7    1.50
   75     6    1.50
   76     6    1.50
   77     8    1.40
   78     1    1.20
   79     1    1.20
   80     1    1.20
   81     7    1.50
   82     6    1.50
   83     6    1.50
   84     8    1.40
   85     6    1.50
   86     6    1.50
   87     6    1.50
   88     6    1.50
   89     6    1.50
   90     6    1.50
   91     6    1.50
   92     8    1.40
   93     1    1.20
   94     1    1.20
   95     1    1.20
   96     1    1.20
   97     1    1.20
   98     1    1.20
   99     1    1.20
  100     1    1.20
  101     1    1.20
  102     7    1.50
  103     6    1.50
  104     6    1.50
  105     8    1.40
  106     6    1.50
  107     6    1.50
  108     6    1.50
  109     6    1.50
  110     1    1.20
  111     1    1.20
  112     1    1.20
  113     1    1.20
  114     1    1.20
  115     1    1.20
  116     1    1.20
  117     1    1.20
  118     1    1.20
  119     1    1.20
  120     1    1.20
  121     7    1.50
  122     6    1.50
  123     6    1.50
  124     8    1.40
  125     6    1.50
  126     8    1.40
  127     1    1.20
  128     1    1.20
  129     1    1.20
  130     1    1.20
  131     1    1.20
  132     7    1.50
  133     6    1.50
  134     6    1.50
  135     8    1.40
  136     6    1.50
  137     1    1.20
  138     1    1.20
  139     1    1.20
  140     1    1.20
  141     1    1.20
  142     7    1.50
  143     6    1.50
  144     6    1.50
  145     8    1.40
[...]
 **** Fit      -0.014431
 **** Fit      -0.017653
 **** Fit      -0.021040
 **** Fit      -0.024198
 **** Fit      -0.003097
 **** Fit      -0.003609
 **** Fit      -0.004127
 **** Fit      -0.004801
 **** Fit      -0.005753
 **** Fit      -0.007087
 **** Fit      -0.008896
 **** Fit      -0.011264
 **** Fit      -0.014260
 **** Fit      -0.017917
 **** Fit      -0.022191
 **** Fit      -0.026889
 **** Fit      -0.003582
 **** Fit      -0.004062
 **** Fit      -0.004615
 **** Fit      -0.005390
 **** Fit      -0.006512
 **** Fit      -0.008097
 **** Fit      -0.010265
 **** Fit      -0.013146
 **** Fit      -0.016876
 **** Fit      -0.021586
 **** Fit      -0.027350
 **** Fit      -0.004066
 **** Fit      -0.004639
 **** Fit      -0.005419
 **** Fit      -0.006566
 **** Fit      -0.008236
 **** Fit      -0.010599
 **** Fit      -0.013864
 **** Fit      -0.018290
 **** Fit      -0.024203
 **** Fit      -0.005026
 **** Fit      -0.006103
 **** Fit      -0.007692
 **** Fit      -0.010029
 **** Fit      -0.013409
 **** Fit      -0.018251
 **** Fit      -0.004237
 **** Fit      -0.002993
 **** Fit      -0.001580
 **** Fit      -0.006125
 **** Fit      -0.004890
 **** Fit      -0.003252
 **** Fit      -0.001786
 **** Fit      -0.000687
 **** Fit      -0.008370
 **** Fit      -0.006961
 **** Fit      -0.005161
 **** Fit      -0.003404
 **** Fit      -0.001926
 **** Fit      -0.000773
 **** Fit       0.000117
 **** Fit      -0.008897
 **** Fit      -0.011122
 **** Fit      -0.009347
 **** Fit      -0.007185
 **** Fit      -0.005047
 **** Fit      -0.003192
 **** Fit      -0.001700
 **** Fit      -0.000542
 **** Fit       0.000355
 **** Fit       0.001094
 **** Fit      -0.012051
 **** Fit      -0.014588
 **** Fit      -0.012239
 **** Fit      -0.009497
 **** Fit      -0.006811
 **** Fit      -0.004480
 **** Fit      -0.002608
 **** Fit      -0.001153
 **** Fit      -0.000023
 **** Fit       0.000851
 **** Fit       0.001549
 **** Fit      -0.016037
 **** Fit      -0.019062
 **** Fit      -0.015948
 **** Fit      -0.012449
 **** Fit      -0.009058
 **** Fit      -0.006119
 **** Fit      -0.003780
 **** Fit      -0.002002
 **** Fit      -0.000629
 **** Fit       0.000475
 **** Fit       0.001343
 **** Fit       0.001995
 **** Fit       0.002568
 **** Fit      -0.021222
 **** Fit      -0.024986
 **** Fit      -0.020532
 **** Fit      -0.015736
 **** Fit      -0.011224
 **** Fit      -0.007422
 **** Fit      -0.004517
 **** Fit      -0.002443
 **** Fit      -0.000941
 **** Fit       0.000285
 **** Fit      -0.028326
 **** Fit      -0.026620
 **** Fit      -0.020030
 **** Fit      -0.014029
 **** Fit      -0.009102
 **** Fit      -0.005469
 **** Fit      -0.003053
 **** Fit      -0.001516
 **** Fit      -0.000377
 **** Fit      -0.017194
 **** Fit      -0.010814
 **** Fit      -0.006333
 **** Fit      -0.003610
 **** Fit      -0.002193
 **** Fit      -0.011904
 **** Fit      -0.006785
 **** Fit      -0.004164
 **** Fit      -0.003294
 **** Fit      -0.013089
 **** Fit      -0.007874
 **** Fit      -0.005870
 **** Fit      -0.010919
 **** Fit      -0.009067
 **** Fit      -0.009317
 **** Fit      -0.005245
 **** Fit      -0.000878
 **** Fit       0.001304
 **** Fit      -0.033105
 **** Fit      -0.030191
 **** Fit      -0.028167
 **** Fit       0.025094
 **** Fit       0.019154
 **** Fit       0.010741
 **** Fit       0.000046
 **** Fit      -0.024271
 **** Fit      -0.020043
 **** Fit      -0.017025
 **** Fit      -0.014935
 **** Fit      -0.013553
 **** Fit      -0.012768
 **** Fit      -0.012507
 **** Fit       0.000148
 **** Fit       0.015212
 **** Fit       0.030722
 **** Fit       0.027930
 **** Fit       0.022752
 **** Fit       0.015327
 **** Fit       0.005832
 **** Fit      -0.013122
 **** Fit      -0.009256
 **** Fit      -0.006262
 **** Fit      -0.004071
 **** Fit      -0.002563
 **** Fit      -0.001614
 **** Fit      -0.001062
 **** Fit      -0.000629
 **** Fit       0.010730
 **** Fit       0.012564
 **** Fit       0.015309
 **** Fit       0.018905
 **** Fit       0.022911
 **** Fit       0.026567
 **** Fit       0.029061
 **** Fit       0.029983
 **** Fit       0.034675
 **** Fit       0.033919
 **** Fit       0.031273
 **** Fit       0.026578
 **** Fit      -0.006136
 **** Fit      -0.002974
 **** Fit       0.000128
 **** Fit       0.002824
 **** Fit       0.004990
 **** Fit       0.006629
 **** Fit       0.007819
 **** Fit       0.008716
 **** Fit       0.009570
 **** Fit       0.019379
 **** Fit       0.021327
 **** Fit       0.023873
 **** Fit       0.026882
 **** Fit       0.029952
 **** Fit       0.032548
 **** Fit       0.034264
 **** Fit       0.035064
 **** Fit       0.035311
 **** Fit       0.037995
 **** Fit       0.038497
 **** Fit       0.037945
 **** Fit       0.035851
 **** Fit       0.005559
 **** Fit       0.007541
 **** Fit       0.009841
 **** Fit       0.012016
 **** Fit       0.013877
 **** Fit       0.015399
 **** Fit       0.016678
 **** Fit       0.017914
 **** Fit       0.026214
 **** Fit       0.028248
 **** Fit       0.030635
 **** Fit       0.033221
 **** Fit       0.035690
 **** Fit       0.037709
 **** Fit       0.039116
 **** Fit       0.040011
 **** Fit       0.040663
 **** Fit       0.041302
 **** Fit       0.041939
 **** Fit       0.042330
 **** Fit       0.042050
 **** Fit       0.015651
 **** Fit       0.017533
 **** Fit       0.019480
 **** Fit       0.021276
 **** Fit       0.022907
 **** Fit       0.024489
 **** Fit       0.031383
 **** Fit       0.033525
 **** Fit       0.035828
 **** Fit       0.038153
 **** Fit       0.040276
 **** Fit       0.042011
 **** Fit       0.043322
 **** Fit       0.044311
 **** Fit       0.045097
 **** Fit       0.045676
 **** Fit       0.023495
 **** Fit       0.025513
 **** Fit       0.027479
 **** Fit       0.029401
 **** Fit       0.035044
 **** Fit       0.037428
 **** Fit       0.039818
 **** Fit       0.042090
 **** Fit       0.044091
 **** Fit       0.045742
 **** Fit       0.047073
 **** Fit       0.048154
 **** Fit       0.030313
 **** Fit       0.032689
 **** Fit       0.037395
 **** Fit       0.040148
 **** Fit       0.042763
 **** Fit       0.045158
 **** Fit       0.007621
 **** Fit      -0.002728
 **** Fit      -0.012750
 **** Fit       0.028938
 **** Fit       0.021084
 **** Fit       0.013112
 **** Fit       0.005264
 **** Fit      -0.002230
 **** Fit      -0.009159
 **** Fit      -0.015309
 **** Fit       0.035875
 **** Fit       0.030218
 **** Fit       0.024287
 **** Fit       0.018208
 **** Fit       0.012185
 **** Fit       0.006441
 **** Fit       0.001194
 **** Fit      -0.003338
 **** Fit      -0.006928
 **** Fit      -0.009328
 **** Fit      -0.010262
 **** Fit       0.007625
 **** Fit       0.011354
 **** Fit       0.043043
 **** Fit       0.039304
 **** Fit       0.035280
 **** Fit       0.030940
 **** Fit       0.026330
 **** Fit       0.021581
 **** Fit       0.016877
 **** Fit       0.012430
 **** Fit       0.008453
 **** Fit       0.005160
 **** Fit       0.002762
 **** Fit       0.001463
 **** Fit       0.001450
 **** Fit       0.012348
 **** Fit       0.013951
 **** Fit       0.017021
 **** Fit       0.021330
 **** Fit       0.032096
 **** Fit       0.047428
 **** Fit       0.046702
 **** Fit       0.045305
 **** Fit       0.043417
 **** Fit       0.041126
 **** Fit       0.038451
 **** Fit       0.035388
 **** Fit       0.031973
 **** Fit       0.028295
 **** Fit       0.024506
 **** Fit       0.020797
 **** Fit       0.017379
 **** Fit       0.014469
 **** Fit       0.012274
 **** Fit       0.010987
 **** Fit       0.010771
 **** Fit       0.011735
 **** Fit       0.016286
 **** Fit       0.016454
 **** Fit       0.017860
 **** Fit       0.020362
 **** Fit       0.023750
 **** Fit       0.027760
 **** Fit       0.029164
 **** Fit       0.032536
 **** Fit       0.035808
 **** Fit       0.038724
 **** Fit       0.041072
 **** Fit       0.042722
 **** Fit       0.043643
 **** Fit       0.043885
 **** Fit       0.043536
 **** Fit       0.019009
 **** Fit       0.019383
 **** Fit       0.019980
 **** Fit       0.019309
 **** Fit       0.019676
 **** Fit       0.021008
 **** Fit       0.023164
 **** Fit       0.025957
 **** Fit       0.028637
 **** Fit       0.031504
 **** Fit       0.034437
 **** Fit       0.037202
 **** Fit       0.039605
 **** Fit       0.041512
 **** Fit       0.024072
 **** Fit       0.022681
 **** Fit       0.022222
 **** Fit       0.022699
 **** Fit       0.024030
 **** Fit       0.026072
 **** Fit       0.029878
 **** Fit       0.032500
 **** Fit       0.035328
 **** Fit       0.028681
 **** Fit       0.026767
 **** Fit       0.025652
 **** Fit       0.025454
 **** Fit       0.026168
 **** Fit       0.027697
 **** Fit       0.032448
 **** Fit       0.033379
 **** Fit       0.031295
 **** Fit       0.029787
 **** Fit       0.029109
 **** Fit       0.029362
 **** Fit       0.030517
 **** Fit      -0.004782
 **** Fit      -0.002087
 **** Fit      -0.000524
 **** Fit      -0.000172
 **** Fit      -0.000859
 **** Fit      -0.002176
 **** Fit      -0.003514
 **** Fit      -0.004130
 **** Fit      -0.003244
 **** Fit      -0.000128
 **** Fit      -0.004364
 **** Fit      -0.003523
 **** Fit      -0.001849
 **** Fit       0.000315
 **** Fit       0.002573
 **** Fit       0.004556
 **** Fit       0.005989
 **** Fit       0.006731
 **** Fit       0.006785
 **** Fit       0.006297
 **** Fit       0.005540
 **** Fit       0.004885
 **** Fit       0.004759
 **** Fit       0.005586
 **** Fit       0.007741
 **** Fit       0.006452
 **** Fit       0.007027
 **** Fit       0.008144
 **** Fit       0.009505
 **** Fit       0.010823
 **** Fit       0.011866
 **** Fit       0.012491
 **** Fit       0.012660
 **** Fit       0.012444
 **** Fit       0.012005
 **** Fit       0.011582
 **** Fit       0.011450
 **** Fit       0.011887
 **** Fit       0.013123
 **** Fit       0.015071
 **** Fit       0.014957
 **** Fit       0.015384
 **** Fit       0.016074
 **** Fit       0.016777
 **** Fit       0.017308
 **** Fit       0.017565
 **** Fit       0.017536
 **** Fit       0.017298
 **** Fit       0.016996
 **** Fit       0.016820
 **** Fit       0.016968
 **** Fit       0.017606
 **** Fit       0.022478
 **** Fit       0.021636
 **** Fit       0.021412
 **** Fit       0.021520
 **** Fit       0.021727
 **** Fit       0.021872
 **** Fit       0.021876
 **** Fit       0.021739
 **** Fit       0.021533
 **** Fit       0.021378
 **** Fit       0.021415
 **** Fit       0.021777
 **** Fit       0.029010
 **** Fit       0.027373
 **** Fit       0.026550
 **** Fit       0.026174
 **** Fit       0.025984
 **** Fit       0.025826
 **** Fit       0.025648
 **** Fit       0.025490
 **** Fit       0.025455
 **** Fit       0.025676
 **** Fit       0.032390
 **** Fit       0.030989
 **** Fit       0.030201
 **** Fit       0.029734
 **** Fit       0.029453
 **** Fit       0.029352
 **** Fit       0.029527
 **** Fit       0.030139
 **** Fit       0.035598
 **** Fit       0.034240
 **** Fit       0.033576
 **** Fit       0.033447
 **** Fit       0.033932
 **** Fit       0.038143
 **** Fit       0.041737
 **** Fit       0.039365
 **** Fit       0.036720
 **** Fit       0.033843
 **** Fit       0.030801
 **** Fit       0.027706
 **** Fit       0.024712
 **** Fit       0.022007
 **** Fit       0.019801
 **** Fit       0.042583
 **** Fit       0.042263
 **** Fit       0.041388
 **** Fit       0.040075
 **** Fit       0.038404
 **** Fit       0.036434
 **** Fit       0.034229
 **** Fit       0.031880
 **** Fit       0.029510
 **** Fit       0.027276
 **** Fit       0.025356
 **** Fit       0.023945
 **** Fit       0.023242
 **** Fit       0.023441
 **** Fit       0.024710
 **** Fit       0.037377
 **** Fit       0.039038
 **** Fit       0.040127
 **** Fit       0.040613
 **** Fit       0.040539
 **** Fit       0.039980
 **** Fit       0.039011
 **** Fit       0.037696
 **** Fit       0.036104
 **** Fit       0.034324
 **** Fit       0.032471
 **** Fit       0.030689
 **** Fit       0.029144
 **** Fit       0.028012
 **** Fit       0.027466
 **** Fit       0.027657
 **** Fit       0.028688
 **** Fit       0.030578
 **** Fit       0.033654
 **** Fit       0.035320
 **** Fit       0.036935
 **** Fit       0.038276
 **** Fit       0.039209
 **** Fit       0.039679
 **** Fit       0.039694
 **** Fit       0.039293
 **** Fit       0.038527
 **** Fit       0.037462
 **** Fit       0.036176
 **** Fit       0.034774
 **** Fit       0.033387
 **** Fit       0.032163
 **** Fit       0.031256
 **** Fit       0.030812
 **** Fit       0.030946
 **** Fit       0.031712
 **** Fit       0.033073
 **** Fit       0.034859
 **** Fit       0.036749
 **** Fit       0.032219
 **** Fit       0.034673
 **** Fit       0.035976
 **** Fit       0.037270
 **** Fit       0.038338
 **** Fit       0.039044
 **** Fit       0.039331
 **** Fit       0.039199
 **** Fit       0.038688
 **** Fit       0.037866
 **** Fit       0.036833
 **** Fit       0.035716
 **** Fit       0.034670
 **** Fit       0.033859
 **** Fit       0.033434
 **** Fit       0.033499
 **** Fit       0.034082
 **** Fit       0.035092
 **** Fit       0.036298
 **** Fit       0.037351
 **** Fit       0.037877
 **** Fit       0.037640
 **** Fit       0.036686
 **** Fit       0.035340
 **** Fit       0.034059
 **** Fit       0.033240
 **** Fit       0.033096
 **** Fit       0.033628
 **** Fit       0.035783
 **** Fit       0.036788
 **** Fit       0.037799
 **** Fit       0.038602
 **** Fit       0.039063
 **** Fit       0.039130
 **** Fit       0.038820
 **** Fit       0.038202
 **** Fit       0.037393
 **** Fit       0.036549
 **** Fit       0.035842
 **** Fit       0.035433
 **** Fit       0.035423
 **** Fit       0.035815
 **** Fit       0.036474
 **** Fit       0.037137
 **** Fit       0.037495
 **** Fit       0.037333
 **** Fit       0.036675
 **** Fit       0.035790
 **** Fit       0.035054
 **** Fit       0.034766
 **** Fit       0.035037
 **** Fit       0.036804
 **** Fit       0.037595
 **** Fit       0.038369
 **** Fit       0.038888
 **** Fit       0.039027
 **** Fit       0.038779
 **** Fit       0.038246
 **** Fit       0.037604
 **** Fit       0.037066
 **** Fit       0.036808
 **** Fit       0.036893
 **** Fit       0.037211
 **** Fit       0.037502
 **** Fit       0.037495
 **** Fit       0.037115
 **** Fit       0.036567
 **** Fit       0.036201
 **** Fit       0.036274
 **** Fit       0.037624
 **** Fit       0.038265
 **** Fit       0.038777
 **** Fit       0.038871
 **** Fit       0.038551
 **** Fit       0.038075
 **** Fit       0.037761
 **** Fit       0.037736
 **** Fit       0.037805
 **** Fit       0.037669
 **** Fit       0.037361
 **** Fit       0.037263
 **** Fit       0.038175
 **** Fit       0.038624
 **** Fit       0.038601
 **** Fit       0.038281
 **** Fit       0.038125
 **** Fit       0.037986
 **** Fit       0.038407
 -----------------------------------------------------------------
 Leave Link  602 at Tue Sep 17 10:18:22 2019, MaxMem=  1342177280 cpu:             125.5 elap:               2.7

 Test job not archived.
 1\1\GINC-C490-132\SP\RB3LYP\SVP\C54H83Ca1N15O23\PENGZHI\17-Sep-2019\0\
 \#b3lyp/svp scf=(tight,noincore) Test #IOP(5/87=12) Density=Current Po
 p=(MK,readradii) iop(6/33=2) iop(6/42=6)\\Ng-293_loop3_47.0\\0,1\C,0,5
 9.59,83.44,76.869\C,0,60.24,82.88,75.609\O,0,61.37,82.4,75.709\H,0,58.
 58,83.042,76.964\H,0,60.177,83.151,77.741\H,0,59.547,84.527,76.804\N,0
 ,59.5,82.9,74.499\C,0,59.81,82.38,73.189\C,0,58.83,81.29,72.759\O,0,57
 .73,81.16,73.299\C,0,59.97,83.5,72.169\C,0,60.8,83.06,70.969\O,0,60.53
 ,83.61,69.879\O,0,61.68,82.17,71.079\H,0,58.51,83.11,74.609\H,0,60.83,
 82.02,73.319\H,0,60.35,84.37,72.679\H,0,58.99,83.8,71.809\N,0,59.14,80
 .61,71.659\C,0,58.38,79.6,70.939\C,0,56.92,79.76,70.529\O,0,56.42,78.8
 6,69.859\C,0,58.55,78.24,71.619\C,0,59.96,77.8,71.969\C,0,59.9,76.42,7
 2.629\C,0,61.27,76.,73.139\N,0,61.26,74.67,73.769\H,0,60.12,80.71,71.4
 39\H,0,58.9,79.57,69.989\H,0,58.12,77.47,70.979\H,0,57.84,78.13,72.439
 \H,0,60.41,78.52,72.649\H,0,60.66,77.78,71.129\H,0,59.5,75.68,71.929\H
 ,0,59.23,76.42,73.489\H,0,61.61,76.77,73.839\H,0,61.98,76.,72.309\H,0,
 62.12,74.41,74.219\H,0,60.51,74.68,74.449\H,0,60.82,73.98,73.179\N,0,5
 6.26,80.88,70.839\C,0,54.98,81.23,70.249\C,0,54.85,82.73,70.079\O,0,55
 .3,83.46,70.959\C,0,53.87,80.74,71.179\C,0,52.43,80.82,70.689\O,0,51.5
 1,80.25,71.319\O,0,52.19,81.34,69.579\H,0,56.63,81.55,71.499\H,0,54.86
 ,80.78,69.269\H,0,54.02,81.24,72.129\H,0,53.98,79.66,71.259\N,0,54.25,
 83.19,68.979\C,0,53.81,84.56,68.789\C,0,52.31,84.49,68.499\O,0,51.78,8
 3.55,67.929\H,0,54.06,82.53,68.239\H,0,54.25,85.13,67.969\H,0,53.94,85
 .07,69.739\N,0,51.74,85.63,68.889\C,0,50.33,85.9,68.719\C,0,50.11,87.2
 9,68.139\O,0,49.,87.59,67.699\C,0,49.64,85.76,70.079\C,0,49.48,84.31,7
 0.539\N,0,49.57,84.04,71.839\O,0,49.34,83.34,69.799\H,0,52.36,86.33,69
 .269\H,0,49.9,85.07,68.159\H,0,48.67,86.25,70.049\H,0,50.22,86.41,70.7
 29\H,0,49.7,84.77,72.519\H,0,49.31,83.1,72.119\N,0,51.07,88.22,68.129\
 C,0,51.12,89.47,67.389\C,0,50.04,90.49,67.729\O,0,50.08,90.97,68.859\H
 ,0,51.94,88.,68.579\H,0,51.08,89.29,66.319\H,0,52.04,90.,67.629\N,0,49
 .11,90.82,66.839\C,0,47.81,91.42,67.099\C,0,47.04,90.83,68.259\O,0,46.
 16,91.48,68.819\C,0,47.99,92.94,67.179\C,0,48.67,93.58,65.999\C,0,50.0
 1,93.99,66.049\C,0,47.93,93.83,64.839\C,0,50.58,94.61,64.939\C,0,48.53
 ,94.39,63.699\C,0,49.89,94.77,63.719\O,0,50.5,95.48,62.729\H,0,49.19,9
 0.39,65.929\H,0,47.12,91.25,66.269\H,0,48.53,93.1,68.109\H,0,46.99,93.
 35,67.329\H,0,50.6,93.77,66.919\H,0,46.88,93.58,64.889\H,0,51.61,94.94
 ,64.869\H,0,48.01,94.56,62.769\H,0,49.93,95.67,61.979\N,0,47.3,89.56,6
 8.609\C,0,46.62,88.64,69.509\C,0,45.18,88.33,69.139\O,0,44.79,87.2,68.
 869\C,0,46.81,89.01,70.979\C,0,48.26,89.25,71.399\C,0,46.32,87.87,71.8
 59\C,0,48.43,89.88,72.779\H,0,48.13,89.18,68.189\H,0,47.12,87.69,69.35
 9\H,0,46.2,89.86,71.269\H,0,48.6,90.03,70.709\H,0,48.94,88.42,71.279\H
 ,0,46.78,86.9,71.679\H,0,46.36,88.15,72.909\H,0,45.24,87.77,71.719\H,0
 ,49.47,90.02,73.079\H,0,48.18,90.93,72.619\H,0,47.82,89.42,73.559\N,0,
 44.36,89.36,68.919\C,0,43.07,89.2,68.279\C,0,42.01,88.53,69.129\O,0,41
 .04,88.06,68.539\C,0,42.68,90.59,67.759\O,0,42.62,91.41,68.899\H,0,44.
 78,90.27,69.069\H,0,43.25,88.62,67.369\H,0,41.67,90.56,67.339\H,0,43.4
 1,90.85,66.999\H,0,41.78,91.87,68.919\N,0,42.18,88.41,70.449\C,0,41.36
 ,87.76,71.449\C,0,41.33,86.24,71.309\O,0,40.42,85.59,71.819\C,0,39.99,
 88.41,71.469\H,0,43.01,88.86,70.839\H,0,41.79,87.96,72.429\H,0,40.04,8
 9.46,71.169\H,0,39.3,87.85,70.829\H,0,39.7,88.35,72.509\N,0,42.36,85.7
 4,70.629\C,0,42.65,84.33,70.449\C,0,44.,83.95,71.059\O,0,44.82,84.84,7
 1.259\C,0,42.55,84.14,68.939\H,0,43.04,86.35,70.199\H,0,41.84,83.71,70
 .819\H,0,42.55,83.1,68.639\H,0,41.63,84.56,68.549\H,0,43.43,84.53,68.4
 19\N,0,44.14,82.7,71.499\C,0,45.17,82.27,72.429\C,0,45.44,83.1,73.669\
 O,0,46.4,82.81,74.389\C,0,46.42,81.95,71.619\C,0,46.14,80.98,70.469\C,
 0,47.28,81.08,69.469\O,0,47.19,81.88,68.509\O,0,48.29,80.34,69.579\H,0
 ,43.38,82.07,71.269\H,0,44.8,81.3,72.759\H,0,47.21,81.51,72.219\H,0,46
 .71,82.94,71.269\H,0,45.18,81.17,70.009\H,0,46.04,80.,70.949\N,0,44.62
 ,84.09,74.049\C,0,44.6,84.89,75.249\H,0,43.832,85.659,75.16\H,0,44.379
 ,84.254,76.106\H,0,45.572,85.363,75.387\H,0,43.88,84.23,73.379\Ca,0,50
 .06,81.46,68.15\O,0,48.7,80.62,66.02\H,0,47.92,80.16,66.32\H,0,48.66,8
 0.54,65.06\\Version=ES64L-G16RevA.03\State=1-A\HF=-5333.4291241\RMSD=2
 .094e-09\Dipole=1.8225243,-7.5099821,-2.1364878\Quadrupole=-157.198620
 6,184.1549203,-26.9562997,-238.6405109,67.8039755,-86.6665031\PG=C01 [
 X(C54H83Ca1N15O23)]\\@


 NATURE WILL TELL YOU A DIRECT LIE IF SHE CAN.

                                -- CHARLES DARWIN
 Job cpu time:       0 days  8 hours 11 minutes 32.3 seconds.
 Elapsed time:       0 days  0 hours 10 minutes 22.7 seconds.
 File lengths (MBytes):  RWF=   1517 Int=      0 D2E=      0 Chk=    171 Scr=      1
 Normal termination of Gaussian 16 at Tue Sep 17 10:18:24 2019.
