 Entering Gaussian System, Link 0=g16
 Initial command:
 /home1/apps/gaussian/16rA.03/g16/l1.exe "/scratch/01990/pengzhi/4353667/Gau-363345.inp" -scrdir="/scratch/01990/pengzhi/4353667/"
 Entering Link 1 = /home1/apps/gaussian/16rA.03/g16/l1.exe PID=    363347.
  
 Copyright (c) 1988,1990,1992,1993,1995,1998,2003,2009,2016,
            Gaussian, Inc.  All Rights Reserved.
  
 This is part of the Gaussian(R) 16 program.  It is based on
 the Gaussian(R) 09 system (copyright 2009, Gaussian, Inc.),
 the Gaussian(R) 03 system (copyright 2003, Gaussian, Inc.),
 the Gaussian(R) 98 system (copyright 1998, Gaussian, Inc.),
 the Gaussian(R) 94 system (copyright 1995, Gaussian, Inc.),
 the Gaussian 92(TM) system (copyright 1992, Gaussian, Inc.),
 the Gaussian 90(TM) system (copyright 1990, Gaussian, Inc.),
 the Gaussian 88(TM) system (copyright 1988, Gaussian, Inc.),
 the Gaussian 86(TM) system (copyright 1986, Carnegie Mellon
 University), and the Gaussian 82(TM) system (copyright 1983,
 Carnegie Mellon University). Gaussian is a federally registered
 trademark of Gaussian, Inc.
  
 This software contains proprietary and confidential information,
 including trade secrets, belonging to Gaussian, Inc.
  
 This software is provided under written license and may be
 used, copied, transmitted, or stored only in accord with that
 written license.
  
 The following legend is applicable only to US Government
 contracts under FAR:
  
                    RESTRICTED RIGHTS LEGEND
  
 Use, reproduction and disclosure by the US Government is
 subject to restrictions as set forth in subparagraphs (a)
 and (c) of the Commercial Computer Software - Restricted
 Rights clause in FAR 52.227-19.
  
 Gaussian, Inc.
 340 Quinnipiac St., Bldg. 40, Wallingford CT 06492
  
  
 ---------------------------------------------------------------
 Warning -- This program may not be used in any manner that
 competes with the business of Gaussian, Inc. or will provide
 assistance to any competitor of Gaussian, Inc.  The licensee
 of this program is prohibited from giving any competitor of
 Gaussian, Inc. access to this program.  By using this program,
 the user acknowledges that Gaussian, Inc. is engaged in the
 business of creating and licensing software in the field of
 computational chemistry and represents and warrants to the
 licensee that it is not a competitor of Gaussian, Inc. and that
 it will not use this program in any manner prohibited above.
 ---------------------------------------------------------------
  

 Cite this work as:
 Gaussian 16, Revision A.03,
 M. J. Frisch, G. W. Trucks, H. B. Schlegel, G. E. Scuseria, 
 M. A. Robb, J. R. Cheeseman, G. Scalmani, V. Barone, 
 G. A. Petersson, H. Nakatsuji, X. Li, M. Caricato, A. V. Marenich, 
 J. Bloino, B. G. Janesko, R. Gomperts, B. Mennucci, H. P. Hratchian, 
 J. V. Ortiz, A. F. Izmaylov, J. L. Sonnenberg, D. Williams-Young, 
 F. Ding, F. Lipparini, F. Egidi, J. Goings, B. Peng, A. Petrone, 
 T. Henderson, D. Ranasinghe, V. G. Zakrzewski, J. Gao, N. Rega, 
 G. Zheng, W. Liang, M. Hada, M. Ehara, K. Toyota, R. Fukuda, 
 J. Hasegawa, M. Ishida, T. Nakajima, Y. Honda, O. Kitao, H. Nakai, 
 T. Vreven, K. Throssell, J. A. Montgomery, Jr., J. E. Peralta, 
 F. Ogliaro, M. J. Bearpark, J. J. Heyd, E. N. Brothers, K. N. Kudin, 
 V. N. Staroverov, T. A. Keith, R. Kobayashi, J. Normand, 
 K. Raghavachari, A. P. Rendell, J. C. Burant, S. S. Iyengar, 
 J. Tomasi, M. Cossi, J. M. Millam, M. Klene, C. Adamo, R. Cammi, 
 J. W. Ochterski, R. L. Martin, K. Morokuma, O. Farkas, 
 J. B. Foresman, and D. J. Fox, Gaussian, Inc., Wallingford CT, 2016.
 
 ******************************************
 Gaussian 16:  ES64L-G16RevA.03 25-Dec-2016
                18-Sep-2019 
 ******************************************
 %chk=Ng-295_loop3_23.0.chk
 %nprocshared=48
 Will use up to   48 processors via shared memory.
 %mem=10GB
 %nosave
 ----------------------------------------------------------------------
 #b3lyp/svp scf=(tight,noincore) Test #IOP(5/87=12) Density=Current Pop
 =(MK,readradii) iop(6/33=2) iop(6/42=6)
 ----------------------------------------------------------------------
 1/30=1,38=1,172=1/1;
 2/12=2,17=6,18=5,40=1/2;
 3/5=18,7=101,11=2,25=1,30=1,74=-5/1,2,3;
 4//1;
 5/5=4,32=2,38=5,87=12/2;
 6/7=2,8=2,9=2,10=2,15=8,20=101,22=-1,28=1,33=2,42=6/1,2;
 99/5=1,9=1/99;
 -----------------
 Ng-295_loop3_23.0
 -----------------
 Symbolic Z-matrix:
 Charge =  0 Multiplicity = 1
 C                     98.441    78.091    32.01 
 C                     97.951    76.961    31.11 
 O                     97.281    76.071    31.63 
 H                     99.344    78.528    31.584 
 H                     97.669    78.857    32.086 
 H                     98.661    77.697    33.002 
 N                     98.011    76.931    29.78 
 C                     97.501    75.891    28.91 
 C                     98.631    75.151    28.2 
 O                     99.621    75.591    27.63 
 C                     96.671    76.591    27.84 
 C                     95.721    75.701    27.05 
 O                     95.861    74.461    26.97 
 O                     94.731    76.281    26.56 
 H                     98.611    77.601    29.33 
 H                     96.841    75.221    29.47 
 H                     97.341    77.001    27.08 
 H                     96.071    77.361    28.32 
 N                     98.451    73.841    28.32 
 C                     99.421    72.911    27.76 
 C                     99.051    72.401    26.38 
 O                     99.841    71.651    25.82 
 C                     99.711    71.901    28.87 
 C                     101.071   71.231    28.66 
 C                     101.151   69.821    29.26 
 C                     100.481   68.781    28.38 
 N                     100.481   67.411    28.92 
 H                     97.641    73.501    28.83 
 H                     100.321   73.501    27.61 
 H                     98.891    71.171    28.85 
 H                     99.641    72.511    29.76 
 H                     101.811   71.891    29.11 
 H                     101.291   71.101    27.6 
 H                     100.671   69.871    30.23 
 H                     102.221   69.591    29.35 
 H                     100.841   68.831    27.35 
 H                     99.451    69.141    28.33 
 H                     99.891    67.351    29.74 
 H                     100.171   66.671    28.32 
 H                     101.371   67.151    29.33 
 N                     97.921    72.761    25.77 
 C                     97.481    72.421    24.43 
 C                     97.201    73.551    23.46 
 O                     97.331    73.351    22.25 
 C                     96.321    71.441    24.6 
 C                     95.081    71.951    25.32 
 O                     94.581    73.031    24.94 
 O                     94.561    71.361    26.29 
 H                     97.201    73.031    26.42 
 H                     98.271    71.811    23.99 
 H                     96.741    70.581    25.13 
 H                     96.061    71.051    23.61 
 N                     97.201    74.761    24.02 
 C                     96.911    75.981    23.29 
 C                     95.501    75.991    22.72 
 O                     95.151    76.931    22.01 
 H                     97.431    74.891    25. 
 H                     97.651    76.051    22.49 
 H                     97.001    76.851    23.94 
 N                     94.591    75.071    23.03 
 C                     93.181    75.121    22.7 
 C                     92.301    75.741    23.78 
 O                     92.241    75.151    24.85 
 C                     92.721    73.701    22.38 
 C                     91.311    73.581    21.83 
 N                     90.731    72.381    21.89 
 O                     90.751    74.551    21.32 
 H                     94.801    74.261    23.6 
 H                     92.921    75.701    21.81 
 H                     92.781    73.121    23.3 
 H                     93.421    73.281    21.66 
 H                     91.171    71.531    22.21 
 H                     89.941    72.321    21.26 
 N                     91.531    76.821    23.61 
 C                     90.731    77.481    24.62 
 C                     89.331    76.901    24.82 
 O                     88.461    77.591    25.35 
 H                     91.721    77.411    22.82 
 H                     90.751    78.551    24.41 
 H                     91.391    77.501    25.49 
 N                     89.011    75.661    24.47 
 C                     87.741    74.951    24.48 
 C                     87.641    74.131    25.76 
 O                     88.651    73.711    26.32 
 C                     87.711    73.991    23.3 
 C                     86.511    73.091    23.2 
 C                     86.671    71.791    23.7 
 C                     85.381    73.361    22.41 
 C                     85.611    70.881    23.54 
 C                     84.321    72.481    22.2 
 C                     84.491    71.181    22.73 
 O                     83.521    70.261    22.47 
 H                     89.811    75.121    24.17 
 H                     87.021    75.761    24.38 
 H                     88.621    73.401    23.26 
 H                     87.741    74.561    22.36 
 H                     87.541    71.531    24.28 
 H                     85.171    74.371    22.1 
 H                     85.811    69.841    23.73 
 H                     83.451    72.781    21.64 
 H                     82.751    70.781    22.24 
 N                     86.401    74.141    26.27 
 C                     85.981    73.691    27.58 
 C                     86.021    72.181    27.76 
 O                     87.011    71.471    27.56 
 C                     86.731    74.381    28.72 
 C                     86.221    73.921    30.08 
 C                     86.711    75.901    28.54 
 C                     84.761    74.261    30.37 
 H                     85.651    74.611    25.78 
 H                     84.931    73.961    27.68 
 H                     87.761    74.031    28.69 
 H                     86.821    74.491    30.79 
 H                     86.401    72.881    30.32 
 H                     87.431    76.261    27.81 
 H                     85.761    76.301    28.18 
 H                     87.021    76.441    29.44 
 H                     84.451    74.041    31.39 
 H                     84.541    75.321    30.21 
 H                     84.081    73.711    29.72 
 N                     84.861    71.631    28.1 
 C                     84.611    70.221    28.3 
 C                     83.231    69.711    27.89 
 O                     83.021    68.521    27.68 
 C                     84.871    69.761    29.73 
 O                     84.001    70.391    30.65 
 H                     84.061    72.241    28.11 
 H                     85.251    69.691    27.6 
 H                     85.901    70.001    30.01 
 H                     84.801    68.671    29.75 
 H                     84.581    70.801    31.29 
 N                     82.221    70.551    27.67 
 C                     80.891    70.211    27.2 
 C                     79.961    69.351    28.04 
 O                     79.031    68.751    27.49 
 C                     80.921    69.791    25.73 
 H                     82.321    71.541    27.84 
 H                     80.391    71.171    27.26 
 H                     81.041    68.711    25.72 
 H                     80.011    70.081    25.21 
 H                     81.831    70.231    25.32 
 N                     80.071    69.221    29.36 
 C                     80.771    69.931    30.41 
 C                     79.791    70.601    31.37 
 O                     78.631    70.221    31.44 
 C                     81.491    68.791    31.11 
 H                     79.431    68.531    29.74 
 H                     81.501    70.641    30.01 
 H                     80.681    68.181    31.5 
 H                     82.111    68.221    30.42 
 H                     82.081    69.271    31.89 
 N                     80.071    71.621    32.18 
 C                     81.311    72.371    32.29 
 C                     81.101    73.881    32.34 
 O                     82.021    74.621    31.99 
 C                     82.071    71.801    33.48 
 C                     81.371    71.991    34.83 
 C                     82.311    71.591    35.96 
 O                     82.081    70.501    36.53 
 O                     83.271    72.361    36.14 
 H                     79.391    71.771    32.91 
 H                     81.991    72.251    31.44 
 H                     83.041    72.291    33.54 
 H                     82.271    70.741    33.34 
 H                     80.401    71.511    34.82 
 H                     81.261    73.061    35.02 
 N                     79.961    74.411    32.78 
 C                     79.681    75.821    32.59 
 H                     78.756    76.08     33.106 
 H                     80.501    76.413    32.996 
 H                     79.573    76.03     31.526 
 H                     79.241    73.711    32.89 
 Ca                    93.24     74.07     26.99 
 O                     92.42     72.56     28.94 
 H                     92.84     72.72     29.78 
 H                     91.92     71.76     29.07 
 
 Stoichiometry    C54H83CaN15O23
 Framework group  C1[X(C54H83CaN15O23)]
 Deg. of freedom   522
 Full point group                 C1      NOp   1
 Largest Abelian subgroup         C1      NOp   1
 Largest concise Abelian subgroup C1      NOp   1
                         Standard orientation:                         
 ---------------------------------------------------------------------
 Center     Atomic      Atomic             Coordinates (Angstroms)
 Number     Number       Type             X           Y           Z
 ---------------------------------------------------------------------
      1          6           0        8.052282    6.163107   -4.376094
      2          6           0        7.618573    5.258967   -3.226560
      3          8           0        6.728460    5.670682   -2.485218
      4          1           0        9.080863    5.930853   -4.651653
      5          1           0        7.401212    5.998224   -5.234835
      6          1           0        7.985986    7.205325   -4.064508
      7          7           0        7.969375    3.986530   -3.049806
      8          6           0        7.522621    3.100099   -1.994699
      9          6           0        8.664263    2.733079   -1.051009
     10          8           0        9.809332    2.381570   -1.303708
     11          6           0        7.062293    1.815926   -2.674993
     12          6           0        6.195054    0.892236   -1.830368
     13          8           0        6.169586    0.939298   -0.581073
     14          8           0        5.433586    0.141247   -2.472850
     15          1           0        8.744723    3.642397   -3.589998
     16          1           0        6.664844    3.536682   -1.473438
     17          1           0        7.937025    1.207100   -2.917426
     18          1           0        6.487312    2.082770   -3.559013
     19          7           0        8.275536    2.903696    0.207038
     20          6           0        9.202082    2.658352    1.302811
     21          6           0        9.080501    1.271572    1.905686
     22          8           0        9.859405    0.970510    2.801716
     23          6           0        9.088313    3.876911    2.218491
     24          6           0       10.349992    4.043439    3.068807
     25          6           0       10.090247    4.747848    4.407029
     26          6           0        9.491483    3.814017    5.443534
     27          7           0        9.173778    4.438477    6.738761
     28          1           0        7.331783    3.232101    0.389469
     29          1           0       10.188083    2.681540    0.846889
     30          1           0        8.197300    3.718186    2.840265
     31          1           0        8.909622    4.677784    1.514381
     32          1           0       11.057705    4.605157    2.461094
     33          1           0       10.780310    3.077732    3.335523
     34          1           0        9.417892    5.570973    4.196782
     35          1           0       11.068573    5.104233    4.755980
     36          1           0       10.075945    2.897083    5.546662
     37          1           0        8.561471    3.496219    4.967002
     38          1           0        8.413088    5.098448    6.639319
     39          1           0        8.902623    3.838660    7.494006
     40          1           0        9.902740    5.064739    7.061576
     41          7           0        8.179253    0.387555    1.475725
     42          6           0        8.005695   -0.989519    1.898034
     43          6           0        8.115068   -2.078922    0.850447
     44          8           0        8.482085   -3.206022    1.190951
     45          6           0        6.708492   -1.025799    2.704786
     46          6           0        5.425498   -0.658027    1.973508
     47          8           0        5.183720   -1.223867    0.886232
     48          8           0        4.622548    0.202941    2.389929
     49          1           0        7.378690    0.827780    1.052521
     50          1           0        8.777910   -1.184639    2.643294
     51          1           0        6.871256   -0.349711    3.549365
     52          1           0        6.623040   -2.017600    3.161764
     53          7           0        8.163899   -1.625643   -0.402492
     54          6           0        8.222932   -2.491486   -1.565346
     55          6           0        6.992484   -3.376884   -1.688510
     56          8           0        6.948939   -4.216806   -2.584520
     57          1           0        8.185278   -0.631399   -0.605524
     58          1           0        9.125195   -3.097463   -1.459449
     59          1           0        8.289517   -1.904672   -2.481160
     60          7           0        5.913626   -3.223011   -0.924972
     61          6           0        4.635287   -3.878799   -1.112832
     62          6           0        3.634698   -3.085458   -1.946278
     63          8           0        3.252853   -2.019171   -1.483862
     64          6           0        4.059158   -4.192418    0.265616
     65          6           0        2.805546   -5.048834    0.268641
     66          7           0        2.060434   -5.038758    1.375305
     67          8           0        2.519166   -5.746663   -0.703790
     68          1           0        5.872192   -2.561349   -0.159736
     69          1           0        4.666970   -4.845343   -1.623605
     70          1           0        3.827963   -3.243941    0.748668
     71          1           0        4.834516   -4.694109    0.841746
     72          1           0        2.290854   -4.562188    2.234542
     73          1           0        1.431033   -5.831000    1.403686
     74          7           0        3.085693   -3.511439   -3.088790
     75          6           0        2.183625   -2.770029   -3.944525
     76          6           0        0.705869   -2.863348   -3.565145
     77          8           0       -0.152081   -2.605780   -4.408638
     78          1           0        3.530279   -4.275761   -3.564664
     79          1           0        2.403711   -3.047840   -4.975924
     80          1           0        2.628307   -1.772907   -3.974624
     81          7           0        0.297295   -3.186336   -2.343979
     82          6           0       -1.031363   -3.423527   -1.800372
     83          6           0       -1.531781   -2.146187   -1.137965
     84          8           0       -0.743670   -1.334471   -0.658278
     85          6           0       -0.934586   -4.503133   -0.732670
     86          6           0       -2.198497   -4.816384    0.018597
     87          6           0       -2.342949   -4.198146    1.268603
     88          6           0       -3.072454   -5.868177   -0.303631
     89          6           0       -3.459923   -4.535804    2.053242
     90          6           0       -4.173937   -6.256502    0.456658
     91          6           0       -4.315455   -5.606836    1.704739
     92          8           0       -5.324752   -6.019445    2.520811
     93          1           0        1.057925   -3.248607   -1.681284
     94          1           0       -1.586637   -3.749951   -2.677650
     95          1           0       -0.133216   -4.283840   -0.034446
     96          1           0       -0.613595   -5.449040   -1.192697
     97          1           0       -1.671266   -3.411864    1.571095
     98          1           0       -3.060373   -6.292667   -1.293561
     99          1           0       -3.459136   -4.227737    3.084161
    100          1           0       -4.844339   -7.026358    0.112590
    101          1           0       -5.940874   -6.462206    1.937239
    102          7           0       -2.839738   -1.944978   -1.353750
    103          6           0       -3.602146   -0.741315   -1.098937
    104          6           0       -3.820956   -0.445935    0.377198
    105          8           0       -2.923958   -0.353967    1.220486
    106          6           0       -3.034703    0.489167   -1.807543
    107          6           0       -3.896489    1.720807   -1.559172
    108          6           0       -2.795174    0.197761   -3.291089
    109          6           0       -5.319906    1.632607   -2.104519
    110          1           0       -3.385656   -2.631277   -1.858198
    111          1           0       -4.597908   -0.911827   -1.504873
    112          1           0       -2.085373    0.728705   -1.332472
    113          1           0       -3.394796    2.508121   -2.122591
    114          1           0       -3.926159    2.072610   -0.535964
    115          1           0       -1.886136   -0.366518   -3.481191
    116          1           0       -3.573022   -0.404533   -3.764688
    117          1           0       -2.619834    1.103055   -3.880494
    118          1           0       -5.878377    2.564192   -2.032691
    119          1           0       -5.343802    1.347420   -3.160785
    120          1           0       -5.909256    0.883101   -1.576970
    121          7           0       -5.094322   -0.349242    0.741740
    122          6           0       -5.582792   -0.110216    2.081465
    123          6           0       -6.894858   -0.795092    2.458331
    124          8           0       -7.221490   -0.960186    3.628953
    125          6           0       -5.717917    1.370735    2.417064
    126          8           0       -6.671665    2.010651    1.591794
    127          1           0       -5.780066   -0.573156    0.040443
    128          1           0       -4.885565   -0.598543    2.756676
    129          1           0       -4.753033    1.867091    2.277315
    130          1           0       -5.946613    1.454125    3.482026
    131          1           0       -6.196616    2.737238    1.191170
    132          7           0       -7.698567   -1.308363    1.528437
    133          6           0       -8.924574   -2.052153    1.749987
    134          6           0      -10.132547   -1.393846    2.396156
    135          8           0      -10.992447   -2.101678    2.931829
    136          6           0       -8.627484   -3.438517    2.322639
    137          1           0       -7.497798   -1.193184    0.545876
    138          1           0       -9.281953   -2.182762    0.734890
    139          1           0       -8.664869   -3.340155    3.404225
    140          1           0       -9.346826   -4.178302    1.979323
    141          1           0       -7.595299   -3.653838    2.043298
    142          7           0      -10.340235   -0.079215    2.399230
    143          6           0       -9.798002    1.050794    1.674204
    144          6           0      -10.860983    1.700592    0.791744
    145          8           0      -12.049554    1.523093    1.016899
    146          6           0       -9.424290    1.983003    2.814084
    147          1           0      -11.141376    0.189137    2.961602
    148          1           0       -8.902753    0.782797    1.105252
    149          1           0      -10.380047    2.215069    3.275575
    150          1           0       -8.754330    1.502607    3.525261
    151          1           0       -8.960826    2.842439    2.330896
    152          7           0      -10.625423    2.476150   -0.265573
    153          6           0       -9.346756    2.819599   -0.864951
    154          6           0       -9.343240    2.707025   -2.386140
    155          8           0       -8.271685    2.530044   -2.966613
    156          6           0       -8.962038    4.193953   -0.334157
    157          6           0       -9.911284    5.323113   -0.749524
    158          6           0       -9.315182    6.669194   -0.358078
    159          8           0       -9.821056    7.247835    0.629427
    160          8           0       -8.319215    7.013004   -1.018944
    161          1           0      -11.422562    3.012187   -0.573849
    162          1           0       -8.518482    2.165064   -0.573669
    163          1           0       -7.969873    4.444519   -0.704866
    164          1           0       -8.890368    4.183720    0.751181
    165          1           0      -10.913187    5.120260   -0.393939
    166          1           0       -9.905928    5.402270   -1.838930
    167          7           0      -10.464371    2.825564   -3.095445
    168          6           0      -10.489074    2.471314   -4.501324
    169          1           0      -11.458895    2.734187   -4.924771
    170          1           0       -9.704182    3.014273   -5.027480
    171          1           0      -10.325316    1.399388   -4.609019
    172          1           0      -11.283723    2.814164   -2.504655
    173         20           0        3.582155    0.369822   -0.519273
    174          8           0        2.138655    2.177675    0.665201
    175          1           0        2.378806    3.078821    0.470616
    176          1           0        1.512540    2.244892    1.379597
 ---------------------------------------------------------------------
 Rotational constants (GHZ):           0.0232892           0.0068746           0.0062273
 Standard basis: SVP (5D, 7F)
 There are  1809 symmetry adapted cartesian basis functions of A   symmetry.
 There are  1717 symmetry adapted basis functions of A   symmetry.
  1717 basis functions,  2922 primitive gaussians,  1809 cartesian basis functions
   358 alpha electrons      358 beta electrons
       nuclear repulsion energy     18809.3270783452 Hartrees.
 NAtoms=  176 NActive=  176 NUniq=  176 SFac= 1.00D+00 NAtFMM=   60 NAOKFM=T Big=T
 Integral buffers will be    131072 words long.
 Raffenetti 2 integral format.
 Two-electron integral symmetry is turned on.
 One-electron integrals computed using PRISM.
 NBasis=  1717 RedAO= T EigKep=  3.63D-04  NBF=  1717
 NBsUse=  1717 1.00D-06 EigRej= -1.00D+00 NBFU=  1717
 ExpMin= 1.98D-02 ExpMax= 3.51D+04 ExpMxC= 5.28D+03 IAcc=3 IRadAn=         5 AccDes= 0.00D+00
 Harris functional with IExCor=  402 and IRadAn=       5 diagonalized for initial guess.
 HarFok:  IExCor=  402 AccDes= 0.00D+00 IRadAn=         5 IDoV= 1 UseB2=F ITyADJ=14
 ICtDFT=  3500011 ScaDFX=  1.000000  1.000000  1.000000  1.000000
 FoFCou: FMM=F IPFlag=           0 FMFlag=      100000 FMFlg1=        2001
         NFxFlg=           0 DoJE=T BraDBF=F KetDBF=T FulRan=T
         wScrn=  0.000000 ICntrl=       500 IOpCl=  0 I1Cent=   200000004 NGrid=           0
         NMat0=    1 NMatS0=      1 NMatT0=    0 NMatD0=    1 NMtDS0=    0 NMtDT0=    0
 Petite list used in FoFCou.
 Requested convergence on RMS density matrix=1.00D-08 within 128 cycles.
 Requested convergence on MAX density matrix=1.00D-06.
 Requested convergence on             energy=1.00D-06.
 No special actions if energy rises.
 EnCoef did     2 forward-backward iterations
 EnCoef did     3 forward-backward iterations
 EnCoef did     4 forward-backward iterations
 EnCoef did     2 forward-backward iterations
 EnCoef did     1 forward-backward iterations
 EnCoef did     8 forward-backward iterations
 EnCoef did    20 forward-backward iterations
 EnCoef did   100 forward-backward iterations
 EnCoef did    34 forward-backward iterations
 EnCoef did   100 forward-backward iterations
 EnCoef did   100 forward-backward iterations
 EnCoef did   100 forward-backward iterations
 Rare condition: small coef for last iteration:  0.000D+00
 Restarting incremental Fock formation.
 Rare condition: small coef for last iteration:  0.000D+00
 Rare condition: small coef for last iteration:  0.000D+00
 EnCoef did   100 forward-backward iterations
 Rare condition: small coef for last iteration:  0.000D+00
 EnCoef did     2 forward-backward iterations
 EnCoef did     9 forward-backward iterations
 SCF Done:  E(RB3LYP) =  -5333.36336689     A.U. after   39 cycles
            NFock= 39  Conv=0.14D-08     -V/T= 2.0080
 SCF density gives NOpUse=  1 NOpAll=  1.
 Hyperfine terms turned off by default for NAtoms > 100.

 **********************************************************************

            Population analysis using the SCF density.

 **********************************************************************

 Orbital symmetries:
 BldTbl:  Degeneracy threshold= 1.00D-02
       Occupied  (A) (A) (A) (A) (A) (A) (A) (A) (A) (A) (A) (A)
                 (A) (A) (A) (A) (A) (A) (A) (A) (A) (A) (A) (A)
                 (A) (A) (A) (A) (A) (A) (A) (A) (A) (A) (A) (A)
                 (A) (A) (A) (A) (A) (A) (A) (A) (A) (A) (A) (A)
                 (A) (A) (A) (A) (A) (A) (A) (A) (A) (A) (A) (A)
                 (A) (A) (A) (A) (A) (A) (A) (A) (A) (A) (A) (A)
                 (A) (A) (A) (A) (A) (A) (A) (A) (A) (A) (A) (A)
                 (A) (A) (A) (A) (A) (A) (A) (A) (A) (A) (A) (A)
                 (A) (A) (A) (A) (A) (A) (A) (A) (A) (A) (A) (A)
                 (A) (A) (A) (A) (A) (A) (A) (A) (A) (A) (A) (A)
                 (A) (A) (A) (A) (A) (A) (A) (A) (A) (A) (A) (A)
                 (A) (A) (A) (A) (A) (A) (A) (A) (A) (A) (A) (A)
                 (A) (A) (A) (A) (A) (A) (A) (A) (A) (A) (A) (A)
                 (A) (A) (A) (A) (A) (A) (A) (A) (A) (A) (A) (A)
                 (A) (A) (A) (A) (A) (A) (A) (A) (A) (A) (A) (A)
                 (A) (A) (A) (A) (A) (A) (A) (A) (A) (A) (A) (A)
                 (A) (A) (A) (A) (A) (A) (A) (A) (A) (A) (A) (A)
                 (A) (A) (A) (A) (A) (A) (A) (A) (A) (A) (A) (A)
                 (A) (A) (A) (A) (A) (A) (A) (A) (A) (A) (A) (A)
                 (A) (A) (A) (A) (A) (A) (A) (A) (A) (A) (A) (A)
                 (A) (A) (A) (A) (A) (A) (A) (A) (A) (A) (A) (A)
                 (A) (A) (A) (A) (A) (A) (A) (A) (A) (A) (A) (A)
                 (A) (A) (A) (A) (A) (A) (A) (A) (A) (A) (A) (A)
                 (A) (A) (A) (A) (A) (A) (A) (A) (A) (A) (A) (A)
                 (A) (A) (A) (A) (A) (A) (A) (A) (A) (A) (A) (A)
                 (A) (A) (A) (A) (A) (A) (A) (A) (A) (A) (A) (A)
                 (A) (A) (A) (A) (A) (A) (A) (A) (A) (A) (A) (A)
                 (A) (A) (A) (A) (A) (A) (A) (A) (A) (A) (A) (A)
                 (A) (A) (A) (A) (A) (A) (A) (A) (A) (A) (A) (A)
                 (A) (A) (A) (A) (A) (A) (A) (A) (A) (A)
       Virtual   (A) (A) (A) (A) (A) (A) (A) (A) (A) (A) (A) (A)
                 (A) (A) (A) (A) (A) (A) (A) (A) (A) (A) (A) (A)
                 (A) (A) (A) (A) (A) (A) (A) (A) (A) (A) (A) (A)
                 (A) (A) (A) (A) (A) (A) (A) (A) (A) (A) (A) (A)
                 (A) (A) (A) (A) (A) (A) (A) (A) (A) (A) (A) (A)
                 (A) (A) (A) (A) (A) (A) (A) (A) (A) (A) (A) (A)
                 (A) (A) (A) (A) (A) (A) (A) (A) (A) (A) (A) (A)
                 (A) (A) (A) (A) (A) (A) (A) (A) (A) (A) (A) (A)
                 (A) (A) (A) (A) (A) (A) (A) (A) (A) (A) (A) (A)
                 (A) (A) (A) (A) (A) (A) (A) (A) (A) (A) (A) (A)
                 (A) (A) (A) (A) (A) (A) (A) (A) (A) (A) (A) (A)
                 (A) (A) (A) (A) (A) (A) (A) (A) (A) (A) (A) (A)
                 (A) (A) (A) (A) (A) (A) (A) (A) (A) (A) (A) (A)
                 (A) (A) (A) (A) (A) (A) (A) (A) (A) (A) (A) (A)
                 (A) (A) (A) (A) (A) (A) (A) (A) (A) (A) (A) (A)
                 (A) (A) (A) (A) (A) (A) (A) (A) (A) (A) (A) (A)
                 (A) (A) (A) (A) (A) (A) (A) (A) (A) (A) (A) (A)
                 (A) (A) (A) (A) (A) (A) (A) (A) (A) (A) (A) (A)
                 (A) (A) (A) (A) (A) (A) (A) (A) (A) (A) (A) (A)
                 (A) (A) (A) (A) (A) (A) (A) (A) (A) (A) (A) (A)
                 (A) (A) (A) (A) (A) (A) (A) (A) (A) (A) (A) (A)
                 (A) (A) (A) (A) (A) (A) (A) (A) (A) (A) (A) (A)
                 (A) (A) (A) (A) (A) (A) (A) (A) (A) (A) (A) (A)
                 (A) (A) (A) (A) (A) (A) (A) (A) (A) (A) (A) (A)
                 (A) (A) (A) (A) (A) (A) (A) (A) (A) (A) (A) (A)
                 (A) (A) (A) (A) (A) (A) (A) (A) (A) (A) (A) (A)
                 (A) (A) (A) (A) (A) (A) (A) (A) (A) (A) (A) (A)
                 (A) (A) (A) (A) (A) (A) (A) (A) (A) (A) (A) (A)
                 (A) (A) (A) (A) (A) (A) (A) (A) (A) (A) (A) (A)
                 (A) (A) (A) (A) (A) (A) (A) (A) (A) (A) (A) (A)
                 (A) (A) (A) (A) (A) (A) (A) (A) (A) (A) (A) (A)
                 (A) (A) (A) (A) (A) (A) (A) (A) (A) (A) (A) (A)
                 (A) (A) (A) (A) (A) (A) (A) (A) (A) (A) (A) (A)
                 (A) (A) (A) (A) (A) (A) (A) (A) (A) (A) (A) (A)
                 (A) (A) (A) (A) (A) (A) (A) (A) (A) (A) (A) (A)
                 (A) (A) (A) (A) (A) (A) (A) (A) (A) (A) (A) (A)
                 (A) (A) (A) (A) (A) (A) (A) (A) (A) (A) (A) (A)
                 (A) (A) (A) (A) (A) (A) (A) (A) (A) (A) (A) (A)
                 (A) (A) (A) (A) (A) (A) (A) (A) (A) (A) (A) (A)
                 (A) (A) (A) (A) (A) (A) (A) (A) (A) (A) (A) (A)
                 (A) (A) (A) (A) (A) (A) (A) (A) (A) (A) (A) (A)
                 (A) (A) (A) (A) (A) (A) (A) (A) (A) (A) (A) (A)
                 (A) (A) (A) (A) (A) (A) (A) (A) (A) (A) (A) (A)
                 (A) (A) (A) (A) (A) (A) (A) (A) (A) (A) (A) (A)
                 (A) (A) (A) (A) (A) (A) (A) (A) (A) (A) (A) (A)
                 (A) (A) (A) (A) (A) (A) (A) (A) (A) (A) (A) (A)
                 (A) (A) (A) (A) (A) (A) (A) (A) (A) (A) (A) (A)
                 (A) (A) (A) (A) (A) (A) (A) (A) (A) (A) (A) (A)
                 (A) (A) (A) (A) (A) (A) (A) (A) (A) (A) (A) (A)
                 (A) (A) (A) (A) (A) (A) (A) (A) (A) (A) (A) (A)
                 (A) (A) (A) (A) (A) (A) (A) (A) (A) (A) (A) (A)
                 (A) (A) (A) (A) (A) (A) (A) (A) (A) (A) (A) (A)
                 (A) (A) (A) (A) (A) (A) (A) (A) (A) (A) (A) (A)
                 (A) (A) (A) (A) (A) (A) (A) (A) (A) (A) (A) (A)
                 (A) (A) (A) (A) (A) (A) (A) (A) (A) (A) (A) (A)
                 (A) (A) (A) (A) (A) (A) (A) (A) (A) (A) (A) (A)
                 (A) (A) (A) (A) (A) (A) (A) (A) (A) (A) (A) (A)
                 (A) (A) (A) (A) (A) (A) (A) (A) (A) (A) (A) (A)
                 (A) (A) (A) (A) (A) (A) (A) (A) (A) (A) (A) (A)
                 (A) (A) (A) (A) (A) (A) (A) (A) (A) (A) (A) (A)
                 (A) (A) (A) (A) (A) (A) (A) (A) (A) (A) (A) (A)
                 (A) (A) (A) (A) (A) (A) (A) (A) (A) (A) (A) (A)
                 (A) (A) (A) (A) (A) (A) (A) (A) (A) (A) (A) (A)
                 (A) (A) (A) (A) (A) (A) (A) (A) (A) (A) (A) (A)
                 (A) (A) (A) (A) (A) (A) (A) (A) (A) (A) (A) (A)
                 (A) (A) (A) (A) (A) (A) (A) (A) (A) (A) (A) (A)
                 (A) (A) (A) (A) (A) (A) (A) (A) (A) (A) (A) (A)
                 (A) (A) (A) (A) (A) (A) (A) (A) (A) (A) (A) (A)
                 (A) (A) (A) (A) (A) (A) (A) (A) (A) (A) (A) (A)
                 (A) (A) (A) (A) (A) (A) (A) (A) (A) (A) (A) (A)
                 (A) (A) (A) (A) (A) (A) (A) (A) (A) (A) (A) (A)
                 (A) (A) (A) (A) (A) (A) (A) (A) (A) (A) (A) (A)
                 (A) (A) (A) (A) (A) (A) (A) (A) (A) (A) (A) (A)
                 (A) (A) (A) (A) (A) (A) (A) (A) (A) (A) (A) (A)
                 (A) (A) (A) (A) (A) (A) (A) (A) (A) (A) (A) (A)
                 (A) (A) (A) (A) (A) (A) (A) (A) (A) (A) (A) (A)
                 (A) (A) (A) (A) (A) (A) (A) (A) (A) (A) (A) (A)
                 (A) (A) (A) (A) (A) (A) (A) (A) (A) (A) (A) (A)
                 (A) (A) (A) (A) (A) (A) (A) (A) (A) (A) (A) (A)
                 (A) (A) (A) (A) (A) (A) (A) (A) (A) (A) (A) (A)
                 (A) (A) (A) (A) (A) (A) (A) (A) (A) (A) (A) (A)
                 (A) (A) (A) (A) (A) (A) (A) (A) (A) (A) (A) (A)
                 (A) (A) (A) (A) (A) (A) (A) (A) (A) (A) (A) (A)
                 (A) (A) (A) (A) (A) (A) (A) (A) (A) (A) (A) (A)
                 (A) (A) (A) (A) (A) (A) (A) (A) (A) (A) (A) (A)
                 (A) (A) (A) (A) (A) (A) (A) (A) (A) (A) (A) (A)
                 (A) (A) (A) (A) (A) (A) (A) (A) (A) (A) (A) (A)
                 (A) (A) (A) (A) (A) (A) (A) (A) (A) (A) (A) (A)
                 (A) (A) (A) (A) (A) (A) (A) (A) (A) (A) (A) (A)
                 (A) (A) (A) (A) (A) (A) (A) (A) (A) (A) (A) (A)
                 (A) (A) (A) (A) (A) (A) (A) (A) (A) (A) (A) (A)
                 (A) (A) (A) (A) (A) (A) (A) (A) (A) (A) (A) (A)
                 (A) (A) (A) (A) (A) (A) (A) (A) (A) (A) (A) (A)
                 (A) (A) (A) (A) (A) (A) (A) (A) (A) (A) (A) (A)
                 (A) (A) (A) (A) (A) (A) (A) (A) (A) (A) (A) (A)
                 (A) (A) (A) (A) (A) (A) (A) (A) (A) (A) (A) (A)
                 (A) (A) (A) (A) (A) (A) (A) (A) (A) (A) (A) (A)
                 (A) (A) (A) (A) (A) (A) (A) (A) (A) (A) (A) (A)
                 (A) (A) (A) (A) (A) (A) (A) (A) (A) (A) (A) (A)
                 (A) (A) (A) (A) (A) (A) (A) (A) (A) (A) (A) (A)
                 (A) (A) (A) (A) (A) (A) (A) (A) (A) (A) (A) (A)
                 (A) (A) (A) (A) (A) (A) (A) (A) (A) (A) (A) (A)
                 (A) (A) (A) (A) (A) (A) (A) (A) (A) (A) (A) (A)
                 (A) (A) (A) (A) (A) (A) (A) (A) (A) (A) (A) (A)
                 (A) (A) (A) (A) (A) (A) (A) (A) (A) (A) (A) (A)
                 (A) (A) (A) (A) (A) (A) (A) (A) (A) (A) (A) (A)
                 (A) (A) (A) (A) (A) (A) (A) (A) (A) (A) (A) (A)
                 (A) (A) (A) (A) (A) (A) (A) (A) (A) (A) (A) (A)
                 (A) (A) (A) (A) (A) (A) (A) (A) (A) (A) (A) (A)
                 (A) (A) (A) (A) (A) (A) (A) (A) (A) (A) (A) (A)
                 (A) (A) (A) (A) (A) (A) (A) (A) (A) (A) (A) (A)
                 (A) (A) (A) (A) (A) (A) (A) (A) (A) (A) (A) (A)
                 (A) (A) (A) (A) (A) (A) (A) (A) (A) (A) (A) (A)
                 (A) (A) (A)
 The electronic state is 1-A.
 Alpha  occ. eigenvalues -- -145.47439 -19.24983 -19.17076 -19.14631 -19.14319
 Alpha  occ. eigenvalues --  -19.13421 -19.12186 -19.12006 -19.11715 -19.11309
 Alpha  occ. eigenvalues --  -19.10795 -19.10275 -19.10009 -19.09989 -19.09857
 Alpha  occ. eigenvalues --  -19.09347 -19.09255 -19.08483 -19.07953 -19.06667
 Alpha  occ. eigenvalues --  -19.06077 -19.05959 -18.96536 -18.96106 -15.53255
 Alpha  occ. eigenvalues --  -14.57490 -14.39063 -14.38751 -14.37879 -14.37657
 Alpha  occ. eigenvalues --  -14.37232 -14.36995 -14.36990 -14.36234 -14.36135
 Alpha  occ. eigenvalues --  -14.35717 -14.34099 -14.33339 -14.32565 -14.31789
 Alpha  occ. eigenvalues --  -12.66867 -12.66839 -12.66787 -10.34769 -10.32275
 Alpha  occ. eigenvalues --  -10.31415 -10.31071 -10.30630 -10.30616 -10.30362
 Alpha  occ. eigenvalues --  -10.29819 -10.29724 -10.28963 -10.28786 -10.28691
 Alpha  occ. eigenvalues --  -10.28373 -10.28007 -10.27635 -10.26742 -10.26474
 Alpha  occ. eigenvalues --  -10.26194 -10.26010 -10.25760 -10.25476 -10.25237
 Alpha  occ. eigenvalues --  -10.25057 -10.24951 -10.24829 -10.24750 -10.24362
 Alpha  occ. eigenvalues --  -10.24184 -10.23955 -10.23863 -10.23379 -10.22785
 Alpha  occ. eigenvalues --  -10.21833 -10.21505 -10.21236 -10.20964 -10.20455
 Alpha  occ. eigenvalues --  -10.20450 -10.20416 -10.20285 -10.20235 -10.20163
 Alpha  occ. eigenvalues --  -10.20151 -10.20043 -10.19547 -10.19296 -10.17813
 Alpha  occ. eigenvalues --  -10.17633 -10.16506 -10.16052 -10.15523 -10.15349
 Alpha  occ. eigenvalues --  -10.13474 -10.09844  -1.89872  -1.17403  -1.17069
 Alpha  occ. eigenvalues --   -1.16881  -1.13019  -1.10985  -1.07869  -1.07044
 Alpha  occ. eigenvalues --   -1.06522  -1.06246  -1.05597  -1.04499  -1.04402
 Alpha  occ. eigenvalues --   -1.04315  -1.04066  -1.03729  -1.03148  -1.02791
 Alpha  occ. eigenvalues --   -1.02616  -1.02219  -1.01504  -1.00794  -0.99926
 Alpha  occ. eigenvalues --   -0.99167  -0.96544  -0.96075  -0.95568  -0.94393
 Alpha  occ. eigenvalues --   -0.94112  -0.94092  -0.93568  -0.93191  -0.92772
 Alpha  occ. eigenvalues --   -0.92461  -0.92268  -0.91997  -0.90973  -0.90381
 Alpha  occ. eigenvalues --   -0.89985  -0.89810  -0.88953  -0.88442  -0.86083
 Alpha  occ. eigenvalues --   -0.84157  -0.82376  -0.81333  -0.81265  -0.80276
 Alpha  occ. eigenvalues --   -0.79815  -0.79368  -0.78425  -0.77638  -0.76343
 Alpha  occ. eigenvalues --   -0.75689  -0.75483  -0.75238  -0.74722  -0.74376
 Alpha  occ. eigenvalues --   -0.73878  -0.73784  -0.73246  -0.72537  -0.71092
 Alpha  occ. eigenvalues --   -0.70807  -0.70437  -0.69502  -0.69094  -0.68637
 Alpha  occ. eigenvalues --   -0.66989  -0.66815  -0.66152  -0.65747  -0.65140
 Alpha  occ. eigenvalues --   -0.64648  -0.64268  -0.64252  -0.63150  -0.63051
 Alpha  occ. eigenvalues --   -0.62901  -0.62813  -0.62789  -0.61618  -0.61568
 Alpha  occ. eigenvalues --   -0.61068  -0.60885  -0.60739  -0.60439  -0.59972
 Alpha  occ. eigenvalues --   -0.59795  -0.59359  -0.59129  -0.59011  -0.57971
 Alpha  occ. eigenvalues --   -0.57951  -0.56957  -0.56667  -0.56531  -0.56148
 Alpha  occ. eigenvalues --   -0.55691  -0.55563  -0.55238  -0.55110  -0.54602
 Alpha  occ. eigenvalues --   -0.54233  -0.54049  -0.53734  -0.53171  -0.52726
 Alpha  occ. eigenvalues --   -0.52697  -0.52498  -0.52359  -0.52237  -0.51683
 Alpha  occ. eigenvalues --   -0.51431  -0.51298  -0.51219  -0.50874  -0.50530
 Alpha  occ. eigenvalues --   -0.50212  -0.49700  -0.49594  -0.49451  -0.49162
 Alpha  occ. eigenvalues --   -0.48765  -0.48629  -0.48408  -0.48255  -0.48073
 Alpha  occ. eigenvalues --   -0.47785  -0.47507  -0.47206  -0.47108  -0.46947
 Alpha  occ. eigenvalues --   -0.46892  -0.46728  -0.46558  -0.46480  -0.46208
 Alpha  occ. eigenvalues --   -0.45976  -0.45845  -0.45589  -0.45287  -0.45085
 Alpha  occ. eigenvalues --   -0.44779  -0.44680  -0.44583  -0.44378  -0.44354
 Alpha  occ. eigenvalues --   -0.44191  -0.43979  -0.43859  -0.43697  -0.43691
 Alpha  occ. eigenvalues --   -0.43596  -0.43470  -0.43039  -0.42996  -0.42770
 Alpha  occ. eigenvalues --   -0.42460  -0.42422  -0.42197  -0.42152  -0.42032
 Alpha  occ. eigenvalues --   -0.41741  -0.41693  -0.41470  -0.41402  -0.41374
 Alpha  occ. eigenvalues --   -0.41243  -0.40978  -0.40882  -0.40819  -0.40687
 Alpha  occ. eigenvalues --   -0.40600  -0.40358  -0.40203  -0.40057  -0.39935
 Alpha  occ. eigenvalues --   -0.39920  -0.39720  -0.39523  -0.39335  -0.39242
 Alpha  occ. eigenvalues --   -0.38996  -0.38842  -0.38566  -0.38451  -0.38366
 Alpha  occ. eigenvalues --   -0.38260  -0.38180  -0.38037  -0.37982  -0.37570
 Alpha  occ. eigenvalues --   -0.37493  -0.37368  -0.37044  -0.36976  -0.36939
 Alpha  occ. eigenvalues --   -0.36742  -0.36694  -0.36541  -0.36352  -0.35989
 Alpha  occ. eigenvalues --   -0.35858  -0.35708  -0.35442  -0.35034  -0.34620
 Alpha  occ. eigenvalues --   -0.34400  -0.33735  -0.33545  -0.33346  -0.33052
 Alpha  occ. eigenvalues --   -0.32927  -0.32504  -0.32112  -0.31404  -0.31393
 Alpha  occ. eigenvalues --   -0.31312  -0.30732  -0.30592  -0.30419  -0.30248
 Alpha  occ. eigenvalues --   -0.29994  -0.29702  -0.29597  -0.29278  -0.29087
 Alpha  occ. eigenvalues --   -0.28749  -0.28043  -0.27750  -0.27715  -0.27451
 Alpha  occ. eigenvalues --   -0.27407  -0.27176  -0.27148  -0.27055  -0.27036
 Alpha  occ. eigenvalues --   -0.26711  -0.26504  -0.26366  -0.26170  -0.25973
 Alpha  occ. eigenvalues --   -0.25525  -0.25467  -0.25269  -0.25056  -0.24855
 Alpha  occ. eigenvalues --   -0.24583  -0.24480  -0.24128  -0.23674  -0.23479
 Alpha  occ. eigenvalues --   -0.23412  -0.22812  -0.22089  -0.21341  -0.21156
 Alpha  occ. eigenvalues --   -0.13726  -0.12734  -0.11290
 Alpha virt. eigenvalues --   -0.10755  -0.09354  -0.05036  -0.04018  -0.03121
 Alpha virt. eigenvalues --   -0.02774  -0.02180  -0.01983  -0.01541  -0.01493
 Alpha virt. eigenvalues --   -0.00830  -0.00530  -0.00116  -0.00021   0.00113
 Alpha virt. eigenvalues --    0.00322   0.00392   0.00583   0.00658   0.01052
 Alpha virt. eigenvalues --    0.01348   0.01839   0.01976   0.02160   0.02792
 Alpha virt. eigenvalues --    0.03061   0.03312   0.03366   0.03445   0.03604
 Alpha virt. eigenvalues --    0.03651   0.04044   0.04102   0.04262   0.04381
 Alpha virt. eigenvalues --    0.04590   0.05203   0.05354   0.05532   0.05867
 Alpha virt. eigenvalues --    0.06355   0.06526   0.06725   0.06900   0.07655
 Alpha virt. eigenvalues --    0.07706   0.07896   0.08034   0.08118   0.08288
 Alpha virt. eigenvalues --    0.08506   0.08932   0.09018   0.09095   0.09319
 Alpha virt. eigenvalues --    0.09564   0.09777   0.09948   0.09980   0.10144
 Alpha virt. eigenvalues --    0.10456   0.10770   0.10921   0.10995   0.11100
 Alpha virt. eigenvalues --    0.11130   0.11408   0.11500   0.11718   0.12119
 Alpha virt. eigenvalues --    0.12321   0.12568   0.12627   0.12789   0.12928
 Alpha virt. eigenvalues --    0.13071   0.13293   0.13435   0.13602   0.13799
 Alpha virt. eigenvalues --    0.13902   0.14050   0.14328   0.14385   0.14422
 Alpha virt. eigenvalues --    0.14767   0.14955   0.15197   0.15336   0.15571
 Alpha virt. eigenvalues --    0.15633   0.15758   0.15813   0.16011   0.16048
 Alpha virt. eigenvalues --    0.16345   0.16452   0.16581   0.16645   0.16687
 Alpha virt. eigenvalues --    0.17104   0.17231   0.17278   0.17494   0.17612
 Alpha virt. eigenvalues --    0.17909   0.18062   0.18107   0.18184   0.18725
 Alpha virt. eigenvalues --    0.19017   0.19100   0.19334   0.19438   0.19638
 Alpha virt. eigenvalues --    0.19681   0.20051   0.20193   0.20320   0.20641
 Alpha virt. eigenvalues --    0.20889   0.20977   0.21205   0.21556   0.21626
 Alpha virt. eigenvalues --    0.21936   0.22141   0.22556   0.22568   0.22664
 Alpha virt. eigenvalues --    0.22814   0.22969   0.23400   0.23737   0.23934
 Alpha virt. eigenvalues --    0.24274   0.24513   0.24629   0.24875   0.25095
 Alpha virt. eigenvalues --    0.25289   0.25529   0.25800   0.25811   0.25974
 Alpha virt. eigenvalues --    0.26207   0.26283   0.26702   0.26881   0.26957
 Alpha virt. eigenvalues --    0.27067   0.27157   0.28011   0.28143   0.28329
 Alpha virt. eigenvalues --    0.28386   0.28615   0.28924   0.28986   0.29401
 Alpha virt. eigenvalues --    0.29424   0.29550   0.29718   0.30046   0.30603
 Alpha virt. eigenvalues --    0.30753   0.30958   0.30994   0.31384   0.31559
 Alpha virt. eigenvalues --    0.31759   0.32048   0.32173   0.32420   0.32521
 Alpha virt. eigenvalues --    0.32819   0.33463   0.33839   0.34248   0.34664
 Alpha virt. eigenvalues --    0.35031   0.35157   0.35467   0.35755   0.36108
 Alpha virt. eigenvalues --    0.36259   0.36475   0.36535   0.36792   0.37757
 Alpha virt. eigenvalues --    0.37992   0.38407   0.38750   0.38878   0.39152
 Alpha virt. eigenvalues --    0.39919   0.40207   0.40330   0.40639   0.40732
 Alpha virt. eigenvalues --    0.40858   0.41133   0.41451   0.41731   0.42076
 Alpha virt. eigenvalues --    0.42107   0.42354   0.42503   0.42516   0.42668
 Alpha virt. eigenvalues --    0.42958   0.43008   0.43356   0.43630   0.44133
 Alpha virt. eigenvalues --    0.44151   0.44547   0.44735   0.44894   0.45115
 Alpha virt. eigenvalues --    0.45180   0.45485   0.45902   0.46015   0.46306
 Alpha virt. eigenvalues --    0.46497   0.46613   0.46759   0.46905   0.46971
 Alpha virt. eigenvalues --    0.47134   0.47240   0.47374   0.47654   0.47788
 Alpha virt. eigenvalues --    0.48020   0.48196   0.48276   0.48502   0.48594
 Alpha virt. eigenvalues --    0.48912   0.49133   0.49385   0.49610   0.49783
 Alpha virt. eigenvalues --    0.49917   0.50003   0.50070   0.50176   0.50425
 Alpha virt. eigenvalues --    0.50586   0.50818   0.50852   0.51095   0.51403
 Alpha virt. eigenvalues --    0.51541   0.51803   0.52037   0.52374   0.52460
 Alpha virt. eigenvalues --    0.52610   0.52847   0.53196   0.53250   0.53481
 Alpha virt. eigenvalues --    0.53720   0.53889   0.54027   0.54212   0.54342
 Alpha virt. eigenvalues --    0.54417   0.54506   0.54655   0.54784   0.54830
 Alpha virt. eigenvalues --    0.55016   0.55133   0.55520   0.55681   0.55928
 Alpha virt. eigenvalues --    0.56117   0.56330   0.56442   0.56685   0.56765
 Alpha virt. eigenvalues --    0.57048   0.57214   0.57706   0.57886   0.57987
 Alpha virt. eigenvalues --    0.58117   0.58380   0.58559   0.58672   0.58844
 Alpha virt. eigenvalues --    0.59053   0.59298   0.59355   0.59493   0.59714
 Alpha virt. eigenvalues --    0.59774   0.59904   0.60107   0.60155   0.60295
 Alpha virt. eigenvalues --    0.60410   0.60736   0.60826   0.60869   0.61039
 Alpha virt. eigenvalues --    0.61069   0.61185   0.61230   0.61294   0.61555
 Alpha virt. eigenvalues --    0.61753   0.61832   0.61979   0.62167   0.62295
 Alpha virt. eigenvalues --    0.62306   0.62439   0.62507   0.62609   0.62686
 Alpha virt. eigenvalues --    0.63025   0.63134   0.63155   0.63359   0.63443
 Alpha virt. eigenvalues --    0.63535   0.63657   0.63734   0.63916   0.64141
 Alpha virt. eigenvalues --    0.64260   0.64350   0.64433   0.64491   0.64710
 Alpha virt. eigenvalues --    0.64739   0.64874   0.64971   0.65138   0.65152
 Alpha virt. eigenvalues --    0.65243   0.65360   0.65434   0.65528   0.65673
 Alpha virt. eigenvalues --    0.65777   0.65835   0.65990   0.66203   0.66307
 Alpha virt. eigenvalues --    0.66359   0.66488   0.66533   0.66610   0.66858
 Alpha virt. eigenvalues --    0.66892   0.66935   0.67101   0.67317   0.67460
 Alpha virt. eigenvalues --    0.67556   0.67578   0.67642   0.67865   0.67908
 Alpha virt. eigenvalues --    0.68038   0.68085   0.68357   0.68531   0.68677
 Alpha virt. eigenvalues --    0.68759   0.68901   0.68954   0.69090   0.69205
 Alpha virt. eigenvalues --    0.69365   0.69663   0.69884   0.70046   0.70138
 Alpha virt. eigenvalues --    0.70326   0.70337   0.70437   0.70513   0.70663
 Alpha virt. eigenvalues --    0.70829   0.70893   0.71051   0.71197   0.71292
 Alpha virt. eigenvalues --    0.71418   0.71592   0.71729   0.71902   0.72005
 Alpha virt. eigenvalues --    0.72202   0.72436   0.72674   0.72757   0.72943
 Alpha virt. eigenvalues --    0.73026   0.73184   0.73254   0.73580   0.73934
 Alpha virt. eigenvalues --    0.74016   0.74338   0.74460   0.74827   0.74910
 Alpha virt. eigenvalues --    0.74931   0.75338   0.75464   0.75617   0.76021
 Alpha virt. eigenvalues --    0.76139   0.76223   0.76470   0.76737   0.77076
 Alpha virt. eigenvalues --    0.77135   0.77581   0.77761   0.77999   0.78225
 Alpha virt. eigenvalues --    0.78426   0.78547   0.78692   0.79074   0.79233
 Alpha virt. eigenvalues --    0.79544   0.80221   0.80475   0.80675   0.80881
 Alpha virt. eigenvalues --    0.81118   0.81286   0.81351   0.81468   0.81804
 Alpha virt. eigenvalues --    0.81899   0.82096   0.82248   0.82546   0.82682
 Alpha virt. eigenvalues --    0.83022   0.83199   0.83398   0.83544   0.84180
 Alpha virt. eigenvalues --    0.84462   0.84653   0.85058   0.85464   0.85524
 Alpha virt. eigenvalues --    0.85714   0.85853   0.86090   0.86375   0.86569
 Alpha virt. eigenvalues --    0.87025   0.87138   0.87709   0.88120   0.88167
 Alpha virt. eigenvalues --    0.88265   0.88698   0.89187   0.89237   0.89507
 Alpha virt. eigenvalues --    0.89780   0.89868   0.90299   0.90382   0.90766
 Alpha virt. eigenvalues --    0.91127   0.91519   0.91638   0.92041   0.92190
 Alpha virt. eigenvalues --    0.92378   0.92805   0.92865   0.93331   0.93597
 Alpha virt. eigenvalues --    0.93803   0.94129   0.94187   0.94626   0.94828
 Alpha virt. eigenvalues --    0.94935   0.95197   0.95620   0.96148   0.96341
 Alpha virt. eigenvalues --    0.96557   0.96848   0.97008   0.97619   0.97800
 Alpha virt. eigenvalues --    0.97874   0.98505   0.98683   0.98709   0.99100
 Alpha virt. eigenvalues --    0.99612   1.00206   1.00581   1.00849   1.01082
 Alpha virt. eigenvalues --    1.01099   1.01354   1.01690   1.01942   1.02211
 Alpha virt. eigenvalues --    1.02470   1.02733   1.03259   1.03560   1.03656
 Alpha virt. eigenvalues --    1.03904   1.04240   1.04688   1.04794   1.05078
 Alpha virt. eigenvalues --    1.05246   1.05315   1.05531   1.05552   1.05955
 Alpha virt. eigenvalues --    1.06670   1.07179   1.07313   1.07523   1.07915
 Alpha virt. eigenvalues --    1.08008   1.08397   1.08526   1.08708   1.09078
 Alpha virt. eigenvalues --    1.09348   1.09762   1.10071   1.10190   1.10474
 Alpha virt. eigenvalues --    1.10721   1.10851   1.11117   1.11205   1.11454
 Alpha virt. eigenvalues --    1.11823   1.12194   1.12307   1.12404   1.12756
 Alpha virt. eigenvalues --    1.12825   1.13299   1.13933   1.14089   1.14455
 Alpha virt. eigenvalues --    1.14683   1.14787   1.15133   1.15580   1.15867
 Alpha virt. eigenvalues --    1.15943   1.16296   1.16493   1.16725   1.16913
 Alpha virt. eigenvalues --    1.17181   1.17918   1.18040   1.18233   1.18380
 Alpha virt. eigenvalues --    1.18657   1.19206   1.19211   1.19472   1.19559
 Alpha virt. eigenvalues --    1.19617   1.19997   1.20584   1.20829   1.21367
 Alpha virt. eigenvalues --    1.21511   1.21515   1.21802   1.21991   1.22121
 Alpha virt. eigenvalues --    1.22431   1.22724   1.23464   1.23589   1.24111
 Alpha virt. eigenvalues --    1.24152   1.24447   1.24475   1.24765   1.25210
 Alpha virt. eigenvalues --    1.25397   1.25604   1.25740   1.26219   1.26371
 Alpha virt. eigenvalues --    1.26700   1.26886   1.27057   1.27310   1.27538
 Alpha virt. eigenvalues --    1.27586   1.27646   1.28370   1.28496   1.28608
 Alpha virt. eigenvalues --    1.29069   1.29452   1.30017   1.30799   1.30825
 Alpha virt. eigenvalues --    1.31200   1.31781   1.32135   1.32313   1.32448
 Alpha virt. eigenvalues --    1.33115   1.33315   1.33387   1.33973   1.34164
 Alpha virt. eigenvalues --    1.34722   1.35081   1.35147   1.35584   1.35945
 Alpha virt. eigenvalues --    1.35979   1.36389   1.36820   1.37013   1.37046
 Alpha virt. eigenvalues --    1.37136   1.37342   1.38060   1.38157   1.38441
 Alpha virt. eigenvalues --    1.38815   1.39074   1.39275   1.39606   1.39765
 Alpha virt. eigenvalues --    1.39937   1.40426   1.40489   1.40696   1.40784
 Alpha virt. eigenvalues --    1.41356   1.41902   1.41976   1.42086   1.42650
 Alpha virt. eigenvalues --    1.43000   1.43444   1.43619   1.43946   1.44075
 Alpha virt. eigenvalues --    1.44241   1.44629   1.44843   1.45256   1.45797
 Alpha virt. eigenvalues --    1.46056   1.46136   1.46339   1.46482   1.46673
 Alpha virt. eigenvalues --    1.47439   1.47891   1.48011   1.48233   1.48418
 Alpha virt. eigenvalues --    1.48735   1.49028   1.49270   1.49414   1.49669
 Alpha virt. eigenvalues --    1.49968   1.50856   1.50961   1.51050   1.51143
 Alpha virt. eigenvalues --    1.51337   1.51913   1.52137   1.52433   1.52975
 Alpha virt. eigenvalues --    1.53761   1.53898   1.54214   1.54822   1.55143
 Alpha virt. eigenvalues --    1.55634   1.55889   1.55989   1.56444   1.56621
 Alpha virt. eigenvalues --    1.56936   1.57065   1.57443   1.57597   1.57741
 Alpha virt. eigenvalues --    1.57924   1.58198   1.58579   1.58612   1.59152
 Alpha virt. eigenvalues --    1.59174   1.59547   1.59682   1.60297   1.60349
 Alpha virt. eigenvalues --    1.60474   1.60788   1.61375   1.62329   1.62457
 Alpha virt. eigenvalues --    1.62696   1.63054   1.63289   1.63460   1.63935
 Alpha virt. eigenvalues --    1.64025   1.64663   1.64942   1.66328   1.66640
 Alpha virt. eigenvalues --    1.66827   1.67139   1.67377   1.67465   1.67560
 Alpha virt. eigenvalues --    1.67800   1.68033   1.68169   1.68813   1.68829
 Alpha virt. eigenvalues --    1.69043   1.69134   1.69535   1.69942   1.70156
 Alpha virt. eigenvalues --    1.70268   1.70439   1.70697   1.71033   1.71368
 Alpha virt. eigenvalues --    1.71435   1.71759   1.71975   1.72482   1.72735
 Alpha virt. eigenvalues --    1.72878   1.73249   1.73371   1.73504   1.73687
 Alpha virt. eigenvalues --    1.73949   1.74100   1.74281   1.74389   1.74454
 Alpha virt. eigenvalues --    1.74806   1.75103   1.75271   1.75517   1.75651
 Alpha virt. eigenvalues --    1.75772   1.75867   1.76075   1.76470   1.76591
 Alpha virt. eigenvalues --    1.76936   1.76971   1.77058   1.77278   1.77519
 Alpha virt. eigenvalues --    1.77587   1.77760   1.77968   1.78048   1.78428
 Alpha virt. eigenvalues --    1.78624   1.78783   1.79001   1.79099   1.79323
 Alpha virt. eigenvalues --    1.79611   1.79630   1.79798   1.79879   1.80467
 Alpha virt. eigenvalues --    1.80535   1.80708   1.81016   1.81212   1.81279
 Alpha virt. eigenvalues --    1.81411   1.81586   1.81710   1.81934   1.82025
 Alpha virt. eigenvalues --    1.82205   1.82515   1.83140   1.83327   1.83400
 Alpha virt. eigenvalues --    1.83476   1.83719   1.83992   1.84041   1.84237
 Alpha virt. eigenvalues --    1.84301   1.84566   1.84693   1.84860   1.85055
 Alpha virt. eigenvalues --    1.85375   1.85450   1.85515   1.85788   1.85996
 Alpha virt. eigenvalues --    1.86249   1.86439   1.86504   1.86577   1.86696
 Alpha virt. eigenvalues --    1.86837   1.87034   1.87167   1.87376   1.87589
 Alpha virt. eigenvalues --    1.87849   1.87978   1.88176   1.88354   1.88372
 Alpha virt. eigenvalues --    1.88745   1.88940   1.89098   1.89455   1.89548
 Alpha virt. eigenvalues --    1.89628   1.89858   1.89952   1.90285   1.90483
 Alpha virt. eigenvalues --    1.90674   1.90731   1.91155   1.91446   1.91472
 Alpha virt. eigenvalues --    1.91652   1.91925   1.92022   1.92335   1.92490
 Alpha virt. eigenvalues --    1.92615   1.92696   1.93019   1.93256   1.93422
 Alpha virt. eigenvalues --    1.93537   1.93951   1.94117   1.94186   1.94290
 Alpha virt. eigenvalues --    1.94570   1.94636   1.94792   1.95054   1.95558
 Alpha virt. eigenvalues --    1.95666   1.95719   1.95957   1.96056   1.96239
 Alpha virt. eigenvalues --    1.96647   1.97270   1.97404   1.97463   1.97827
 Alpha virt. eigenvalues --    1.97972   1.98190   1.98252   1.98546   1.99063
 Alpha virt. eigenvalues --    1.99389   1.99535   1.99652   1.99813   2.00039
 Alpha virt. eigenvalues --    2.00351   2.00490   2.00695   2.00960   2.01150
 Alpha virt. eigenvalues --    2.01329   2.01677   2.01826   2.02130   2.02294
 Alpha virt. eigenvalues --    2.02319   2.02529   2.02741   2.02797   2.03202
 Alpha virt. eigenvalues --    2.03387   2.03818   2.04310   2.04483   2.04807
 Alpha virt. eigenvalues --    2.05066   2.05481   2.06068   2.06194   2.06354
 Alpha virt. eigenvalues --    2.06592   2.06865   2.07024   2.07491   2.07720
 Alpha virt. eigenvalues --    2.07866   2.08059   2.08251   2.08446   2.08707
 Alpha virt. eigenvalues --    2.09025   2.09181   2.09400   2.09715   2.09994
 Alpha virt. eigenvalues --    2.10168   2.10881   2.11002   2.11485   2.11501
 Alpha virt. eigenvalues --    2.11595   2.11924   2.12885   2.12910   2.13369
 Alpha virt. eigenvalues --    2.13440   2.13658   2.14038   2.14167   2.14389
 Alpha virt. eigenvalues --    2.14718   2.15103   2.15292   2.15725   2.15820
 Alpha virt. eigenvalues --    2.16185   2.16415   2.17054   2.17227   2.17243
 Alpha virt. eigenvalues --    2.17426   2.18024   2.18226   2.18401   2.18469
 Alpha virt. eigenvalues --    2.18774   2.19599   2.20033   2.20313   2.20729
 Alpha virt. eigenvalues --    2.20986   2.21310   2.21405   2.21805   2.22479
 Alpha virt. eigenvalues --    2.23253   2.23659   2.23748   2.24020   2.24391
 Alpha virt. eigenvalues --    2.24618   2.24719   2.25246   2.25317   2.25679
 Alpha virt. eigenvalues --    2.25879   2.26025   2.26248   2.26636   2.27002
 Alpha virt. eigenvalues --    2.27414   2.27888   2.28131   2.28327   2.28561
 Alpha virt. eigenvalues --    2.28770   2.29677   2.29972   2.30081   2.30273
 Alpha virt. eigenvalues --    2.30703   2.30962   2.31352   2.31635   2.32113
 Alpha virt. eigenvalues --    2.32229   2.32461   2.32970   2.33209   2.33518
 Alpha virt. eigenvalues --    2.33613   2.33686   2.33970   2.34174   2.34247
 Alpha virt. eigenvalues --    2.34815   2.34839   2.35038   2.35541   2.36236
 Alpha virt. eigenvalues --    2.36636   2.36701   2.37035   2.37824   2.38014
 Alpha virt. eigenvalues --    2.38099   2.38147   2.39512   2.39755   2.39790
 Alpha virt. eigenvalues --    2.39894   2.40558   2.40614   2.40947   2.41839
 Alpha virt. eigenvalues --    2.41980   2.42237   2.42701   2.43125   2.43332
 Alpha virt. eigenvalues --    2.43708   2.44124   2.44660   2.44919   2.45254
 Alpha virt. eigenvalues --    2.45536   2.45814   2.46138   2.46277   2.46621
 Alpha virt. eigenvalues --    2.46818   2.47122   2.47659   2.47747   2.47926
 Alpha virt. eigenvalues --    2.48833   2.49143   2.49253   2.49497   2.49764
 Alpha virt. eigenvalues --    2.50366   2.50401   2.50771   2.51861   2.52047
 Alpha virt. eigenvalues --    2.52210   2.52806   2.52845   2.53672   2.53933
 Alpha virt. eigenvalues --    2.54282   2.55044   2.55314   2.55619   2.55635
 Alpha virt. eigenvalues --    2.55841   2.56229   2.56673   2.56972   2.57265
 Alpha virt. eigenvalues --    2.57501   2.58322   2.58454   2.58685   2.58885
 Alpha virt. eigenvalues --    2.58982   2.59285   2.59466   2.59592   2.59767
 Alpha virt. eigenvalues --    2.59839   2.60444   2.60608   2.61009   2.61137
 Alpha virt. eigenvalues --    2.61836   2.61939   2.62098   2.62176   2.62640
 Alpha virt. eigenvalues --    2.62803   2.63582   2.64035   2.64236   2.64572
 Alpha virt. eigenvalues --    2.64779   2.64841   2.65077   2.65239   2.65788
 Alpha virt. eigenvalues --    2.66325   2.66632   2.66881   2.67487   2.67602
 Alpha virt. eigenvalues --    2.67794   2.67831   2.68035   2.68313   2.68357
 Alpha virt. eigenvalues --    2.68817   2.69346   2.69561   2.69674   2.70062
 Alpha virt. eigenvalues --    2.70529   2.70884   2.70929   2.71031   2.71150
 Alpha virt. eigenvalues --    2.72154   2.72380   2.72620   2.72830   2.73379
 Alpha virt. eigenvalues --    2.73455   2.73528   2.74023   2.74208   2.74653
 Alpha virt. eigenvalues --    2.74966   2.75154   2.75355   2.76050   2.76430
 Alpha virt. eigenvalues --    2.76699   2.76888   2.77008   2.77243   2.77582
 Alpha virt. eigenvalues --    2.77922   2.77977   2.78312   2.78897   2.79117
 Alpha virt. eigenvalues --    2.79415   2.79509   2.79536   2.79705   2.80106
 Alpha virt. eigenvalues --    2.80278   2.80637   2.81602   2.81771   2.81929
 Alpha virt. eigenvalues --    2.82302   2.82670   2.82992   2.83042   2.83222
 Alpha virt. eigenvalues --    2.83285   2.83639   2.83735   2.84391   2.84494
 Alpha virt. eigenvalues --    2.84684   2.85009   2.85455   2.85904   2.86150
 Alpha virt. eigenvalues --    2.86330   2.86554   2.87071   2.87582   2.87636
 Alpha virt. eigenvalues --    2.88115   2.88574   2.88751   2.89080   2.89534
 Alpha virt. eigenvalues --    2.89710   2.89833   2.90385   2.90607   2.91152
 Alpha virt. eigenvalues --    2.91600   2.91908   2.92168   2.92791   2.93216
 Alpha virt. eigenvalues --    2.93360   2.93519   2.93628   2.93944   2.94149
 Alpha virt. eigenvalues --    2.94254   2.94690   2.95146   2.95342   2.95592
 Alpha virt. eigenvalues --    2.95781   2.95973   2.96095   2.96603   2.96686
 Alpha virt. eigenvalues --    2.96849   2.97318   2.97431   2.97734   2.98085
 Alpha virt. eigenvalues --    2.98135   2.98326   2.98456   2.98492   2.99410
 Alpha virt. eigenvalues --    2.99588   2.99744   3.00257   3.01180   3.01485
 Alpha virt. eigenvalues --    3.01844   3.02527   3.02915   3.03138   3.03164
 Alpha virt. eigenvalues --    3.03709   3.03748   3.04000   3.04686   3.05442
 Alpha virt. eigenvalues --    3.06308   3.06566   3.07173   3.07269   3.08096
 Alpha virt. eigenvalues --    3.08311   3.08457   3.09047   3.09689   3.10660
 Alpha virt. eigenvalues --    3.10722   3.10948   3.11208   3.11280   3.11833
 Alpha virt. eigenvalues --    3.12489   3.13039   3.13199   3.13406   3.13665
 Alpha virt. eigenvalues --    3.13853   3.14343   3.14968   3.14998   3.15346
 Alpha virt. eigenvalues --    3.15653   3.16187   3.16800   3.16981   3.17092
 Alpha virt. eigenvalues --    3.17284   3.17660   3.17854   3.18172   3.18485
 Alpha virt. eigenvalues --    3.18501   3.19034   3.19349   3.20115   3.20238
 Alpha virt. eigenvalues --    3.20242   3.20787   3.20992   3.21165   3.21364
 Alpha virt. eigenvalues --    3.22489   3.22991   3.23094   3.24620   3.24955
 Alpha virt. eigenvalues --    3.25121   3.25692   3.25980   3.26398   3.28762
 Alpha virt. eigenvalues --    3.29959   3.30680   3.31861   3.33255   3.33689
 Alpha virt. eigenvalues --    3.34920   3.34993   3.35588   3.38355   3.40048
 Alpha virt. eigenvalues --    3.40730   3.41133   3.43283   3.44366   3.46841
 Alpha virt. eigenvalues --    3.50143   3.50481   3.52352   3.53056   3.53621
 Alpha virt. eigenvalues --    3.54703   3.54707   3.55425   3.56506   3.56950
 Alpha virt. eigenvalues --    3.57267   3.57559   3.60141   3.60263   3.60584
 Alpha virt. eigenvalues --    3.61110   3.62908   3.64157   3.65314   3.65915
 Alpha virt. eigenvalues --    3.65987   3.66232   3.66313   3.67126   3.67304
 Alpha virt. eigenvalues --    3.67659   3.68730   3.68946   3.69362   3.69540
 Alpha virt. eigenvalues --    3.70316   3.70361   3.70587   3.71326   3.71854
 Alpha virt. eigenvalues --    3.74341   3.79839   3.82181   3.83256
          Condensed to atoms (all electrons):
 Mulliken charges:
               1
     1  C    0.078954
     2  C   -0.002920
     3  O   -0.319501
     4  H    0.007064
     5  H    0.052754
     6  H    0.040881
     7  N   -0.108434
     8  C    0.099090
     9  C    0.097840
    10  O   -0.268322
    11  C    0.092024
    12  C    0.032429
    13  O   -0.427405
    14  O   -0.392057
    15  H    0.116196
    16  H   -0.010575
    17  H    0.024705
    18  H    0.025342
    19  N   -0.154964
    20  C    0.098527
    21  C    0.054504
    22  O   -0.295619
    23  C    0.028252
    24  C    0.022867
    25  C   -0.019566
    26  C    0.033401
    27  N    0.159539
    28  H    0.123698
    29  H    0.046312
    30  H   -0.011700
    31  H    0.022372
    32  H    0.023982
    33  H    0.037744
    34  H    0.014054
    35  H    0.024707
    36  H    0.084901
    37  H    0.052161
    38  H    0.106375
    39  H    0.124124
    40  H    0.120189
    41  N   -0.139022
    42  C    0.114854
    43  C    0.097065
    44  O   -0.268451
    45  C    0.072318
    46  C    0.096941
    47  O   -0.426763
    48  O   -0.386507
    49  H    0.153638
    50  H    0.021077
    51  H   -0.024860
    52  H    0.025313
    53  N   -0.181847
    54  C    0.226739
    55  C    0.029878
    56  O   -0.306762
    57  H    0.137950
    58  H    0.038140
    59  H    0.036347
    60  N   -0.125883
    61  C    0.170893
    62  C    0.122257
    63  O   -0.414258
    64  C    0.016700
    65  C    0.011642
    66  N   -0.044034
    67  O   -0.275044
    68  H    0.157578
    69  H    0.001735
    70  H    0.022116
    71  H    0.051201
    72  H    0.127059
    73  H    0.138746
    74  N   -0.116222
    75  C    0.167764
    76  C    0.056626
    77  O   -0.294745
    78  H    0.145058
    79  H    0.035016
    80  H    0.033746
    81  N   -0.104235
    82  C    0.119758
    83  C    0.132699
    84  O   -0.279725
    85  C    0.111379
    86  C   -0.065564
    87  C   -0.018633
    88  C   -0.001948
    89  C    0.003218
    90  C   -0.040370
    91  C    0.122637
    92  O   -0.183610
    93  H    0.123996
    94  H    0.007255
    95  H   -0.006879
    96  H    0.014613
    97  H    0.002267
    98  H   -0.028688
    99  H   -0.004743
   100  H   -0.031514
   101  H    0.174942
   102  N   -0.114043
   103  C    0.129129
   104  C    0.075814
   105  O   -0.276143
   106  C   -0.081421
   107  C    0.038373
   108  C    0.066487
   109  C    0.016528
   110  H    0.128335
   111  H   -0.036465
   112  H   -0.000825
   113  H   -0.008185
   114  H   -0.013872
   115  H    0.011135
   116  H   -0.001837
   117  H    0.004506
   118  H    0.047944
   119  H    0.009235
   120  H   -0.048997
   121  N   -0.126594
   122  C    0.117617
   123  C    0.068283
   124  O   -0.264998
   125  C    0.224191
   126  O   -0.304452
   127  H    0.112040
   128  H    0.032146
   129  H    0.004465
   130  H    0.022861
   131  H    0.188173
   132  N   -0.131250
   133  C    0.010755
   134  C    0.059402
   135  O   -0.279450
   136  C    0.089456
   137  H    0.105256
   138  H    0.006421
   139  H    0.040951
   140  H    0.021479
   141  H   -0.014247
   142  N   -0.078445
   143  C    0.024706
   144  C    0.055237
   145  O   -0.278180
   146  C    0.082294
   147  H    0.130593
   148  H   -0.014923
   149  H    0.004390
   150  H    0.029471
   151  H    0.018135
   152  N   -0.105593
   153  C    0.107663
   154  C    0.058575
   155  O   -0.292451
   156  C    0.031407
   157  C    0.040574
   158  C    0.058535
   159  O   -0.349662
   160  O   -0.372162
   161  H    0.134074
   162  H   -0.000465
   163  H   -0.003080
   164  H    0.003602
   165  H   -0.052645
   166  H   -0.021541
   167  N   -0.139683
   168  C    0.147513
   169  H    0.014046
   170  H    0.044682
   171  H    0.011541
   172  H    0.101790
   173  Ca   1.401459
   174  O   -0.315774
   175  H    0.194293
   176  H    0.217042
 Sum of Mulliken charges =  -0.00000
 Mulliken charges with hydrogens summed into heavy atoms:
               1
     1  C    0.179654
     2  C   -0.002920
     3  O   -0.319501
     7  N    0.007762
     8  C    0.088514
     9  C    0.097840
    10  O   -0.268322
    11  C    0.142071
    12  C    0.032429
    13  O   -0.427405
    14  O   -0.392057
    19  N   -0.031266
    20  C    0.144839
    21  C    0.054504
    22  O   -0.295619
    23  C    0.038924
    24  C    0.084593
    25  C    0.019194
    26  C    0.170462
    27  N    0.510227
    41  N    0.014616
    42  C    0.135931
    43  C    0.097065
    44  O   -0.268451
    45  C    0.072771
    46  C    0.096941
    47  O   -0.426763
    48  O   -0.386507
    53  N   -0.043897
    54  C    0.301226
    55  C    0.029878
    56  O   -0.306762
    60  N    0.031694
    61  C    0.172628
    62  C    0.122257
    63  O   -0.414258
    64  C    0.090017
    65  C    0.011642
    66  N    0.221771
    67  O   -0.275044
    74  N    0.028836
    75  C    0.236526
    76  C    0.056626
    77  O   -0.294745
    81  N    0.019761
    82  C    0.127013
    83  C    0.132699
    84  O   -0.279725
    85  C    0.119113
    86  C   -0.065564
    87  C   -0.016366
    88  C   -0.030637
    89  C   -0.001526
    90  C   -0.071884
    91  C    0.122637
    92  O   -0.008667
   102  N    0.014291
   103  C    0.092664
   104  C    0.075814
   105  O   -0.276143
   106  C   -0.082247
   107  C    0.016316
   108  C    0.080292
   109  C    0.024709
   121  N   -0.014554
   122  C    0.149764
   123  C    0.068283
   124  O   -0.264998
   125  C    0.251518
   126  O   -0.116279
   132  N   -0.025993
   133  C    0.017176
   134  C    0.059402
   135  O   -0.279450
   136  C    0.137639
   142  N    0.052148
   143  C    0.009783
   144  C    0.055237
   145  O   -0.278180
   146  C    0.134289
   152  N    0.028481
   153  C    0.107198
   154  C    0.058575
   155  O   -0.292451
   156  C    0.031929
   157  C   -0.033612
   158  C    0.058535
   159  O   -0.349662
   160  O   -0.372162
   167  N   -0.037893
   168  C    0.217783
   173  Ca   1.401459
   174  O    0.095562
 DipInt: DoE/N= T F RetVal/Mat= T F Init=T NMatP=  1 IDeriv=0 Min/MaxMlt=  0  4
 Entering OneElI...
 OneElI was handed  1333951383 working-precision words.
 Multipole integrals L=0 to 4 MinM= 0 MaxM= 0.
 Requested accuracy = 0.1000D-12
 ShPair: Thresh= 1.00D-13 NBox=     0 BxSize= 0.00D+00 RnKept= 3.00D+01
         NSMCal=               327645 NSMKep=              121493
 PrmmSu-InSpLW:  IPartL=    0 NPrtUS=    1 NPrtUL=    1 DoSpLW=F IThBeg=    0 IThEnd=    0 NThAct=    1.
 PrsmSu:  NPrtUS=   1 ThrOK=F IAlg=1 NPAlg=1 LenDen=           0 ISkipM=0 DoSpLW=F IThBeg=    0 IThEnd=    0.
 Prism:   IPart=     0 DynPar=F LinDyn=F Incr=         512.
 PRISM was handed  1325321743 working-precision words and121493 shell-pairs
 IPart=  0 NShTot=      121493 NBatch=         291 AvBLen=       417.5
 PrsmSu-ThDecC:  IPartSL=    0    0 NPrtUSL=    1    1 IThBeg=    0 IThEnd=    0 CPU=   -1 GPU=   -1 NThAct=    1.
 PrSmSu:  NxtVal=            513.
 Electronic moments (au):
       -716.00000000         19.78810826          0.16676135          5.32987726
    -127147.01734620     -28523.88461642     -14206.76582198        284.10029213
        179.12970641         73.91123866     229404.34454855     -18380.70558173
     -12465.83046119      14828.75780490    -342446.46619830    -120628.44529807
     -43947.88287180     -29576.20954670       6440.47557733     -66920.53445318
  -35962709.35564838   -2636378.05005621    -816041.69087281     555590.19785383
    -894057.38772554     148585.95012820     140843.04896753    -496257.99488219
    -186639.02791562   -5154769.37434164   -3039546.33600789    -614750.82636184
      89387.49009415       3070.99955637    -578348.90547659
 Electronic spatial extent (au):  <R**2>=         169877.6678
 DipInt: DoE/N= F T RetVal/Mat= T F Init=T NMatP=  1 IDeriv=0 Min/MaxMlt=  0  4
 Nuclear    moments (au):
        716.00000000         -0.00000000         -0.00000000          0.00000000
     126609.08043589      28041.07397845      13882.20238427         -0.00000000
         -0.00000000          0.00000000    -222536.91892905      16983.14300405
      13731.04771430     -12064.63309333     342671.58835555     121575.99338550
      46174.86675356      30683.88763493      -5747.31356523      67884.37809753
   35455747.02206226    2515620.42268772     785718.22584059    -478687.49352551
     959217.55270808    -104587.14710834    -135795.70441605     521288.66033176
     197993.50667223    5042767.48713549    2988312.78654732     598447.02968266
     -68102.64067975       9344.73630763     594573.65468671
 Total      moments (au):
         -0.00000000         19.78810826          0.16676135          5.32987726
       -537.93691031       -482.81063796       -324.56343771        284.10029213
        179.12970641         73.91123866       6867.42561951      -1397.56257768
       1265.21725310       2764.12471157        225.12215725        947.54808744
       2226.98388176       1107.67808823        693.16201210        963.84364435
    -506962.33358613    -120757.62736849     -30323.46503222      76902.70432832
      65160.16498254      43998.80301986       5047.34455147      25030.66544956
      11354.47875662    -112001.88720615     -51233.54946057     -16303.79667918
      21284.84941439      12415.73586400      16224.74921012
 Traceless Quadrup. (au):
        -89.49991499        -34.37364263        123.87355762        284.10029213
        179.12970641         73.91123866
 Charge=             -0.0000 electrons
 Dipole moment (field-independent basis, Debye):
    X=             50.2964    Y=              0.4239    Z=             13.5472  Tot=             52.0906
 Quadrupole moment (field-independent basis, Debye-Ang):
   XX=           -723.5436   YY=           -649.3968   ZZ=           -436.5489
   XY=            382.1246   XZ=            240.9356   YZ=             99.4131
 Traceless Quadrupole moment (field-independent basis, Debye-Ang):
   XX=           -120.3805   YY=            -46.2337   ZZ=            166.6142
   XY=            382.1246   XZ=            240.9356   YZ=             99.4131
 Octapole moment (field-independent basis, Debye-Ang**2):
  XXX=           4887.9690  YYY=           -994.7312  ZZZ=            900.5329  XYY=           1967.3975
  XXY=            160.2333  XXZ=            674.4282  XZZ=           1585.0813  YZZ=            788.4026
  YYZ=            493.3660  XYZ=            686.0268
 Hexadecapole moment (field-independent basis, Debye-Ang**3):
 XXXX=        -190946.3245 YYYY=         -45483.1130 ZZZZ=         -11421.2710 XXXY=          28965.2461
 XXXZ=          24542.4427 YYYX=          16572.0590 YYYZ=           1901.0720 ZZZX=           9427.7489
 ZZZY=           4276.6412 XXYY=         -42185.2814 XXZZ=         -19297.0115 YYZZ=          -6140.7916
 XXYZ=           8016.8949 YYXZ=           4676.3615 ZZXY=           6111.0186
 N-N= 1.880932707835D+04 E-N=-5.008995204895D+04  KE= 5.290795938458D+03
 Leave Link  601 at Wed Sep 18 10:14:51 2019, MaxMem=  1342177280 cpu:              39.1 elap:               1.0
 FitSet:  NAtFit=   176 NAtPot=   176 NAtFrz=     0 MDM=   180 TotChg=   0.00000
 Merz-Kollman atomic radii used.
 Read replacement radii for each type of atom:
 Rad(20) =   1.700000000000D+00
 Atom Element Radius
    1     6    1.50
    2     6    1.50
    3     8    1.40
    4     1    1.20
    5     1    1.20
    6     1    1.20
    7     7    1.50
    8     6    1.50
    9     6    1.50
   10     8    1.40
   11     6    1.50
   12     6    1.50
   13     8    1.40
   14     8    1.40
   15     1    1.20
   16     1    1.20
   17     1    1.20
   18     1    1.20
   19     7    1.50
   20     6    1.50
   21     6    1.50
   22     8    1.40
   23     6    1.50
   24     6    1.50
   25     6    1.50
   26     6    1.50
   27     7    1.50
   28     1    1.20
   29     1    1.20
   30     1    1.20
   31     1    1.20
   32     1    1.20
   33     1    1.20
   34     1    1.20
   35     1    1.20
   36     1    1.20
   37     1    1.20
   38     1    1.20
   39     1    1.20
   40     1    1.20
   41     7    1.50
   42     6    1.50
   43     6    1.50
   44     8    1.40
   45     6    1.50
   46     6    1.50
   47     8    1.40
   48     8    1.40
   49     1    1.20
   50     1    1.20
   51     1    1.20
   52     1    1.20
   53     7    1.50
   54     6    1.50
   55     6    1.50
   56     8    1.40
   57     1    1.20
   58     1    1.20
   59     1    1.20
   60     7    1.50
   61     6    1.50
   62     6    1.50
   63     8    1.40
   64     6    1.50
   65     6    1.50
   66     7    1.50
   67     8    1.40
   68     1    1.20
   69     1    1.20
   70     1    1.20
   71     1    1.20
   72     1    1.20
   73     1    1.20
   74     7    1.50
   75     6    1.50
   76     6    1.50
   77     8    1.40
   78     1    1.20
   79     1    1.20
   80     1    1.20
   81     7    1.50
   82     6    1.50
   83     6    1.50
   84     8    1.40
   85     6    1.50
   86     6    1.50
   87     6    1.50
   88     6    1.50
   89     6    1.50
   90     6    1.50
   91     6    1.50
   92     8    1.40
   93     1    1.20
   94     1    1.20
   95     1    1.20
   96     1    1.20
   97     1    1.20
   98     1    1.20
   99     1    1.20
  100     1    1.20
  101     1    1.20
  102     7    1.50
  103     6    1.50
  104     6    1.50
  105     8    1.40
  106     6    1.50
  107     6    1.50
  108     6    1.50
  109     6    1.50
  110     1    1.20
  111     1    1.20
  112     1    1.20
  113     1    1.20
  114     1    1.20
  115     1    1.20
  116     1    1.20
  117     1    1.20
  118     1    1.20
  119     1    1.20
  120     1    1.20
  121     7    1.50
  122     6    1.50
  123     6    1.50
  124     8    1.40
  125     6    1.50
  126     8    1.40
  127     1    1.20
  128     1    1.20
[...]
 **** Fit      -0.013515
 **** Fit      -0.013304
 **** Fit      -0.013694
 **** Fit      -0.012696
 **** Fit      -0.011906
 **** Fit      -0.012155
 **** Fit      -0.007024
 **** Fit      -0.006231
 **** Fit      -0.005522
 **** Fit      -0.005502
 **** Fit      -0.006926
 **** Fit      -0.006892
 **** Fit      -0.006839
 **** Fit      -0.006274
 **** Fit      -0.005527
 **** Fit      -0.004940
 **** Fit      -0.004913
 **** Fit      -0.005941
 **** Fit      -0.008685
 **** Fit      -0.006495
 **** Fit      -0.006467
 **** Fit      -0.006010
 **** Fit      -0.005357
 **** Fit      -0.004758
 **** Fit      -0.004489
 **** Fit      -0.004890
 **** Fit      -0.006384
 **** Fit      -0.009533
 **** Fit      -0.015097
 **** Fit      -0.006141
 **** Fit      -0.006121
 **** Fit      -0.005762
 **** Fit      -0.005231
 **** Fit      -0.004703
 **** Fit      -0.004370
 **** Fit      -0.004459
 **** Fit      -0.005238
 **** Fit      -0.007045
 **** Fit      -0.010299
 **** Fit      -0.015531
 **** Fit      -0.005869
 **** Fit      -0.005675
 **** Fit      -0.005287
 **** Fit      -0.004839
 **** Fit      -0.004473
 **** Fit      -0.004346
 **** Fit      -0.004639
 **** Fit      -0.005565
 **** Fit      -0.007374
 **** Fit      -0.010360
 **** Fit      -0.014853
 **** Fit      -0.021206
 **** Fit      -0.005625
 **** Fit      -0.005517
 **** Fit      -0.005220
 **** Fit      -0.004859
 **** Fit      -0.004562
 **** Fit      -0.004468
 **** Fit      -0.004732
 **** Fit      -0.005528
 **** Fit      -0.007050
 **** Fit      -0.009509
 **** Fit      -0.013114
 **** Fit      -0.018040
 **** Fit      -0.024367
 **** Fit      -0.005447
 **** Fit      -0.005304
 **** Fit      -0.005043
 **** Fit      -0.004790
 **** Fit      -0.004677
 **** Fit      -0.004843
 **** Fit      -0.005439
 **** Fit      -0.006623
 **** Fit      -0.008555
 **** Fit      -0.011369
 **** Fit      -0.015143
 **** Fit      -0.019827
 **** Fit      -0.005352
 **** Fit      -0.005229
 **** Fit      -0.005056
 **** Fit      -0.004958
 **** Fit      -0.005066
 **** Fit      -0.005511
 **** Fit      -0.006424
 **** Fit      -0.007926
 **** Fit      -0.010100
 **** Fit      -0.012963
 **** Fit      -0.016401
 **** Fit      -0.005367
 **** Fit      -0.005296
 **** Fit      -0.005287
 **** Fit      -0.005487
 **** Fit      -0.006038
 **** Fit      -0.007065
 **** Fit      -0.008658
 **** Fit      -0.010824
 **** Fit      -0.013439
 **** Fit      -0.005513
 **** Fit      -0.005569
 **** Fit      -0.005658
 **** Fit      -0.005949
 **** Fit      -0.006591
 **** Fit      -0.007694
 **** Fit      -0.009285
 **** Fit      -0.011253
 **** Fit      -0.005967
 **** Fit      -0.006285
 **** Fit      -0.006929
 **** Fit      -0.008011
 **** Fit      -0.009484
 **** Fit      -0.006997
 **** Fit      -0.008004
 **** Fit      -0.012785
 **** Fit      -0.015096
 **** Fit      -0.017550
 **** Fit      -0.019621
 **** Fit      -0.023138
 **** Fit      -0.017724
 **** Fit      -0.013780
 **** Fit      -0.011214
 **** Fit      -0.009878
 **** Fit      -0.009584
 **** Fit      -0.010102
 **** Fit      -0.011161
 **** Fit      -0.012456
 **** Fit      -0.013674
 **** Fit      -0.014533
 **** Fit      -0.014830
 **** Fit      -0.019405
 **** Fit      -0.014993
 **** Fit      -0.011733
 **** Fit      -0.009533
 **** Fit      -0.008267
 **** Fit      -0.007776
 **** Fit      -0.007878
 **** Fit      -0.008367
 **** Fit      -0.009029
 **** Fit      -0.009660
 **** Fit      -0.010086
 **** Fit      -0.012730
 **** Fit      -0.009708
 **** Fit      -0.007615
 **** Fit      -0.006330
 **** Fit      -0.005710
 **** Fit      -0.005589
 **** Fit      -0.005790
 **** Fit      -0.006137
 **** Fit      -0.006475
 **** Fit      -0.008819
 **** Fit      -0.006366
 **** Fit      -0.004733
 **** Fit      -0.003792
 **** Fit      -0.003391
 **** Fit      -0.003364
 **** Fit       0.029680
 **** Fit       0.024717
 **** Fit       0.031904
 **** Fit       0.028625
 **** Fit       0.026531
 **** Fit       0.024437
 **** Fit       0.031582
 **** Fit       0.029066
 **** Fit       0.028463
 **** Fit       0.028490
 **** Fit       0.028155
 **** Fit       0.025363
 **** Fit       0.027241
 **** Fit       0.029034
 **** Fit       0.065239
 **** Fit       0.025155
 **** Fit       0.075249
 **** Fit       0.080767
 **** Fit       0.077471
 **** Fit       0.040821
 **** Fit       0.075461
 **** Fit       0.080296
 **** Fit       0.052484
 **** Fit       0.045644
 **** Fit       0.069371
 **** Fit       0.073418
 **** Fit       0.077020
 **** Fit       0.079298
 **** Fit       0.079693
 **** Fit       0.078081
 **** Fit       0.074829
 **** Fit       0.070598
 **** Fit       0.065967
 **** Fit       0.061132
 **** Fit       0.055885
 **** Fit       0.049791
 **** Fit       0.042472
 **** Fit       0.065619
 **** Fit       0.069351
 **** Fit       0.072594
 **** Fit       0.074609
 **** Fit       0.075001
 **** Fit       0.073753
 **** Fit       0.071170
 **** Fit       0.067674
 **** Fit       0.063560
 **** Fit       0.058862
 **** Fit       0.053421
 **** Fit       0.047105
 **** Fit       0.040096
 **** Fit       0.065129
 **** Fit       0.068355
 **** Fit       0.070356
 **** Fit       0.070857
 **** Fit       0.069887
 **** Fit       0.067680
 **** Fit       0.064508
 **** Fit       0.060531
 **** Fit       0.055780
 **** Fit       0.050298
 **** Fit       0.044362
 **** Fit       0.060132
 **** Fit       0.063749
 **** Fit       0.065968
 **** Fit       0.066659
 **** Fit       0.065894
 **** Fit       0.063872
 **** Fit       0.060800
 **** Fit       0.056832
 **** Fit       0.052143
 **** Fit       0.047093
 **** Fit       0.055203
 **** Fit       0.059327
 **** Fit       0.061556
 **** Fit       0.061995
 **** Fit       0.060850
 **** Fit       0.058380
 **** Fit       0.054865
 **** Fit       0.050686
 **** Fit       0.054397
 **** Fit       0.056560
 **** Fit       0.056599
 **** Fit       0.054927
 **** Fit       0.052040
 **** Fit       0.049944
 **** Fit       0.050845
 **** Fit       0.049468
 **** Fit       0.044040
 **** Fit       0.040247
 **** Fit       0.034235
 **** Fit       0.045214
 **** Fit       0.052849
 **** Fit       0.041852
 **** Fit       0.050663
 **** Fit       0.056629
 **** Fit       0.040841
 **** Fit       0.050471
 **** Fit       0.057001
 **** Fit       0.061362
 **** Fit       0.064150
 **** Fit       0.042604
 **** Fit       0.052400
 **** Fit       0.059021
 **** Fit       0.029360
 **** Fit       0.046693
 **** Fit       0.055793
 **** Fit       0.035613
 **** Fit       0.053493
 **** Fit       0.061133
 **** Fit       0.032612
 **** Fit       0.052782
 **** Fit       0.048776
 **** Fit       0.014786
 **** Fit       0.049111
 **** Fit       0.044865
 **** Fit       0.040709
 **** Fit       0.036352
 **** Fit       0.031474
 **** Fit       0.050677
 **** Fit       0.046135
 **** Fit       0.041942
 **** Fit       0.037924
 **** Fit       0.033865
 **** Fit       0.049648
 **** Fit       0.045070
 **** Fit       0.040959
 **** Fit       0.037197
 **** Fit       0.033632
 **** Fit       0.052725
 **** Fit       0.047858
 **** Fit       0.043641
 **** Fit       0.040065
 **** Fit       0.037074
 **** Fit       0.034611
 **** Fit       0.052043
 **** Fit       0.047790
 **** Fit       0.044469
 **** Fit       0.042193
 **** Fit       0.041165
 **** Fit       0.041976
 **** Fit       0.061075
 **** Fit       0.056040
 **** Fit       0.052121
 **** Fit       0.049698
 **** Fit       0.049231
 **** Fit       0.051585
 **** Fit       0.065319
 **** Fit       0.060566
 **** Fit       0.058128
 **** Fit       0.059061
 **** Fit       0.072449
 **** Fit       0.068742
 **** Fit       0.064464
 **** Fit       0.065926
 **** Fit       0.067360
 **** Fit       0.062144
 **** Fit       0.064533
 **** Fit       0.065486
 **** Fit       0.065804
 **** Fit       0.066088
 **** Fit       0.066871
 **** Fit       0.063835
 **** Fit       0.065695
 **** Fit       0.066145
 **** Fit       0.065907
 **** Fit       0.065436
 **** Fit       0.065042
 **** Fit       0.065009
 **** Fit       0.065678
 **** Fit       0.063360
 **** Fit       0.066430
 **** Fit       0.067374
 **** Fit       0.067155
 **** Fit       0.066422
 **** Fit       0.065521
 **** Fit       0.064623
 **** Fit       0.063843
 **** Fit       0.063305
 **** Fit       0.063185
 **** Fit       0.063730
 **** Fit       0.068412
 **** Fit       0.069692
 **** Fit       0.069197
 **** Fit       0.067945
 **** Fit       0.066552
 **** Fit       0.065250
 **** Fit       0.064074
 **** Fit       0.063015
 **** Fit       0.062090
 **** Fit       0.061369
 **** Fit       0.060986
 **** Fit       0.061125
 **** Fit       0.062029
 **** Fit       0.073512
 **** Fit       0.072762
 **** Fit       0.070685
 **** Fit       0.068340
 **** Fit       0.066304
 **** Fit       0.064687
 **** Fit       0.063380
 **** Fit       0.062245
 **** Fit       0.061199
 **** Fit       0.060229
 **** Fit       0.059389
 **** Fit       0.058780
 **** Fit       0.058530
 **** Fit       0.058782
 **** Fit       0.077924
 **** Fit       0.075062
 **** Fit       0.071386
 **** Fit       0.067990
 **** Fit       0.065402
 **** Fit       0.063586
 **** Fit       0.062273
 **** Fit       0.061197
 **** Fit       0.060188
 **** Fit       0.059182
 **** Fit       0.058192
 **** Fit       0.057280
 **** Fit       0.056531
 **** Fit       0.056031
 **** Fit       0.076066
 **** Fit       0.070801
 **** Fit       0.066569
 **** Fit       0.063718
 **** Fit       0.061949
 **** Fit       0.060779
 **** Fit       0.059825
 **** Fit       0.058875
 **** Fit       0.057855
 **** Fit       0.056782
 **** Fit       0.055719
 **** Fit       0.054738
 **** Fit       0.053887
 **** Fit       0.076200
 **** Fit       0.069598
 **** Fit       0.064923
 **** Fit       0.062125
 **** Fit       0.060557
 **** Fit       0.059548
 **** Fit       0.058658
 **** Fit       0.057685
 **** Fit       0.056587
 **** Fit       0.055405
 **** Fit       0.054204
 **** Fit       0.053034
 **** Fit       0.051889
 **** Fit       0.076502
 **** Fit       0.069094
 **** Fit       0.064281
 **** Fit       0.061563
 **** Fit       0.060063
 **** Fit       0.059042
 **** Fit       0.058080
 **** Fit       0.057010
 **** Fit       0.055816
 **** Fit       0.054549
 **** Fit       0.053266
 **** Fit       0.051986
 **** Fit       0.076200
 **** Fit       0.068583
 **** Fit       0.064040
 **** Fit       0.061529
 **** Fit       0.059993
 **** Fit       0.058751
 **** Fit       0.057506
 **** Fit       0.056195
 **** Fit       0.054865
 **** Fit       0.053583
 **** Fit       0.076344
 **** Fit       0.069039
 **** Fit       0.064757
 **** Fit       0.062214
 **** Fit       0.060439
 **** Fit       0.058936
 **** Fit       0.057567
 **** Fit       0.056387
 **** Fit       0.075769
 **** Fit       0.069167
 **** Fit       0.065287
 **** Fit       0.062839
 **** Fit       0.061160
 **** Fit       0.060153
 **** Fit       0.083561
 **** Fit       0.073896
 **** Fit       0.068660
 **** Fit       0.066159
 **** Fit       0.065994
 **** Fit       0.079364
 **** Fit       0.073819
 **** Fit       0.043228
 **** Fit       0.041668
 **** Fit       0.046275
 **** Fit       0.046619
 **** Fit       0.043673
 **** Fit       0.040475
 **** Fit       0.038824
 **** Fit       0.038829
 **** Fit       0.045350
 **** Fit       0.049641
 **** Fit       0.050655
 **** Fit       0.049183
 **** Fit       0.046375
 **** Fit       0.043175
 **** Fit       0.040310
 **** Fit       0.037957
 **** Fit       0.035523
 **** Fit       0.033245
 **** Fit       0.033792
 **** Fit       0.034651
 **** Fit       0.043118
 **** Fit       0.049694
 **** Fit       0.053352
 **** Fit       0.054317
 **** Fit       0.053317
 **** Fit       0.051102
 **** Fit       0.048227
 **** Fit       0.045052
 **** Fit       0.041883
 **** Fit       0.039122
 **** Fit       0.037092
 **** Fit       0.035571
 **** Fit       0.033663
 **** Fit       0.030474
 **** Fit       0.026446
 **** Fit       0.055064
 **** Fit       0.057739
 **** Fit       0.058059
 **** Fit       0.056740
 **** Fit       0.054417
 **** Fit       0.051545
 **** Fit       0.048382
 **** Fit       0.045041
 **** Fit       0.041611
 **** Fit       0.038336
 **** Fit       0.035681
 **** Fit       0.034055
 **** Fit       0.033336
 **** Fit       0.032679
 **** Fit       0.030796
 **** Fit       0.026544
 **** Fit       0.062528
 **** Fit       0.061780
 **** Fit       0.059699
 **** Fit       0.056861
 **** Fit       0.053660
 **** Fit       0.050303
 **** Fit       0.046837
 **** Fit       0.043209
 **** Fit       0.039390
 **** Fit       0.035577
 **** Fit       0.032326
 **** Fit       0.030342
 **** Fit       0.029926
 **** Fit       0.030582
 **** Fit       0.031137
 **** Fit       0.030055
 **** Fit       0.025722
 **** Fit       0.065691
 **** Fit       0.062792
 **** Fit       0.059380
 **** Fit       0.055793
 **** Fit       0.052203
 **** Fit       0.048638
 **** Fit       0.045002
 **** Fit       0.041129
 **** Fit       0.036894
 **** Fit       0.032431
 **** Fit       0.028336
 **** Fit       0.025559
 **** Fit       0.024836
 **** Fit       0.026111
 **** Fit       0.028530
 **** Fit       0.030787
 **** Fit       0.031312
 **** Fit       0.064026
 **** Fit       0.059677
 **** Fit       0.055469
 **** Fit       0.051466
 **** Fit       0.047595
 **** Fit       0.043665
 **** Fit       0.039393
 **** Fit       0.034529
 **** Fit       0.029117
 **** Fit       0.023818
 **** Fit       0.019928
 **** Fit       0.018699
 **** Fit       0.020445
 **** Fit       0.024417
 **** Fit       0.029338
 **** Fit       0.033701
 **** Fit       0.064695
 **** Fit       0.059575
 **** Fit       0.054891
 **** Fit       0.050587
 **** Fit       0.046502
 **** Fit       0.042365
 **** Fit       0.037812
 **** Fit       0.032494
 **** Fit       0.026341
 **** Fit       0.019953
 **** Fit       0.014778
 **** Fit       0.012519
 **** Fit       0.014008
 **** Fit       0.018847
 **** Fit       0.025990
 **** Fit       0.057489
 **** Fit       0.052538
 **** Fit       0.048053
 **** Fit       0.043753
 **** Fit       0.039261
 **** Fit       0.034143
 **** Fit       0.028062
 **** Fit       0.021108
 **** Fit       0.014218
 **** Fit       0.007817
 **** Fit       0.056752
 **** Fit       0.051271
 **** Fit       0.046391
 **** Fit       0.041713
 **** Fit       0.036770
 **** Fit       0.031086
 **** Fit       0.024392
 **** Fit       0.017019
 **** Fit       0.010282
 **** Fit       0.047827
 **** Fit       0.042694
 **** Fit       0.037591
 **** Fit       0.032018
 **** Fit       0.025646
 **** Fit       0.018642
 **** Fit       0.012095
 -----------------------------------------------------------------
 Leave Link  602 at Wed Sep 18 10:14:54 2019, MaxMem=  1342177280 cpu:             128.6 elap:               2.7

 Test job not archived.
 1\1\GINC-C506-073\SP\RB3LYP\SVP\C54H83Ca1N15O23\PENGZHI\18-Sep-2019\0\
 \#b3lyp/svp scf=(tight,noincore) Test #IOP(5/87=12) Density=Current Po
 p=(MK,readradii) iop(6/33=2) iop(6/42=6)\\Ng-295_loop3_23.0\\0,1\C,0,9
 8.441,78.091,32.01\C,0,97.951,76.961,31.11\O,0,97.281,76.071,31.63\H,0
 ,99.344,78.528,31.584\H,0,97.669,78.857,32.086\H,0,98.661,77.697,33.00
 2\N,0,98.011,76.931,29.78\C,0,97.501,75.891,28.91\C,0,98.631,75.151,28
 .2\O,0,99.621,75.591,27.63\C,0,96.671,76.591,27.84\C,0,95.721,75.701,2
 7.05\O,0,95.861,74.461,26.97\O,0,94.731,76.281,26.56\H,0,98.611,77.601
 ,29.33\H,0,96.841,75.221,29.47\H,0,97.341,77.001,27.08\H,0,96.071,77.3
 61,28.32\N,0,98.451,73.841,28.32\C,0,99.421,72.911,27.76\C,0,99.051,72
 .401,26.38\O,0,99.841,71.651,25.82\C,0,99.711,71.901,28.87\C,0,101.071
 ,71.231,28.66\C,0,101.151,69.821,29.26\C,0,100.481,68.781,28.38\N,0,10
 0.481,67.411,28.92\H,0,97.641,73.501,28.83\H,0,100.321,73.501,27.61\H,
 0,98.891,71.171,28.85\H,0,99.641,72.511,29.76\H,0,101.811,71.891,29.11
 \H,0,101.291,71.101,27.6\H,0,100.671,69.871,30.23\H,0,102.221,69.591,2
 9.35\H,0,100.841,68.831,27.35\H,0,99.451,69.141,28.33\H,0,99.891,67.35
 1,29.74\H,0,100.171,66.671,28.32\H,0,101.371,67.151,29.33\N,0,97.921,7
 2.761,25.77\C,0,97.481,72.421,24.43\C,0,97.201,73.551,23.46\O,0,97.331
 ,73.351,22.25\C,0,96.321,71.441,24.6\C,0,95.081,71.951,25.32\O,0,94.58
 1,73.031,24.94\O,0,94.561,71.361,26.29\H,0,97.201,73.031,26.42\H,0,98.
 271,71.811,23.99\H,0,96.741,70.581,25.13\H,0,96.061,71.051,23.61\N,0,9
 7.201,74.761,24.02\C,0,96.911,75.981,23.29\C,0,95.501,75.991,22.72\O,0
 ,95.151,76.931,22.01\H,0,97.431,74.891,25.\H,0,97.651,76.051,22.49\H,0
 ,97.001,76.851,23.94\N,0,94.591,75.071,23.03\C,0,93.181,75.121,22.7\C,
 0,92.301,75.741,23.78\O,0,92.241,75.151,24.85\C,0,92.721,73.701,22.38\
 C,0,91.311,73.581,21.83\N,0,90.731,72.381,21.89\O,0,90.751,74.551,21.3
 2\H,0,94.801,74.261,23.6\H,0,92.921,75.701,21.81\H,0,92.781,73.121,23.
 3\H,0,93.421,73.281,21.66\H,0,91.171,71.531,22.21\H,0,89.941,72.321,21
 .26\N,0,91.531,76.821,23.61\C,0,90.731,77.481,24.62\C,0,89.331,76.901,
 24.82\O,0,88.461,77.591,25.35\H,0,91.721,77.411,22.82\H,0,90.751,78.55
 1,24.41\H,0,91.391,77.501,25.49\N,0,89.011,75.661,24.47\C,0,87.741,74.
 951,24.48\C,0,87.641,74.131,25.76\O,0,88.651,73.711,26.32\C,0,87.711,7
 3.991,23.3\C,0,86.511,73.091,23.2\C,0,86.671,71.791,23.7\C,0,85.381,73
 .361,22.41\C,0,85.611,70.881,23.54\C,0,84.321,72.481,22.2\C,0,84.491,7
 1.181,22.73\O,0,83.521,70.261,22.47\H,0,89.811,75.121,24.17\H,0,87.021
 ,75.761,24.38\H,0,88.621,73.401,23.26\H,0,87.741,74.561,22.36\H,0,87.5
 41,71.531,24.28\H,0,85.171,74.371,22.1\H,0,85.811,69.841,23.73\H,0,83.
 451,72.781,21.64\H,0,82.751,70.781,22.24\N,0,86.401,74.141,26.27\C,0,8
 5.981,73.691,27.58\C,0,86.021,72.181,27.76\O,0,87.011,71.471,27.56\C,0
 ,86.731,74.381,28.72\C,0,86.221,73.921,30.08\C,0,86.711,75.901,28.54\C
 ,0,84.761,74.261,30.37\H,0,85.651,74.611,25.78\H,0,84.931,73.961,27.68
 \H,0,87.761,74.031,28.69\H,0,86.821,74.491,30.79\H,0,86.401,72.881,30.
 32\H,0,87.431,76.261,27.81\H,0,85.761,76.301,28.18\H,0,87.021,76.441,2
 9.44\H,0,84.451,74.041,31.39\H,0,84.541,75.321,30.21\H,0,84.081,73.711
 ,29.72\N,0,84.861,71.631,28.1\C,0,84.611,70.221,28.3\C,0,83.231,69.711
 ,27.89\O,0,83.021,68.521,27.68\C,0,84.871,69.761,29.73\O,0,84.001,70.3
 91,30.65\H,0,84.061,72.241,28.11\H,0,85.251,69.691,27.6\H,0,85.901,70.
 001,30.01\H,0,84.801,68.671,29.75\H,0,84.581,70.801,31.29\N,0,82.221,7
 0.551,27.67\C,0,80.891,70.211,27.2\C,0,79.961,69.351,28.04\O,0,79.031,
 68.751,27.49\C,0,80.921,69.791,25.73\H,0,82.321,71.541,27.84\H,0,80.39
 1,71.171,27.26\H,0,81.041,68.711,25.72\H,0,80.011,70.081,25.21\H,0,81.
 831,70.231,25.32\N,0,80.071,69.221,29.36\C,0,80.771,69.931,30.41\C,0,7
 9.791,70.601,31.37\O,0,78.631,70.221,31.44\C,0,81.491,68.791,31.11\H,0
 ,79.431,68.531,29.74\H,0,81.501,70.641,30.01\H,0,80.681,68.181,31.5\H,
 0,82.111,68.221,30.42\H,0,82.081,69.271,31.89\N,0,80.071,71.621,32.18\
 C,0,81.311,72.371,32.29\C,0,81.101,73.881,32.34\O,0,82.021,74.621,31.9
 9\C,0,82.071,71.801,33.48\C,0,81.371,71.991,34.83\C,0,82.311,71.591,35
 .96\O,0,82.081,70.501,36.53\O,0,83.271,72.361,36.14\H,0,79.391,71.771,
 32.91\H,0,81.991,72.251,31.44\H,0,83.041,72.291,33.54\H,0,82.271,70.74
 1,33.34\H,0,80.401,71.511,34.82\H,0,81.261,73.061,35.02\N,0,79.961,74.
 411,32.78\C,0,79.681,75.821,32.59\H,0,78.756,76.08,33.106\H,0,80.501,7
 6.413,32.996\H,0,79.573,76.03,31.526\H,0,79.241,73.711,32.89\Ca,0,93.2
 4,74.07,26.99\O,0,92.42,72.56,28.94\H,0,92.84,72.72,29.78\H,0,91.92,71
 .76,29.07\\Version=ES64L-G16RevA.03\State=1-A\HF=-5333.3633669\RMSD=1.
 445e-09\Dipole=19.7704298,-2.4265412,-4.821476\Quadrupole=92.5871588,7
 2.4972979,-165.0844568,-222.538474,244.1663508,29.1612896\PG=C01 [X(C5
 4H83Ca1N15O23)]\\@


 A MAN IS EXACTLY AS GREAT AS THE TIDE SURGING
 BENEATH HIM.      - BISMARCK
 Job cpu time:       0 days 12 hours  4 minutes 49.9 seconds.
 Elapsed time:       0 days  0 hours 15 minutes 18.3 seconds.
 File lengths (MBytes):  RWF=   1517 Int=      0 D2E=      0 Chk=    171 Scr=      1
 Normal termination of Gaussian 16 at Wed Sep 18 10:14:56 2019.
