 Entering Gaussian System, Link 0=g16
 Initial command:
 /home1/apps/gaussian/16rA.03/g16/l1.exe "/scratch/01990/pengzhi/4345530/Gau-220929.inp" -scrdir="/scratch/01990/pengzhi/4345530/"
 Entering Link 1 = /home1/apps/gaussian/16rA.03/g16/l1.exe PID=    220931.
  
 Copyright (c) 1988,1990,1992,1993,1995,1998,2003,2009,2016,
            Gaussian, Inc.  All Rights Reserved.
  
 This is part of the Gaussian(R) 16 program.  It is based on
 the Gaussian(R) 09 system (copyright 2009, Gaussian, Inc.),
 the Gaussian(R) 03 system (copyright 2003, Gaussian, Inc.),
 the Gaussian(R) 98 system (copyright 1998, Gaussian, Inc.),
 the Gaussian(R) 94 system (copyright 1995, Gaussian, Inc.),
 the Gaussian 92(TM) system (copyright 1992, Gaussian, Inc.),
 the Gaussian 90(TM) system (copyright 1990, Gaussian, Inc.),
 the Gaussian 88(TM) system (copyright 1988, Gaussian, Inc.),
 the Gaussian 86(TM) system (copyright 1986, Carnegie Mellon
 University), and the Gaussian 82(TM) system (copyright 1983,
 Carnegie Mellon University). Gaussian is a federally registered
 trademark of Gaussian, Inc.
  
 This software contains proprietary and confidential information,
 including trade secrets, belonging to Gaussian, Inc.
  
 This software is provided under written license and may be
 used, copied, transmitted, or stored only in accord with that
 written license.
  
 The following legend is applicable only to US Government
 contracts under FAR:
  
                    RESTRICTED RIGHTS LEGEND
  
 Use, reproduction and disclosure by the US Government is
 subject to restrictions as set forth in subparagraphs (a)
 and (c) of the Commercial Computer Software - Restricted
 Rights clause in FAR 52.227-19.
  
 Gaussian, Inc.
 340 Quinnipiac St., Bldg. 40, Wallingford CT 06492
  
  
 ---------------------------------------------------------------
 Warning -- This program may not be used in any manner that
 competes with the business of Gaussian, Inc. or will provide
 assistance to any competitor of Gaussian, Inc.  The licensee
 of this program is prohibited from giving any competitor of
 Gaussian, Inc. access to this program.  By using this program,
 the user acknowledges that Gaussian, Inc. is engaged in the
 business of creating and licensing software in the field of
 computational chemistry and represents and warrants to the
 licensee that it is not a competitor of Gaussian, Inc. and that
 it will not use this program in any manner prohibited above.
 ---------------------------------------------------------------
  

 Cite this work as:
 Gaussian 16, Revision A.03,
 M. J. Frisch, G. W. Trucks, H. B. Schlegel, G. E. Scuseria, 
 M. A. Robb, J. R. Cheeseman, G. Scalmani, V. Barone, 
 G. A. Petersson, H. Nakatsuji, X. Li, M. Caricato, A. V. Marenich, 
 J. Bloino, B. G. Janesko, R. Gomperts, B. Mennucci, H. P. Hratchian, 
 J. V. Ortiz, A. F. Izmaylov, J. L. Sonnenberg, D. Williams-Young, 
 F. Ding, F. Lipparini, F. Egidi, J. Goings, B. Peng, A. Petrone, 
 T. Henderson, D. Ranasinghe, V. G. Zakrzewski, J. Gao, N. Rega, 
 G. Zheng, W. Liang, M. Hada, M. Ehara, K. Toyota, R. Fukuda, 
 J. Hasegawa, M. Ishida, T. Nakajima, Y. Honda, O. Kitao, H. Nakai, 
 T. Vreven, K. Throssell, J. A. Montgomery, Jr., J. E. Peralta, 
 F. Ogliaro, M. J. Bearpark, J. J. Heyd, E. N. Brothers, K. N. Kudin, 
 V. N. Staroverov, T. A. Keith, R. Kobayashi, J. Normand, 
 K. Raghavachari, A. P. Rendell, J. C. Burant, S. S. Iyengar, 
 J. Tomasi, M. Cossi, J. M. Millam, M. Klene, C. Adamo, R. Cammi, 
 J. W. Ochterski, R. L. Martin, K. Morokuma, O. Farkas, 
 J. B. Foresman, and D. J. Fox, Gaussian, Inc., Wallingford CT, 2016.
 
 ******************************************
 Gaussian 16:  ES64L-G16RevA.03 25-Dec-2016
                17-Sep-2019 
 ******************************************
 %chk=Ng-293_loop3_57.0.chk
 %nprocshared=48
 Will use up to   48 processors via shared memory.
 %mem=10GB
 %nosave
 ----------------------------------------------------------------------
 #b3lyp/svp scf=(tight,noincore) Test #IOP(5/87=12) Density=Current Pop
 =(MK,readradii) iop(6/33=2) iop(6/42=6)
 ----------------------------------------------------------------------
 1/30=1,38=1,172=1/1;
 2/12=2,17=6,18=5,40=1/2;
 3/5=18,7=101,11=2,25=1,30=1,74=-5/1,2,3;
 4//1;
 5/5=4,32=2,38=5,87=12/2;
 6/7=2,8=2,9=2,10=2,15=8,20=101,22=-1,28=1,33=2,42=6/1,2;
 99/5=1,9=1/99;
 -----------------
 Ng-293_loop3_57.0
 -----------------
 Symbolic Z-matrix:
 Charge =  0 Multiplicity = 1
 C                     65.52     28.44     19.54 
 C                     66.45     29.45     18.89 
 O                     66.14     30.63     18.7 
 H                     64.573    28.419    19. 
 H                     65.978    27.451    19.509 
 H                     65.34     28.725    20.577 
 N                     67.67     29.06     18.51 
 C                     68.64     29.84     17.76 
 C                     68.29     30.36     16.37 
 O                     68.92     31.28     15.85 
 C                     69.13     30.93     18.71 
 C                     70.58     31.25     18.38 
 O                     70.97     32.44     18.42 
 O                     71.4      30.33     18.2 
 H                     67.88     28.08     18.62 
 H                     69.5      29.18     17.64 
 H                     69.03     30.62     19.76 
 H                     68.55     31.84     18.63 
 N                     67.26     29.82     15.71 
 C                     66.68     30.32     14.48 
 C                     65.9      31.63     14.63 
 O                     65.56     32.22     13.61 
 C                     65.93     29.2      13.77 
 C                     66.83     28.05     13.3 
 C                     66.       27.07     12.48 
 C                     66.67     25.71     12.33 
 N                     65.87     24.77     11.54 
 H                     66.8      29.07     16.2 
 H                     67.45     30.58     13.75 
 H                     65.41     29.58     12.89 
 H                     65.25     28.82     14.53 
 H                     67.25     27.62     14.21 
 H                     67.59     28.5      12.65 
 H                     65.81     27.39     11.45 
 H                     65.       26.85     12.85 
 H                     66.96     25.29     13.29 
 H                     67.57     25.95     11.76 
 H                     65.79     24.96     10.55 
 H                     66.25     23.87     11.8 
 H                     64.9      24.7      11.81 
 N                     65.5      32.09     15.82 
 C                     65.16     33.47     16.11 
 C                     66.36     34.26     16.62 
 O                     67.07     33.79     17.51 
 C                     63.96     33.54     17.05 
 C                     63.35     34.94     17.13 
 O                     62.49     35.17     18.01 
 O                     63.52     35.72     16.17 
 H                     65.61     31.47     16.61 
 H                     64.9      34.01     15.21 
 H                     64.22     33.24     18.07 
 H                     63.22     32.9      16.58 
 N                     66.48     35.52     16.21 
 C                     67.15     36.57     16.96 
 C                     66.25     37.68     17.48 
 O                     65.23     38.09     16.91 
 H                     66.04     35.86     15.37 
 H                     67.94     36.96     16.33 
 H                     67.77     36.25     17.8 
 N                     66.69     38.16     18.64 
 C                     65.95     39.16     19.39 
 C                     66.78     40.35     19.87 
 O                     66.18     41.39     20.12 
 C                     65.3      38.49     20.59 
 C                     64.31     37.36     20.32 
 N                     63.29     37.59     19.48 
 O                     64.49     36.26     20.83 
 H                     67.5      37.75     19.08 
 H                     65.18     39.65     18.8 
 H                     64.81     39.37     21.03 
 H                     66.15     38.1      21.15 
 H                     63.19     38.46     18.97 
 H                     62.74     36.81     19.17 
 N                     68.11     40.32     19.94 
 C                     69.01     41.34     20.44 
 C                     68.72     41.68     21.89 
 O                     68.44     40.88     22.78 
 H                     68.58     39.44     19.79 
 H                     68.95     42.15     19.72 
 H                     70.01     40.89     20.48 
 N                     68.77     42.97     22.24 
 C                     68.15     43.54     23.42 
 C                     66.75     43.11     23.83 
 O                     66.31     43.4      24.94 
 C                     69.12     43.44     24.59 
 C                     70.47     44.       24.23 
 C                     71.49     43.08     23.99 
 C                     70.66     45.37     24.02 
 C                     72.74     43.55     23.54 
 C                     71.91     45.82     23.57 
 C                     72.99     44.93     23.42 
 O                     74.19     45.42     23.01 
 H                     69.04     43.67     21.55 
 H                     68.       44.61     23.29 
 H                     69.28     42.4      24.89 
 H                     68.79     43.96     25.49 
 H                     71.33     42.02     24.14 
 H                     69.9      46.1      24.3 
 H                     73.54     42.88     23.25 
 H                     72.02     46.89     23.51 
 H                     74.13     46.37     22.9 
 N                     66.01     42.47     22.92 
 C                     64.62     42.07     23.01 
 C                     63.74     43.31     23.01 
 O                     62.99     43.46     22.06 
 C                     64.35     41.05     24.11 
 C                     65.5      40.09     24.35 
 C                     63.08     40.34     23.65 
 C                     65.36     38.88     25.26 
 H                     66.55     42.29     22.08 
 H                     64.41     41.71     22. 
 H                     64.2      41.56     25.07 
 H                     66.39     40.57     24.76 
 H                     65.68     39.67     23.35 
 H                     63.32     39.53     22.97 
 H                     62.53     40.       24.53 
 H                     62.4      41.11     23.27 
 H                     66.35     38.44     25.4 
 H                     65.03     39.18     26.25 
 H                     64.6      38.19     24.89 
 N                     63.78     44.09     24.09 
 C                     63.16     45.39     24.28 
 C                     61.64     45.24     24.24 
 O                     60.94     46.       23.58 
 C                     63.49     46.1      25.6 
 O                     64.85     46.44     25.52 
 H                     64.57     43.82     24.66 
 H                     63.37     46.05     23.45 
 H                     63.33     45.37     26.39 
 H                     62.94     47.03     25.71 
 H                     65.22     46.29     26.4 
 N                     61.1      44.26     24.97 
 C                     59.68     44.05     25.14 
 C                     58.84     44.18     23.87 
 O                     57.72     44.68     23.96 
 C                     59.2      44.94     26.28 
 H                     61.72     43.65     25.49 
 H                     59.56     42.99     25.4 
 H                     59.4      45.98     26.04 
 H                     58.14     44.77     26.45 
 H                     59.78     44.66     27.16 
 N                     59.26     43.62     22.74 
 C                     58.53     43.72     21.49 
 C                     58.71     42.51     20.59 
 O                     59.58     41.69     20.9 
 C                     59.13     44.9      20.73 
 H                     60.18     43.22     22.8 
 H                     57.48     43.96     21.67 
 H                     59.06     45.74     21.42 
 H                     60.18     44.73     20.47 
 H                     58.53     45.05     19.83 
 N                     57.93     42.39     19.51 
 C                     57.81     41.16     18.76 
 C                     57.47     39.91     19.57 
 O                     57.46     38.85     18.94 
 C                     58.94     40.91     17.76 
 C                     58.61     40.13     16.5 
 C                     59.63     40.48     15.42 
 O                     60.66     39.77     15.34 
 O                     59.35     41.3      14.52 
 H                     57.24     43.09     19.29 
 H                     56.94     41.33     18.14 
 H                     59.86     40.5      18.18 
 H                     59.16     41.93     17.44 
 H                     57.64     40.46     16.14 
 H                     58.6      39.09     16.83 
 N                     57.01     39.95     20.82 
 C                     56.86     38.75     21.63 
 H                     55.836    38.384    21.55 
 H                     57.548    37.983    21.275 
 H                     57.082    38.984    22.671 
 H                     56.93     40.79     21.37 
 Ca                    62.72     38.07     15.69 
 O                     64.29     37.02     13.92 
 H                     64.23     36.2      13.42 
 H                     65.04     37.48     13.54 
 
 Stoichiometry    C54H83CaN15O23
 Framework group  C1[X(C54H83CaN15O23)]
 Deg. of freedom   522
 Full point group                 C1      NOp   1
 Largest Abelian subgroup         C1      NOp   1
 Largest concise Abelian subgroup C1      NOp   1
                         Standard orientation:                         
 ---------------------------------------------------------------------
 Center     Atomic      Atomic             Coordinates (Angstroms)
 Number     Number       Type             X           Y           Z
 ---------------------------------------------------------------------
      1          6           0        8.694581    0.162424    4.879782
      2          6           0        8.337500    0.920661    3.612869
      3          8           0        7.368424    0.633614    2.903577
      4          1           0        8.792861   -0.899225    4.651546
      5          1           0        9.638848    0.538119    5.274826
      6          1           0        7.908364    0.302569    5.622221
      7          7           0        9.093114    1.957806    3.241009
      8          6           0        8.988217    2.713222    2.004020
      9          6           0        9.160887    2.008601    0.662865
     10          8           0        8.757895    2.512203   -0.384839
     11          6           0        7.691864    3.512975    2.106794
     12          6           0        7.864939    4.822902    1.353177
     13          8           0        6.910955    5.271871    0.676315
     14          8           0        8.894366    5.505965    1.510990
     15          1           0        9.912152    2.137119    3.801031
     16          1           0        9.775227    3.465807    2.065911
     17          1           0        7.420063    3.701150    3.155276
     18          1           0        6.845380    2.984517    1.688349
     19          7           0        9.742566    0.805092    0.626595
     20          6           0        9.808811   -0.074822   -0.522607
     21          6           0        8.470775   -0.707090   -0.918705
     22          8           0        8.404303   -1.292421   -1.994377
     23          6           0       10.962103   -1.056204   -0.355854
     24          6           0       12.344798   -0.392096   -0.333108
     25          6           0       13.417625   -1.473920   -0.313111
     26          6           0       14.776665   -0.949585    0.133079
     27          7           0       15.806650   -1.991955    0.150245
     28          1           0       10.049095    0.464730    1.523474
     29          1           0       10.096612    0.466841   -1.426583
     30          1           0       10.970101   -1.785012   -1.167011
     31          1           0       10.779014   -1.509680    0.616379
     32          1           0       12.345025    0.246933    0.550658
     33          1           0       12.430047    0.173193   -1.268940
     34          1           0       13.614564   -1.933243   -1.287604
     35          1           0       13.227757   -2.336506    0.323439
     36          1           0       14.718502   -0.420058    1.080875
     37          1           0       15.028243   -0.238838   -0.656888
     38          1           0       16.115781   -2.341639   -0.746839
     39          1           0       16.517268   -1.602741    0.754839
     40          1           0       15.544368   -2.846351    0.619196
     41          7           0        7.417950   -0.724118   -0.094708
     42          6           0        6.037546   -0.891606   -0.507665
     43          6           0        5.350395    0.445117   -0.762992
     44          8           0        5.450956    1.353670    0.062550
     45          6           0        5.282596   -1.766615    0.488784
     46          6           0        3.935662   -2.251429   -0.049011
     47          8           0        3.140620   -2.809705    0.740379
     48          8           0        3.777861   -2.321422   -1.285578
     49          1           0        7.577965   -0.426283    0.857284
     50          1           0        5.970213   -1.368759   -1.475648
     51          1           0        5.087236   -1.242110    1.429384
     52          1           0        5.912451   -2.643725    0.598605
     53          7           0        4.505258    0.510755   -1.788436
     54          6           0        3.376162    1.423270   -1.868172
     55          6           0        2.002883    0.771312   -1.828759
     56          8           0        1.735705   -0.345420   -2.292361
     57          1           0        4.543180   -0.132239   -2.562982
     58          1           0        3.508387    2.019735   -2.762514
     59          1           0        3.356360    2.239536   -1.143108
     60          7           0        1.111611    1.550328   -1.221824
     61          6           0       -0.249991    1.111320   -0.970007
     62          6           0       -1.334196    2.107171   -1.380106
     63          8           0       -2.456978    1.661101   -1.591014
     64          6           0       -0.397023    0.796813    0.510151
     65          6           0        0.501933   -0.288721    1.096148
     66          7           0        0.520149   -1.492503    0.504982
     67          8           0        1.220624   -0.030082    2.054840
     68          1           0        1.401663    2.428952   -0.819717
     69          1           0       -0.526523    0.232346   -1.546231
     70          1           0       -1.455786    0.501704    0.515835
     71          1           0       -0.175069    1.749142    0.991822
     72          1           0        0.012346   -1.687068   -0.350168
     73          1           0        1.227372   -2.149629    0.778881
     74          7           0       -1.083732    3.397875   -1.594703
     75          6           0       -2.019763    4.457208   -1.914169
     76          6           0       -3.076898    4.613349   -0.837004
     77          8           0       -2.889200    4.556991    0.376295
     78          1           0       -0.171249    3.756880   -1.357448
     79          1           0       -2.365718    4.237533   -2.919235
     80          1           0       -1.462311    5.400899   -1.861295
     81          7           0       -4.334291    4.831242   -1.237737
     82          6           0       -5.518505    4.606854   -0.432141
     83          6           0       -5.627709    3.361706    0.434278
     84          8           0       -6.504714    3.274304    1.290445
     85          6           0       -5.818869    5.864327    0.373058
     86          6           0       -5.854344    7.082999   -0.509709
     87          6           0       -4.756457    7.940205   -0.444566
     88          6           0       -6.877421    7.278817   -1.443556
     89          6           0       -4.690829    9.032576   -1.332439
     90          6           0       -6.794811    8.370105   -2.320919
     91          6           0       -5.754883    9.312100   -2.210480
     92          8           0       -5.735626   10.369176   -3.065126
     93          1           0       -4.537225    4.929879   -2.231764
     94          1           0       -6.392440    4.484085   -1.068903
     95          1           0       -5.051921    6.046958    1.131765
     96          1           0       -6.766608    5.834481    0.911761
     97          1           0       -3.961285    7.772694    0.270515
     98          1           0       -7.782920    6.671493   -1.432236
     99          1           0       -3.823565    9.678551   -1.392176
    100          1           0       -7.652411    8.516096   -2.956378
    101          1           0       -6.499940   10.331729   -3.641859
    102          7           0       -4.781829    2.358621    0.182071
    103          6           0       -4.757446    1.033045    0.767267
    104          6           0       -5.981904    0.258379    0.306186
    105          8           0       -5.789104   -0.722945   -0.391906
    106          6           0       -4.484104    1.034465    2.266794
    107          6           0       -3.562567    2.151291    2.719750
    108          6           0       -3.903077   -0.350574    2.536377
    109          6           0       -3.009266    2.212382    4.134644
    110          1           0       -4.111282    2.624943   -0.531398
    111          1           0       -3.996857    0.523493    0.170894
    112          1           0       -5.417708    1.193446    2.821148
    113          1           0       -3.997861    3.146049    2.612164
    114          1           0       -2.679890    2.014430    2.078696
    115          1           0       -2.834670   -0.359540    2.350567
    116          1           0       -4.153694   -0.643169    3.558179
    117          1           0       -4.502902   -1.068166    1.966315
    118          1           0       -2.511352    3.175679    4.266707
    119          1           0       -3.814395    2.196392    4.863006
    120          1           0       -2.389954    1.342064    4.357349
    121          7           0       -7.166623    0.648093    0.776254
    122          6           0       -8.484606    0.179792    0.383681
    123          6           0       -8.634017   -1.293825    0.758687
    124          8           0       -9.091781   -2.111257   -0.032171
    125          6           0       -9.671169    0.911845    1.025215
    126          8           0       -9.655367    2.208336    0.486272
    127          1           0       -7.063167    1.552386    1.216084
    128          1           0       -8.596542    0.178784   -0.691526
    129          1           0       -9.470408    0.945440    2.093469
    130          1           0      -10.622068    0.467565    0.746095
    131          1           0       -9.887903    2.806108    1.209042
    132          7           0       -8.265633   -1.654457    1.991220
    133          6           0       -8.447701   -2.975537    2.548891
    134          6           0       -8.098362   -4.135657    1.617503
    135          8           0       -8.785493   -5.154213    1.671298
    136          6           0       -9.856680   -3.060124    3.123108
    137          1           0       -7.882095   -0.945513    2.605385
    138          1           0       -7.698735   -3.073291    3.345819
    139          1           0      -10.582883   -2.881199    2.335825
    140          1           0      -10.002509   -4.034660    3.581815
    141          1           0       -9.937884   -2.268504    3.868724
    142          7           0       -6.986188   -4.087734    0.891092
    143          6           0       -6.599744   -5.138525   -0.031892
    144          6           0       -5.095396   -5.289535   -0.175529
    145          8           0       -4.381698   -4.412937    0.322076
    146          6           0       -7.111514   -4.718256   -1.407197
    147          1           0       -6.496610   -3.212138    0.951468
    148          1           0       -7.096653   -6.078431    0.217427
    149          1           0       -8.177152   -4.542180   -1.265730
    150          1           0       -6.634763   -3.797465   -1.759124
    151          1           0       -6.914011   -5.541774   -2.096626
    152          7           0       -4.615371   -6.351398   -0.832205
    153          6           0       -3.226188   -6.747527   -0.776960
    154          6           0       -2.628829   -6.908554    0.619977
    155          8           0       -1.421454   -7.155894    0.660806
    156          6           0       -2.302597   -5.966407   -1.713032
    157          6           0       -1.086056   -6.685072   -2.268415
    158          6           0       -0.654083   -5.999592   -3.561789
    159          8           0        0.188893   -5.075639   -3.477518
    160          8           0       -0.963058   -6.480714   -4.672580
    161          1           0       -5.236265   -7.036538   -1.231671
    162          1           0       -3.235788   -7.748080   -1.188060
    163          1           0       -1.981275   -4.988282   -1.351198
    164          1           0       -2.968642   -5.792337   -2.559959
    165          1           0       -1.378660   -7.698181   -2.528017
    166          1           0       -0.366988   -6.656474   -1.448218
    167          7           0       -3.366201   -6.988543    1.727038
    168          6           0       -2.774245   -6.965107    3.056564
    169          1           0       -2.623894   -7.987396    3.404776
    170          1           0       -1.814548   -6.450134    3.018567
    171          1           0       -3.440731   -6.442023    3.742057
    172          1           0       -4.365054   -6.862116    1.755480
    173         20           0        1.862196   -3.096880   -2.742215
    174          8           0        3.928891   -2.158630   -3.986706
    175          1           0        4.858913   -2.403584   -3.954206
    176          1           0        3.871139   -1.525062   -4.703474
 ---------------------------------------------------------------------
 Rotational constants (GHZ):           0.0188416           0.0080971           0.0063362
 Standard basis: SVP (5D, 7F)
 There are  1809 symmetry adapted cartesian basis functions of A   symmetry.
 There are  1717 symmetry adapted basis functions of A   symmetry.
  1717 basis functions,  2922 primitive gaussians,  1809 cartesian basis functions
   358 alpha electrons      358 beta electrons
       nuclear repulsion energy     18641.5961536304 Hartrees.
 NAtoms=  176 NActive=  176 NUniq=  176 SFac= 1.00D+00 NAtFMM=   60 NAOKFM=T Big=T
 Integral buffers will be    131072 words long.
 Raffenetti 2 integral format.
 Two-electron integral symmetry is turned on.
 One-electron integrals computed using PRISM.
 NBasis=  1717 RedAO= T EigKep=  3.02D-04  NBF=  1717
 NBsUse=  1717 1.00D-06 EigRej= -1.00D+00 NBFU=  1717
 ExpMin= 1.98D-02 ExpMax= 3.51D+04 ExpMxC= 5.28D+03 IAcc=3 IRadAn=         5 AccDes= 0.00D+00
 Harris functional with IExCor=  402 and IRadAn=       5 diagonalized for initial guess.
 HarFok:  IExCor=  402 AccDes= 0.00D+00 IRadAn=         5 IDoV= 1 UseB2=F ITyADJ=14
 ICtDFT=  3500011 ScaDFX=  1.000000  1.000000  1.000000  1.000000
 FoFCou: FMM=F IPFlag=           0 FMFlag=      100000 FMFlg1=        2001
         NFxFlg=           0 DoJE=T BraDBF=F KetDBF=T FulRan=T
         wScrn=  0.000000 ICntrl=       500 IOpCl=  0 I1Cent=   200000004 NGrid=           0
         NMat0=    1 NMatS0=      1 NMatT0=    0 NMatD0=    1 NMtDS0=    0 NMtDT0=    0
 Petite list used in FoFCou.
 Requested convergence on RMS density matrix=1.00D-08 within 128 cycles.
 Requested convergence on MAX density matrix=1.00D-06.
 Requested convergence on             energy=1.00D-06.
 No special actions if energy rises.
 EnCoef did     4 forward-backward iterations
 EnCoef did     2 forward-backward iterations
 EnCoef did     3 forward-backward iterations
 EnCoef did     2 forward-backward iterations
 EnCoef did     4 forward-backward iterations
 EnCoef did    23 forward-backward iterations
 EnCoef did    45 forward-backward iterations
 EnCoef did   100 forward-backward iterations
 EnCoef did   100 forward-backward iterations
 Rare condition: small coef for last iteration:  0.000D+00
 EnCoef did    15 forward-backward iterations
 EnCoef did     7 forward-backward iterations
 Rare condition: small coef for last iteration:  0.444D-15
 Restarting incremental Fock formation.
 SCF Done:  E(RB3LYP) =  -5333.31537377     A.U. after   31 cycles
            NFock= 31  Conv=0.11D-08     -V/T= 2.0081
 SCF density gives NOpUse=  1 NOpAll=  1.
 Hyperfine terms turned off by default for NAtoms > 100.

 **********************************************************************

            Population analysis using the SCF density.

 **********************************************************************

 Orbital symmetries:
 BldTbl:  Degeneracy threshold= 1.00D-02
       Occupied  (A) (A) (A) (A) (A) (A) (A) (A) (A) (A) (A) (A)
                 (A) (A) (A) (A) (A) (A) (A) (A) (A) (A) (A) (A)
                 (A) (A) (A) (A) (A) (A) (A) (A) (A) (A) (A) (A)
                 (A) (A) (A) (A) (A) (A) (A) (A) (A) (A) (A) (A)
                 (A) (A) (A) (A) (A) (A) (A) (A) (A) (A) (A) (A)
                 (A) (A) (A) (A) (A) (A) (A) (A) (A) (A) (A) (A)
                 (A) (A) (A) (A) (A) (A) (A) (A) (A) (A) (A) (A)
                 (A) (A) (A) (A) (A) (A) (A) (A) (A) (A) (A) (A)
                 (A) (A) (A) (A) (A) (A) (A) (A) (A) (A) (A) (A)
                 (A) (A) (A) (A) (A) (A) (A) (A) (A) (A) (A) (A)
                 (A) (A) (A) (A) (A) (A) (A) (A) (A) (A) (A) (A)
                 (A) (A) (A) (A) (A) (A) (A) (A) (A) (A) (A) (A)
                 (A) (A) (A) (A) (A) (A) (A) (A) (A) (A) (A) (A)
                 (A) (A) (A) (A) (A) (A) (A) (A) (A) (A) (A) (A)
                 (A) (A) (A) (A) (A) (A) (A) (A) (A) (A) (A) (A)
                 (A) (A) (A) (A) (A) (A) (A) (A) (A) (A) (A) (A)
                 (A) (A) (A) (A) (A) (A) (A) (A) (A) (A) (A) (A)
                 (A) (A) (A) (A) (A) (A) (A) (A) (A) (A) (A) (A)
                 (A) (A) (A) (A) (A) (A) (A) (A) (A) (A) (A) (A)
                 (A) (A) (A) (A) (A) (A) (A) (A) (A) (A) (A) (A)
                 (A) (A) (A) (A) (A) (A) (A) (A) (A) (A) (A) (A)
                 (A) (A) (A) (A) (A) (A) (A) (A) (A) (A) (A) (A)
                 (A) (A) (A) (A) (A) (A) (A) (A) (A) (A) (A) (A)
                 (A) (A) (A) (A) (A) (A) (A) (A) (A) (A) (A) (A)
                 (A) (A) (A) (A) (A) (A) (A) (A) (A) (A) (A) (A)
                 (A) (A) (A) (A) (A) (A) (A) (A) (A) (A) (A) (A)
                 (A) (A) (A) (A) (A) (A) (A) (A) (A) (A) (A) (A)
                 (A) (A) (A) (A) (A) (A) (A) (A) (A) (A) (A) (A)
                 (A) (A) (A) (A) (A) (A) (A) (A) (A) (A) (A) (A)
                 (A) (A) (A) (A) (A) (A) (A) (A) (A) (A)
       Virtual   (A) (A) (A) (A) (A) (A) (A) (A) (A) (A) (A) (A)
                 (A) (A) (A) (A) (A) (A) (A) (A) (A) (A) (A) (A)
                 (A) (A) (A) (A) (A) (A) (A) (A) (A) (A) (A) (A)
                 (A) (A) (A) (A) (A) (A) (A) (A) (A) (A) (A) (A)
                 (A) (A) (A) (A) (A) (A) (A) (A) (A) (A) (A) (A)
                 (A) (A) (A) (A) (A) (A) (A) (A) (A) (A) (A) (A)
                 (A) (A) (A) (A) (A) (A) (A) (A) (A) (A) (A) (A)
                 (A) (A) (A) (A) (A) (A) (A) (A) (A) (A) (A) (A)
                 (A) (A) (A) (A) (A) (A) (A) (A) (A) (A) (A) (A)
                 (A) (A) (A) (A) (A) (A) (A) (A) (A) (A) (A) (A)
                 (A) (A) (A) (A) (A) (A) (A) (A) (A) (A) (A) (A)
                 (A) (A) (A) (A) (A) (A) (A) (A) (A) (A) (A) (A)
                 (A) (A) (A) (A) (A) (A) (A) (A) (A) (A) (A) (A)
                 (A) (A) (A) (A) (A) (A) (A) (A) (A) (A) (A) (A)
                 (A) (A) (A) (A) (A) (A) (A) (A) (A) (A) (A) (A)
                 (A) (A) (A) (A) (A) (A) (A) (A) (A) (A) (A) (A)
                 (A) (A) (A) (A) (A) (A) (A) (A) (A) (A) (A) (A)
                 (A) (A) (A) (A) (A) (A) (A) (A) (A) (A) (A) (A)
                 (A) (A) (A) (A) (A) (A) (A) (A) (A) (A) (A) (A)
                 (A) (A) (A) (A) (A) (A) (A) (A) (A) (A) (A) (A)
                 (A) (A) (A) (A) (A) (A) (A) (A) (A) (A) (A) (A)
                 (A) (A) (A) (A) (A) (A) (A) (A) (A) (A) (A) (A)
                 (A) (A) (A) (A) (A) (A) (A) (A) (A) (A) (A) (A)
                 (A) (A) (A) (A) (A) (A) (A) (A) (A) (A) (A) (A)
                 (A) (A) (A) (A) (A) (A) (A) (A) (A) (A) (A) (A)
                 (A) (A) (A) (A) (A) (A) (A) (A) (A) (A) (A) (A)
                 (A) (A) (A) (A) (A) (A) (A) (A) (A) (A) (A) (A)
                 (A) (A) (A) (A) (A) (A) (A) (A) (A) (A) (A) (A)
                 (A) (A) (A) (A) (A) (A) (A) (A) (A) (A) (A) (A)
                 (A) (A) (A) (A) (A) (A) (A) (A) (A) (A) (A) (A)
                 (A) (A) (A) (A) (A) (A) (A) (A) (A) (A) (A) (A)
                 (A) (A) (A) (A) (A) (A) (A) (A) (A) (A) (A) (A)
                 (A) (A) (A) (A) (A) (A) (A) (A) (A) (A) (A) (A)
                 (A) (A) (A) (A) (A) (A) (A) (A) (A) (A) (A) (A)
                 (A) (A) (A) (A) (A) (A) (A) (A) (A) (A) (A) (A)
                 (A) (A) (A) (A) (A) (A) (A) (A) (A) (A) (A) (A)
                 (A) (A) (A) (A) (A) (A) (A) (A) (A) (A) (A) (A)
                 (A) (A) (A) (A) (A) (A) (A) (A) (A) (A) (A) (A)
                 (A) (A) (A) (A) (A) (A) (A) (A) (A) (A) (A) (A)
                 (A) (A) (A) (A) (A) (A) (A) (A) (A) (A) (A) (A)
                 (A) (A) (A) (A) (A) (A) (A) (A) (A) (A) (A) (A)
                 (A) (A) (A) (A) (A) (A) (A) (A) (A) (A) (A) (A)
                 (A) (A) (A) (A) (A) (A) (A) (A) (A) (A) (A) (A)
                 (A) (A) (A) (A) (A) (A) (A) (A) (A) (A) (A) (A)
                 (A) (A) (A) (A) (A) (A) (A) (A) (A) (A) (A) (A)
                 (A) (A) (A) (A) (A) (A) (A) (A) (A) (A) (A) (A)
                 (A) (A) (A) (A) (A) (A) (A) (A) (A) (A) (A) (A)
                 (A) (A) (A) (A) (A) (A) (A) (A) (A) (A) (A) (A)
                 (A) (A) (A) (A) (A) (A) (A) (A) (A) (A) (A) (A)
                 (A) (A) (A) (A) (A) (A) (A) (A) (A) (A) (A) (A)
                 (A) (A) (A) (A) (A) (A) (A) (A) (A) (A) (A) (A)
                 (A) (A) (A) (A) (A) (A) (A) (A) (A) (A) (A) (A)
                 (A) (A) (A) (A) (A) (A) (A) (A) (A) (A) (A) (A)
                 (A) (A) (A) (A) (A) (A) (A) (A) (A) (A) (A) (A)
                 (A) (A) (A) (A) (A) (A) (A) (A) (A) (A) (A) (A)
                 (A) (A) (A) (A) (A) (A) (A) (A) (A) (A) (A) (A)
                 (A) (A) (A) (A) (A) (A) (A) (A) (A) (A) (A) (A)
                 (A) (A) (A) (A) (A) (A) (A) (A) (A) (A) (A) (A)
                 (A) (A) (A) (A) (A) (A) (A) (A) (A) (A) (A) (A)
                 (A) (A) (A) (A) (A) (A) (A) (A) (A) (A) (A) (A)
                 (A) (A) (A) (A) (A) (A) (A) (A) (A) (A) (A) (A)
                 (A) (A) (A) (A) (A) (A) (A) (A) (A) (A) (A) (A)
                 (A) (A) (A) (A) (A) (A) (A) (A) (A) (A) (A) (A)
                 (A) (A) (A) (A) (A) (A) (A) (A) (A) (A) (A) (A)
                 (A) (A) (A) (A) (A) (A) (A) (A) (A) (A) (A) (A)
                 (A) (A) (A) (A) (A) (A) (A) (A) (A) (A) (A) (A)
                 (A) (A) (A) (A) (A) (A) (A) (A) (A) (A) (A) (A)
                 (A) (A) (A) (A) (A) (A) (A) (A) (A) (A) (A) (A)
                 (A) (A) (A) (A) (A) (A) (A) (A) (A) (A) (A) (A)
                 (A) (A) (A) (A) (A) (A) (A) (A) (A) (A) (A) (A)
                 (A) (A) (A) (A) (A) (A) (A) (A) (A) (A) (A) (A)
                 (A) (A) (A) (A) (A) (A) (A) (A) (A) (A) (A) (A)
                 (A) (A) (A) (A) (A) (A) (A) (A) (A) (A) (A) (A)
                 (A) (A) (A) (A) (A) (A) (A) (A) (A) (A) (A) (A)
                 (A) (A) (A) (A) (A) (A) (A) (A) (A) (A) (A) (A)
                 (A) (A) (A) (A) (A) (A) (A) (A) (A) (A) (A) (A)
                 (A) (A) (A) (A) (A) (A) (A) (A) (A) (A) (A) (A)
                 (A) (A) (A) (A) (A) (A) (A) (A) (A) (A) (A) (A)
                 (A) (A) (A) (A) (A) (A) (A) (A) (A) (A) (A) (A)
                 (A) (A) (A) (A) (A) (A) (A) (A) (A) (A) (A) (A)
                 (A) (A) (A) (A) (A) (A) (A) (A) (A) (A) (A) (A)
                 (A) (A) (A) (A) (A) (A) (A) (A) (A) (A) (A) (A)
                 (A) (A) (A) (A) (A) (A) (A) (A) (A) (A) (A) (A)
                 (A) (A) (A) (A) (A) (A) (A) (A) (A) (A) (A) (A)
                 (A) (A) (A) (A) (A) (A) (A) (A) (A) (A) (A) (A)
                 (A) (A) (A) (A) (A) (A) (A) (A) (A) (A) (A) (A)
                 (A) (A) (A) (A) (A) (A) (A) (A) (A) (A) (A) (A)
                 (A) (A) (A) (A) (A) (A) (A) (A) (A) (A) (A) (A)
                 (A) (A) (A) (A) (A) (A) (A) (A) (A) (A) (A) (A)
                 (A) (A) (A) (A) (A) (A) (A) (A) (A) (A) (A) (A)
                 (A) (A) (A) (A) (A) (A) (A) (A) (A) (A) (A) (A)
                 (A) (A) (A) (A) (A) (A) (A) (A) (A) (A) (A) (A)
                 (A) (A) (A) (A) (A) (A) (A) (A) (A) (A) (A) (A)
                 (A) (A) (A) (A) (A) (A) (A) (A) (A) (A) (A) (A)
                 (A) (A) (A) (A) (A) (A) (A) (A) (A) (A) (A) (A)
                 (A) (A) (A) (A) (A) (A) (A) (A) (A) (A) (A) (A)
                 (A) (A) (A) (A) (A) (A) (A) (A) (A) (A) (A) (A)
                 (A) (A) (A) (A) (A) (A) (A) (A) (A) (A) (A) (A)
                 (A) (A) (A) (A) (A) (A) (A) (A) (A) (A) (A) (A)
                 (A) (A) (A) (A) (A) (A) (A) (A) (A) (A) (A) (A)
                 (A) (A) (A) (A) (A) (A) (A) (A) (A) (A) (A) (A)
                 (A) (A) (A) (A) (A) (A) (A) (A) (A) (A) (A) (A)
                 (A) (A) (A) (A) (A) (A) (A) (A) (A) (A) (A) (A)
                 (A) (A) (A) (A) (A) (A) (A) (A) (A) (A) (A) (A)
                 (A) (A) (A) (A) (A) (A) (A) (A) (A) (A) (A) (A)
                 (A) (A) (A) (A) (A) (A) (A) (A) (A) (A) (A) (A)
                 (A) (A) (A) (A) (A) (A) (A) (A) (A) (A) (A) (A)
                 (A) (A) (A) (A) (A) (A) (A) (A) (A) (A) (A) (A)
                 (A) (A) (A) (A) (A) (A) (A) (A) (A) (A) (A) (A)
                 (A) (A) (A) (A) (A) (A) (A) (A) (A) (A) (A) (A)
                 (A) (A) (A) (A) (A) (A) (A) (A) (A) (A) (A) (A)
                 (A) (A) (A) (A) (A) (A) (A) (A) (A) (A) (A) (A)
                 (A) (A) (A) (A) (A) (A) (A) (A) (A) (A) (A) (A)
                 (A) (A) (A)
 The electronic state is 1-A.
 Alpha  occ. eigenvalues -- -145.47339 -19.21918 -19.16733 -19.15173 -19.13124
 Alpha  occ. eigenvalues --  -19.13065 -19.11950 -19.10342 -19.08431 -19.08231
 Alpha  occ. eigenvalues --  -19.08175 -19.07944 -19.07897 -19.07378 -19.06999
 Alpha  occ. eigenvalues --  -19.06959 -19.06591 -19.06526 -19.06393 -19.04491
 Alpha  occ. eigenvalues --  -19.04391 -19.00858 -18.97239 -18.96958 -15.53175
 Alpha  occ. eigenvalues --  -14.56072 -14.40120 -14.39769 -14.37851 -14.34813
 Alpha  occ. eigenvalues --  -14.34754 -14.34698 -14.34678 -14.34647 -14.34165
 Alpha  occ. eigenvalues --  -14.33656 -14.33431 -14.33402 -14.32988 -14.32338
 Alpha  occ. eigenvalues --  -12.66805 -12.66791 -12.66661 -10.33893 -10.33137
 Alpha  occ. eigenvalues --  -10.32030 -10.31073 -10.28757 -10.27629 -10.27433
 Alpha  occ. eigenvalues --  -10.27274 -10.26979 -10.26962 -10.26899 -10.26872
 Alpha  occ. eigenvalues --  -10.26738 -10.26737 -10.25876 -10.25817 -10.25764
 Alpha  occ. eigenvalues --  -10.25645 -10.25578 -10.24792 -10.24750 -10.24550
 Alpha  occ. eigenvalues --  -10.24419 -10.24213 -10.23776 -10.22390 -10.22268
 Alpha  occ. eigenvalues --  -10.22266 -10.21700 -10.21659 -10.21463 -10.21289
 Alpha  occ. eigenvalues --  -10.20693 -10.20680 -10.20171 -10.19724 -10.19497
 Alpha  occ. eigenvalues --  -10.19446 -10.19429 -10.19415 -10.19277 -10.18993
 Alpha  occ. eigenvalues --  -10.18464 -10.17904 -10.16491 -10.16409 -10.16332
 Alpha  occ. eigenvalues --  -10.16069 -10.15976 -10.15816 -10.15798 -10.15180
 Alpha  occ. eigenvalues --  -10.12776 -10.10673  -1.89634  -1.17318  -1.17219
 Alpha  occ. eigenvalues --   -1.16139  -1.12048  -1.07680  -1.07282  -1.06654
 Alpha  occ. eigenvalues --   -1.05661  -1.05358  -1.03541  -1.02306  -1.01587
 Alpha  occ. eigenvalues --   -1.01543  -1.01370  -1.01188  -1.00866  -1.00657
 Alpha  occ. eigenvalues --   -1.00524  -0.99951  -0.99823  -0.99706  -0.99439
 Alpha  occ. eigenvalues --   -0.97240  -0.96861  -0.95689  -0.94215  -0.92024
 Alpha  occ. eigenvalues --   -0.91743  -0.91589  -0.91403  -0.91395  -0.90930
 Alpha  occ. eigenvalues --   -0.90651  -0.90061  -0.89966  -0.89396  -0.89178
 Alpha  occ. eigenvalues --   -0.89119  -0.88474  -0.88438  -0.86458  -0.85335
 Alpha  occ. eigenvalues --   -0.82282  -0.81917  -0.81100  -0.80862  -0.79687
 Alpha  occ. eigenvalues --   -0.77873  -0.77048  -0.77037  -0.76830  -0.76027
 Alpha  occ. eigenvalues --   -0.75055  -0.74937  -0.74699  -0.74015  -0.73812
 Alpha  occ. eigenvalues --   -0.73541  -0.72429  -0.72398  -0.70589  -0.70168
 Alpha  occ. eigenvalues --   -0.69927  -0.69273  -0.68779  -0.67062  -0.66736
 Alpha  occ. eigenvalues --   -0.66081  -0.65086  -0.64927  -0.64201  -0.64088
 Alpha  occ. eigenvalues --   -0.63661  -0.63319  -0.62620  -0.62459  -0.61855
 Alpha  occ. eigenvalues --   -0.61613  -0.61238  -0.61059  -0.60819  -0.60217
 Alpha  occ. eigenvalues --   -0.60058  -0.59140  -0.59088  -0.58538  -0.58353
 Alpha  occ. eigenvalues --   -0.58230  -0.57822  -0.57753  -0.56819  -0.56745
 Alpha  occ. eigenvalues --   -0.56485  -0.56373  -0.56036  -0.55820  -0.55506
 Alpha  occ. eigenvalues --   -0.55359  -0.54531  -0.54143  -0.53952  -0.53758
 Alpha  occ. eigenvalues --   -0.53525  -0.53150  -0.53087  -0.52524  -0.52268
 Alpha  occ. eigenvalues --   -0.52129  -0.51244  -0.51130  -0.50882  -0.50767
 Alpha  occ. eigenvalues --   -0.49845  -0.49498  -0.49452  -0.49245  -0.49176
 Alpha  occ. eigenvalues --   -0.48146  -0.47981  -0.47833  -0.47638  -0.47178
 Alpha  occ. eigenvalues --   -0.47044  -0.47035  -0.46996  -0.46975  -0.46670
 Alpha  occ. eigenvalues --   -0.46344  -0.46161  -0.45994  -0.45881  -0.45788
 Alpha  occ. eigenvalues --   -0.45635  -0.45421  -0.45037  -0.45018  -0.45012
 Alpha  occ. eigenvalues --   -0.44802  -0.44590  -0.44359  -0.43919  -0.43488
 Alpha  occ. eigenvalues --   -0.43279  -0.43270  -0.43254  -0.43162  -0.43110
 Alpha  occ. eigenvalues --   -0.42888  -0.42758  -0.42613  -0.42320  -0.42209
 Alpha  occ. eigenvalues --   -0.41818  -0.41774  -0.41526  -0.41496  -0.41457
 Alpha  occ. eigenvalues --   -0.41378  -0.41311  -0.41007  -0.40716  -0.40275
 Alpha  occ. eigenvalues --   -0.40249  -0.40076  -0.39997  -0.39961  -0.39716
 Alpha  occ. eigenvalues --   -0.39415  -0.39345  -0.39056  -0.39028  -0.39007
 Alpha  occ. eigenvalues --   -0.38851  -0.38779  -0.38429  -0.38395  -0.38306
 Alpha  occ. eigenvalues --   -0.38246  -0.38145  -0.37907  -0.37890  -0.37624
 Alpha  occ. eigenvalues --   -0.37489  -0.37239  -0.37209  -0.37094  -0.37060
 Alpha  occ. eigenvalues --   -0.36806  -0.36557  -0.36461  -0.36342  -0.36328
 Alpha  occ. eigenvalues --   -0.36026  -0.35614  -0.35549  -0.35208  -0.35096
 Alpha  occ. eigenvalues --   -0.35059  -0.34972  -0.34937  -0.34749  -0.34378
 Alpha  occ. eigenvalues --   -0.34246  -0.34111  -0.33937  -0.33794  -0.33631
 Alpha  occ. eigenvalues --   -0.33369  -0.33293  -0.33084  -0.32969  -0.32540
 Alpha  occ. eigenvalues --   -0.32021  -0.31995  -0.31041  -0.31016  -0.30888
 Alpha  occ. eigenvalues --   -0.30856  -0.30533  -0.29877  -0.29835  -0.29141
 Alpha  occ. eigenvalues --   -0.28379  -0.28199  -0.28171  -0.27819  -0.27002
 Alpha  occ. eigenvalues --   -0.26659  -0.26391  -0.26191  -0.26148  -0.25982
 Alpha  occ. eigenvalues --   -0.25879  -0.25846  -0.25369  -0.25146  -0.24783
 Alpha  occ. eigenvalues --   -0.24610  -0.24159  -0.24046  -0.23705  -0.23416
 Alpha  occ. eigenvalues --   -0.23350  -0.23221  -0.23050  -0.23015  -0.22907
 Alpha  occ. eigenvalues --   -0.22608  -0.22582  -0.22439  -0.22215  -0.21870
 Alpha  occ. eigenvalues --   -0.21561  -0.20301  -0.20213  -0.19929  -0.16905
 Alpha  occ. eigenvalues --   -0.14481  -0.14029  -0.11018
 Alpha virt. eigenvalues --   -0.10066  -0.06945  -0.04146  -0.03749  -0.03103
 Alpha virt. eigenvalues --   -0.02455  -0.02369  -0.01502  -0.01268  -0.01087
 Alpha virt. eigenvalues --   -0.00364   0.00441   0.01187   0.01301   0.01887
 Alpha virt. eigenvalues --    0.02282   0.02346   0.02447   0.02925   0.02951
 Alpha virt. eigenvalues --    0.03044   0.03107   0.03163   0.03256   0.03533
 Alpha virt. eigenvalues --    0.03581   0.03739   0.03886   0.04515   0.04520
 Alpha virt. eigenvalues --    0.05087   0.05171   0.05448   0.05569   0.05693
 Alpha virt. eigenvalues --    0.05900   0.06088   0.06396   0.06671   0.06802
 Alpha virt. eigenvalues --    0.07179   0.07292   0.07535   0.07890   0.08073
 Alpha virt. eigenvalues --    0.08303   0.08380   0.09087   0.09244   0.09409
 Alpha virt. eigenvalues --    0.09509   0.10001   0.10187   0.10295   0.10388
 Alpha virt. eigenvalues --    0.10526   0.10767   0.10871   0.11075   0.11433
 Alpha virt. eigenvalues --    0.11609   0.11702   0.11916   0.12049   0.12234
 Alpha virt. eigenvalues --    0.12465   0.12606   0.12951   0.13155   0.13328
 Alpha virt. eigenvalues --    0.13348   0.13724   0.13798   0.13887   0.13969
 Alpha virt. eigenvalues --    0.14234   0.14377   0.14455   0.14590   0.14608
 Alpha virt. eigenvalues --    0.14899   0.14912   0.15035   0.15160   0.15369
 Alpha virt. eigenvalues --    0.15423   0.15580   0.15655   0.15866   0.16079
 Alpha virt. eigenvalues --    0.16129   0.16290   0.16403   0.16598   0.16888
 Alpha virt. eigenvalues --    0.17063   0.17346   0.17443   0.17585   0.17760
 Alpha virt. eigenvalues --    0.18087   0.18206   0.18434   0.18483   0.18742
 Alpha virt. eigenvalues --    0.19113   0.19195   0.19377   0.19601   0.19703
 Alpha virt. eigenvalues --    0.19712   0.19816   0.20174   0.20284   0.20440
 Alpha virt. eigenvalues --    0.20709   0.20826   0.20974   0.21019   0.21374
 Alpha virt. eigenvalues --    0.21531   0.21799   0.21883   0.22270   0.22464
 Alpha virt. eigenvalues --    0.22710   0.22800   0.22928   0.22955   0.23292
 Alpha virt. eigenvalues --    0.23848   0.24244   0.24295   0.24550   0.24663
 Alpha virt. eigenvalues --    0.24968   0.25071   0.25301   0.25345   0.25754
 Alpha virt. eigenvalues --    0.26177   0.26840   0.27023   0.27118   0.27313
 Alpha virt. eigenvalues --    0.27770   0.27888   0.27908   0.28221   0.28421
 Alpha virt. eigenvalues --    0.28741   0.28996   0.29153   0.29386   0.29461
 Alpha virt. eigenvalues --    0.29588   0.29607   0.30041   0.30270   0.30491
 Alpha virt. eigenvalues --    0.30697   0.30839   0.31117   0.31340   0.31421
 Alpha virt. eigenvalues --    0.32257   0.32474   0.32618   0.32820   0.32842
 Alpha virt. eigenvalues --    0.33147   0.33244   0.33306   0.34018   0.34177
 Alpha virt. eigenvalues --    0.34473   0.34942   0.35056   0.35498   0.35630
 Alpha virt. eigenvalues --    0.36103   0.36186   0.36987   0.37001   0.37301
 Alpha virt. eigenvalues --    0.37471   0.37985   0.38133   0.38353   0.39159
 Alpha virt. eigenvalues --    0.39307   0.39636   0.39672   0.39754   0.40155
 Alpha virt. eigenvalues --    0.40438   0.40954   0.41311   0.41428   0.41535
 Alpha virt. eigenvalues --    0.42083   0.42348   0.42585   0.42851   0.43103
 Alpha virt. eigenvalues --    0.43177   0.43312   0.43685   0.43723   0.43847
 Alpha virt. eigenvalues --    0.43993   0.44286   0.44557   0.44887   0.45006
 Alpha virt. eigenvalues --    0.45157   0.45165   0.45287   0.45493   0.45747
 Alpha virt. eigenvalues --    0.45813   0.46013   0.46123   0.46253   0.46526
 Alpha virt. eigenvalues --    0.46734   0.46881   0.47005   0.47391   0.47496
 Alpha virt. eigenvalues --    0.47831   0.48160   0.48196   0.48566   0.48687
 Alpha virt. eigenvalues --    0.48736   0.48817   0.49185   0.49209   0.49373
 Alpha virt. eigenvalues --    0.49466   0.49680   0.49864   0.50121   0.50408
 Alpha virt. eigenvalues --    0.50638   0.50881   0.51084   0.51185   0.51464
 Alpha virt. eigenvalues --    0.51730   0.52310   0.52338   0.52612   0.52822
 Alpha virt. eigenvalues --    0.52983   0.53153   0.53298   0.53326   0.53575
 Alpha virt. eigenvalues --    0.53625   0.53786   0.54065   0.54316   0.54486
 Alpha virt. eigenvalues --    0.54498   0.54612   0.55069   0.55203   0.55465
 Alpha virt. eigenvalues --    0.55618   0.55862   0.56132   0.56202   0.56368
 Alpha virt. eigenvalues --    0.56853   0.57060   0.57248   0.57460   0.57686
 Alpha virt. eigenvalues --    0.58016   0.58151   0.58191   0.58303   0.58599
 Alpha virt. eigenvalues --    0.58606   0.58784   0.58871   0.59021   0.59253
 Alpha virt. eigenvalues --    0.59344   0.59463   0.59697   0.59799   0.59894
 Alpha virt. eigenvalues --    0.59939   0.60074   0.60309   0.60479   0.60519
 Alpha virt. eigenvalues --    0.60727   0.60847   0.60980   0.61343   0.61439
 Alpha virt. eigenvalues --    0.61538   0.61602   0.61811   0.61967   0.62055
 Alpha virt. eigenvalues --    0.62188   0.62210   0.62289   0.62359   0.62532
 Alpha virt. eigenvalues --    0.62604   0.62944   0.63006   0.63191   0.63303
 Alpha virt. eigenvalues --    0.63329   0.63456   0.63511   0.63666   0.63818
 Alpha virt. eigenvalues --    0.64055   0.64069   0.64148   0.64357   0.64475
 Alpha virt. eigenvalues --    0.64600   0.64693   0.64731   0.64877   0.64924
 Alpha virt. eigenvalues --    0.65054   0.65125   0.65221   0.65289   0.65384
 Alpha virt. eigenvalues --    0.65494   0.65649   0.65740   0.65804   0.65980
 Alpha virt. eigenvalues --    0.66123   0.66301   0.66450   0.66505   0.66588
 Alpha virt. eigenvalues --    0.66857   0.66931   0.66982   0.67065   0.67270
 Alpha virt. eigenvalues --    0.67461   0.67517   0.67541   0.67656   0.67752
 Alpha virt. eigenvalues --    0.67876   0.67932   0.68062   0.68224   0.68360
 Alpha virt. eigenvalues --    0.68489   0.68600   0.68743   0.68950   0.69029
 Alpha virt. eigenvalues --    0.69091   0.69157   0.69265   0.69407   0.69442
 Alpha virt. eigenvalues --    0.69750   0.69810   0.69840   0.69968   0.70132
 Alpha virt. eigenvalues --    0.70315   0.70362   0.70419   0.70541   0.70602
 Alpha virt. eigenvalues --    0.70839   0.70881   0.70924   0.70985   0.71089
 Alpha virt. eigenvalues --    0.71185   0.71402   0.71613   0.71805   0.71827
 Alpha virt. eigenvalues --    0.72038   0.72098   0.72154   0.72240   0.72442
 Alpha virt. eigenvalues --    0.72776   0.72862   0.72974   0.73111   0.73359
 Alpha virt. eigenvalues --    0.73612   0.73822   0.73922   0.74163   0.74230
 Alpha virt. eigenvalues --    0.74447   0.74627   0.74752   0.74824   0.74964
 Alpha virt. eigenvalues --    0.75440   0.75628   0.75733   0.76027   0.76151
 Alpha virt. eigenvalues --    0.76516   0.76574   0.76718   0.77040   0.77498
 Alpha virt. eigenvalues --    0.77838   0.77926   0.78247   0.78530   0.78885
 Alpha virt. eigenvalues --    0.79026   0.79297   0.79455   0.79507   0.79645
 Alpha virt. eigenvalues --    0.79929   0.80297   0.80433   0.80589   0.80942
 Alpha virt. eigenvalues --    0.81229   0.81472   0.81583   0.82164   0.82425
 Alpha virt. eigenvalues --    0.82663   0.82797   0.83158   0.83284   0.83823
 Alpha virt. eigenvalues --    0.83941   0.84236   0.84433   0.84685   0.84928
 Alpha virt. eigenvalues --    0.85269   0.85708   0.85822   0.85874   0.86054
 Alpha virt. eigenvalues --    0.86442   0.86814   0.86877   0.87816   0.87989
 Alpha virt. eigenvalues --    0.88295   0.88548   0.88930   0.89375   0.89800
 Alpha virt. eigenvalues --    0.89904   0.90336   0.90434   0.90878   0.91509
 Alpha virt. eigenvalues --    0.91543   0.92007   0.92241   0.92470   0.92732
 Alpha virt. eigenvalues --    0.93123   0.93208   0.93722   0.94022   0.94169
 Alpha virt. eigenvalues --    0.94276   0.94508   0.94646   0.94989   0.95142
 Alpha virt. eigenvalues --    0.95505   0.95600   0.95896   0.96347   0.96632
 Alpha virt. eigenvalues --    0.97109   0.97687   0.97763   0.97923   0.98423
 Alpha virt. eigenvalues --    0.98557   0.99069   0.99273   0.99317   0.99543
 Alpha virt. eigenvalues --    0.99921   1.00280   1.00501   1.00686   1.00881
 Alpha virt. eigenvalues --    1.00976   1.01414   1.01527   1.01641   1.02043
 Alpha virt. eigenvalues --    1.02621   1.03276   1.03499   1.03689   1.03912
 Alpha virt. eigenvalues --    1.04166   1.04379   1.04798   1.05014   1.05275
 Alpha virt. eigenvalues --    1.05509   1.05670   1.05971   1.06288   1.06459
 Alpha virt. eigenvalues --    1.06889   1.07019   1.07303   1.07699   1.08066
 Alpha virt. eigenvalues --    1.08158   1.08544   1.09104   1.09489   1.09613
 Alpha virt. eigenvalues --    1.09999   1.10155   1.10367   1.10434   1.10643
 Alpha virt. eigenvalues --    1.10795   1.11391   1.11625   1.12035   1.12352
 Alpha virt. eigenvalues --    1.12453   1.12755   1.13201   1.13447   1.13687
 Alpha virt. eigenvalues --    1.14185   1.14275   1.14918   1.15093   1.15315
 Alpha virt. eigenvalues --    1.15620   1.15768   1.15903   1.16412   1.16437
 Alpha virt. eigenvalues --    1.16677   1.16745   1.17009   1.17257   1.17354
 Alpha virt. eigenvalues --    1.17524   1.18019   1.18104   1.18421   1.18953
 Alpha virt. eigenvalues --    1.19084   1.19413   1.19579   1.19713   1.19922
 Alpha virt. eigenvalues --    1.20122   1.20638   1.20921   1.20984   1.21317
 Alpha virt. eigenvalues --    1.21549   1.21748   1.22019   1.22326   1.22514
 Alpha virt. eigenvalues --    1.22825   1.23127   1.23401   1.23645   1.23775
 Alpha virt. eigenvalues --    1.23822   1.24183   1.24394   1.24580   1.24820
 Alpha virt. eigenvalues --    1.25347   1.25641   1.25900   1.26203   1.26394
 Alpha virt. eigenvalues --    1.26670   1.26787   1.26982   1.27156   1.27208
 Alpha virt. eigenvalues --    1.27708   1.28050   1.28590   1.28776   1.28833
 Alpha virt. eigenvalues --    1.29280   1.29503   1.29672   1.29889   1.30035
 Alpha virt. eigenvalues --    1.30163   1.30277   1.30728   1.31023   1.31502
 Alpha virt. eigenvalues --    1.31833   1.32140   1.32285   1.32845   1.33329
 Alpha virt. eigenvalues --    1.33391   1.33783   1.33851   1.34177   1.34409
 Alpha virt. eigenvalues --    1.34658   1.35054   1.35263   1.35533   1.35740
 Alpha virt. eigenvalues --    1.36216   1.36368   1.36446   1.36864   1.37149
 Alpha virt. eigenvalues --    1.37911   1.38746   1.38914   1.39207   1.39377
 Alpha virt. eigenvalues --    1.39791   1.39860   1.40072   1.40297   1.40415
 Alpha virt. eigenvalues --    1.40442   1.40610   1.40816   1.40952   1.41062
 Alpha virt. eigenvalues --    1.41390   1.41861   1.42320   1.42694   1.42938
 Alpha virt. eigenvalues --    1.43199   1.43643   1.43767   1.43889   1.44358
 Alpha virt. eigenvalues --    1.44631   1.44852   1.45085   1.45660   1.45929
 Alpha virt. eigenvalues --    1.46059   1.46719   1.47124   1.47705   1.48195
 Alpha virt. eigenvalues --    1.48272   1.48432   1.49254   1.49452   1.49718
 Alpha virt. eigenvalues --    1.49907   1.50373   1.50569   1.50970   1.51055
 Alpha virt. eigenvalues --    1.51218   1.51735   1.52526   1.52603   1.52689
 Alpha virt. eigenvalues --    1.52949   1.53129   1.53309   1.53729   1.54018
 Alpha virt. eigenvalues --    1.54137   1.54378   1.54713   1.54994   1.55113
 Alpha virt. eigenvalues --    1.55481   1.55652   1.55938   1.56422   1.56637
 Alpha virt. eigenvalues --    1.56840   1.57069   1.57545   1.58065   1.58934
 Alpha virt. eigenvalues --    1.58967   1.60401   1.60497   1.60737   1.61284
 Alpha virt. eigenvalues --    1.61350   1.61829   1.61889   1.62054   1.62639
 Alpha virt. eigenvalues --    1.63125   1.63284   1.63364   1.63637   1.63948
 Alpha virt. eigenvalues --    1.64397   1.64666   1.64758   1.65148   1.65676
 Alpha virt. eigenvalues --    1.65720   1.65907   1.66339   1.67048   1.67683
 Alpha virt. eigenvalues --    1.67796   1.67842   1.68637   1.68817   1.68949
 Alpha virt. eigenvalues --    1.69193   1.69313   1.69807   1.69919   1.70037
 Alpha virt. eigenvalues --    1.70053   1.70252   1.70840   1.70895   1.71074
 Alpha virt. eigenvalues --    1.71318   1.71619   1.71730   1.72237   1.72552
 Alpha virt. eigenvalues --    1.72791   1.72849   1.73000   1.73282   1.73648
 Alpha virt. eigenvalues --    1.73877   1.74060   1.74278   1.74472   1.74933
 Alpha virt. eigenvalues --    1.74989   1.75301   1.75414   1.75642   1.75733
 Alpha virt. eigenvalues --    1.75994   1.76092   1.76466   1.76681   1.77082
 Alpha virt. eigenvalues --    1.77209   1.77260   1.77303   1.77425   1.77529
 Alpha virt. eigenvalues --    1.77850   1.77912   1.78203   1.78413   1.78491
 Alpha virt. eigenvalues --    1.78727   1.78773   1.78865   1.79035   1.79082
 Alpha virt. eigenvalues --    1.79414   1.79578   1.79721   1.79843   1.79864
 Alpha virt. eigenvalues --    1.79974   1.80210   1.80304   1.80339   1.80549
 Alpha virt. eigenvalues --    1.81021   1.81223   1.81405   1.81586   1.81706
 Alpha virt. eigenvalues --    1.81887   1.82153   1.82221   1.82441   1.82673
 Alpha virt. eigenvalues --    1.82807   1.83022   1.83423   1.83501   1.83831
 Alpha virt. eigenvalues --    1.83888   1.84057   1.84321   1.84404   1.84521
 Alpha virt. eigenvalues --    1.84708   1.84978   1.85246   1.85260   1.85510
 Alpha virt. eigenvalues --    1.85605   1.85648   1.85927   1.86038   1.86365
 Alpha virt. eigenvalues --    1.86418   1.86463   1.86543   1.87016   1.87292
 Alpha virt. eigenvalues --    1.87765   1.87817   1.87946   1.88243   1.88322
 Alpha virt. eigenvalues --    1.88439   1.88594   1.88730   1.88882   1.89221
 Alpha virt. eigenvalues --    1.89356   1.89677   1.89937   1.90108   1.90388
 Alpha virt. eigenvalues --    1.90448   1.90710   1.90845   1.91307   1.91448
 Alpha virt. eigenvalues --    1.91787   1.91882   1.92035   1.92063   1.92129
 Alpha virt. eigenvalues --    1.92338   1.92618   1.92921   1.93133   1.93161
 Alpha virt. eigenvalues --    1.93213   1.93497   1.93649   1.93894   1.94234
 Alpha virt. eigenvalues --    1.94392   1.94519   1.94823   1.95082   1.95226
 Alpha virt. eigenvalues --    1.95361   1.95696   1.95926   1.96309   1.96482
 Alpha virt. eigenvalues --    1.96565   1.96745   1.97217   1.97497   1.97521
 Alpha virt. eigenvalues --    1.97676   1.97966   1.98052   1.98277   1.98472
 Alpha virt. eigenvalues --    1.98652   1.99010   1.99193   1.99245   1.99424
 Alpha virt. eigenvalues --    1.99583   2.00045   2.00439   2.00737   2.00936
 Alpha virt. eigenvalues --    2.01043   2.01491   2.01810   2.01938   2.02339
 Alpha virt. eigenvalues --    2.02764   2.02842   2.02974   2.03130   2.03344
 Alpha virt. eigenvalues --    2.03861   2.04268   2.04411   2.04626   2.04851
 Alpha virt. eigenvalues --    2.04942   2.04990   2.05854   2.06111   2.06230
 Alpha virt. eigenvalues --    2.06448   2.06671   2.06948   2.07147   2.07307
 Alpha virt. eigenvalues --    2.07590   2.07697   2.07928   2.08207   2.08308
 Alpha virt. eigenvalues --    2.08708   2.09027   2.09631   2.09752   2.09988
 Alpha virt. eigenvalues --    2.10251   2.10365   2.10489   2.10821   2.10931
 Alpha virt. eigenvalues --    2.11374   2.11585   2.11940   2.12580   2.12775
 Alpha virt. eigenvalues --    2.13018   2.13172   2.13921   2.14444   2.14749
 Alpha virt. eigenvalues --    2.14838   2.14889   2.14964   2.15233   2.15372
 Alpha virt. eigenvalues --    2.15610   2.15985   2.16365   2.16637   2.17021
 Alpha virt. eigenvalues --    2.17242   2.17373   2.17534   2.18207   2.18297
 Alpha virt. eigenvalues --    2.18483   2.18586   2.18694   2.19098   2.19325
 Alpha virt. eigenvalues --    2.19435   2.19630   2.19748   2.20398   2.20828
 Alpha virt. eigenvalues --    2.21205   2.21593   2.21724   2.22365   2.22871
 Alpha virt. eigenvalues --    2.23525   2.23697   2.23845   2.24098   2.25231
 Alpha virt. eigenvalues --    2.25616   2.26072   2.26566   2.26721   2.26812
 Alpha virt. eigenvalues --    2.26844   2.27032   2.27196   2.27291   2.27440
 Alpha virt. eigenvalues --    2.27686   2.28258   2.28676   2.28924   2.29333
 Alpha virt. eigenvalues --    2.29692   2.29753   2.30392   2.30503   2.30869
 Alpha virt. eigenvalues --    2.31055   2.31606   2.31855   2.32244   2.32454
 Alpha virt. eigenvalues --    2.32654   2.32738   2.33259   2.33403   2.33546
 Alpha virt. eigenvalues --    2.33882   2.33988   2.34304   2.34646   2.34931
 Alpha virt. eigenvalues --    2.35232   2.35243   2.35652   2.35974   2.36644
 Alpha virt. eigenvalues --    2.37652   2.37973   2.38018   2.38121   2.38607
 Alpha virt. eigenvalues --    2.38644   2.38948   2.39418   2.39796   2.40169
 Alpha virt. eigenvalues --    2.40434   2.40589   2.41641   2.41862   2.41893
 Alpha virt. eigenvalues --    2.42152   2.42474   2.42682   2.43876   2.43961
 Alpha virt. eigenvalues --    2.44167   2.44855   2.45023   2.45118   2.45876
 Alpha virt. eigenvalues --    2.46176   2.46799   2.47154   2.47182   2.47616
 Alpha virt. eigenvalues --    2.47745   2.48223   2.49063   2.49191   2.50099
 Alpha virt. eigenvalues --    2.50196   2.50373   2.50626   2.51164   2.51335
 Alpha virt. eigenvalues --    2.51376   2.51955   2.52237   2.52844   2.53626
 Alpha virt. eigenvalues --    2.53732   2.54866   2.55188   2.55291   2.55560
 Alpha virt. eigenvalues --    2.55625   2.55721   2.55983   2.56113   2.56330
 Alpha virt. eigenvalues --    2.56694   2.56891   2.57367   2.57839   2.58231
 Alpha virt. eigenvalues --    2.58682   2.58953   2.59424   2.59558   2.60084
 Alpha virt. eigenvalues --    2.60253   2.60615   2.60686   2.61001   2.61240
 Alpha virt. eigenvalues --    2.61490   2.61842   2.61936   2.62286   2.62681
 Alpha virt. eigenvalues --    2.62952   2.63740   2.63941   2.64051   2.64239
 Alpha virt. eigenvalues --    2.64854   2.64925   2.65255   2.65968   2.66129
 Alpha virt. eigenvalues --    2.66846   2.66893   2.67422   2.67529   2.67668
 Alpha virt. eigenvalues --    2.68171   2.68521   2.69308   2.69534   2.69887
 Alpha virt. eigenvalues --    2.69993   2.70466   2.70931   2.71060   2.71392
 Alpha virt. eigenvalues --    2.71496   2.71708   2.71938   2.72239   2.72395
 Alpha virt. eigenvalues --    2.72540   2.72933   2.73102   2.73201   2.73325
 Alpha virt. eigenvalues --    2.73692   2.74028   2.74147   2.74912   2.75129
 Alpha virt. eigenvalues --    2.75216   2.75230   2.75833   2.75843   2.76086
 Alpha virt. eigenvalues --    2.76233   2.76539   2.76665   2.77404   2.77543
 Alpha virt. eigenvalues --    2.78175   2.78421   2.78629   2.78726   2.79013
 Alpha virt. eigenvalues --    2.79273   2.79321   2.79588   2.79641   2.79858
 Alpha virt. eigenvalues --    2.80638   2.81100   2.81112   2.81226   2.81419
 Alpha virt. eigenvalues --    2.81631   2.81893   2.82056   2.82306   2.82558
 Alpha virt. eigenvalues --    2.82909   2.83323   2.83411   2.84734   2.84792
 Alpha virt. eigenvalues --    2.84989   2.85568   2.85687   2.85800   2.85839
 Alpha virt. eigenvalues --    2.85899   2.86206   2.86692   2.86869   2.87494
 Alpha virt. eigenvalues --    2.87599   2.88053   2.88275   2.88519   2.88604
 Alpha virt. eigenvalues --    2.88991   2.89070   2.89244   2.89653   2.89824
 Alpha virt. eigenvalues --    2.90012   2.90166   2.90479   2.90667   2.91076
 Alpha virt. eigenvalues --    2.91188   2.91361   2.91486   2.92213   2.92897
 Alpha virt. eigenvalues --    2.92924   2.92973   2.93753   2.94265   2.94336
 Alpha virt. eigenvalues --    2.95438   2.95478   2.95683   2.95953   2.96447
 Alpha virt. eigenvalues --    2.96616   2.96660   2.97097   2.97347   2.97600
 Alpha virt. eigenvalues --    2.97890   2.97970   2.98113   2.98874   2.99233
 Alpha virt. eigenvalues --    2.99576   2.99756   2.99966   3.00253   3.00407
 Alpha virt. eigenvalues --    3.00552   3.00876   3.01098   3.01354   3.02466
 Alpha virt. eigenvalues --    3.02878   3.02998   3.03768   3.04079   3.04766
 Alpha virt. eigenvalues --    3.04987   3.05198   3.05419   3.05752   3.06529
 Alpha virt. eigenvalues --    3.07206   3.07728   3.08022   3.08247   3.08650
 Alpha virt. eigenvalues --    3.08835   3.09288   3.09681   3.10366   3.10831
 Alpha virt. eigenvalues --    3.11249   3.11284   3.11845   3.12524   3.13199
 Alpha virt. eigenvalues --    3.13213   3.13518   3.13976   3.14503   3.14617
 Alpha virt. eigenvalues --    3.14772   3.15236   3.15496   3.16535   3.17063
 Alpha virt. eigenvalues --    3.17357   3.17623   3.18415   3.18509   3.18567
 Alpha virt. eigenvalues --    3.18879   3.18983   3.19178   3.19798   3.20103
 Alpha virt. eigenvalues --    3.20624   3.21063   3.21230   3.21586   3.22245
 Alpha virt. eigenvalues --    3.22469   3.22769   3.23111   3.23156   3.23565
 Alpha virt. eigenvalues --    3.23991   3.24901   3.25211   3.25827   3.27238
 Alpha virt. eigenvalues --    3.27388   3.27870   3.28309   3.28856   3.29231
 Alpha virt. eigenvalues --    3.29372   3.29447   3.29510   3.32034   3.32315
 Alpha virt. eigenvalues --    3.32780   3.35343   3.35456   3.35668   3.37576
 Alpha virt. eigenvalues --    3.38343   3.38688   3.43287   3.47002   3.47915
 Alpha virt. eigenvalues --    3.49783   3.53736   3.54098   3.54258   3.55168
 Alpha virt. eigenvalues --    3.57282   3.57635   3.58247   3.58438   3.58742
 Alpha virt. eigenvalues --    3.59436   3.59709   3.60168   3.60685   3.61354
 Alpha virt. eigenvalues --    3.62308   3.63509   3.66207   3.66820   3.68139
 Alpha virt. eigenvalues --    3.69171   3.69536   3.69695   3.69804   3.70020
 Alpha virt. eigenvalues --    3.70104   3.70383   3.70595   3.70703   3.71225
 Alpha virt. eigenvalues --    3.72476   3.72767   3.73007   3.73741   3.74915
 Alpha virt. eigenvalues --    3.76055   3.76689   3.79651   3.80586
          Condensed to atoms (all electrons):
 Mulliken charges:
               1
     1  C    0.088627
     2  C   -0.008958
     3  O   -0.283076
     4  H    0.027245
     5  H   -0.019712
     6  H    0.056442
     7  N   -0.123962
     8  C    0.056583
     9  C    0.074184
    10  O   -0.238596
    11  C    0.089112
    12  C    0.052784
    13  O   -0.323092
    14  O   -0.355733
    15  H    0.099208
    16  H    0.006746
    17  H   -0.010664
    18  H    0.022683
    19  N   -0.140695
    20  C    0.160807
    21  C    0.071791
    22  O   -0.309137
    23  C   -0.008731
    24  C    0.055519
    25  C   -0.019974
    26  C    0.033127
    27  N    0.174147
    28  H    0.092987
    29  H    0.013939
    30  H    0.015685
    31  H   -0.010634
    32  H    0.006834
    33  H    0.026906
    34  H    0.007962
    35  H    0.000676
    36  H    0.062557
    37  H    0.059279
    38  H    0.101350
    39  H    0.103050
    40  H    0.099233
    41  N   -0.118726
    42  C    0.146975
    43  C    0.068456
    44  O   -0.233272
    45  C    0.078467
    46  C    0.118019
    47  O   -0.364578
    48  O   -0.495208
    49  H    0.131085
    50  H   -0.048029
    51  H    0.052052
    52  H    0.019703
    53  N   -0.117400
    54  C    0.170127
    55  C    0.141862
    56  O   -0.380975
    57  H    0.099910
    58  H    0.028708
    59  H    0.036718
    60  N   -0.127539
    61  C    0.059760
    62  C    0.088750
    63  O   -0.284516
    64  C    0.060407
    65  C    0.032119
    66  N   -0.068191
    67  O   -0.220789
    68  H    0.143764
    69  H    0.013449
    70  H    0.058422
    71  H    0.014110
    72  H    0.088591
    73  H    0.141905
    74  N   -0.120664
    75  C    0.226601
    76  C    0.000394
    77  O   -0.252976
    78  H    0.110144
    79  H    0.029552
    80  H    0.047413
    81  N   -0.117743
    82  C    0.089212
    83  C    0.088616
    84  O   -0.317879
    85  C    0.166956
    86  C   -0.050505
    87  C    0.000960
    88  C   -0.031299
    89  C   -0.042394
    90  C   -0.064106
    91  C    0.181360
    92  O   -0.185385
    93  H    0.127971
    94  H    0.028685
    95  H    0.002142
    96  H    0.009250
    97  H   -0.014348
    98  H   -0.017990
    99  H   -0.020926
   100  H   -0.039082
   101  H    0.172342
   102  N   -0.109816
   103  C    0.137097
   104  C    0.009911
   105  O   -0.248811
   106  C   -0.069079
   107  C    0.011906
   108  C    0.069838
   109  C    0.035612
   110  H    0.127907
   111  H    0.007567
   112  H   -0.027537
   113  H    0.018435
   114  H   -0.023094
   115  H    0.023635
   116  H   -0.008089
   117  H    0.022111
   118  H    0.016851
   119  H   -0.014986
   120  H    0.012322
   121  N   -0.123762
   122  C    0.131116
   123  C    0.028054
   124  O   -0.255020
   125  C    0.248067
   126  O   -0.306273
   127  H    0.127651
   128  H    0.006170
   129  H   -0.018036
   130  H    0.018320
   131  H    0.167047
   132  N   -0.145640
   133  C    0.052817
   134  C    0.051476
   135  O   -0.294589
   136  C    0.103574
   137  H    0.114371
   138  H    0.011096
   139  H    0.025930
   140  H    0.025081
   141  H   -0.022068
   142  N   -0.093435
   143  C    0.065192
   144  C    0.060573
   145  O   -0.277642
   146  C    0.064991
   147  H    0.128707
   148  H    0.011005
   149  H    0.045199
   150  H    0.029819
   151  H   -0.015655
   152  N   -0.121055
   153  C    0.116737
   154  C    0.067708
   155  O   -0.286861
   156  C    0.023634
   157  C    0.101606
   158  C    0.097313
   159  O   -0.509899
   160  O   -0.337175
   161  H    0.121177
   162  H    0.002010
   163  H   -0.013991
   164  H   -0.013503
   165  H   -0.029301
   166  H    0.002837
   167  N   -0.132107
   168  C    0.126007
   169  H    0.020536
   170  H    0.043274
   171  H    0.012972
   172  H    0.114879
   173  Ca   1.388697
   174  O   -0.296400
   175  H    0.210669
   176  H    0.187388
 Sum of Mulliken charges =  -0.00000
 Mulliken charges with hydrogens summed into heavy atoms:
               1
     1  C    0.152601
     2  C   -0.008958
     3  O   -0.283076
     7  N   -0.024753
     8  C    0.063329
     9  C    0.074184
    10  O   -0.238596
    11  C    0.101131
    12  C    0.052784
    13  O   -0.323092
    14  O   -0.355733
    19  N   -0.047708
    20  C    0.174746
    21  C    0.071791
    22  O   -0.309137
    23  C   -0.003680
    24  C    0.089259
    25  C   -0.011336
    26  C    0.154963
    27  N    0.477780
    41  N    0.012359
    42  C    0.098946
    43  C    0.068456
    44  O   -0.233272
    45  C    0.150222
    46  C    0.118019
    47  O   -0.364578
    48  O   -0.495208
    53  N   -0.017490
    54  C    0.235553
    55  C    0.141862
    56  O   -0.380975
    60  N    0.016226
    61  C    0.073208
    62  C    0.088750
    63  O   -0.284516
    64  C    0.132939
    65  C    0.032119
    66  N    0.162306
    67  O   -0.220789
    74  N   -0.010521
    75  C    0.303565
    76  C    0.000394
    77  O   -0.252976
    81  N    0.010229
    82  C    0.117897
    83  C    0.088616
    84  O   -0.317879
    85  C    0.178348
    86  C   -0.050505
    87  C   -0.013388
    88  C   -0.049288
    89  C   -0.063320
    90  C   -0.103188
    91  C    0.181360
    92  O   -0.013044
   102  N    0.018090
   103  C    0.144664
   104  C    0.009911
   105  O   -0.248811
   106  C   -0.096617
   107  C    0.007247
   108  C    0.107494
   109  C    0.049800
   121  N    0.003889
   122  C    0.137285
   123  C    0.028054
   124  O   -0.255020
   125  C    0.248351
   126  O   -0.139227
   132  N   -0.031270
   133  C    0.063913
   134  C    0.051476
   135  O   -0.294589
   136  C    0.132517
   142  N    0.035272
   143  C    0.076196
   144  C    0.060573
   145  O   -0.277642
   146  C    0.124353
   152  N    0.000122
   153  C    0.118747
   154  C    0.067708
   155  O   -0.286861
   156  C   -0.003859
   157  C    0.075142
   158  C    0.097313
   159  O   -0.509899
   160  O   -0.337175
   167  N   -0.017228
   168  C    0.202788
   173  Ca   1.388697
   174  O    0.101657
 DipInt: DoE/N= T F RetVal/Mat= T F Init=T NMatP=  1 IDeriv=0 Min/MaxMlt=  0  4
 Entering OneElI...
 OneElI was handed  1333951383 working-precision words.
 Multipole integrals L=0 to 4 MinM= 0 MaxM= 0.
 Requested accuracy = 0.1000D-12
 PrtBox:  NBox=     1 Levels=  1 BoxLen=   98.75 SMaxX=       51.29
          Shift=           20.072799           15.093990            8.888277
 Box      1 Number                   0 centers from      1 to    809:
 ShPair: Thresh= 1.00D-13 NBox=     1 BxSize= 9.87D+01 RnKept= 2.99D+01
         NSMCal=               327645 NSMKep=              119058
 PrmmSu-InSpLW:  IPartL=    0 NPrtUS=    1 NPrtUL=    1 DoSpLW=F IThBeg=    0 IThEnd=    0 NThAct=    1.
 PrsmSu:  NPrtUS=   1 ThrOK=F IAlg=1 NPAlg=1 LenDen=           0 ISkipM=0 DoSpLW=F IThBeg=    0 IThEnd=    0.
 Prism:   IPart=     0 DynPar=F LinDyn=F Incr=         512.
 PRISM was handed  1325470103 working-precision words and119058 shell-pairs
 IPart=  0 NShTot=      119058 NBatch=         284 AvBLen=       419.2
 PrsmSu-ThDecC:  IPartSL=    0    0 NPrtUSL=    1    1 IThBeg=    0 IThEnd=    0 CPU=   -1 GPU=   -1 NThAct=    1.
 PrSmSu:  NxtVal=            513.
 Electronic moments (au):
       -716.00000000         12.58937706         -2.16954059         -1.60325435
    -111415.51469305     -42328.33142797      -9686.57582874       -215.12115504
        -11.61224262        -53.83635186    -655178.75219330     -81247.83579543
      -3394.56624468     239393.91257651     -33987.15267295    -107567.45970278
      -7119.37213985      11011.90366638      57161.13743234     -66340.64633956
  -38296429.74823225   -6991583.96390669    -391735.71369636     174859.15874841
    -185554.92552592    1147534.47661434     627764.63421073     -96940.10396563
     -91789.65937428   -4412395.66494026   -1165192.55952758    -659705.46806663
     218522.79709440    -506611.62375329     -15712.96862770
 Electronic spatial extent (au):  <R**2>=         163430.4219
 DipInt: DoE/N= F T RetVal/Mat= T F Init=T NMatP=  1 IDeriv=0 Min/MaxMlt=  0  4
 Nuclear    moments (au):
        716.00000000         -0.00000000         -0.00000000          0.00000000
     111464.29396434      41812.85665091       9291.33456829          0.00000000
         -0.00000000          0.00000000     671673.85165176      81021.62881627
       3498.97320536    -240381.12302301      31063.69039160     108108.39555634
       7380.44285182     -10635.25768331     -57168.61310291      66514.26199215
   38406661.02252596    6827668.90948805     359247.89034679    -277424.71233410
     197019.56661752   -1162619.32789337    -637315.58600872      96358.57763959
      87459.61468921    4315987.19023628    1103504.07098016     627245.60968405
    -221888.02662468     508162.16564469      13262.85954243
 Total      moments (au):
         -0.00000000         12.58937706         -2.16954059         -1.60325435
         48.77927129       -515.47477706       -395.24126045       -215.12115504
        -11.61224262        -53.83635186      16495.09945845       -226.20697916
        104.40696068       -987.21044651      -2923.46228134        540.93585356
        261.07071197        376.64598307         -7.47567056        173.61565259
     110231.27429371    -163915.05441864     -32487.82334957    -102565.55358569
      11464.64109161     -15084.85127903      -9550.95179799       -581.52632605
      -4330.04468507     -96408.47470398     -61688.48854742     -32459.85838258
      -3365.22953028       1550.54189141      -2450.10908526
 Traceless Quadrup. (au):
        336.09152669       -228.16252165       -107.92900504       -215.12115504
        -11.61224262        -53.83635186
 Charge=             -0.0000 electrons
 Dipole moment (field-independent basis, Debye):
    X=             31.9990    Y=             -5.5144    Z=             -4.0751  Tot=             32.7254
 Quadrupole moment (field-independent basis, Debye-Ang):
   XX=             65.6098   YY=           -693.3312   ZZ=           -531.6130
   XY=           -289.3453   XZ=            -15.6189   YZ=            -72.4117
 Traceless Quadrupole moment (field-independent basis, Debye-Ang):
   XX=            452.0546   YY=           -306.8864   ZZ=           -145.1682
   XY=           -289.3453   XZ=            -15.6189   YZ=            -72.4117
 Octapole moment (field-independent basis, Debye-Ang**2):
  XXX=          11740.5763  YYY=           -161.0054  ZZZ=             74.3129  XYY=           -702.6584
  XXY=          -2080.8078  XXZ=            385.0173  XZZ=            185.8201  YZZ=            268.0821
  YYZ=             -5.3209  XYZ=            123.5729
 Hexadecapole moment (field-independent basis, Debye-Ang**3):
 XXXX=          41518.3837 YYYY=         -61738.2695 ZZZZ=         -12236.4721 XXXY=         -38631.1057
 XXXZ=           4318.1336 YYYX=          -5681.6783 YYYZ=          -3597.3464 ZZZX=           -219.0307
 ZZZY=          -1630.9025 XXYY=         -36312.0545 XXZZ=         -23234.8428 YYZZ=         -12225.9392
 XXYZ=          -1267.5068 YYXZ=            584.0084 ZZXY=           -922.8286
 N-N= 1.864159615363D+04 E-N=-4.976380102035D+04  KE= 5.290415087760D+03
 Leave Link  601 at Tue Sep 17 12:46:02 2019, MaxMem=  1342177280 cpu:              43.1 elap:               1.1
 FitSet:  NAtFit=   176 NAtPot=   176 NAtFrz=     0 MDM=   180 TotChg=   0.00000
 Merz-Kollman atomic radii used.
 Read replacement radii for each type of atom:
 Rad(20) =   1.700000000000D+00
 Atom Element Radius
    1     6    1.50
    2     6    1.50
    3     8    1.40
    4     1    1.20
    5     1    1.20
    6     1    1.20
    7     7    1.50
    8     6    1.50
    9     6    1.50
   10     8    1.40
   11     6    1.50
   12     6    1.50
   13     8    1.40
   14     8    1.40
   15     1    1.20
   16     1    1.20
   17     1    1.20
   18     1    1.20
   19     7    1.50
   20     6    1.50
   21     6    1.50
   22     8    1.40
   23     6    1.50
   24     6    1.50
   25     6    1.50
   26     6    1.50
   27     7    1.50
   28     1    1.20
   29     1    1.20
   30     1    1.20
   31     1    1.20
   32     1    1.20
   33     1    1.20
   34     1    1.20
   35     1    1.20
   36     1    1.20
   37     1    1.20
   38     1    1.20
   39     1    1.20
   40     1    1.20
   41     7    1.50
   42     6    1.50
   43     6    1.50
   44     8    1.40
   45     6    1.50
   46     6    1.50
   47     8    1.40
   48     8    1.40
   49     1    1.20
   50     1    1.20
   51     1    1.20
   52     1    1.20
   53     7    1.50
   54     6    1.50
   55     6    1.50
   56     8    1.40
   57     1    1.20
   58     1    1.20
   59     1    1.20
   60     7    1.50
   61     6    1.50
   62     6    1.50
   63     8    1.40
   64     6    1.50
   65     6    1.50
   66     7    1.50
   67     8    1.40
   68     1    1.20
   69     1    1.20
   70     1    1.20
   71     1    1.20
   72     1    1.20
   73     1    1.20
   74     7    1.50
   75     6    1.50
   76     6    1.50
   77     8    1.40
   78     1    1.20
   79     1    1.20
   80     1    1.20
   81     7    1.50
   82     6    1.50
   83     6    1.50
   84     8    1.40
   85     6    1.50
   86     6    1.50
   87     6    1.50
   88     6    1.50
   89     6    1.50
   90     6    1.50
   91     6    1.50
   92     8    1.40
   93     1    1.20
   94     1    1.20
   95     1    1.20
   96     1    1.20
   97     1    1.20
   98     1    1.20
   99     1    1.20
  100     1    1.20
  101     1    1.20
  102     7    1.50
  103     6    1.50
  104     6    1.50
  105     8    1.40
  106     6    1.50
  107     6    1.50
  108     6    1.50
  109     6    1.50
  110     1    1.20
  111     1    1.20
  112     1    1.20
  113     1    1.20
  114     1    1.20
  115     1    1.20
  116     1    1.20
  117     1    1.20
  118     1    1.20
  119     1    1.20
  120     1    1.20
  121     7    1.50
  122     6    1.50
  123     6    1.50
  124     8    1.40
  125     6    1.50
  126     8    1.40
  127     1    1.20
  128     1    1.20
  129     1    1.20
  130     1    1.20
  131     1    1.20
  132     7    1.50
  133     6    1.50
[...]
 **** Fit      -0.030499
 **** Fit      -0.029368
 **** Fit      -0.028485
 **** Fit      -0.027931
 **** Fit      -0.036590
 **** Fit      -0.036508
 **** Fit      -0.036171
 **** Fit      -0.041937
 **** Fit      -0.040551
 **** Fit      -0.039117
 **** Fit      -0.037515
 **** Fit      -0.035734
 **** Fit      -0.033974
 **** Fit      -0.032508
 **** Fit      -0.031521
 **** Fit      -0.031138
 **** Fit      -0.031458
 **** Fit      -0.041026
 **** Fit      -0.038199
 **** Fit      -0.035853
 **** Fit      -0.034331
 **** Fit      -0.033823
 **** Fit      -0.034491
 **** Fit      -0.038195
 **** Fit      -0.036719
 **** Fit      -0.036935
 **** Fit      -0.005206
 **** Fit      -0.006088
 **** Fit      -0.005923
 **** Fit      -0.005008
 **** Fit      -0.004435
 **** Fit      -0.004690
 **** Fit      -0.005440
 **** Fit      -0.007275
 **** Fit      -0.006874
 **** Fit      -0.005938
 **** Fit      -0.004863
 **** Fit      -0.004088
 **** Fit      -0.003792
 **** Fit      -0.003911
 **** Fit      -0.004331
 **** Fit      -0.004952
 **** Fit      -0.008566
 **** Fit      -0.008080
 **** Fit      -0.007139
 **** Fit      -0.005947
 **** Fit      -0.004792
 **** Fit      -0.003921
 **** Fit      -0.003437
 **** Fit      -0.003288
 **** Fit      -0.003378
 **** Fit      -0.003651
 **** Fit      -0.004076
 **** Fit      -0.010025
 **** Fit      -0.009416
 **** Fit      -0.008372
 **** Fit      -0.007048
 **** Fit      -0.005664
 **** Fit      -0.004455
 **** Fit      -0.003591
 **** Fit      -0.003116
 **** Fit      -0.002941
 **** Fit      -0.002948
 **** Fit      -0.003077
 **** Fit      -0.003329
 **** Fit      -0.003708
 **** Fit      -0.011609
 **** Fit      -0.010828
 **** Fit      -0.009614
 **** Fit      -0.008109
 **** Fit      -0.006504
 **** Fit      -0.005022
 **** Fit      -0.003868
 **** Fit      -0.003146
 **** Fit      -0.002811
 **** Fit      -0.002709
 **** Fit      -0.002700
 **** Fit      -0.002748
 **** Fit      -0.002895
 **** Fit      -0.003183
 **** Fit      -0.012475
 **** Fit      -0.011164
 **** Fit      -0.009543
 **** Fit      -0.007764
 **** Fit      -0.006026
 **** Fit      -0.004547
 **** Fit      -0.003498
 **** Fit      -0.002920
 **** Fit      -0.002686
 **** Fit      -0.002593
 **** Fit      -0.002499
 **** Fit      -0.002402
 **** Fit      -0.002392
 **** Fit      -0.002554
 **** Fit      -0.013924
 **** Fit      -0.012371
 **** Fit      -0.010488
 **** Fit      -0.008436
 **** Fit      -0.006442
 **** Fit      -0.004768
 **** Fit      -0.003612
 **** Fit      -0.002992
 **** Fit      -0.002712
 **** Fit      -0.002494
 **** Fit      -0.002188
 **** Fit      -0.001841
 **** Fit      -0.001622
 **** Fit      -0.015775
 **** Fit      -0.014095
 **** Fit      -0.012022
 **** Fit      -0.009720
 **** Fit      -0.007451
 **** Fit      -0.005517
 **** Fit      -0.004133
 **** Fit      -0.003289
 **** Fit      -0.002734
 **** Fit      -0.002161
 **** Fit      -0.001441
 **** Fit      -0.000705
 **** Fit      -0.000210
 **** Fit      -0.018102
 **** Fit      -0.016226
 **** Fit      -0.013833
 **** Fit      -0.011147
 **** Fit      -0.008510
 **** Fit      -0.006241
 **** Fit      -0.004471
 **** Fit      -0.003072
 **** Fit      -0.001759
 **** Fit      -0.000339
 **** Fit       0.001084
 **** Fit       0.002172
 **** Fit      -0.020736
 **** Fit      -0.017995
 **** Fit      -0.014600
 **** Fit      -0.010989
 **** Fit      -0.007513
 **** Fit      -0.004281
 **** Fit       0.000538
 **** Fit       0.001130
 **** Fit       0.001909
 **** Fit      -0.003502
 **** Fit      -0.003062
 **** Fit      -0.003023
 **** Fit      -0.002584
 **** Fit      -0.001443
 **** Fit      -0.000012
 **** Fit       0.001134
 **** Fit       0.001649
 **** Fit      -0.006999
 **** Fit      -0.006189
 **** Fit      -0.004344
 **** Fit      -0.002139
 **** Fit      -0.000300
 **** Fit       0.000782
 **** Fit      -0.006967
 **** Fit      -0.003818
 **** Fit      -0.001272
 **** Fit       0.000273
 **** Fit       0.000753
 **** Fit      -0.004445
 **** Fit      -0.001486
 **** Fit       0.000336
 **** Fit       0.001004
 **** Fit       0.000763
 **** Fit       0.001852
 **** Fit       0.001864
 **** Fit       0.003866
 **** Fit       0.003823
 **** Fit       0.007288
 **** Fit       0.006387
 **** Fit      -0.013248
 **** Fit      -0.016760
 **** Fit      -0.009493
 **** Fit      -0.016201
 **** Fit      -0.015898
 **** Fit      -0.016146
 **** Fit      -0.013406
 **** Fit      -0.011111
 **** Fit      -0.009960
 **** Fit      -0.010526
 **** Fit      -0.008327
 **** Fit      -0.005012
 **** Fit      -0.003190
 **** Fit      -0.003145
 **** Fit      -0.004983
 **** Fit      -0.007433
 **** Fit      -0.002350
 **** Fit       0.001346
 **** Fit       0.003393
 **** Fit       0.003676
 **** Fit       0.002139
 **** Fit      -0.004449
 **** Fit       0.001722
 **** Fit       0.006238
 **** Fit       0.008981
 **** Fit       0.009913
 **** Fit       0.009000
 **** Fit      -0.001390
 **** Fit       0.005554
 **** Fit       0.010659
 **** Fit       0.013937
 **** Fit       0.015431
 **** Fit       0.015169
 **** Fit       0.013142
 **** Fit       0.029400
 **** Fit       0.020842
 **** Fit      -0.000145
 **** Fit       0.007845
 **** Fit       0.013817
 **** Fit       0.017892
 **** Fit       0.020204
 **** Fit       0.020882
 **** Fit       0.020047
 **** Fit       0.017824
 **** Fit       0.028700
 **** Fit       0.021257
 **** Fit       0.012225
 **** Fit       0.000964
 **** Fit       0.009785
 **** Fit       0.016463
 **** Fit       0.021225
 **** Fit       0.024302
 **** Fit       0.025938
 **** Fit       0.026423
 **** Fit       0.026150
 **** Fit       0.029454
 **** Fit       0.022974
 **** Fit       0.014466
 **** Fit       0.008079
 **** Fit       0.016374
 **** Fit       0.022512
 **** Fit       0.026851
 **** Fit       0.029770
 **** Fit       0.031745
 **** Fit       0.033487
 **** Fit       0.034023
 **** Fit       0.030846
 **** Fit       0.025346
 **** Fit       0.017569
 **** Fit       0.007356
 **** Fit       0.005495
 **** Fit       0.015348
 **** Fit       0.022778
 **** Fit       0.028262
 **** Fit       0.032295
 **** Fit       0.035500
 **** Fit       0.034552
 **** Fit       0.031200
 **** Fit       0.025476
 **** Fit       0.017284
 **** Fit       0.006335
 **** Fit       0.011787
 **** Fit       0.020960
 **** Fit       0.027843
 **** Fit       0.033031
 **** Fit       0.037225
 **** Fit       0.037698
 **** Fit       0.036051
 **** Fit       0.032294
 **** Fit       0.026267
 **** Fit       0.017730
 **** Fit       0.006281
 **** Fit       0.007311
 **** Fit       0.018144
 **** Fit       0.026322
 **** Fit       0.032498
 **** Fit       0.037369
 **** Fit       0.040972
 **** Fit       0.038801
 **** Fit       0.034801
 **** Fit       0.028598
 **** Fit       0.019812
 **** Fit       0.007942
 **** Fit       0.010533
 **** Fit       0.021262
 **** Fit       0.029263
 **** Fit       0.035251
 **** Fit       0.047315
 **** Fit       0.045043
 **** Fit       0.042127
 **** Fit       0.037798
 **** Fit       0.031479
 **** Fit       0.022665
 **** Fit       0.010807
 **** Fit       0.014472
 **** Fit       0.024622
 **** Fit       0.032078
 **** Fit       0.053672
 **** Fit       0.049732
 **** Fit       0.045876
 **** Fit       0.041136
 **** Fit       0.034759
 **** Fit       0.026136
 **** Fit       0.014723
 **** Fit       0.006615
 **** Fit       0.018903
 **** Fit       0.028087
 **** Fit       0.034696
 **** Fit       0.058806
 **** Fit       0.053237
 **** Fit       0.048152
 **** Fit       0.042407
 **** Fit       0.035107
 **** Fit       0.025575
 **** Fit       0.013366
 **** Fit       0.010373
 **** Fit       0.021950
 **** Fit       0.030635
 **** Fit       0.056041
 **** Fit       0.049992
 **** Fit       0.043438
 **** Fit       0.035439
 **** Fit       0.025388
 **** Fit       0.013229
 **** Fit       0.002786
 **** Fit       0.015127
 **** Fit       0.025627
 **** Fit       0.033701
 **** Fit       0.055668
 **** Fit       0.048904
 **** Fit       0.041103
 **** Fit       0.031591
 **** Fit       0.020504
 **** Fit       0.009549
 **** Fit       0.002208
 **** Fit       0.001846
 **** Fit       0.008411
 **** Fit       0.018450
 **** Fit       0.028422
 **** Fit       0.036650
 **** Fit       0.053481
 **** Fit       0.046704
 **** Fit       0.037772
 **** Fit       0.027573
 **** Fit       0.019252
 **** Fit       0.017409
 **** Fit       0.022971
 **** Fit       0.031886
 **** Fit       0.040443
 **** Fit       0.044561
 **** Fit       0.048522
 **** Fit       0.043579
 **** Fit       0.034093
 **** Fit       0.029757
 **** Fit       0.035795
 **** Fit       0.039821
 **** Fit       0.037015
 **** Fit       0.035478
 **** Fit       0.034937
 **** Fit       0.034998
 **** Fit       0.033790
 **** Fit       0.033963
 **** Fit       0.033691
 **** Fit       0.032562
 **** Fit       0.032699
 **** Fit       0.033918
 **** Fit       0.034091
 **** Fit       0.032297
 **** Fit       0.031863
 **** Fit       0.032608
 **** Fit       0.034318
 **** Fit       0.036856
 **** Fit       0.033915
 **** Fit       0.032455
 **** Fit       0.032355
 **** Fit       0.033413
 **** Fit       0.035363
 **** Fit       0.037857
 **** Fit       0.048260
 **** Fit       0.043766
 **** Fit       0.039430
 **** Fit       0.036075
 **** Fit       0.034173
 **** Fit       0.033790
 **** Fit       0.034738
 **** Fit       0.036692
 **** Fit       0.039226
 **** Fit       0.041897
 **** Fit       0.044385
 **** Fit       0.041150
 **** Fit       0.037894
 **** Fit       0.036360
 **** Fit       0.036641
 **** Fit       0.038391
 **** Fit       0.041040
 **** Fit       0.044029
 **** Fit       0.040746
 **** Fit       0.039619
 **** Fit       0.040908
 **** Fit       0.007749
 **** Fit       0.003427
 **** Fit       0.023125
 **** Fit       0.018768
 **** Fit       0.015336
 **** Fit       0.011442
 **** Fit       0.005951
 **** Fit       0.031449
 **** Fit       0.026011
 **** Fit       0.022383
 **** Fit       0.019134
 **** Fit       0.015202
 **** Fit       0.009659
 **** Fit       0.031360
 **** Fit       0.027698
 **** Fit       0.024935
 **** Fit       0.022159
 **** Fit       0.018648
 **** Fit       0.013788
 **** Fit       0.007122
 **** Fit       0.035856
 **** Fit       0.031974
 **** Fit       0.029422
 **** Fit       0.027357
 **** Fit       0.025162
 **** Fit       0.022353
 **** Fit       0.018557
 **** Fit       0.013589
 **** Fit       0.012445
 **** Fit       0.013632
 **** Fit       0.019155
 **** Fit       0.026209
 **** Fit       0.033331
 **** Fit       0.031376
 **** Fit       0.029855
 **** Fit       0.028272
 **** Fit       0.026256
 **** Fit       0.023554
 **** Fit       0.020099
 **** Fit       0.016150
 **** Fit       0.021007
 **** Fit       0.019949
 **** Fit       0.020715
 **** Fit       0.023571
 **** Fit       0.028320
 **** Fit       0.034669
 **** Fit       0.034502
 **** Fit       0.032987
 **** Fit       0.031935
 **** Fit       0.030920
 **** Fit       0.029632
 **** Fit       0.027882
 **** Fit       0.025651
 **** Fit       0.023174
 **** Fit       0.027679
 **** Fit       0.027539
 **** Fit       0.028777
 **** Fit       0.031658
 **** Fit       0.036238
 **** Fit       0.034151
 **** Fit       0.033507
 **** Fit       0.032966
 **** Fit       0.032278
 **** Fit       0.031303
 **** Fit       0.030043
 **** Fit       0.028697
 **** Fit       0.032913
 **** Fit       0.033591
 **** Fit       0.035597
 **** Fit       0.039276
 **** Fit       0.035024
 **** Fit       0.034756
 **** Fit       0.034525
 **** Fit       0.034157
 **** Fit       0.033624
 **** Fit       0.033088
 **** Fit       0.037168
 **** Fit       0.038656
 **** Fit       0.041575
 **** Fit       0.036479
 **** Fit       0.036421
 **** Fit       0.036448
 **** Fit       0.036469
 **** Fit       0.036599
 **** Fit       0.040844
 **** Fit       0.043318
 **** Fit       0.038635
 **** Fit       0.038938
 **** Fit       0.039571
 **** Fit       0.044285
 **** Fit       0.042302
 **** Fit       0.036964
 **** Fit       0.037085
 **** Fit       0.039676
 **** Fit       0.038385
 **** Fit       0.038295
 **** Fit       0.039084
 **** Fit       0.040517
 **** Fit       0.042340
 **** Fit       0.044201
 **** Fit       0.045702
 **** Fit       0.046582
 **** Fit       0.046865
 **** Fit       0.046890
 **** Fit       0.047344
 **** Fit       0.049255
 **** Fit       0.053715
 **** Fit       0.040900
 **** Fit       0.039916
 **** Fit       0.039865
 **** Fit       0.040544
 **** Fit       0.041746
 **** Fit       0.043224
 **** Fit       0.044686
 **** Fit       0.045877
 **** Fit       0.046702
 **** Fit       0.047299
 **** Fit       0.048053
 **** Fit       0.049544
 **** Fit       0.052362
 **** Fit       0.056794
 **** Fit       0.045355
 **** Fit       0.043344
 **** Fit       0.041961
 **** Fit       0.041318
 **** Fit       0.041361
 **** Fit       0.041964
 **** Fit       0.042955
 **** Fit       0.044126
 **** Fit       0.045265
 **** Fit       0.046231
 **** Fit       0.047027
 **** Fit       0.047826
 **** Fit       0.048926
 **** Fit       0.050625
 **** Fit       0.053018
 **** Fit       0.055811
 **** Fit       0.058270
 **** Fit       0.044705
 **** Fit       0.043520
 **** Fit       0.042719
 **** Fit       0.042462
 **** Fit       0.042734
 **** Fit       0.043422
 **** Fit       0.044347
 **** Fit       0.045317
 **** Fit       0.046199
 **** Fit       0.046982
 **** Fit       0.047783
 **** Fit       0.048765
 **** Fit       0.049978
 **** Fit       0.051194
 **** Fit       0.051890
 **** Fit       0.051459
 **** Fit       0.045885
 **** Fit       0.044222
 **** Fit       0.043668
 **** Fit       0.043340
 **** Fit       0.043400
 **** Fit       0.043840
 **** Fit       0.044536
 **** Fit       0.045320
 **** Fit       0.046056
 **** Fit       0.046703
 **** Fit       0.047297
 **** Fit       0.047839
 **** Fit       0.048167
 **** Fit       0.047941
 **** Fit       0.046851
 **** Fit       0.044941
 **** Fit       0.044521
 **** Fit       0.044648
 **** Fit       0.043876
 **** Fit       0.043781
 **** Fit       0.043831
 **** Fit       0.044165
 **** Fit       0.044725
 **** Fit       0.045346
 **** Fit       0.045879
 **** Fit       0.046238
 **** Fit       0.046335
 **** Fit       0.045985
 **** Fit       0.044994
 **** Fit       0.043465
 **** Fit       0.041940
 **** Fit       0.041103
 **** Fit       0.041280
 **** Fit       0.042199
 **** Fit       0.043210
 **** Fit       0.043787
 **** Fit       0.043657
 **** Fit       0.043914
 **** Fit       0.044278
 **** Fit       0.044774
 **** Fit       0.045172
 **** Fit       0.045219
 **** Fit       0.044703
 **** Fit       0.043591
 **** Fit       0.042402
 **** Fit       0.041959
 **** Fit       0.042443
 **** Fit       0.043197
 **** Fit       0.043573
 **** Fit       0.044096
 **** Fit       0.044416
 **** Fit       0.043995
 **** Fit       0.043052
 **** Fit       0.042973
 **** Fit       0.043661
 -----------------------------------------------------------------
 Leave Link  602 at Tue Sep 17 12:46:05 2019, MaxMem=  1342177280 cpu:             120.2 elap:               2.6

 Test job not archived.
 1\1\GINC-C506-071\SP\RB3LYP\SVP\C54H83Ca1N15O23\PENGZHI\17-Sep-2019\0\
 \#b3lyp/svp scf=(tight,noincore) Test #IOP(5/87=12) Density=Current Po
 p=(MK,readradii) iop(6/33=2) iop(6/42=6)\\Ng-293_loop3_57.0\\0,1\C,0,6
 5.52,28.44,19.54\C,0,66.45,29.45,18.89\O,0,66.14,30.63,18.7\H,0,64.573
 ,28.419,19.\H,0,65.978,27.451,19.509\H,0,65.34,28.725,20.577\N,0,67.67
 ,29.06,18.51\C,0,68.64,29.84,17.76\C,0,68.29,30.36,16.37\O,0,68.92,31.
 28,15.85\C,0,69.13,30.93,18.71\C,0,70.58,31.25,18.38\O,0,70.97,32.44,1
 8.42\O,0,71.4,30.33,18.2\H,0,67.88,28.08,18.62\H,0,69.5,29.18,17.64\H,
 0,69.03,30.62,19.76\H,0,68.55,31.84,18.63\N,0,67.26,29.82,15.71\C,0,66
 .68,30.32,14.48\C,0,65.9,31.63,14.63\O,0,65.56,32.22,13.61\C,0,65.93,2
 9.2,13.77\C,0,66.83,28.05,13.3\C,0,66.,27.07,12.48\C,0,66.67,25.71,12.
 33\N,0,65.87,24.77,11.54\H,0,66.8,29.07,16.2\H,0,67.45,30.58,13.75\H,0
 ,65.41,29.58,12.89\H,0,65.25,28.82,14.53\H,0,67.25,27.62,14.21\H,0,67.
 59,28.5,12.65\H,0,65.81,27.39,11.45\H,0,65.,26.85,12.85\H,0,66.96,25.2
 9,13.29\H,0,67.57,25.95,11.76\H,0,65.79,24.96,10.55\H,0,66.25,23.87,11
 .8\H,0,64.9,24.7,11.81\N,0,65.5,32.09,15.82\C,0,65.16,33.47,16.11\C,0,
 66.36,34.26,16.62\O,0,67.07,33.79,17.51\C,0,63.96,33.54,17.05\C,0,63.3
 5,34.94,17.13\O,0,62.49,35.17,18.01\O,0,63.52,35.72,16.17\H,0,65.61,31
 .47,16.61\H,0,64.9,34.01,15.21\H,0,64.22,33.24,18.07\H,0,63.22,32.9,16
 .58\N,0,66.48,35.52,16.21\C,0,67.15,36.57,16.96\C,0,66.25,37.68,17.48\
 O,0,65.23,38.09,16.91\H,0,66.04,35.86,15.37\H,0,67.94,36.96,16.33\H,0,
 67.77,36.25,17.8\N,0,66.69,38.16,18.64\C,0,65.95,39.16,19.39\C,0,66.78
 ,40.35,19.87\O,0,66.18,41.39,20.12\C,0,65.3,38.49,20.59\C,0,64.31,37.3
 6,20.32\N,0,63.29,37.59,19.48\O,0,64.49,36.26,20.83\H,0,67.5,37.75,19.
 08\H,0,65.18,39.65,18.8\H,0,64.81,39.37,21.03\H,0,66.15,38.1,21.15\H,0
 ,63.19,38.46,18.97\H,0,62.74,36.81,19.17\N,0,68.11,40.32,19.94\C,0,69.
 01,41.34,20.44\C,0,68.72,41.68,21.89\O,0,68.44,40.88,22.78\H,0,68.58,3
 9.44,19.79\H,0,68.95,42.15,19.72\H,0,70.01,40.89,20.48\N,0,68.77,42.97
 ,22.24\C,0,68.15,43.54,23.42\C,0,66.75,43.11,23.83\O,0,66.31,43.4,24.9
 4\C,0,69.12,43.44,24.59\C,0,70.47,44.,24.23\C,0,71.49,43.08,23.99\C,0,
 70.66,45.37,24.02\C,0,72.74,43.55,23.54\C,0,71.91,45.82,23.57\C,0,72.9
 9,44.93,23.42\O,0,74.19,45.42,23.01\H,0,69.04,43.67,21.55\H,0,68.,44.6
 1,23.29\H,0,69.28,42.4,24.89\H,0,68.79,43.96,25.49\H,0,71.33,42.02,24.
 14\H,0,69.9,46.1,24.3\H,0,73.54,42.88,23.25\H,0,72.02,46.89,23.51\H,0,
 74.13,46.37,22.9\N,0,66.01,42.47,22.92\C,0,64.62,42.07,23.01\C,0,63.74
 ,43.31,23.01\O,0,62.99,43.46,22.06\C,0,64.35,41.05,24.11\C,0,65.5,40.0
 9,24.35\C,0,63.08,40.34,23.65\C,0,65.36,38.88,25.26\H,0,66.55,42.29,22
 .08\H,0,64.41,41.71,22.\H,0,64.2,41.56,25.07\H,0,66.39,40.57,24.76\H,0
 ,65.68,39.67,23.35\H,0,63.32,39.53,22.97\H,0,62.53,40.,24.53\H,0,62.4,
 41.11,23.27\H,0,66.35,38.44,25.4\H,0,65.03,39.18,26.25\H,0,64.6,38.19,
 24.89\N,0,63.78,44.09,24.09\C,0,63.16,45.39,24.28\C,0,61.64,45.24,24.2
 4\O,0,60.94,46.,23.58\C,0,63.49,46.1,25.6\O,0,64.85,46.44,25.52\H,0,64
 .57,43.82,24.66\H,0,63.37,46.05,23.45\H,0,63.33,45.37,26.39\H,0,62.94,
 47.03,25.71\H,0,65.22,46.29,26.4\N,0,61.1,44.26,24.97\C,0,59.68,44.05,
 25.14\C,0,58.84,44.18,23.87\O,0,57.72,44.68,23.96\C,0,59.2,44.94,26.28
 \H,0,61.72,43.65,25.49\H,0,59.56,42.99,25.4\H,0,59.4,45.98,26.04\H,0,5
 8.14,44.77,26.45\H,0,59.78,44.66,27.16\N,0,59.26,43.62,22.74\C,0,58.53
 ,43.72,21.49\C,0,58.71,42.51,20.59\O,0,59.58,41.69,20.9\C,0,59.13,44.9
 ,20.73\H,0,60.18,43.22,22.8\H,0,57.48,43.96,21.67\H,0,59.06,45.74,21.4
 2\H,0,60.18,44.73,20.47\H,0,58.53,45.05,19.83\N,0,57.93,42.39,19.51\C,
 0,57.81,41.16,18.76\C,0,57.47,39.91,19.57\O,0,57.46,38.85,18.94\C,0,58
 .94,40.91,17.76\C,0,58.61,40.13,16.5\C,0,59.63,40.48,15.42\O,0,60.66,3
 9.77,15.34\O,0,59.35,41.3,14.52\H,0,57.24,43.09,19.29\H,0,56.94,41.33,
 18.14\H,0,59.86,40.5,18.18\H,0,59.16,41.93,17.44\H,0,57.64,40.46,16.14
 \H,0,58.6,39.09,16.83\N,0,57.01,39.95,20.82\C,0,56.86,38.75,21.63\H,0,
 55.836,38.384,21.55\H,0,57.548,37.983,21.275\H,0,57.082,38.984,22.671\
 H,0,56.93,40.79,21.37\Ca,0,62.72,38.07,15.69\O,0,64.29,37.02,13.92\H,0
 ,64.23,36.2,13.42\H,0,65.04,37.48,13.54\\Version=ES64L-G16RevA.03\Stat
 e=1-A\HF=-5333.3153738\RMSD=1.089e-09\Dipole=0.7267402,-9.9642949,-8.1
 212328\Quadrupole=-258.0475377,224.3078659,33.7396718,119.4583222,-28.
 552134,252.0644672\PG=C01 [X(C54H83Ca1N15O23)]\\@


 ACHIEVEMENT--  THE MAN WHO ROWS THE BOAT GENERALLY 
                DOESN'T HAVE TIME TO ROCK IT.

                   -- FROM THE BACK OF A SUGAR PACKET
 Job cpu time:       0 days  9 hours  7 minutes 28.9 seconds.
 Elapsed time:       0 days  0 hours 11 minutes 33.9 seconds.
 File lengths (MBytes):  RWF=   1517 Int=      0 D2E=      0 Chk=    171 Scr=      1
 Normal termination of Gaussian 16 at Tue Sep 17 12:46:07 2019.
