 Entering Gaussian System, Link 0=g16
 Initial command:
 /home1/apps/gaussian/16rA.03/g16/l1.exe "/scratch/01990/pengzhi/4345055/Gau-253204.inp" -scrdir="/scratch/01990/pengzhi/4345055/"
 Entering Link 1 = /home1/apps/gaussian/16rA.03/g16/l1.exe PID=    253205.
  
 Copyright (c) 1988,1990,1992,1993,1995,1998,2003,2009,2016,
            Gaussian, Inc.  All Rights Reserved.
  
 This is part of the Gaussian(R) 16 program.  It is based on
 the Gaussian(R) 09 system (copyright 2009, Gaussian, Inc.),
 the Gaussian(R) 03 system (copyright 2003, Gaussian, Inc.),
 the Gaussian(R) 98 system (copyright 1998, Gaussian, Inc.),
 the Gaussian(R) 94 system (copyright 1995, Gaussian, Inc.),
 the Gaussian 92(TM) system (copyright 1992, Gaussian, Inc.),
 the Gaussian 90(TM) system (copyright 1990, Gaussian, Inc.),
 the Gaussian 88(TM) system (copyright 1988, Gaussian, Inc.),
 the Gaussian 86(TM) system (copyright 1986, Carnegie Mellon
 University), and the Gaussian 82(TM) system (copyright 1983,
 Carnegie Mellon University). Gaussian is a federally registered
 trademark of Gaussian, Inc.
  
 This software contains proprietary and confidential information,
 including trade secrets, belonging to Gaussian, Inc.
  
 This software is provided under written license and may be
 used, copied, transmitted, or stored only in accord with that
 written license.
  
 The following legend is applicable only to US Government
 contracts under FAR:
  
                    RESTRICTED RIGHTS LEGEND
  
 Use, reproduction and disclosure by the US Government is
 subject to restrictions as set forth in subparagraphs (a)
 and (c) of the Commercial Computer Software - Restricted
 Rights clause in FAR 52.227-19.
  
 Gaussian, Inc.
 340 Quinnipiac St., Bldg. 40, Wallingford CT 06492
  
  
 ---------------------------------------------------------------
 Warning -- This program may not be used in any manner that
 competes with the business of Gaussian, Inc. or will provide
 assistance to any competitor of Gaussian, Inc.  The licensee
 of this program is prohibited from giving any competitor of
 Gaussian, Inc. access to this program.  By using this program,
 the user acknowledges that Gaussian, Inc. is engaged in the
 business of creating and licensing software in the field of
 computational chemistry and represents and warrants to the
 licensee that it is not a competitor of Gaussian, Inc. and that
 it will not use this program in any manner prohibited above.
 ---------------------------------------------------------------
  

 Cite this work as:
 Gaussian 16, Revision A.03,
 M. J. Frisch, G. W. Trucks, H. B. Schlegel, G. E. Scuseria, 
 M. A. Robb, J. R. Cheeseman, G. Scalmani, V. Barone, 
 G. A. Petersson, H. Nakatsuji, X. Li, M. Caricato, A. V. Marenich, 
 J. Bloino, B. G. Janesko, R. Gomperts, B. Mennucci, H. P. Hratchian, 
 J. V. Ortiz, A. F. Izmaylov, J. L. Sonnenberg, D. Williams-Young, 
 F. Ding, F. Lipparini, F. Egidi, J. Goings, B. Peng, A. Petrone, 
 T. Henderson, D. Ranasinghe, V. G. Zakrzewski, J. Gao, N. Rega, 
 G. Zheng, W. Liang, M. Hada, M. Ehara, K. Toyota, R. Fukuda, 
 J. Hasegawa, M. Ishida, T. Nakajima, Y. Honda, O. Kitao, H. Nakai, 
 T. Vreven, K. Throssell, J. A. Montgomery, Jr., J. E. Peralta, 
 F. Ogliaro, M. J. Bearpark, J. J. Heyd, E. N. Brothers, K. N. Kudin, 
 V. N. Staroverov, T. A. Keith, R. Kobayashi, J. Normand, 
 K. Raghavachari, A. P. Rendell, J. C. Burant, S. S. Iyengar, 
 J. Tomasi, M. Cossi, J. M. Millam, M. Klene, C. Adamo, R. Cammi, 
 J. W. Ochterski, R. L. Martin, K. Morokuma, O. Farkas, 
 J. B. Foresman, and D. J. Fox, Gaussian, Inc., Wallingford CT, 2016.
 
 ******************************************
 Gaussian 16:  ES64L-G16RevA.03 25-Dec-2016
                17-Sep-2019 
 ******************************************
 %chk=Ng-293_loop3_38.0.chk
 %nprocshared=48
 Will use up to   48 processors via shared memory.
 %mem=10GB
 %nosave
 ----------------------------------------------------------------------
 #b3lyp/svp scf=(tight,noincore) Test #IOP(5/87=12) Density=Current Pop
 =(MK,readradii) iop(6/33=2) iop(6/42=6)
 ----------------------------------------------------------------------
 1/30=1,38=1,172=1/1;
 2/12=2,17=6,18=5,40=1/2;
 3/5=18,7=101,11=2,25=1,30=1,74=-5/1,2,3;
 4//1;
 5/5=4,32=2,38=5,87=12/2;
 6/7=2,8=2,9=2,10=2,15=8,20=101,22=-1,28=1,33=2,42=6/1,2;
 99/5=1,9=1/99;
 -----------------
 Ng-293_loop3_38.0
 -----------------
 Symbolic Z-matrix:
 Charge =  0 Multiplicity = 1
 C                     37.64     98.7      88.693 
 C                     37.08     98.97     87.313 
 O                     37.31     98.25     86.343 
 H                     38.527    99.314    88.851 
 H                     36.89     98.946    89.445 
 H                     37.908    97.647    88.777 
 N                     36.41     100.11    87.083 
 C                     36.11     100.72    85.803 
 C                     34.96     99.99     85.143 
 O                     33.93     99.62     85.703 
 C                     35.99     102.22    86.083 
 C                     35.96     103.11    84.853 
 O                     36.06     102.57    83.733 
 O                     35.77     104.35    84.923 
 H                     36.07     100.54    87.923 
 H                     36.94     100.5     85.133 
 H                     36.92     102.49    86.593 
 H                     35.12     102.46    86.673 
 N                     35.28     99.59     83.903 
 C                     34.52     98.72     83.033 
 C                     33.03     99.04     82.973 
 O                     32.6      99.75     82.063 
 C                     34.81     97.27     83.403 
 C                     34.67     96.27     82.263 
 C                     33.33     95.88     81.653 
 C                     33.5      94.76     80.623 
 N                     32.21     94.42     80.003 
 H                     36.16     99.96     83.573 
 H                     34.81     98.98     82.023 
 H                     34.29     96.96     84.313 
 H                     35.89     97.18     83.573 
 H                     35.19     95.35     82.533 
 H                     35.23     96.65     81.403 
 H                     32.85     96.75     81.183 
 H                     32.63     95.67     82.453 
 H                     33.89     93.9      81.163 
 H                     34.21     95.07     79.863 
 H                     31.81     95.18     79.483 
 H                     32.31     93.67     79.333 
 H                     31.44     94.11     80.583 
 N                     32.21     98.4      83.803 
 C                     30.76     98.44     83.863 
 C                     30.17     99.76     84.333 
 O                     30.66     100.39    85.273 
 C                     30.27     97.45     84.923 
 C                     28.78     97.14     84.973 
 O                     28.2      96.56     85.913 
 O                     28.06     97.39     83.983 
 H                     32.72     98.01     84.583 
 H                     30.3      98.09     82.933 
 H                     30.59     97.81     85.893 
 H                     30.86     96.54     84.793 
 N                     29.25     100.27    83.513 
 C                     28.45     101.43    83.833 
 C                     27.33     101.19    84.843 
 O                     26.75     100.1     84.803 
 H                     28.98     99.69     82.733 
 H                     27.92     101.73    82.933 
 H                     29.15     102.23    84.083 
 N                     27.1      102.1     85.783 
 C                     26.11     101.94    86.823 
 C                     25.4      103.25    87.103 
 O                     24.37     103.3     87.783 
 C                     26.82     101.48    88.103 
 C                     27.44     100.12    87.833 
 N                     28.77     100.01    87.813 
 O                     26.81     99.07     87.713 
 H                     27.6      102.98    85.723 
 H                     25.35     101.23    86.513 
 H                     26.08     101.46    88.903 
 H                     27.48     102.27    88.463 
 H                     29.28     100.88    87.903 
 H                     29.2      99.11     87.893 
 N                     25.71     104.31    86.353 
 C                     24.94     105.53    86.393 
 C                     24.77     106.2     87.743 
 O                     25.74     106.34    88.493 
 H                     26.5      104.35    85.723 
 H                     23.92     105.23    86.123 
 H                     25.37     106.17    85.613 
 N                     23.6      106.72    88.103 
 C                     23.31     107.27    89.413 
 C                     23.46     106.31    90.583 
 O                     23.31     106.74    91.723 
 C                     23.97     108.63    89.633 
 C                     23.87     109.59    88.473 
 C                     25.03     109.83    87.723 
 C                     22.75     110.41    88.283 
 C                     25.07     110.83    86.743 
 C                     22.72     111.25    87.163 
 C                     23.89     111.53    86.433 
 O                     23.72     112.38    85.373 
 H                     22.75     106.68    87.563 
 H                     22.25     107.5     89.283 
 H                     25.03     108.63    89.903 
 H                     23.45     109.09    90.473 
 H                     25.96     109.29    87.793 
 H                     21.86     110.22    88.843 
 H                     25.93     111.1     86.153 
 H                     21.78     111.75    86.953 
 H                     22.83     112.73    85.443 
 N                     23.77     105.04    90.303 
 C                     23.82     103.87    91.143 
 C                     22.43     103.44    91.613 
 O                     22.16     102.24    91.633 
 C                     24.9      103.95    92.213 
 C                     26.22     104.56    91.723 
 C                     25.12     102.6     92.883 
 C                     27.43     104.77    92.633 
 H                     23.81     104.82    89.313 
 H                     24.11     103.05    90.483 
 H                     24.5      104.56    93.023 
 H                     25.97     105.61    91.613 
 H                     26.55     104.08    90.803 
 H                     25.52     101.93    92.123 
 H                     25.9      102.55    93.643 
 H                     24.22     102.15    93.303 
 H                     27.01     104.98    93.613 
 H                     28.11     103.93    92.683 
 H                     28.       105.66    92.353 
 N                     21.65     104.43    92.043 
 C                     20.29     104.26    92.503 
 C                     19.95     103.09    93.413 
 O                     18.81     102.64    93.383 
 C                     19.77     105.59    93.053 
 O                     20.       106.7     92.203 
 H                     22.05     105.36    92.063 
 H                     19.78     104.23    91.543 
 H                     20.45     105.7     93.893 
 H                     18.75     105.53    93.413 
 H                     19.98     107.53    92.673 
 N                     20.89     102.67    94.273 
 C                     20.75     101.55    95.193 
 C                     20.28     100.34    94.403 
 O                     19.32     99.67     94.813 
 C                     19.85     101.92    96.373 
 H                     21.81     103.08    94.233 
 H                     21.75     101.28    95.513 
 H                     19.71     101.11    97.093 
 H                     20.2      102.76    96.973 
 H                     18.9      102.24    95.943 
 N                     21.04     100.07    93.353 
 C                     20.9      98.88     92.533 
 C                     22.19     98.11     92.293 
 O                     23.31     98.6      92.423 
 C                     20.26     99.34     91.223 
 H                     21.72     100.77    93.103 
 H                     20.19     98.24     93.063 
 H                     19.94     98.43     90.703 
 H                     19.38     99.97     91.273 
 H                     20.95     99.91     90.603 
 N                     22.08     96.85     91.883 
 C                     23.16     95.9      91.713 
 C                     23.97     95.71     92.993 
 O                     25.17     95.46     93.013 
 C                     23.97     96.27     90.473 
 C                     23.23     95.91     89.193 
 C                     24.12     96.35     88.053 
 O                     24.02     97.48     87.533 
 O                     24.9      95.49     87.573 
 H                     21.14     96.53     91.723 
 H                     22.77     94.92     91.453 
 H                     24.84     95.61     90.493 
 H                     24.3      97.3      90.563 
 H                     22.27     96.41     89.063 
 H                     23.03     94.83     89.173 
 N                     23.29     95.72     94.143 
 C                     23.87     95.64     95.473 
 H                     24.76     96.267    95.519 
 H                     23.144    95.987    96.208 
 H                     24.142    94.607    95.69 
 H                     22.34     96.01     93.993 
 Ca                    25.74     97.51     85.51 
 O                     25.69     95.2      84.19 
 H                     25.79     94.41     84.73 
 H                     25.44     94.87     83.33 
 
 Stoichiometry    C54H83CaN15O23
 Framework group  C1[X(C54H83CaN15O23)]
 Deg. of freedom   522
 Full point group                 C1      NOp   1
 Largest Abelian subgroup         C1      NOp   1
 Largest concise Abelian subgroup C1      NOp   1
                         Standard orientation:                         
 ---------------------------------------------------------------------
 Center     Atomic      Atomic             Coordinates (Angstroms)
 Number     Number       Type             X           Y           Z
 ---------------------------------------------------------------------
      1          6           0        9.073576   -0.115060    6.503758
      2          6           0        9.269583    0.398411    5.093500
      3          8           0       10.200968    0.042954    4.373519
      4          1           0        9.477396    0.608324    7.212542
      5          1           0        8.009658   -0.255718    6.695624
      6          1           0        9.593276   -1.065895    6.620012
      7          7           0        8.483024    1.383928    4.633629
      8          6           0        8.715366    2.244366    3.490754
      9          6           0        8.408578    1.494381    2.212316
     10          8           0        7.433864    0.769537    2.022750
     11          6           0        7.969826    3.544922    3.799823
     12          6           0        8.292763    4.712178    2.883785
     13          8           0        9.140723    4.538563    1.985552
     14          8           0        7.690254    5.812328    2.956254
     15          1           0        7.631489    1.480065    5.154922
     16          1           0        9.790016    2.404004    3.414320
     17          1           0        8.338178    3.858133    4.781717
     18          1           0        6.899184    3.417485    3.790542
     19          7           0        9.444417    1.532768    1.360516
     20          6           0        9.599870    0.794479    0.126756
     21          6           0        8.358953    0.787471   -0.759908
     22          8           0        8.261744    1.610851   -1.670785
     23          6           0       10.120175   -0.602417    0.445292
     24          6           0       10.945803   -1.253147   -0.656565
     25          6           0       10.349834   -1.739920   -1.970975
     26          6           0       11.400411   -2.466208   -2.815364
     27          7           0       10.831955   -2.892563   -4.103456
     28          1           0       10.181105    2.161379    1.647463
     29          1           0       10.269417    1.380478   -0.489777
     30          1           0        9.340167   -1.257411    0.841739
     31          1           0       10.905442   -0.499501    1.204346
     32          1           0       11.520078   -2.076338   -0.229638
     33          1           0       11.707272   -0.537799   -0.982205
     34          1           0        9.928668   -0.899469   -2.540589
     35          1           0        9.453230   -2.309883   -1.758034
     36          1           0       11.711103   -3.336205   -2.241016
     37          1           0       12.250182   -1.811546   -2.980007
     38          1           0       10.536592   -2.123882   -4.677817
     39          1           0       11.514287   -3.387382   -4.661108
     40          1           0       10.029796   -3.510387   -4.118746
     41          7           0        7.497474   -0.219343   -0.637112
     42          6           0        6.319028   -0.513013   -1.432551
     43          6           0        5.166883    0.464487   -1.263865
     44          8           0        4.844366    0.900168   -0.156271
     45          6           0        5.712512   -1.839581   -0.967625
     46          6           0        4.625814   -2.466787   -1.830412
     47          8           0        3.873999   -3.395846   -1.472609
     48          8           0        4.498694   -2.114750   -3.022432
     49          1           0        7.617808   -0.689821    0.248761
     50          1           0        6.565533   -0.682852   -2.485826
     51          1           0        5.332199   -1.701824    0.037006
     52          1           0        6.548174   -2.527448   -0.820634
     53          7           0        4.706673    0.969446   -2.409345
     54          6           0        3.522967    1.793168   -2.500574
     55          6           0        2.197871    1.045868   -2.367297
     56          8           0        2.132238   -0.089186   -2.850458
     57          1           0        5.100330    0.583975   -3.254416
     58          1           0        3.480291    2.208293   -3.503944
     59          1           0        3.669715    2.624625   -1.808011
     60          7           0        1.218308    1.587490   -1.651963
     61          6           0       -0.047837    0.934965   -1.410323
     62          6           0       -1.190657    1.929697   -1.465727
     63          8           0       -2.369700    1.564776   -1.515630
     64          6           0       -0.010148    0.303866   -0.012326
     65          6           0        1.073891   -0.759960   -0.006629
     66          7           0        2.161082   -0.568922    0.743652
     67          8           0        0.997720   -1.846260   -0.579299
     68          1           0        1.344571    2.536309   -1.317599
     69          1           0       -0.240265    0.191358   -2.177017
     70          1           0       -1.001951   -0.096915    0.196721
     71          1           0        0.050937    1.086823    0.744343
     72          1           0        2.219765    0.331163    1.203546
     73          1           0        2.758038   -1.340291    0.967108
     74          7           0       -0.911177    3.196897   -1.779251
     75          6           0       -1.944598    4.160835   -2.072107
     76          6           0       -3.011788    4.377261   -1.016377
     77          8           0       -2.694445    4.510989    0.168701
     78          1           0        0.023718    3.580163   -1.820206
     79          1           0       -2.499229    3.733554   -2.916568
     80          1           0       -1.414241    5.069214   -2.382703
     81          7           0       -4.290387    4.510558   -1.357428
     82          6           0       -5.390002    4.599704   -0.416365
     83          6           0       -5.564076    3.409567    0.514372
     84          8           0       -6.424610    3.463829    1.388178
     85          6           0       -5.447196    5.955003    0.286128
     86          6           0       -5.239287    7.153215   -0.607326
     87          6           0       -4.019443    7.837184   -0.507986
     88          6           0       -6.290948    7.730505   -1.330960
     89          6           0       -3.810069    9.053355   -1.170625
     90          6           0       -6.008946    8.820492   -2.163608
     91          6           0       -4.805246    9.538534   -2.038222
     92          8           0       -4.667553   10.590900   -2.903419
     93          1           0       -4.657839    4.438307   -2.293087
     94          1           0       -6.227745    4.621100   -1.117170
     95          1           0       -4.760353    6.110134    1.123195
     96          1           0       -6.449533    6.040181    0.705251
     97          1           0       -3.147511    7.514023    0.036716
     98          1           0       -7.216787    7.204522   -1.420197
     99          1           0       -2.918846    9.656026   -1.114862
    100          1           0       -6.801725    9.142814   -2.830923
    101          1           0       -5.517798   10.706108   -3.331566
    102          7           0       -4.747400    2.365520    0.339997
    103          6           0       -4.755708    1.048508    0.925155
    104          6           0       -5.944392    0.214343    0.446513
    105          8           0       -5.762187   -0.973060    0.181608
    106          6           0       -4.500215    1.061306    2.425908
    107          6           0       -3.416314    2.054323    2.865996
    108          6           0       -4.225803   -0.340249    2.955193
    109          6           0       -3.018927    2.261320    4.327343
    110          1           0       -4.122275    2.442436   -0.455869
    111          1           0       -3.906548    0.526603    0.479462
    112          1           0       -5.443466    1.321233    2.906445
    113          1           0       -3.907281    3.013454    2.739035
    114          1           0       -2.513766    1.931369    2.269348
    115          1           0       -3.288618   -0.670188    2.508736
    116          1           0       -3.998306   -0.428356    4.017729
    117          1           0       -4.998464   -1.073010    2.720769
    118          1           0       -3.932486    2.095393    4.891947
    119          1           0       -2.230979    1.608648    4.678991
    120          1           0       -2.725791    3.295611    4.526622
    121          7           0       -7.113023    0.852803    0.438054
    122          6           0       -8.360488    0.271297   -0.004416
    123          6           0       -8.710420   -1.149690    0.409037
    124          8           0       -9.434405   -1.809880   -0.327845
    125          6           0       -9.503284    1.251185    0.270603
    126          8           0       -9.250658    2.575532   -0.165040
    127          1           0       -7.123761    1.804582    0.783456
    128          1           0       -8.244988    0.398469   -1.078235
    129          1           0       -9.449802    1.269006    1.355463
    130          1           0      -10.469472    0.874087   -0.042253
    131          1           0       -9.792354    3.217979    0.286652
    132          7           0       -8.285862   -1.577142    1.607634
    133          6           0       -8.501526   -2.910715    2.151206
    134          6           0       -8.046981   -3.926530    1.116504
    135          8           0       -8.787270   -4.875475    0.816377
    136          6           0       -9.949159   -3.086367    2.612513
    137          1           0       -7.683638   -0.982726    2.155445
    138          1           0       -7.796992   -3.035188    2.965724
    139          1           0      -10.164113   -4.074364    3.026948
    140          1           0      -10.273248   -2.390310    3.386188
    141          1           0      -10.573672   -2.873781    1.743842
    142          7           0       -6.810696   -3.723639    0.688213
    143          6           0       -6.089163   -4.640849   -0.175626
    144          6           0       -4.695650   -5.015374    0.306506
    145          8           0       -4.053266   -4.349774    1.116271
    146          6           0       -6.056380   -3.986259   -1.556835
    147          1           0       -6.383393   -2.851654    0.956457
    148          1           0       -6.707129   -5.540721   -0.229930
    149          1           0       -5.727293   -4.763490   -2.255772
    150          1           0       -6.982519   -3.601239   -1.966499
    151          1           0       -5.383238   -3.131326   -1.593832
    152          7           0       -4.142397   -6.105152   -0.217035
    153          6           0       -2.889233   -6.713107    0.180169
    154          6           0       -2.864221   -7.069773    1.664340
    155          8           0       -1.852550   -7.049061    2.356433
    156          6           0       -1.729440   -5.847656   -0.306117
    157          6           0       -1.514671   -5.990654   -1.805792
    158          6           0       -0.368402   -5.070020   -2.157646
    159          8           0       -0.553747   -3.889920   -2.518630
    160          8           0        0.782741   -5.572942   -2.176085
    161          1           0       -4.685521   -6.564268   -0.928251
    162          1           0       -2.727834   -7.643053   -0.357651
    163          1           0       -0.837779   -6.282314    0.150954
    164          1           0       -1.865301   -4.836837    0.064947
    165          1           0       -2.365091   -5.694826   -2.420423
    166          1           0       -1.297119   -7.039467   -2.049643
    167          7           0       -4.002995   -7.526390    2.193203
    168          6           0       -4.221043   -7.843819    3.594415
    169          1           0       -3.760443   -7.076598    4.216157
    170          1           0       -5.291258   -7.880019    3.796997
    171          1           0       -3.774782   -8.811899    3.822089
    172          1           0       -4.764436   -7.419432    1.546777
    173         20           0        1.842945   -2.928514   -3.137820
    174          8           0        3.274224   -4.736145   -4.466319
    175          1           0        3.334665   -5.603516   -4.054354
    176          1           0        3.641403   -4.861102   -5.338423
 ---------------------------------------------------------------------
 Rotational constants (GHZ):           0.0176440           0.0086075           0.0068245
 Standard basis: SVP (5D, 7F)
 There are  1809 symmetry adapted cartesian basis functions of A   symmetry.
 There are  1717 symmetry adapted basis functions of A   symmetry.
  1717 basis functions,  2922 primitive gaussians,  1809 cartesian basis functions
   358 alpha electrons      358 beta electrons
       nuclear repulsion energy     18751.3603560538 Hartrees.
 NAtoms=  176 NActive=  176 NUniq=  176 SFac= 1.00D+00 NAtFMM=   60 NAOKFM=T Big=T
 Integral buffers will be    131072 words long.
 Raffenetti 2 integral format.
 Two-electron integral symmetry is turned on.
 One-electron integrals computed using PRISM.
 NBasis=  1717 RedAO= T EigKep=  3.24D-04  NBF=  1717
 NBsUse=  1717 1.00D-06 EigRej= -1.00D+00 NBFU=  1717
 ExpMin= 1.98D-02 ExpMax= 3.51D+04 ExpMxC= 5.28D+03 IAcc=3 IRadAn=         5 AccDes= 0.00D+00
 Harris functional with IExCor=  402 and IRadAn=       5 diagonalized for initial guess.
 HarFok:  IExCor=  402 AccDes= 0.00D+00 IRadAn=         5 IDoV= 1 UseB2=F ITyADJ=14
 ICtDFT=  3500011 ScaDFX=  1.000000  1.000000  1.000000  1.000000
 FoFCou: FMM=F IPFlag=           0 FMFlag=      100000 FMFlg1=        2001
         NFxFlg=           0 DoJE=T BraDBF=F KetDBF=T FulRan=T
         wScrn=  0.000000 ICntrl=       500 IOpCl=  0 I1Cent=   200000004 NGrid=           0
         NMat0=    1 NMatS0=      1 NMatT0=    0 NMatD0=    1 NMtDS0=    0 NMtDT0=    0
 Petite list used in FoFCou.
 Requested convergence on RMS density matrix=1.00D-08 within 128 cycles.
 Requested convergence on MAX density matrix=1.00D-06.
 Requested convergence on             energy=1.00D-06.
 No special actions if energy rises.
 EnCoef did     3 forward-backward iterations
 EnCoef did     2 forward-backward iterations
 EnCoef did     3 forward-backward iterations
 EnCoef did     2 forward-backward iterations
 EnCoef did     9 forward-backward iterations
 EnCoef did   100 forward-backward iterations
 EnCoef did     5 forward-backward iterations
 Rare condition: small coef for last iteration:  0.000D+00
 EnCoef did   100 forward-backward iterations
 Rare condition: small coef for last iteration:  0.000D+00
 EnCoef did   100 forward-backward iterations
 EnCoef did     5 forward-backward iterations
 Restarting incremental Fock formation.
 SCF Done:  E(RB3LYP) =  -5333.38310487     A.U. after   28 cycles
            NFock= 28  Conv=0.66D-09     -V/T= 2.0081
 SCF density gives NOpUse=  1 NOpAll=  1.
 Hyperfine terms turned off by default for NAtoms > 100.

 **********************************************************************

            Population analysis using the SCF density.

 **********************************************************************

 Orbital symmetries:
 BldTbl:  Degeneracy threshold= 1.00D-02
       Occupied  (A) (A) (A) (A) (A) (A) (A) (A) (A) (A) (A) (A)
                 (A) (A) (A) (A) (A) (A) (A) (A) (A) (A) (A) (A)
                 (A) (A) (A) (A) (A) (A) (A) (A) (A) (A) (A) (A)
                 (A) (A) (A) (A) (A) (A) (A) (A) (A) (A) (A) (A)
                 (A) (A) (A) (A) (A) (A) (A) (A) (A) (A) (A) (A)
                 (A) (A) (A) (A) (A) (A) (A) (A) (A) (A) (A) (A)
                 (A) (A) (A) (A) (A) (A) (A) (A) (A) (A) (A) (A)
                 (A) (A) (A) (A) (A) (A) (A) (A) (A) (A) (A) (A)
                 (A) (A) (A) (A) (A) (A) (A) (A) (A) (A) (A) (A)
                 (A) (A) (A) (A) (A) (A) (A) (A) (A) (A) (A) (A)
                 (A) (A) (A) (A) (A) (A) (A) (A) (A) (A) (A) (A)
                 (A) (A) (A) (A) (A) (A) (A) (A) (A) (A) (A) (A)
                 (A) (A) (A) (A) (A) (A) (A) (A) (A) (A) (A) (A)
                 (A) (A) (A) (A) (A) (A) (A) (A) (A) (A) (A) (A)
                 (A) (A) (A) (A) (A) (A) (A) (A) (A) (A) (A) (A)
                 (A) (A) (A) (A) (A) (A) (A) (A) (A) (A) (A) (A)
                 (A) (A) (A) (A) (A) (A) (A) (A) (A) (A) (A) (A)
                 (A) (A) (A) (A) (A) (A) (A) (A) (A) (A) (A) (A)
                 (A) (A) (A) (A) (A) (A) (A) (A) (A) (A) (A) (A)
                 (A) (A) (A) (A) (A) (A) (A) (A) (A) (A) (A) (A)
                 (A) (A) (A) (A) (A) (A) (A) (A) (A) (A) (A) (A)
                 (A) (A) (A) (A) (A) (A) (A) (A) (A) (A) (A) (A)
                 (A) (A) (A) (A) (A) (A) (A) (A) (A) (A) (A) (A)
                 (A) (A) (A) (A) (A) (A) (A) (A) (A) (A) (A) (A)
                 (A) (A) (A) (A) (A) (A) (A) (A) (A) (A) (A) (A)
                 (A) (A) (A) (A) (A) (A) (A) (A) (A) (A) (A) (A)
                 (A) (A) (A) (A) (A) (A) (A) (A) (A) (A) (A) (A)
                 (A) (A) (A) (A) (A) (A) (A) (A) (A) (A) (A) (A)
                 (A) (A) (A) (A) (A) (A) (A) (A) (A) (A) (A) (A)
                 (A) (A) (A) (A) (A) (A) (A) (A) (A) (A)
       Virtual   (A) (A) (A) (A) (A) (A) (A) (A) (A) (A) (A) (A)
                 (A) (A) (A) (A) (A) (A) (A) (A) (A) (A) (A) (A)
                 (A) (A) (A) (A) (A) (A) (A) (A) (A) (A) (A) (A)
                 (A) (A) (A) (A) (A) (A) (A) (A) (A) (A) (A) (A)
                 (A) (A) (A) (A) (A) (A) (A) (A) (A) (A) (A) (A)
                 (A) (A) (A) (A) (A) (A) (A) (A) (A) (A) (A) (A)
                 (A) (A) (A) (A) (A) (A) (A) (A) (A) (A) (A) (A)
                 (A) (A) (A) (A) (A) (A) (A) (A) (A) (A) (A) (A)
                 (A) (A) (A) (A) (A) (A) (A) (A) (A) (A) (A) (A)
                 (A) (A) (A) (A) (A) (A) (A) (A) (A) (A) (A) (A)
                 (A) (A) (A) (A) (A) (A) (A) (A) (A) (A) (A) (A)
                 (A) (A) (A) (A) (A) (A) (A) (A) (A) (A) (A) (A)
                 (A) (A) (A) (A) (A) (A) (A) (A) (A) (A) (A) (A)
                 (A) (A) (A) (A) (A) (A) (A) (A) (A) (A) (A) (A)
                 (A) (A) (A) (A) (A) (A) (A) (A) (A) (A) (A) (A)
                 (A) (A) (A) (A) (A) (A) (A) (A) (A) (A) (A) (A)
                 (A) (A) (A) (A) (A) (A) (A) (A) (A) (A) (A) (A)
                 (A) (A) (A) (A) (A) (A) (A) (A) (A) (A) (A) (A)
                 (A) (A) (A) (A) (A) (A) (A) (A) (A) (A) (A) (A)
                 (A) (A) (A) (A) (A) (A) (A) (A) (A) (A) (A) (A)
                 (A) (A) (A) (A) (A) (A) (A) (A) (A) (A) (A) (A)
                 (A) (A) (A) (A) (A) (A) (A) (A) (A) (A) (A) (A)
                 (A) (A) (A) (A) (A) (A) (A) (A) (A) (A) (A) (A)
                 (A) (A) (A) (A) (A) (A) (A) (A) (A) (A) (A) (A)
                 (A) (A) (A) (A) (A) (A) (A) (A) (A) (A) (A) (A)
                 (A) (A) (A) (A) (A) (A) (A) (A) (A) (A) (A) (A)
                 (A) (A) (A) (A) (A) (A) (A) (A) (A) (A) (A) (A)
                 (A) (A) (A) (A) (A) (A) (A) (A) (A) (A) (A) (A)
                 (A) (A) (A) (A) (A) (A) (A) (A) (A) (A) (A) (A)
                 (A) (A) (A) (A) (A) (A) (A) (A) (A) (A) (A) (A)
                 (A) (A) (A) (A) (A) (A) (A) (A) (A) (A) (A) (A)
                 (A) (A) (A) (A) (A) (A) (A) (A) (A) (A) (A) (A)
                 (A) (A) (A) (A) (A) (A) (A) (A) (A) (A) (A) (A)
                 (A) (A) (A) (A) (A) (A) (A) (A) (A) (A) (A) (A)
                 (A) (A) (A) (A) (A) (A) (A) (A) (A) (A) (A) (A)
                 (A) (A) (A) (A) (A) (A) (A) (A) (A) (A) (A) (A)
                 (A) (A) (A) (A) (A) (A) (A) (A) (A) (A) (A) (A)
                 (A) (A) (A) (A) (A) (A) (A) (A) (A) (A) (A) (A)
                 (A) (A) (A) (A) (A) (A) (A) (A) (A) (A) (A) (A)
                 (A) (A) (A) (A) (A) (A) (A) (A) (A) (A) (A) (A)
                 (A) (A) (A) (A) (A) (A) (A) (A) (A) (A) (A) (A)
                 (A) (A) (A) (A) (A) (A) (A) (A) (A) (A) (A) (A)
                 (A) (A) (A) (A) (A) (A) (A) (A) (A) (A) (A) (A)
                 (A) (A) (A) (A) (A) (A) (A) (A) (A) (A) (A) (A)
                 (A) (A) (A) (A) (A) (A) (A) (A) (A) (A) (A) (A)
                 (A) (A) (A) (A) (A) (A) (A) (A) (A) (A) (A) (A)
                 (A) (A) (A) (A) (A) (A) (A) (A) (A) (A) (A) (A)
                 (A) (A) (A) (A) (A) (A) (A) (A) (A) (A) (A) (A)
                 (A) (A) (A) (A) (A) (A) (A) (A) (A) (A) (A) (A)
                 (A) (A) (A) (A) (A) (A) (A) (A) (A) (A) (A) (A)
                 (A) (A) (A) (A) (A) (A) (A) (A) (A) (A) (A) (A)
                 (A) (A) (A) (A) (A) (A) (A) (A) (A) (A) (A) (A)
                 (A) (A) (A) (A) (A) (A) (A) (A) (A) (A) (A) (A)
                 (A) (A) (A) (A) (A) (A) (A) (A) (A) (A) (A) (A)
                 (A) (A) (A) (A) (A) (A) (A) (A) (A) (A) (A) (A)
                 (A) (A) (A) (A) (A) (A) (A) (A) (A) (A) (A) (A)
                 (A) (A) (A) (A) (A) (A) (A) (A) (A) (A) (A) (A)
                 (A) (A) (A) (A) (A) (A) (A) (A) (A) (A) (A) (A)
                 (A) (A) (A) (A) (A) (A) (A) (A) (A) (A) (A) (A)
                 (A) (A) (A) (A) (A) (A) (A) (A) (A) (A) (A) (A)
                 (A) (A) (A) (A) (A) (A) (A) (A) (A) (A) (A) (A)
                 (A) (A) (A) (A) (A) (A) (A) (A) (A) (A) (A) (A)
                 (A) (A) (A) (A) (A) (A) (A) (A) (A) (A) (A) (A)
                 (A) (A) (A) (A) (A) (A) (A) (A) (A) (A) (A) (A)
                 (A) (A) (A) (A) (A) (A) (A) (A) (A) (A) (A) (A)
                 (A) (A) (A) (A) (A) (A) (A) (A) (A) (A) (A) (A)
                 (A) (A) (A) (A) (A) (A) (A) (A) (A) (A) (A) (A)
                 (A) (A) (A) (A) (A) (A) (A) (A) (A) (A) (A) (A)
                 (A) (A) (A) (A) (A) (A) (A) (A) (A) (A) (A) (A)
                 (A) (A) (A) (A) (A) (A) (A) (A) (A) (A) (A) (A)
                 (A) (A) (A) (A) (A) (A) (A) (A) (A) (A) (A) (A)
                 (A) (A) (A) (A) (A) (A) (A) (A) (A) (A) (A) (A)
                 (A) (A) (A) (A) (A) (A) (A) (A) (A) (A) (A) (A)
                 (A) (A) (A) (A) (A) (A) (A) (A) (A) (A) (A) (A)
                 (A) (A) (A) (A) (A) (A) (A) (A) (A) (A) (A) (A)
                 (A) (A) (A) (A) (A) (A) (A) (A) (A) (A) (A) (A)
                 (A) (A) (A) (A) (A) (A) (A) (A) (A) (A) (A) (A)
                 (A) (A) (A) (A) (A) (A) (A) (A) (A) (A) (A) (A)
                 (A) (A) (A) (A) (A) (A) (A) (A) (A) (A) (A) (A)
                 (A) (A) (A) (A) (A) (A) (A) (A) (A) (A) (A) (A)
                 (A) (A) (A) (A) (A) (A) (A) (A) (A) (A) (A) (A)
                 (A) (A) (A) (A) (A) (A) (A) (A) (A) (A) (A) (A)
                 (A) (A) (A) (A) (A) (A) (A) (A) (A) (A) (A) (A)
                 (A) (A) (A) (A) (A) (A) (A) (A) (A) (A) (A) (A)
                 (A) (A) (A) (A) (A) (A) (A) (A) (A) (A) (A) (A)
                 (A) (A) (A) (A) (A) (A) (A) (A) (A) (A) (A) (A)
                 (A) (A) (A) (A) (A) (A) (A) (A) (A) (A) (A) (A)
                 (A) (A) (A) (A) (A) (A) (A) (A) (A) (A) (A) (A)
                 (A) (A) (A) (A) (A) (A) (A) (A) (A) (A) (A) (A)
                 (A) (A) (A) (A) (A) (A) (A) (A) (A) (A) (A) (A)
                 (A) (A) (A) (A) (A) (A) (A) (A) (A) (A) (A) (A)
                 (A) (A) (A) (A) (A) (A) (A) (A) (A) (A) (A) (A)
                 (A) (A) (A) (A) (A) (A) (A) (A) (A) (A) (A) (A)
                 (A) (A) (A) (A) (A) (A) (A) (A) (A) (A) (A) (A)
                 (A) (A) (A) (A) (A) (A) (A) (A) (A) (A) (A) (A)
                 (A) (A) (A) (A) (A) (A) (A) (A) (A) (A) (A) (A)
                 (A) (A) (A) (A) (A) (A) (A) (A) (A) (A) (A) (A)
                 (A) (A) (A) (A) (A) (A) (A) (A) (A) (A) (A) (A)
                 (A) (A) (A) (A) (A) (A) (A) (A) (A) (A) (A) (A)
                 (A) (A) (A) (A) (A) (A) (A) (A) (A) (A) (A) (A)
                 (A) (A) (A) (A) (A) (A) (A) (A) (A) (A) (A) (A)
                 (A) (A) (A) (A) (A) (A) (A) (A) (A) (A) (A) (A)
                 (A) (A) (A) (A) (A) (A) (A) (A) (A) (A) (A) (A)
                 (A) (A) (A) (A) (A) (A) (A) (A) (A) (A) (A) (A)
                 (A) (A) (A) (A) (A) (A) (A) (A) (A) (A) (A) (A)
                 (A) (A) (A) (A) (A) (A) (A) (A) (A) (A) (A) (A)
                 (A) (A) (A) (A) (A) (A) (A) (A) (A) (A) (A) (A)
                 (A) (A) (A) (A) (A) (A) (A) (A) (A) (A) (A) (A)
                 (A) (A) (A) (A) (A) (A) (A) (A) (A) (A) (A) (A)
                 (A) (A) (A) (A) (A) (A) (A) (A) (A) (A) (A) (A)
                 (A) (A) (A) (A) (A) (A) (A) (A) (A) (A) (A) (A)
                 (A) (A) (A) (A) (A) (A) (A) (A) (A) (A) (A) (A)
                 (A) (A) (A) (A) (A) (A) (A) (A) (A) (A) (A) (A)
                 (A) (A) (A)
 The electronic state is 1-A.
 Alpha  occ. eigenvalues -- -145.41746 -19.18314 -19.16881 -19.14683 -19.14223
 Alpha  occ. eigenvalues --  -19.14179 -19.11525 -19.10933 -19.10290 -19.10129
 Alpha  occ. eigenvalues --  -19.09175 -19.09099 -19.08175 -19.08032 -19.06730
 Alpha  occ. eigenvalues --  -19.06231 -19.05979 -19.05683 -19.05590 -19.04987
 Alpha  occ. eigenvalues --  -19.04098 -19.02517 -18.96609 -18.95907 -15.47520
 Alpha  occ. eigenvalues --  -14.56795 -14.41095 -14.40653 -14.38295 -14.35909
 Alpha  occ. eigenvalues --  -14.35693 -14.35439 -14.35299 -14.35240 -14.34681
 Alpha  occ. eigenvalues --  -14.34243 -14.32642 -14.32446 -14.31606 -14.31101
 Alpha  occ. eigenvalues --  -12.61143 -12.61111 -12.61048 -10.34238 -10.33286
 Alpha  occ. eigenvalues --  -10.32920 -10.31046 -10.29905 -10.29620 -10.28429
 Alpha  occ. eigenvalues --  -10.28370 -10.27968 -10.27628 -10.27098 -10.26980
 Alpha  occ. eigenvalues --  -10.26907 -10.25834 -10.25744 -10.25741 -10.25555
 Alpha  occ. eigenvalues --  -10.25367 -10.25299 -10.25161 -10.24801 -10.24523
 Alpha  occ. eigenvalues --  -10.24167 -10.23255 -10.23148 -10.22978 -10.22793
 Alpha  occ. eigenvalues --  -10.22620 -10.22482 -10.22354 -10.22240 -10.21893
 Alpha  occ. eigenvalues --  -10.21419 -10.20491 -10.20208 -10.20052 -10.19838
 Alpha  occ. eigenvalues --  -10.19804 -10.19797 -10.19594 -10.19328 -10.18704
 Alpha  occ. eigenvalues --  -10.18625 -10.18477 -10.17279 -10.17024 -10.16769
 Alpha  occ. eigenvalues --  -10.16441 -10.16380 -10.16241 -10.16159 -10.14610
 Alpha  occ. eigenvalues --  -10.14596 -10.12357  -1.84062  -1.12362  -1.11579
 Alpha  occ. eigenvalues --   -1.11388  -1.10904  -1.07916  -1.07077  -1.05731
 Alpha  occ. eigenvalues --   -1.05182  -1.04240  -1.04049  -1.03352  -1.03092
 Alpha  occ. eigenvalues --   -1.02183  -1.02035  -1.01920  -1.01663  -1.01154
 Alpha  occ. eigenvalues --   -1.01022  -0.99442  -0.99243  -0.98992  -0.98322
 Alpha  occ. eigenvalues --   -0.98245  -0.98034  -0.95946  -0.94908  -0.93393
 Alpha  occ. eigenvalues --   -0.92495  -0.92416  -0.91749  -0.91368  -0.91121
 Alpha  occ. eigenvalues --   -0.91016  -0.90109  -0.89585  -0.89359  -0.89281
 Alpha  occ. eigenvalues --   -0.88562  -0.87846  -0.87718  -0.87433  -0.85743
 Alpha  occ. eigenvalues --   -0.83086  -0.81141  -0.81050  -0.80371  -0.79923
 Alpha  occ. eigenvalues --   -0.78606  -0.78351  -0.77618  -0.77160  -0.75692
 Alpha  occ. eigenvalues --   -0.75548  -0.75256  -0.74908  -0.74406  -0.73649
 Alpha  occ. eigenvalues --   -0.73494  -0.73120  -0.71231  -0.71046  -0.70653
 Alpha  occ. eigenvalues --   -0.70497  -0.69920  -0.69181  -0.67816  -0.67420
 Alpha  occ. eigenvalues --   -0.67112  -0.66018  -0.65747  -0.65323  -0.64713
 Alpha  occ. eigenvalues --   -0.64071  -0.63202  -0.63169  -0.63027  -0.62739
 Alpha  occ. eigenvalues --   -0.62221  -0.62084  -0.61206  -0.60837  -0.60384
 Alpha  occ. eigenvalues --   -0.59799  -0.59431  -0.59097  -0.58721  -0.58357
 Alpha  occ. eigenvalues --   -0.58164  -0.58014  -0.57413  -0.56838  -0.56430
 Alpha  occ. eigenvalues --   -0.55995  -0.55880  -0.55406  -0.55386  -0.55196
 Alpha  occ. eigenvalues --   -0.55040  -0.54894  -0.54693  -0.54520  -0.54286
 Alpha  occ. eigenvalues --   -0.54073  -0.53794  -0.53396  -0.52590  -0.52383
 Alpha  occ. eigenvalues --   -0.51923  -0.51588  -0.51507  -0.50874  -0.50458
 Alpha  occ. eigenvalues --   -0.50193  -0.50035  -0.49897  -0.49577  -0.48890
 Alpha  occ. eigenvalues --   -0.48689  -0.48504  -0.48449  -0.48138  -0.48068
 Alpha  occ. eigenvalues --   -0.47815  -0.47042  -0.46846  -0.46746  -0.46479
 Alpha  occ. eigenvalues --   -0.46239  -0.45965  -0.45896  -0.45782  -0.45682
 Alpha  occ. eigenvalues --   -0.45606  -0.45557  -0.45259  -0.45053  -0.44939
 Alpha  occ. eigenvalues --   -0.44758  -0.44671  -0.44333  -0.44087  -0.43991
 Alpha  occ. eigenvalues --   -0.43703  -0.43611  -0.43482  -0.43395  -0.43295
 Alpha  occ. eigenvalues --   -0.43059  -0.42654  -0.42626  -0.42337  -0.42236
 Alpha  occ. eigenvalues --   -0.42121  -0.42044  -0.41743  -0.41630  -0.41418
 Alpha  occ. eigenvalues --   -0.41367  -0.41200  -0.41174  -0.40983  -0.40907
 Alpha  occ. eigenvalues --   -0.40714  -0.40266  -0.40175  -0.40033  -0.39843
 Alpha  occ. eigenvalues --   -0.39702  -0.39548  -0.39464  -0.39395  -0.39153
 Alpha  occ. eigenvalues --   -0.39055  -0.39004  -0.38758  -0.38589  -0.38515
 Alpha  occ. eigenvalues --   -0.38348  -0.38131  -0.38124  -0.38065  -0.37942
 Alpha  occ. eigenvalues --   -0.37762  -0.37520  -0.37311  -0.37145  -0.36912
 Alpha  occ. eigenvalues --   -0.36805  -0.36621  -0.36504  -0.36486  -0.36336
 Alpha  occ. eigenvalues --   -0.36267  -0.35976  -0.35823  -0.35622  -0.35424
 Alpha  occ. eigenvalues --   -0.35384  -0.35231  -0.34923  -0.34892  -0.34656
 Alpha  occ. eigenvalues --   -0.34572  -0.34541  -0.34374  -0.34224  -0.33988
 Alpha  occ. eigenvalues --   -0.33720  -0.33590  -0.33255  -0.32894  -0.32483
 Alpha  occ. eigenvalues --   -0.32442  -0.32386  -0.31737  -0.31585  -0.31368
 Alpha  occ. eigenvalues --   -0.30974  -0.30737  -0.30601  -0.30156  -0.29606
 Alpha  occ. eigenvalues --   -0.29475  -0.28782  -0.28470  -0.27598  -0.27534
 Alpha  occ. eigenvalues --   -0.27224  -0.26885  -0.26735  -0.26680  -0.26533
 Alpha  occ. eigenvalues --   -0.26414  -0.26320  -0.26100  -0.25842  -0.25683
 Alpha  occ. eigenvalues --   -0.25542  -0.24599  -0.24562  -0.24334  -0.24292
 Alpha  occ. eigenvalues --   -0.23899  -0.23124  -0.23103  -0.23051  -0.22953
 Alpha  occ. eigenvalues --   -0.22870  -0.22441  -0.22139  -0.22094  -0.21449
 Alpha  occ. eigenvalues --   -0.21423  -0.20676  -0.20602  -0.20176  -0.18478
 Alpha  occ. eigenvalues --   -0.14263  -0.13428  -0.10836
 Alpha virt. eigenvalues --   -0.09843  -0.04390  -0.03637  -0.03366  -0.03257
 Alpha virt. eigenvalues --   -0.02729  -0.02664  -0.02444  -0.01041  -0.00757
 Alpha virt. eigenvalues --   -0.00616  -0.00173   0.00299   0.01041   0.01368
 Alpha virt. eigenvalues --    0.01633   0.01745   0.02553   0.02638   0.02807
 Alpha virt. eigenvalues --    0.02945   0.03052   0.03682   0.03880   0.04171
 Alpha virt. eigenvalues --    0.04286   0.04547   0.04634   0.04725   0.05076
 Alpha virt. eigenvalues --    0.05315   0.05755   0.05805   0.05955   0.06421
 Alpha virt. eigenvalues --    0.06675   0.06728   0.06934   0.07396   0.07450
 Alpha virt. eigenvalues --    0.07775   0.07875   0.07997   0.08190   0.08615
 Alpha virt. eigenvalues --    0.08890   0.09277   0.09409   0.09477   0.09654
 Alpha virt. eigenvalues --    0.09763   0.09881   0.09912   0.10110   0.10228
 Alpha virt. eigenvalues --    0.10336   0.10592   0.10789   0.11001   0.11075
 Alpha virt. eigenvalues --    0.11338   0.11565   0.12002   0.12299   0.12520
 Alpha virt. eigenvalues --    0.12681   0.12717   0.12828   0.13021   0.13373
 Alpha virt. eigenvalues --    0.13570   0.13742   0.13837   0.13931   0.14046
 Alpha virt. eigenvalues --    0.14194   0.14353   0.14591   0.14625   0.14693
 Alpha virt. eigenvalues --    0.14795   0.14936   0.14999   0.15144   0.15239
 Alpha virt. eigenvalues --    0.15386   0.15541   0.15607   0.15789   0.15864
 Alpha virt. eigenvalues --    0.16077   0.16218   0.16303   0.16345   0.16476
 Alpha virt. eigenvalues --    0.16532   0.16658   0.16777   0.17083   0.17581
 Alpha virt. eigenvalues --    0.17649   0.17928   0.18037   0.18237   0.18339
 Alpha virt. eigenvalues --    0.18601   0.18922   0.18955   0.19438   0.19640
 Alpha virt. eigenvalues --    0.19790   0.19893   0.19994   0.20279   0.20329
 Alpha virt. eigenvalues --    0.20466   0.20561   0.20606   0.20843   0.21016
 Alpha virt. eigenvalues --    0.21159   0.21440   0.21520   0.21631   0.21908
 Alpha virt. eigenvalues --    0.22086   0.22526   0.22757   0.22882   0.23024
 Alpha virt. eigenvalues --    0.23409   0.23892   0.24237   0.24342   0.24420
 Alpha virt. eigenvalues --    0.24531   0.24942   0.25213   0.25345   0.25384
 Alpha virt. eigenvalues --    0.25501   0.25790   0.26001   0.26652   0.27135
 Alpha virt. eigenvalues --    0.27249   0.27286   0.27574   0.27736   0.27848
 Alpha virt. eigenvalues --    0.28360   0.28447   0.28621   0.28737   0.28895
 Alpha virt. eigenvalues --    0.29085   0.29236   0.29562   0.29666   0.29796
 Alpha virt. eigenvalues --    0.30118   0.30222   0.30382   0.31206   0.31665
 Alpha virt. eigenvalues --    0.31870   0.32062   0.32216   0.32408   0.32734
 Alpha virt. eigenvalues --    0.33114   0.33402   0.34035   0.34209   0.34447
 Alpha virt. eigenvalues --    0.34679   0.34801   0.34921   0.35309   0.35455
 Alpha virt. eigenvalues --    0.35702   0.35862   0.36383   0.37158   0.37337
 Alpha virt. eigenvalues --    0.37364   0.37662   0.37874   0.38166   0.38835
 Alpha virt. eigenvalues --    0.38941   0.39104   0.39308   0.39758   0.40164
 Alpha virt. eigenvalues --    0.40203   0.40467   0.40618   0.40772   0.41124
 Alpha virt. eigenvalues --    0.41541   0.41852   0.42094   0.42184   0.42468
 Alpha virt. eigenvalues --    0.42709   0.43133   0.43262   0.43394   0.43656
 Alpha virt. eigenvalues --    0.43685   0.43997   0.44046   0.44204   0.44406
 Alpha virt. eigenvalues --    0.44519   0.44611   0.45032   0.45118   0.45606
 Alpha virt. eigenvalues --    0.45798   0.45959   0.46210   0.46287   0.46528
 Alpha virt. eigenvalues --    0.46775   0.46913   0.46988   0.47167   0.47510
 Alpha virt. eigenvalues --    0.47683   0.47772   0.47917   0.48130   0.48239
 Alpha virt. eigenvalues --    0.48330   0.48563   0.48700   0.48977   0.49095
 Alpha virt. eigenvalues --    0.49265   0.49314   0.49760   0.49854   0.50016
 Alpha virt. eigenvalues --    0.50270   0.50724   0.50811   0.50924   0.51061
 Alpha virt. eigenvalues --    0.51415   0.51546   0.51726   0.51941   0.51989
 Alpha virt. eigenvalues --    0.52122   0.52475   0.52746   0.52955   0.53193
 Alpha virt. eigenvalues --    0.53365   0.53484   0.53701   0.53862   0.53953
 Alpha virt. eigenvalues --    0.54367   0.54513   0.54673   0.54804   0.55019
 Alpha virt. eigenvalues --    0.55193   0.55379   0.55632   0.55702   0.55973
 Alpha virt. eigenvalues --    0.56100   0.56239   0.56564   0.56850   0.57088
 Alpha virt. eigenvalues --    0.57400   0.57486   0.57763   0.57836   0.58154
 Alpha virt. eigenvalues --    0.58393   0.58517   0.58670   0.58767   0.58968
 Alpha virt. eigenvalues --    0.59125   0.59147   0.59378   0.59497   0.59582
 Alpha virt. eigenvalues --    0.59654   0.59974   0.60173   0.60407   0.60412
 Alpha virt. eigenvalues --    0.60727   0.60788   0.60826   0.60984   0.61113
 Alpha virt. eigenvalues --    0.61286   0.61602   0.61715   0.61759   0.61848
 Alpha virt. eigenvalues --    0.61934   0.62039   0.62067   0.62251   0.62491
 Alpha virt. eigenvalues --    0.62508   0.62682   0.62766   0.62890   0.63014
 Alpha virt. eigenvalues --    0.63215   0.63298   0.63407   0.63620   0.63672
 Alpha virt. eigenvalues --    0.63816   0.64050   0.64119   0.64235   0.64345
 Alpha virt. eigenvalues --    0.64497   0.64702   0.64729   0.64818   0.64948
 Alpha virt. eigenvalues --    0.65079   0.65273   0.65472   0.65706   0.65712
 Alpha virt. eigenvalues --    0.65858   0.65990   0.66090   0.66209   0.66232
 Alpha virt. eigenvalues --    0.66277   0.66447   0.66597   0.66730   0.66904
 Alpha virt. eigenvalues --    0.66956   0.67013   0.67139   0.67206   0.67333
 Alpha virt. eigenvalues --    0.67553   0.67583   0.67718   0.67815   0.67909
 Alpha virt. eigenvalues --    0.67969   0.68009   0.68105   0.68234   0.68296
 Alpha virt. eigenvalues --    0.68402   0.68550   0.68662   0.68771   0.68880
 Alpha virt. eigenvalues --    0.68967   0.68984   0.69170   0.69411   0.69579
 Alpha virt. eigenvalues --    0.69716   0.69804   0.69867   0.69928   0.70048
 Alpha virt. eigenvalues --    0.70152   0.70266   0.70364   0.70559   0.70771
 Alpha virt. eigenvalues --    0.70888   0.70974   0.71009   0.71220   0.71342
 Alpha virt. eigenvalues --    0.71383   0.71491   0.71638   0.71863   0.71889
 Alpha virt. eigenvalues --    0.71967   0.72124   0.72447   0.72514   0.72571
 Alpha virt. eigenvalues --    0.72655   0.72773   0.72966   0.73134   0.73238
 Alpha virt. eigenvalues --    0.73469   0.73819   0.74091   0.74254   0.74424
 Alpha virt. eigenvalues --    0.74502   0.74867   0.74878   0.75090   0.75256
 Alpha virt. eigenvalues --    0.75381   0.75699   0.75760   0.75965   0.75998
 Alpha virt. eigenvalues --    0.76190   0.76345   0.76605   0.76710   0.76802
 Alpha virt. eigenvalues --    0.77131   0.77530   0.77832   0.77907   0.78079
 Alpha virt. eigenvalues --    0.78214   0.78776   0.78864   0.78983   0.79077
 Alpha virt. eigenvalues --    0.79462   0.79757   0.80211   0.80672   0.81089
 Alpha virt. eigenvalues --    0.81134   0.81264   0.81534   0.81782   0.81868
 Alpha virt. eigenvalues --    0.82152   0.82452   0.82549   0.82668   0.82872
 Alpha virt. eigenvalues --    0.83216   0.83391   0.84180   0.84334   0.84943
 Alpha virt. eigenvalues --    0.85189   0.85258   0.85460   0.85883   0.86157
 Alpha virt. eigenvalues --    0.86483   0.86756   0.87037   0.87541   0.87854
 Alpha virt. eigenvalues --    0.87952   0.88182   0.88629   0.88846   0.89132
 Alpha virt. eigenvalues --    0.89510   0.89643   0.90096   0.90358   0.90896
 Alpha virt. eigenvalues --    0.91162   0.91444   0.91627   0.91961   0.92088
 Alpha virt. eigenvalues --    0.92313   0.92516   0.92736   0.92885   0.93213
 Alpha virt. eigenvalues --    0.93421   0.93569   0.94171   0.94587   0.94655
 Alpha virt. eigenvalues --    0.95044   0.95208   0.95671   0.96495   0.96643
 Alpha virt. eigenvalues --    0.96979   0.97263   0.97414   0.97678   0.98244
 Alpha virt. eigenvalues --    0.98368   0.98494   0.98679   0.99180   0.99538
 Alpha virt. eigenvalues --    0.99613   0.99806   1.00198   1.00372   1.00411
 Alpha virt. eigenvalues --    1.00877   1.01215   1.01521   1.01674   1.02095
 Alpha virt. eigenvalues --    1.02494   1.02637   1.02930   1.03542   1.03709
 Alpha virt. eigenvalues --    1.03885   1.04201   1.04579   1.05060   1.05123
 Alpha virt. eigenvalues --    1.05227   1.05492   1.05920   1.06059   1.06152
 Alpha virt. eigenvalues --    1.06345   1.06765   1.06984   1.07234   1.07395
 Alpha virt. eigenvalues --    1.07675   1.07781   1.08221   1.08532   1.08655
 Alpha virt. eigenvalues --    1.08768   1.09069   1.09235   1.09404   1.09606
 Alpha virt. eigenvalues --    1.10154   1.10291   1.10643   1.11511   1.11634
 Alpha virt. eigenvalues --    1.11682   1.11849   1.11975   1.12160   1.12493
 Alpha virt. eigenvalues --    1.12787   1.12926   1.13249   1.13422   1.13814
 Alpha virt. eigenvalues --    1.14062   1.14475   1.14647   1.14794   1.14957
 Alpha virt. eigenvalues --    1.15537   1.15877   1.15948   1.16009   1.16320
 Alpha virt. eigenvalues --    1.16506   1.16845   1.16923   1.17303   1.17543
 Alpha virt. eigenvalues --    1.17798   1.18469   1.19018   1.19346   1.19483
 Alpha virt. eigenvalues --    1.19893   1.20254   1.20484   1.20877   1.21139
 Alpha virt. eigenvalues --    1.21259   1.21385   1.21993   1.22207   1.22286
 Alpha virt. eigenvalues --    1.22438   1.22683   1.22922   1.23132   1.23329
 Alpha virt. eigenvalues --    1.23554   1.23766   1.24109   1.24316   1.24422
 Alpha virt. eigenvalues --    1.24852   1.24897   1.25254   1.25805   1.26129
 Alpha virt. eigenvalues --    1.26481   1.26809   1.26989   1.27136   1.27284
 Alpha virt. eigenvalues --    1.27714   1.27841   1.27941   1.28130   1.28362
 Alpha virt. eigenvalues --    1.29187   1.29254   1.29577   1.29738   1.29860
 Alpha virt. eigenvalues --    1.30120   1.30700   1.30796   1.30891   1.31426
 Alpha virt. eigenvalues --    1.31474   1.31627   1.31972   1.32448   1.32683
 Alpha virt. eigenvalues --    1.33130   1.33499   1.33629   1.34040   1.34568
 Alpha virt. eigenvalues --    1.34817   1.35238   1.35381   1.35570   1.35782
 Alpha virt. eigenvalues --    1.36088   1.36353   1.36582   1.36895   1.37125
 Alpha virt. eigenvalues --    1.37511   1.37808   1.38370   1.38745   1.39081
 Alpha virt. eigenvalues --    1.39234   1.39327   1.39697   1.39760   1.40289
 Alpha virt. eigenvalues --    1.40615   1.40907   1.41543   1.41785   1.41861
 Alpha virt. eigenvalues --    1.41966   1.42674   1.42800   1.43339   1.43561
 Alpha virt. eigenvalues --    1.43620   1.43823   1.43900   1.44153   1.44581
 Alpha virt. eigenvalues --    1.44757   1.45022   1.45352   1.46413   1.46533
 Alpha virt. eigenvalues --    1.46769   1.47080   1.47296   1.47519   1.47884
 Alpha virt. eigenvalues --    1.48218   1.48588   1.48721   1.49007   1.49256
 Alpha virt. eigenvalues --    1.49569   1.50144   1.50462   1.50889   1.51165
 Alpha virt. eigenvalues --    1.51671   1.51834   1.52158   1.52321   1.52413
 Alpha virt. eigenvalues --    1.52727   1.53010   1.53275   1.53437   1.53703
 Alpha virt. eigenvalues --    1.53971   1.54847   1.55166   1.55343   1.55598
 Alpha virt. eigenvalues --    1.56088   1.56375   1.56441   1.56845   1.56924
 Alpha virt. eigenvalues --    1.57326   1.57556   1.58098   1.58257   1.58387
 Alpha virt. eigenvalues --    1.58681   1.59093   1.59525   1.59661   1.59968
 Alpha virt. eigenvalues --    1.60524   1.61032   1.61847   1.62758   1.63066
 Alpha virt. eigenvalues --    1.63217   1.63539   1.64099   1.64211   1.64393
 Alpha virt. eigenvalues --    1.65098   1.65329   1.65633   1.65801   1.65921
 Alpha virt. eigenvalues --    1.66309   1.66519   1.67090   1.67263   1.67799
 Alpha virt. eigenvalues --    1.68291   1.68438   1.68877   1.69057   1.69283
 Alpha virt. eigenvalues --    1.69575   1.70010   1.70170   1.70240   1.70529
 Alpha virt. eigenvalues --    1.70600   1.71080   1.71200   1.71271   1.71483
 Alpha virt. eigenvalues --    1.71589   1.72110   1.72287   1.72317   1.72325
 Alpha virt. eigenvalues --    1.72727   1.73124   1.73473   1.73704   1.73959
 Alpha virt. eigenvalues --    1.74081   1.74201   1.74445   1.74484   1.74552
 Alpha virt. eigenvalues --    1.74753   1.74817   1.74997   1.75173   1.75222
 Alpha virt. eigenvalues --    1.75469   1.76083   1.76160   1.76348   1.76582
 Alpha virt. eigenvalues --    1.76722   1.76821   1.76945   1.77240   1.77361
 Alpha virt. eigenvalues --    1.77445   1.77517   1.77617   1.77905   1.78031
 Alpha virt. eigenvalues --    1.78199   1.78533   1.78644   1.78669   1.79099
 Alpha virt. eigenvalues --    1.79334   1.79446   1.79569   1.79691   1.79968
 Alpha virt. eigenvalues --    1.80064   1.80300   1.80341   1.80567   1.80666
 Alpha virt. eigenvalues --    1.81010   1.81108   1.81255   1.81471   1.81580
 Alpha virt. eigenvalues --    1.81674   1.81799   1.81978   1.82271   1.82482
 Alpha virt. eigenvalues --    1.82624   1.82669   1.82809   1.82858   1.83019
 Alpha virt. eigenvalues --    1.83220   1.83502   1.83553   1.83765   1.83941
 Alpha virt. eigenvalues --    1.84091   1.84397   1.84494   1.84533   1.84905
 Alpha virt. eigenvalues --    1.85086   1.85260   1.85366   1.85605   1.85735
 Alpha virt. eigenvalues --    1.85955   1.86477   1.86630   1.86768   1.86794
 Alpha virt. eigenvalues --    1.86952   1.87257   1.87426   1.87610   1.88172
 Alpha virt. eigenvalues --    1.88269   1.88401   1.88752   1.88856   1.88897
 Alpha virt. eigenvalues --    1.88968   1.89244   1.89631   1.89904   1.89963
 Alpha virt. eigenvalues --    1.90340   1.90440   1.90614   1.90657   1.90720
 Alpha virt. eigenvalues --    1.90802   1.91176   1.91275   1.91470   1.91902
 Alpha virt. eigenvalues --    1.91956   1.92424   1.92587   1.92756   1.92807
 Alpha virt. eigenvalues --    1.93112   1.93276   1.93403   1.93521   1.93998
 Alpha virt. eigenvalues --    1.94169   1.94469   1.94674   1.94816   1.95050
 Alpha virt. eigenvalues --    1.95318   1.95468   1.95548   1.95605   1.95924
 Alpha virt. eigenvalues --    1.96006   1.96437   1.96670   1.96985   1.97392
 Alpha virt. eigenvalues --    1.97529   1.97590   1.97682   1.98016   1.98306
 Alpha virt. eigenvalues --    1.98419   1.98682   1.99013   1.99059   1.99228
 Alpha virt. eigenvalues --    1.99445   1.99620   1.99992   2.00200   2.00553
 Alpha virt. eigenvalues --    2.00798   2.01265   2.01315   2.01822   2.01864
 Alpha virt. eigenvalues --    2.02314   2.02466   2.02732   2.02999   2.03235
 Alpha virt. eigenvalues --    2.03284   2.03474   2.03607   2.03746   2.04299
 Alpha virt. eigenvalues --    2.04481   2.04904   2.04950   2.05475   2.05515
 Alpha virt. eigenvalues --    2.05766   2.06277   2.06879   2.07061   2.07654
 Alpha virt. eigenvalues --    2.07799   2.07873   2.08010   2.08680   2.08868
 Alpha virt. eigenvalues --    2.09525   2.09712   2.09867   2.10017   2.10236
 Alpha virt. eigenvalues --    2.10868   2.10908   2.11590   2.11633   2.11726
 Alpha virt. eigenvalues --    2.11796   2.11917   2.12124   2.12232   2.12710
 Alpha virt. eigenvalues --    2.12725   2.13172   2.13546   2.13627   2.13835
 Alpha virt. eigenvalues --    2.14125   2.14238   2.14362   2.14850   2.15741
 Alpha virt. eigenvalues --    2.15922   2.16217   2.16673   2.16776   2.17372
 Alpha virt. eigenvalues --    2.17633   2.17710   2.17887   2.18138   2.18292
 Alpha virt. eigenvalues --    2.18800   2.18869   2.18952   2.18984   2.19227
 Alpha virt. eigenvalues --    2.19628   2.19903   2.20355   2.20614   2.21175
 Alpha virt. eigenvalues --    2.21470   2.21910   2.21976   2.22518   2.22770
 Alpha virt. eigenvalues --    2.22913   2.22947   2.23188   2.24025   2.24517
 Alpha virt. eigenvalues --    2.25289   2.25673   2.25913   2.26684   2.27129
 Alpha virt. eigenvalues --    2.27401   2.27671   2.28089   2.28295   2.28525
 Alpha virt. eigenvalues --    2.28818   2.28864   2.29306   2.29349   2.29601
 Alpha virt. eigenvalues --    2.29829   2.30095   2.30206   2.30526   2.31520
 Alpha virt. eigenvalues --    2.31572   2.31804   2.31841   2.32035   2.32638
 Alpha virt. eigenvalues --    2.32853   2.33312   2.33426   2.33514   2.33795
 Alpha virt. eigenvalues --    2.34201   2.34825   2.35193   2.35473   2.35514
 Alpha virt. eigenvalues --    2.35714   2.35850   2.36617   2.36969   2.37115
 Alpha virt. eigenvalues --    2.37447   2.37846   2.37999   2.38147   2.38938
 Alpha virt. eigenvalues --    2.39000   2.39622   2.40039   2.40290   2.40655
 Alpha virt. eigenvalues --    2.41061   2.41429   2.41545   2.41587   2.42018
 Alpha virt. eigenvalues --    2.42582   2.42964   2.43502   2.43994   2.44423
 Alpha virt. eigenvalues --    2.45319   2.45713   2.45882   2.46226   2.46717
 Alpha virt. eigenvalues --    2.46848   2.47104   2.47450   2.47557   2.47845
 Alpha virt. eigenvalues --    2.48366   2.48612   2.48956   2.49394   2.49671
 Alpha virt. eigenvalues --    2.50024   2.50637   2.51222   2.51660   2.51678
 Alpha virt. eigenvalues --    2.51832   2.52485   2.52898   2.53027   2.53252
 Alpha virt. eigenvalues --    2.53537   2.53798   2.53844   2.53971   2.54425
 Alpha virt. eigenvalues --    2.54770   2.54979   2.55507   2.55599   2.56047
 Alpha virt. eigenvalues --    2.56453   2.56792   2.57100   2.57281   2.57493
 Alpha virt. eigenvalues --    2.57550   2.57783   2.58071   2.58265   2.58466
 Alpha virt. eigenvalues --    2.59181   2.59484   2.59842   2.60589   2.60987
 Alpha virt. eigenvalues --    2.61009   2.61051   2.61161   2.61488   2.61695
 Alpha virt. eigenvalues --    2.62299   2.62519   2.62942   2.63521   2.63587
 Alpha virt. eigenvalues --    2.63889   2.63987   2.64301   2.65060   2.65157
 Alpha virt. eigenvalues --    2.66032   2.67088   2.67157   2.67202   2.67719
 Alpha virt. eigenvalues --    2.67874   2.67929   2.68559   2.68780   2.68854
 Alpha virt. eigenvalues --    2.69214   2.69660   2.70112   2.70438   2.70572
 Alpha virt. eigenvalues --    2.71147   2.71201   2.71339   2.71759   2.71985
 Alpha virt. eigenvalues --    2.72248   2.72732   2.73079   2.73132   2.73294
 Alpha virt. eigenvalues --    2.73449   2.73619   2.73785   2.74009   2.74088
 Alpha virt. eigenvalues --    2.74275   2.74613   2.74771   2.74850   2.75033
 Alpha virt. eigenvalues --    2.75285   2.75714   2.75893   2.76302   2.76700
 Alpha virt. eigenvalues --    2.76847   2.77858   2.77918   2.78249   2.78285
 Alpha virt. eigenvalues --    2.78541   2.79200   2.79580   2.79776   2.79805
 Alpha virt. eigenvalues --    2.79896   2.79996   2.80174   2.80784   2.80952
 Alpha virt. eigenvalues --    2.81079   2.81432   2.81513   2.81717   2.81730
 Alpha virt. eigenvalues --    2.82066   2.82311   2.82940   2.83465   2.83485
 Alpha virt. eigenvalues --    2.83772   2.83981   2.84327   2.84542   2.84561
 Alpha virt. eigenvalues --    2.85657   2.85922   2.86016   2.86334   2.87005
 Alpha virt. eigenvalues --    2.87521   2.87652   2.87748   2.88021   2.88029
 Alpha virt. eigenvalues --    2.88492   2.88879   2.89446   2.89555   2.89759
 Alpha virt. eigenvalues --    2.90170   2.90987   2.91557   2.91982   2.92283
 Alpha virt. eigenvalues --    2.92435   2.92916   2.92970   2.93177   2.93295
 Alpha virt. eigenvalues --    2.93784   2.94818   2.94893   2.95103   2.95703
 Alpha virt. eigenvalues --    2.95921   2.96223   2.96268   2.96890   2.96941
 Alpha virt. eigenvalues --    2.96995   2.97137   2.97280   2.97599   2.97797
 Alpha virt. eigenvalues --    2.97847   2.98105   2.98563   2.98912   2.99123
 Alpha virt. eigenvalues --    2.99585   2.99668   3.00074   3.00600   3.00809
 Alpha virt. eigenvalues --    3.01301   3.01761   3.01970   3.02219   3.02401
 Alpha virt. eigenvalues --    3.02943   3.03003   3.03208   3.03882   3.04748
 Alpha virt. eigenvalues --    3.05076   3.05121   3.05546   3.05904   3.06318
 Alpha virt. eigenvalues --    3.06728   3.06997   3.07723   3.07884   3.08174
 Alpha virt. eigenvalues --    3.08314   3.08837   3.09726   3.10218   3.10373
 Alpha virt. eigenvalues --    3.10753   3.12049   3.12455   3.13048   3.13236
 Alpha virt. eigenvalues --    3.13348   3.13455   3.14130   3.14360   3.15766
 Alpha virt. eigenvalues --    3.16344   3.16735   3.16856   3.17105   3.17287
 Alpha virt. eigenvalues --    3.17557   3.18357   3.18616   3.18784   3.18804
 Alpha virt. eigenvalues --    3.18886   3.18980   3.19769   3.20285   3.20595
 Alpha virt. eigenvalues --    3.20899   3.21481   3.21908   3.21976   3.22227
 Alpha virt. eigenvalues --    3.22243   3.22474   3.22839   3.23800   3.23925
 Alpha virt. eigenvalues --    3.24365   3.24498   3.24560   3.25282   3.26801
 Alpha virt. eigenvalues --    3.27308   3.27536   3.27762   3.27881   3.28409
 Alpha virt. eigenvalues --    3.28910   3.29119   3.29290   3.30583   3.31280
 Alpha virt. eigenvalues --    3.31848   3.33831   3.34806   3.35176   3.36247
 Alpha virt. eigenvalues --    3.37547   3.37606   3.45662   3.48875   3.50162
 Alpha virt. eigenvalues --    3.50868   3.52060   3.54788   3.54809   3.55331
 Alpha virt. eigenvalues --    3.55755   3.56312   3.56582   3.57358   3.58342
 Alpha virt. eigenvalues --    3.58429   3.59014   3.60159   3.60558   3.62143
 Alpha virt. eigenvalues --    3.62234   3.63225   3.66238   3.66735   3.67579
 Alpha virt. eigenvalues --    3.67702   3.68275   3.68955   3.68962   3.69406
 Alpha virt. eigenvalues --    3.69655   3.69965   3.70274   3.70701   3.70744
 Alpha virt. eigenvalues --    3.71473   3.73205   3.73416   3.74483   3.74929
 Alpha virt. eigenvalues --    3.75817   3.77256   3.79756   3.80263
          Condensed to atoms (all electrons):
 Mulliken charges:
               1
     1  C    0.060843
     2  C    0.008777
     3  O   -0.311859
     4  H    0.041948
     5  H    0.011598
     6  H    0.020818
     7  N   -0.125330
     8  C    0.131025
     9  C    0.117013
    10  O   -0.302197
    11  C    0.060485
    12  C    0.027345
    13  O   -0.371505
    14  O   -0.357260
    15  H    0.102184
    16  H   -0.024113
    17  H    0.000008
    18  H    0.000345
    19  N   -0.103089
    20  C    0.101489
    21  C    0.050249
    22  O   -0.278027
    23  C    0.119481
    24  C   -0.027836
    25  C   -0.040985
    26  C    0.056209
    27  N    0.139862
    28  H    0.126076
    29  H   -0.008948
    30  H    0.013913
    31  H    0.020762
    32  H    0.002297
    33  H   -0.004181
    34  H    0.037453
    35  H    0.018241
    36  H    0.064340
    37  H    0.067151
    38  H    0.136384
    39  H    0.121896
    40  H    0.138182
    41  N   -0.102173
    42  C    0.151075
    43  C    0.083560
    44  O   -0.264849
    45  C    0.002755
    46  C    0.099023
    47  O   -0.394161
    48  O   -0.439434
    49  H    0.138336
    50  H   -0.036258
    51  H    0.023459
    52  H   -0.006937
    53  N   -0.096985
    54  C    0.205146
    55  C    0.086211
    56  O   -0.348150
    57  H    0.119899
    58  H    0.018838
    59  H    0.034312
    60  N   -0.141021
    61  C    0.074559
    62  C    0.103680
    63  O   -0.287177
    64  C    0.090484
    65  C    0.035674
    66  N   -0.007306
    67  O   -0.286702
    68  H    0.129175
    69  H    0.055641
    70  H    0.073217
    71  H    0.004831
    72  H    0.121677
    73  H    0.155139
    74  N   -0.125828
    75  C    0.225490
    76  C    0.032296
    77  O   -0.275910
    78  H    0.106434
    79  H   -0.001732
    80  H    0.042884
    81  N   -0.139865
    82  C    0.105868
    83  C    0.112402
    84  O   -0.312224
    85  C    0.170133
    86  C   -0.064737
    87  C    0.000804
    88  C    0.012863
    89  C   -0.036134
    90  C   -0.057726
    91  C    0.158910
    92  O   -0.189519
    93  H    0.123149
    94  H    0.005145
    95  H    0.012633
    96  H    0.005325
    97  H   -0.010384
    98  H   -0.033857
    99  H   -0.022128
   100  H   -0.038517
   101  H    0.170510
   102  N   -0.108388
   103  C    0.147140
   104  C    0.041937
   105  O   -0.274963
   106  C   -0.072161
   107  C    0.027859
   108  C    0.065204
   109  C    0.029770
   110  H    0.139407
   111  H    0.007852
   112  H   -0.025934
   113  H    0.013880
   114  H   -0.016467
   115  H   -0.004104
   116  H    0.002325
   117  H    0.005070
   118  H   -0.002478
   119  H    0.006486
   120  H    0.013706
   121  N   -0.139585
   122  C    0.111386
   123  C    0.101833
   124  O   -0.260369
   125  C    0.223526
   126  O   -0.316393
   127  H    0.142571
   128  H    0.010428
   129  H   -0.028559
   130  H    0.021972
   131  H    0.176067
   132  N   -0.160878
   133  C    0.061534
   134  C    0.048964
   135  O   -0.281439
   136  C    0.094711
   137  H    0.120476
   138  H    0.011676
   139  H    0.016799
   140  H   -0.018373
   141  H    0.033289
   142  N   -0.126534
   143  C    0.097901
   144  C    0.068325
   145  O   -0.262549
   146  C    0.068275
   147  H    0.138933
   148  H    0.002392
   149  H   -0.020548
   150  H    0.028974
   151  H    0.028960
   152  N   -0.135886
   153  C    0.108355
   154  C    0.060676
   155  O   -0.264925
   156  C    0.006499
   157  C    0.121032
   158  C    0.097462
   159  O   -0.453791
   160  O   -0.418985
   161  H    0.110506
   162  H    0.003154
   163  H    0.024295
   164  H    0.038038
   165  H   -0.032637
   166  H   -0.025165
   167  N   -0.146962
   168  C    0.148714
   169  H    0.035730
   170  H    0.011121
   171  H    0.022237
   172  H    0.094980
   173  Ca   1.317507
   174  O   -0.291859
   175  H    0.199672
   176  H    0.167462
 Sum of Mulliken charges =  -0.00000
 Mulliken charges with hydrogens summed into heavy atoms:
               1
     1  C    0.135206
     2  C    0.008777
     3  O   -0.311859
     7  N   -0.023146
     8  C    0.106912
     9  C    0.117013
    10  O   -0.302197
    11  C    0.060837
    12  C    0.027345
    13  O   -0.371505
    14  O   -0.357260
    19  N    0.022987
    20  C    0.092540
    21  C    0.050249
    22  O   -0.278027
    23  C    0.154155
    24  C   -0.029719
    25  C    0.014710
    26  C    0.187701
    27  N    0.536325
    41  N    0.036163
    42  C    0.114816
    43  C    0.083560
    44  O   -0.264849
    45  C    0.019278
    46  C    0.099023
    47  O   -0.394161
    48  O   -0.439434
    53  N    0.022914
    54  C    0.258296
    55  C    0.086211
    56  O   -0.348150
    60  N   -0.011846
    61  C    0.130201
    62  C    0.103680
    63  O   -0.287177
    64  C    0.168532
    65  C    0.035674
    66  N    0.269510
    67  O   -0.286702
    74  N   -0.019393
    75  C    0.266642
    76  C    0.032296
    77  O   -0.275910
    81  N   -0.016716
    82  C    0.111012
    83  C    0.112402
    84  O   -0.312224
    85  C    0.188091
    86  C   -0.064737
    87  C   -0.009580
    88  C   -0.020993
    89  C   -0.058263
    90  C   -0.096243
    91  C    0.158910
    92  O   -0.019009
   102  N    0.031019
   103  C    0.154991
   104  C    0.041937
   105  O   -0.274963
   106  C   -0.098095
   107  C    0.025273
   108  C    0.068496
   109  C    0.047484
   121  N    0.002986
   122  C    0.121814
   123  C    0.101833
   124  O   -0.260369
   125  C    0.216939
   126  O   -0.140326
   132  N   -0.040402
   133  C    0.073210
   134  C    0.048964
   135  O   -0.281439
   136  C    0.126425
   142  N    0.012399
   143  C    0.100293
   144  C    0.068325
   145  O   -0.262549
   146  C    0.105661
   152  N   -0.025381
   153  C    0.111509
   154  C    0.060676
   155  O   -0.264925
   156  C    0.068832
   157  C    0.063230
   158  C    0.097462
   159  O   -0.453791
   160  O   -0.418985
   167  N   -0.051981
   168  C    0.217801
   173  Ca   1.317507
   174  O    0.075275
 DipInt: DoE/N= T F RetVal/Mat= T F Init=T NMatP=  1 IDeriv=0 Min/MaxMlt=  0  4
 Entering OneElI...
 OneElI was handed  1333951383 working-precision words.
 Multipole integrals L=0 to 4 MinM= 0 MaxM= 0.
 Requested accuracy = 0.1000D-12
 ShPair: Thresh= 1.00D-13 NBox=     0 BxSize= 0.00D+00 RnKept= 2.93D+01
         NSMCal=               327645 NSMKep=              119169
 PrmmSu-InSpLW:  IPartL=    0 NPrtUS=    1 NPrtUL=    1 DoSpLW=F IThBeg=    0 IThEnd=    0 NThAct=    1.
 PrsmSu:  NPrtUS=   1 ThrOK=F IAlg=1 NPAlg=1 LenDen=           0 ISkipM=0 DoSpLW=F IThBeg=    0 IThEnd=    0.
 Prism:   IPart=     0 DynPar=F LinDyn=F Incr=         512.
 PRISM was handed  1325464207 working-precision words and119169 shell-pairs
 IPart=  0 NShTot=      119169 NBatch=         283 AvBLen=       421.1
 PrsmSu-ThDecC:  IPartSL=    0    0 NPrtUSL=    1    1 IThBeg=    0 IThEnd=    0 CPU=   -1 GPU=   -1 NThAct=    1.
 PrSmSu:  NxtVal=            513.
 Electronic moments (au):
       -716.00000000          3.89028323         -4.38169121        -10.95413501
    -100178.28021433     -42261.78416693     -13403.93870568       -222.63583783
       -159.40726058          3.51368409    -347295.80281841     -97505.30833612
     -28521.62797307     213502.29553596     -31121.42250569    -111457.31793982
     -82743.83721253       5339.94180619      29047.42610103    -101262.86993381
  -25751149.89202257   -7241430.89856946    -748137.87799581    -715679.33311386
    -488542.15532243    1063545.93405543     959462.40897755    -388105.26787800
    -102347.10393056   -3999256.82741799   -2287796.05737447    -714833.11271926
    -342473.19158978    -255413.21200818     -28550.31210522
 Electronic spatial extent (au):  <R**2>=         155844.0031
 DipInt: DoE/N= F T RetVal/Mat= T F Init=T NMatP=  1 IDeriv=0 Min/MaxMlt=  0  4
 Nuclear    moments (au):
        716.00000000         -0.00000000          0.00000000          0.00000000
      99867.95677847      41796.01376241      13072.80709209         -0.00000000
         -0.00000000         -0.00000000     351244.15217783      96644.77763205
      27859.03055370    -214369.45154604      28647.75016991     108520.62020314
      83597.05626240      -5821.27214978     -30032.26961920     101882.56102198
   25481788.00496452    7089569.57041463     711208.67059877     637094.59548443
     424208.25452771   -1081263.38169771    -962523.69538476     380115.61012842
     105962.46393939    3913118.62919478    2241294.63282180     686016.49015033
     347905.68509561     249006.34216987      20606.19637579
 Total      moments (au):
         -0.00000000          3.89028323         -4.38169121        -10.95413501
       -310.32343586       -465.77040453       -331.13161359       -222.63583783
       -159.40726058          3.51368409       3948.34935942       -860.53070407
       -662.59741937       -867.15601008      -2473.67233578      -2936.69773668
        853.21904987       -481.33034360       -984.84351816        619.69108817
    -269361.88705805    -151861.32815483     -36929.20739704     -78584.73762943
     -64333.90079472     -17717.44764229      -3061.28640722      -7989.65774958
       3615.36000883     -86138.19822321     -46501.42455267     -28816.62256893
       5432.49350583      -6406.86983831      -7944.11572943
 Traceless Quadrup. (au):
         58.75171546        -96.69525320         37.94353774       -222.63583783
       -159.40726058          3.51368409
 Charge=             -0.0000 electrons
 Dipole moment (field-independent basis, Debye):
    X=              9.8881    Y=            -11.1371    Z=            -27.8426  Tot=             31.5757
 Quadrupole moment (field-independent basis, Debye-Ang):
   XX=           -417.3957   YY=           -626.4771   ZZ=           -445.3834
   XY=           -299.4528   XZ=           -214.4082   YZ=              4.7260
 Traceless Quadrupole moment (field-independent basis, Debye-Ang):
   XX=             79.0231   YY=           -130.0584   ZZ=             51.0354
   XY=           -299.4528   XZ=           -214.4082   YZ=              4.7260
 Octapole moment (field-independent basis, Debye-Ang**2):
  XXX=           2810.2830  YYY=           -612.4926  ZZZ=           -471.6113  XYY=           -617.2082
  XXY=          -1760.6647  XXZ=          -2090.2283  XZZ=            607.2884  YZZ=           -342.5924
  YYZ=           -700.9737  XYZ=            441.0722
 Hexadecapole moment (field-independent basis, Debye-Ang**3):
 XXXX=        -101454.6030 YYYY=         -57198.2582 ZZZZ=         -13909.3103 XXXY=         -29598.7805
 XXXZ=         -24231.2320 YYYX=          -6673.2404 YYYZ=          -1153.0273 ZZZX=          -3009.2882
 ZZZY=           1361.7179 XXYY=         -32443.7759 XXZZ=         -17514.6663 YYZZ=         -10853.7219
 XXYZ=           2046.1376 YYXZ=          -2413.1344 ZZXY=          -2992.1349
 N-N= 1.875136035605D+04 E-N=-4.998272135778D+04  KE= 5.290396416374D+03
 Leave Link  601 at Tue Sep 17 10:18:23 2019, MaxMem=  1342177280 cpu:              40.5 elap:               1.0
 FitSet:  NAtFit=   176 NAtPot=   176 NAtFrz=     0 MDM=   180 TotChg=   0.00000
 Merz-Kollman atomic radii used.
 Read replacement radii for each type of atom:
 Rad(20) =   1.700000000000D+00
 Atom Element Radius
    1     6    1.50
    2     6    1.50
    3     8    1.40
    4     1    1.20
    5     1    1.20
    6     1    1.20
    7     7    1.50
    8     6    1.50
    9     6    1.50
   10     8    1.40
   11     6    1.50
   12     6    1.50
   13     8    1.40
   14     8    1.40
   15     1    1.20
   16     1    1.20
   17     1    1.20
   18     1    1.20
   19     7    1.50
   20     6    1.50
   21     6    1.50
   22     8    1.40
   23     6    1.50
   24     6    1.50
   25     6    1.50
   26     6    1.50
   27     7    1.50
   28     1    1.20
   29     1    1.20
   30     1    1.20
   31     1    1.20
   32     1    1.20
   33     1    1.20
   34     1    1.20
   35     1    1.20
   36     1    1.20
   37     1    1.20
   38     1    1.20
   39     1    1.20
   40     1    1.20
   41     7    1.50
   42     6    1.50
   43     6    1.50
   44     8    1.40
   45     6    1.50
   46     6    1.50
   47     8    1.40
   48     8    1.40
   49     1    1.20
   50     1    1.20
   51     1    1.20
   52     1    1.20
   53     7    1.50
   54     6    1.50
   55     6    1.50
   56     8    1.40
   57     1    1.20
   58     1    1.20
   59     1    1.20
   60     7    1.50
   61     6    1.50
   62     6    1.50
   63     8    1.40
   64     6    1.50
   65     6    1.50
   66     7    1.50
   67     8    1.40
   68     1    1.20
   69     1    1.20
   70     1    1.20
   71     1    1.20
   72     1    1.20
   73     1    1.20
   74     7    1.50
   75     6    1.50
   76     6    1.50
   77     8    1.40
   78     1    1.20
   79     1    1.20
   80     1    1.20
   81     7    1.50
   82     6    1.50
   83     6    1.50
   84     8    1.40
   85     6    1.50
   86     6    1.50
   87     6    1.50
   88     6    1.50
   89     6    1.50
   90     6    1.50
   91     6    1.50
   92     8    1.40
   93     1    1.20
   94     1    1.20
   95     1    1.20
   96     1    1.20
   97     1    1.20
   98     1    1.20
   99     1    1.20
  100     1    1.20
  101     1    1.20
  102     7    1.50
  103     6    1.50
  104     6    1.50
  105     8    1.40
  106     6    1.50
  107     6    1.50
  108     6    1.50
  109     6    1.50
  110     1    1.20
  111     1    1.20
  112     1    1.20
  113     1    1.20
  114     1    1.20
  115     1    1.20
  116     1    1.20
  117     1    1.20
  118     1    1.20
  119     1    1.20
  120     1    1.20
  121     7    1.50
  122     6    1.50
  123     6    1.50
  124     8    1.40
  125     6    1.50
  126     8    1.40
  127     1    1.20
  128     1    1.20
  129     1    1.20
  130     1    1.20
  131     1    1.20
  132     7    1.50
  133     6    1.50
  134     6    1.50
  135     8    1.40
  136     6    1.50
[...]
 **** Fit      -0.009061
 **** Fit      -0.008407
 **** Fit      -0.006833
 **** Fit      -0.004951
 **** Fit      -0.003237
 **** Fit      -0.001930
 **** Fit      -0.001112
 **** Fit      -0.000784
 **** Fit      -0.003694
 **** Fit      -0.002129
 **** Fit      -0.000653
 **** Fit       0.000390
 **** Fit       0.000875
 **** Fit      -0.008653
 **** Fit      -0.010309
 **** Fit      -0.012251
 **** Fit      -0.006711
 **** Fit      -0.007623
 **** Fit      -0.008865
 **** Fit      -0.010511
 **** Fit      -0.012528
 **** Fit      -0.014704
 **** Fit      -0.019895
 **** Fit      -0.005892
 **** Fit      -0.006601
 **** Fit      -0.007515
 **** Fit      -0.008747
 **** Fit      -0.010375
 **** Fit      -0.012428
 **** Fit      -0.014852
 **** Fit      -0.017466
 **** Fit      -0.023903
 **** Fit      -0.005066
 **** Fit      -0.005657
 **** Fit      -0.006328
 **** Fit      -0.007200
 **** Fit      -0.008376
 **** Fit      -0.009941
 **** Fit      -0.011959
 **** Fit      -0.014458
 **** Fit      -0.017407
 **** Fit      -0.020663
 **** Fit      -0.028764
 **** Fit      -0.004966
 **** Fit      -0.005512
 **** Fit      -0.006151
 **** Fit      -0.006985
 **** Fit      -0.008104
 **** Fit      -0.009588
 **** Fit      -0.011513
 **** Fit      -0.013943
 **** Fit      -0.016927
 **** Fit      -0.020472
 **** Fit      -0.024499
 **** Fit      -0.034621
 **** Fit      -0.004566
 **** Fit      -0.005103
 **** Fit      -0.005684
 **** Fit      -0.006418
 **** Fit      -0.007400
 **** Fit      -0.008717
 **** Fit      -0.010458
 **** Fit      -0.012714
 **** Fit      -0.015583
 **** Fit      -0.019161
 **** Fit      -0.023534
 **** Fit      -0.028729
 **** Fit      -0.004797
 **** Fit      -0.005356
 **** Fit      -0.006022
 **** Fit      -0.006889
 **** Fit      -0.008044
 **** Fit      -0.009577
 **** Fit      -0.011587
 **** Fit      -0.014184
 **** Fit      -0.017505
 **** Fit      -0.021711
 **** Fit      -0.026997
 **** Fit      -0.033563
 **** Fit      -0.004336
 **** Fit      -0.004938
 **** Fit      -0.005565
 **** Fit      -0.006322
 **** Fit      -0.007302
 **** Fit      -0.008596
 **** Fit      -0.010302
 **** Fit      -0.012533
 **** Fit      -0.015431
 **** Fit      -0.019180
 **** Fit      -0.024030
 **** Fit      -0.030327
 **** Fit      -0.004743
 **** Fit      -0.005463
 **** Fit      -0.006277
 **** Fit      -0.007296
 **** Fit      -0.008627
 **** Fit      -0.010388
 **** Fit      -0.012714
 **** Fit      -0.015783
 **** Fit      -0.019837
 **** Fit      -0.025237
 **** Fit      -0.032538
 **** Fit      -0.005116
 **** Fit      -0.006027
 **** Fit      -0.007073
 **** Fit      -0.008391
 **** Fit      -0.010120
 **** Fit      -0.012419
 **** Fit      -0.015496
 **** Fit      -0.019642
 **** Fit      -0.025305
 **** Fit      -0.005767
 **** Fit      -0.006910
 **** Fit      -0.008237
 **** Fit      -0.009914
 **** Fit      -0.012120
 **** Fit      -0.015070
 **** Fit      -0.019069
 **** Fit      -0.024584
 **** Fit      -0.007379
 **** Fit      -0.008959
 **** Fit      -0.010924
 **** Fit      -0.013518
 **** Fit      -0.017039
 **** Fit      -0.007290
 **** Fit      -0.010200
 **** Fit      -0.007487
 **** Fit      -0.004130
 **** Fit      -0.001106
 **** Fit       0.001100
 **** Fit      -0.006935
 **** Fit      -0.003342
 **** Fit      -0.000418
 **** Fit       0.001567
 **** Fit       0.002581
 **** Fit      -0.004169
 **** Fit      -0.000923
 **** Fit       0.001514
 **** Fit       0.002990
 **** Fit       0.003528
 **** Fit       0.001441
 **** Fit       0.003449
 **** Fit       0.004632
 **** Fit       0.004959
 **** Fit       0.004485
 **** Fit       0.005090
 **** Fit       0.006312
 **** Fit       0.007002
 **** Fit       0.007034
 **** Fit       0.006432
 **** Fit       0.009889
 **** Fit       0.010137
 **** Fit       0.010134
 **** Fit       0.009685
 **** Fit       0.008829
 **** Fit       0.016513
 **** Fit       0.031524
 **** Fit       0.024101
 **** Fit       0.014815
 **** Fit       0.039756
 **** Fit       0.036393
 **** Fit       0.030908
 **** Fit       0.023763
 **** Fit       0.015405
 **** Fit       0.043233
 **** Fit       0.043497
 **** Fit       0.041615
 **** Fit       0.037760
 **** Fit       0.032302
 **** Fit       0.025710
 **** Fit       0.018571
 **** Fit       0.004049
 **** Fit       0.029288
 **** Fit       0.045933
 **** Fit       0.046769
 **** Fit       0.045929
 **** Fit       0.043365
 **** Fit       0.039305
 **** Fit       0.034162
 **** Fit       0.028498
 **** Fit       0.023005
 **** Fit       0.018421
 **** Fit       0.015324
 **** Fit       0.013842
 **** Fit       0.013578
 **** Fit       0.013902
 **** Fit       0.014415
 **** Fit       0.032585
 **** Fit       0.035988
 **** Fit       0.039088
 **** Fit       0.041773
 **** Fit       0.044229
 **** Fit       0.046529
 **** Fit       0.048439
 **** Fit       0.049526
 **** Fit       0.049384
 **** Fit       0.047817
 **** Fit       0.044901
 **** Fit       0.040952
 **** Fit       0.036467
 **** Fit       0.032056
 **** Fit       0.028327
 **** Fit       0.025700
 **** Fit       0.024240
 **** Fit       0.023679
 **** Fit       0.023662
 **** Fit       0.039132
 **** Fit       0.040133
 **** Fit       0.042315
 **** Fit       0.044798
 **** Fit       0.047146
 **** Fit       0.049229
 **** Fit       0.050913
 **** Fit       0.051911
 **** Fit       0.051873
 **** Fit       0.050586
 **** Fit       0.048098
 **** Fit       0.044730
 **** Fit       0.041011
 **** Fit       0.037539
 **** Fit       0.034810
 **** Fit       0.033043
 **** Fit       0.032159
 **** Fit       0.031964
 **** Fit       0.046858
 **** Fit       0.047677
 **** Fit       0.049340
 **** Fit       0.051154
 **** Fit       0.052715
 **** Fit       0.053706
 **** Fit       0.053803
 **** Fit       0.052780
 **** Fit       0.050670
 **** Fit       0.047817
 **** Fit       0.044780
 **** Fit       0.042137
 **** Fit       0.040274
 **** Fit       0.039309
 **** Fit       0.039260
 **** Fit       0.052492
 **** Fit       0.052084
 **** Fit       0.052975
 **** Fit       0.054203
 **** Fit       0.055050
 **** Fit       0.055000
 **** Fit       0.053795
 **** Fit       0.051606
 **** Fit       0.049027
 **** Fit       0.046800
 **** Fit       0.045484
 **** Fit       0.045424
 **** Fit       0.055141
 **** Fit       0.055286
 **** Fit       0.055835
 **** Fit       0.055656
 **** Fit       0.054265
 **** Fit       0.052160
 **** Fit       0.050490
 **** Fit       0.050329
 **** Fit       0.056453
 **** Fit       0.056237
 **** Fit       0.055859
 **** Fit       0.054358
 **** Fit       0.053801
 **** Fit       0.055764
 **** Fit       0.009462
 **** Fit       0.004415
 **** Fit       0.008656
 **** Fit       0.018466
 **** Fit       0.014273
 **** Fit       0.018094
 **** Fit       0.029262
 **** Fit       0.026596
 **** Fit       0.023092
 **** Fit       0.026537
 **** Fit       0.020076
 **** Fit       0.035645
 **** Fit       0.033630
 **** Fit       0.030794
 **** Fit       0.033957
 **** Fit       0.028455
 **** Fit       0.020496
 **** Fit       0.042300
 **** Fit       0.041299
 **** Fit       0.039829
 **** Fit       0.037550
 **** Fit       0.035726
 **** Fit       0.029144
 **** Fit       0.001915
 **** Fit       0.001029
 **** Fit       0.003090
 **** Fit       0.007392
 **** Fit       0.023632
 **** Fit       0.017043
 **** Fit       0.011917
 **** Fit       0.009916
 **** Fit       0.010517
 **** Fit       0.013198
 **** Fit       0.017395
 **** Fit       0.028239
 **** Fit       0.030707
 **** Fit       0.025219
 **** Fit       0.019938
 **** Fit       0.017455
 **** Fit       0.017408
 **** Fit       0.019359
 **** Fit       0.022819
 **** Fit       0.027266
 **** Fit       0.032184
 **** Fit       0.037109
 **** Fit       0.042108
 **** Fit       0.047752
 **** Fit       0.035281
 **** Fit       0.029002
 **** Fit       0.025115
 **** Fit       0.023646
 **** Fit       0.024340
 **** Fit       0.026795
 **** Fit       0.030524
 **** Fit       0.052682
 **** Fit       0.055487
 **** Fit       0.056210
 **** Fit       0.054091
 **** Fit       0.049419
 **** Fit       0.043382
 **** Fit       0.037467
 **** Fit       0.032871
 **** Fit       0.030244
 **** Fit       0.029737
 **** Fit       0.031165
 **** Fit       0.050465
 **** Fit       0.046869
 **** Fit       0.042444
 **** Fit       0.038489
 **** Fit      -0.029302
 **** Fit      -0.022049
 **** Fit      -0.016617
 **** Fit      -0.015866
 **** Fit      -0.019740
 **** Fit      -0.011263
 **** Fit      -0.006249
 **** Fit      -0.004195
 **** Fit      -0.005115
 **** Fit      -0.009479
 **** Fit      -0.010666
 **** Fit      -0.003144
 **** Fit       0.001864
 **** Fit       0.004793
 **** Fit       0.005749
 **** Fit       0.004563
 **** Fit       0.000784
 **** Fit       0.004450
 **** Fit      -0.011091
 **** Fit      -0.002374
 **** Fit       0.004025
 **** Fit       0.008677
 **** Fit       0.011887
 **** Fit       0.013771
 **** Fit       0.014283
 **** Fit       0.013201
 **** Fit       0.010119
 **** Fit      -0.006844
 **** Fit       0.001514
 **** Fit       0.007928
 **** Fit       0.012874
 **** Fit       0.016638
 **** Fit       0.019372
 **** Fit       0.021111
 **** Fit       0.021764
 **** Fit       0.021096
 **** Fit       0.018690
 **** Fit      -0.002116
 **** Fit       0.005362
 **** Fit       0.011390
 **** Fit       0.016274
 **** Fit       0.020228
 **** Fit       0.023386
 **** Fit       0.025812
 **** Fit       0.027494
 **** Fit       0.028320
 **** Fit       0.028047
 **** Fit       0.026265
 **** Fit      -0.007259
 **** Fit       0.000696
 **** Fit       0.007520
 **** Fit       0.013310
 **** Fit       0.018209
 **** Fit       0.022355
 **** Fit       0.025855
 **** Fit       0.028782
 **** Fit       0.031163
 **** Fit       0.032967
 **** Fit       0.034077
 **** Fit       0.034255
 **** Fit       0.000057
 **** Fit       0.006402
 **** Fit       0.012247
 **** Fit       0.017469
 **** Fit       0.022069
 **** Fit       0.026100
 **** Fit       0.029624
 **** Fit       0.032691
 **** Fit       0.035321
 **** Fit       0.037485
 **** Fit       0.039076
 **** Fit       0.039868
 **** Fit       0.005299
 **** Fit       0.010195
 **** Fit       0.015237
 **** Fit       0.020073
 **** Fit       0.024551
 **** Fit       0.028629
 **** Fit       0.032320
 **** Fit       0.035652
 **** Fit       0.038644
 **** Fit       0.041280
 **** Fit       0.043477
 **** Fit       0.014741
 **** Fit       0.018681
 **** Fit       0.022876
 **** Fit       0.027040
 **** Fit       0.031031
 **** Fit       0.034797
 **** Fit       0.038337
 **** Fit       0.041662
 **** Fit       0.044773
 **** Fit       0.027505
 **** Fit       0.031451
 **** Fit       0.035453
 **** Fit       0.039414
 **** Fit       0.043314
 **** Fit       0.044843
 **** Fit       0.041416
 **** Fit       0.036216
 **** Fit       0.029409
 **** Fit       0.047588
 **** Fit       0.047764
 **** Fit       0.047820
 **** Fit       0.047592
 **** Fit       0.046750
 **** Fit       0.048772
 **** Fit       0.046273
 **** Fit       0.042348
 **** Fit       0.037282
 **** Fit       0.031858
 **** Fit       0.027317
 **** Fit       0.044514
 **** Fit       0.046190
 **** Fit       0.047429
 **** Fit       0.048405
 **** Fit       0.049218
 **** Fit       0.049865
 **** Fit       0.050207
 **** Fit       0.049967
 **** Fit       0.051030
 **** Fit       0.049179
 **** Fit       0.046183
 **** Fit       0.042402
 **** Fit       0.038605
 **** Fit       0.035839
 **** Fit       0.035176
 **** Fit       0.037369
 **** Fit       0.037669
 **** Fit       0.040765
 **** Fit       0.043379
 **** Fit       0.045505
 **** Fit       0.047233
 **** Fit       0.048674
 **** Fit       0.049906
 **** Fit       0.050927
 **** Fit       0.051622
 **** Fit       0.051758
 **** Fit       0.052063
 **** Fit       0.050725
 **** Fit       0.048517
 **** Fit       0.045808
 **** Fit       0.043261
 **** Fit       0.041665
 **** Fit       0.041686
 **** Fit       0.043604
 **** Fit       0.047111
 **** Fit       0.051265
 **** Fit       0.032622
 **** Fit       0.034753
 **** Fit       0.037387
 **** Fit       0.040114
 **** Fit       0.042672
 **** Fit       0.044937
 **** Fit       0.046897
 **** Fit       0.048589
 **** Fit       0.050049
 **** Fit       0.051264
 **** Fit       0.052135
 **** Fit       0.052478
 **** Fit       0.052268
 **** Fit       0.051247
 **** Fit       0.049525
 **** Fit       0.047539
 **** Fit       0.045940
 **** Fit       0.045344
 **** Fit       0.046047
 **** Fit       0.047811
 **** Fit       0.049844
 **** Fit       0.051045
 **** Fit       0.050501
 **** Fit       0.048006
 **** Fit       0.044217
 **** Fit       0.040282
 **** Fit       0.037247
 **** Fit       0.035683
 **** Fit       0.035640
 **** Fit       0.036825
 **** Fit       0.038794
 **** Fit       0.041119
 **** Fit       0.043480
 **** Fit       0.045688
 **** Fit       0.047667
 **** Fit       0.049394
 **** Fit       0.050840
 **** Fit       0.051914
 **** Fit       0.052455
 **** Fit       0.051935
 **** Fit       0.051197
 **** Fit       0.049916
 **** Fit       0.048557
 **** Fit       0.047672
 **** Fit       0.047591
 **** Fit       0.048174
 **** Fit       0.048800
 **** Fit       0.048661
 **** Fit       0.047267
 **** Fit       0.044811
 **** Fit       0.042071
 **** Fit       0.039933
 **** Fit       0.038953
 **** Fit       0.039217
 **** Fit       0.040473
 **** Fit       0.042328
 **** Fit       0.044419
 **** Fit       0.046486
 **** Fit       0.048377
 **** Fit       0.049994
 **** Fit       0.051229
 **** Fit       0.051930
 **** Fit       0.051250
 **** Fit       0.050727
 **** Fit       0.049767
 **** Fit       0.048877
 **** Fit       0.048420
 **** Fit       0.048266
 **** Fit       0.047841
 **** Fit       0.046641
 **** Fit       0.044767
 **** Fit       0.042929
 **** Fit       0.041897
 **** Fit       0.042016
 **** Fit       0.043141
 **** Fit       0.044875
 **** Fit       0.046808
 **** Fit       0.048630
 **** Fit       0.050111
 **** Fit       0.051042
 **** Fit       0.050318
 **** Fit       0.049931
 **** Fit       0.049138
 **** Fit       0.048406
 **** Fit       0.047546
 **** Fit       0.046188
 **** Fit       0.044770
 **** Fit       0.044250
 **** Fit       0.045018
 **** Fit       0.046657
 **** Fit       0.048463
 **** Fit       0.049821
 **** Fit       0.049192
 **** Fit       0.048763
 **** Fit       0.047631
 **** Fit       0.046420
 **** Fit       0.046620
 **** Fit       0.048198
 **** Fit       0.047892
 -----------------------------------------------------------------
 Leave Link  602 at Tue Sep 17 10:18:26 2019, MaxMem=  1342177280 cpu:             118.4 elap:               2.5

 Test job not archived.
 1\1\GINC-C489-102\SP\RB3LYP\SVP\C54H83Ca1N15O23\PENGZHI\17-Sep-2019\0\
 \#b3lyp/svp scf=(tight,noincore) Test #IOP(5/87=12) Density=Current Po
 p=(MK,readradii) iop(6/33=2) iop(6/42=6)\\Ng-293_loop3_38.0\\0,1\C,0,3
 7.64,98.7,88.693\C,0,37.08,98.97,87.313\O,0,37.31,98.25,86.343\H,0,38.
 527,99.314,88.851\H,0,36.89,98.946,89.445\H,0,37.908,97.647,88.777\N,0
 ,36.41,100.11,87.083\C,0,36.11,100.72,85.803\C,0,34.96,99.99,85.143\O,
 0,33.93,99.62,85.703\C,0,35.99,102.22,86.083\C,0,35.96,103.11,84.853\O
 ,0,36.06,102.57,83.733\O,0,35.77,104.35,84.923\H,0,36.07,100.54,87.923
 \H,0,36.94,100.5,85.133\H,0,36.92,102.49,86.593\H,0,35.12,102.46,86.67
 3\N,0,35.28,99.59,83.903\C,0,34.52,98.72,83.033\C,0,33.03,99.04,82.973
 \O,0,32.6,99.75,82.063\C,0,34.81,97.27,83.403\C,0,34.67,96.27,82.263\C
 ,0,33.33,95.88,81.653\C,0,33.5,94.76,80.623\N,0,32.21,94.42,80.003\H,0
 ,36.16,99.96,83.573\H,0,34.81,98.98,82.023\H,0,34.29,96.96,84.313\H,0,
 35.89,97.18,83.573\H,0,35.19,95.35,82.533\H,0,35.23,96.65,81.403\H,0,3
 2.85,96.75,81.183\H,0,32.63,95.67,82.453\H,0,33.89,93.9,81.163\H,0,34.
 21,95.07,79.863\H,0,31.81,95.18,79.483\H,0,32.31,93.67,79.333\H,0,31.4
 4,94.11,80.583\N,0,32.21,98.4,83.803\C,0,30.76,98.44,83.863\C,0,30.17,
 99.76,84.333\O,0,30.66,100.39,85.273\C,0,30.27,97.45,84.923\C,0,28.78,
 97.14,84.973\O,0,28.2,96.56,85.913\O,0,28.06,97.39,83.983\H,0,32.72,98
 .01,84.583\H,0,30.3,98.09,82.933\H,0,30.59,97.81,85.893\H,0,30.86,96.5
 4,84.793\N,0,29.25,100.27,83.513\C,0,28.45,101.43,83.833\C,0,27.33,101
 .19,84.843\O,0,26.75,100.1,84.803\H,0,28.98,99.69,82.733\H,0,27.92,101
 .73,82.933\H,0,29.15,102.23,84.083\N,0,27.1,102.1,85.783\C,0,26.11,101
 .94,86.823\C,0,25.4,103.25,87.103\O,0,24.37,103.3,87.783\C,0,26.82,101
 .48,88.103\C,0,27.44,100.12,87.833\N,0,28.77,100.01,87.813\O,0,26.81,9
 9.07,87.713\H,0,27.6,102.98,85.723\H,0,25.35,101.23,86.513\H,0,26.08,1
 01.46,88.903\H,0,27.48,102.27,88.463\H,0,29.28,100.88,87.903\H,0,29.2,
 99.11,87.893\N,0,25.71,104.31,86.353\C,0,24.94,105.53,86.393\C,0,24.77
 ,106.2,87.743\O,0,25.74,106.34,88.493\H,0,26.5,104.35,85.723\H,0,23.92
 ,105.23,86.123\H,0,25.37,106.17,85.613\N,0,23.6,106.72,88.103\C,0,23.3
 1,107.27,89.413\C,0,23.46,106.31,90.583\O,0,23.31,106.74,91.723\C,0,23
 .97,108.63,89.633\C,0,23.87,109.59,88.473\C,0,25.03,109.83,87.723\C,0,
 22.75,110.41,88.283\C,0,25.07,110.83,86.743\C,0,22.72,111.25,87.163\C,
 0,23.89,111.53,86.433\O,0,23.72,112.38,85.373\H,0,22.75,106.68,87.563\
 H,0,22.25,107.5,89.283\H,0,25.03,108.63,89.903\H,0,23.45,109.09,90.473
 \H,0,25.96,109.29,87.793\H,0,21.86,110.22,88.843\H,0,25.93,111.1,86.15
 3\H,0,21.78,111.75,86.953\H,0,22.83,112.73,85.443\N,0,23.77,105.04,90.
 303\C,0,23.82,103.87,91.143\C,0,22.43,103.44,91.613\O,0,22.16,102.24,9
 1.633\C,0,24.9,103.95,92.213\C,0,26.22,104.56,91.723\C,0,25.12,102.6,9
 2.883\C,0,27.43,104.77,92.633\H,0,23.81,104.82,89.313\H,0,24.11,103.05
 ,90.483\H,0,24.5,104.56,93.023\H,0,25.97,105.61,91.613\H,0,26.55,104.0
 8,90.803\H,0,25.52,101.93,92.123\H,0,25.9,102.55,93.643\H,0,24.22,102.
 15,93.303\H,0,27.01,104.98,93.613\H,0,28.11,103.93,92.683\H,0,28.,105.
 66,92.353\N,0,21.65,104.43,92.043\C,0,20.29,104.26,92.503\C,0,19.95,10
 3.09,93.413\O,0,18.81,102.64,93.383\C,0,19.77,105.59,93.053\O,0,20.,10
 6.7,92.203\H,0,22.05,105.36,92.063\H,0,19.78,104.23,91.543\H,0,20.45,1
 05.7,93.893\H,0,18.75,105.53,93.413\H,0,19.98,107.53,92.673\N,0,20.89,
 102.67,94.273\C,0,20.75,101.55,95.193\C,0,20.28,100.34,94.403\O,0,19.3
 2,99.67,94.813\C,0,19.85,101.92,96.373\H,0,21.81,103.08,94.233\H,0,21.
 75,101.28,95.513\H,0,19.71,101.11,97.093\H,0,20.2,102.76,96.973\H,0,18
 .9,102.24,95.943\N,0,21.04,100.07,93.353\C,0,20.9,98.88,92.533\C,0,22.
 19,98.11,92.293\O,0,23.31,98.6,92.423\C,0,20.26,99.34,91.223\H,0,21.72
 ,100.77,93.103\H,0,20.19,98.24,93.063\H,0,19.94,98.43,90.703\H,0,19.38
 ,99.97,91.273\H,0,20.95,99.91,90.603\N,0,22.08,96.85,91.883\C,0,23.16,
 95.9,91.713\C,0,23.97,95.71,92.993\O,0,25.17,95.46,93.013\C,0,23.97,96
 .27,90.473\C,0,23.23,95.91,89.193\C,0,24.12,96.35,88.053\O,0,24.02,97.
 48,87.533\O,0,24.9,95.49,87.573\H,0,21.14,96.53,91.723\H,0,22.77,94.92
 ,91.453\H,0,24.84,95.61,90.493\H,0,24.3,97.3,90.563\H,0,22.27,96.41,89
 .063\H,0,23.03,94.83,89.173\N,0,23.29,95.72,94.143\C,0,23.87,95.64,95.
 473\H,0,24.76,96.267,95.519\H,0,23.144,95.987,96.208\H,0,24.142,94.607
 ,95.69\H,0,22.34,96.01,93.993\Ca,0,25.74,97.51,85.51\O,0,25.69,95.2,84
 .19\H,0,25.79,94.41,84.73\H,0,25.44,94.87,83.33\\Version=ES64L-G16RevA
 .03\State=1-A\HF=-5333.3831049\RMSD=6.605e-10\Dipole=-4.3142512,-6.534
 5863,-9.6443255\Quadrupole=-176.0004755,74.2498435,101.7506321,-158.89
 76776,21.8088935,181.5631086\PG=C01 [X(C54H83Ca1N15O23)]\\@


 THE TRULY SUCCESSFUL PERFORMANCE OF RESEARCHES IN
 INORGANIC CHEMISTRY IS POSSIBLE ONLY TO ONE WHO IS NOT
 ONLY A THEORETICAL CHEMIST, BUT ALSO AN ACCOMPLISHED
 ANALYST AND, MOREOVER, NOT MERELY A PRACTICALLY TRAINED,
 MECHANICAL WORKER, BUT A THINKING CREATIVE ARTIST.
   --  CLEMENS WINKLER, BER. 33, 1697(1900)
 Job cpu time:       0 days  8 hours 13 minutes 56.4 seconds.
 Elapsed time:       0 days  0 hours 10 minutes 26.5 seconds.
 File lengths (MBytes):  RWF=   1517 Int=      0 D2E=      0 Chk=    171 Scr=      1
 Normal termination of Gaussian 16 at Tue Sep 17 10:18:28 2019.
