 Entering Gaussian System, Link 0=g16
 Initial command:
 /home1/apps/gaussian/16rA.03/g16/l1.exe "/scratch/01990/pengzhi/4354909/Gau-34102.inp" -scrdir="/scratch/01990/pengzhi/4354909/"
 Entering Link 1 = /home1/apps/gaussian/16rA.03/g16/l1.exe PID=     34103.
  
 Copyright (c) 1988,1990,1992,1993,1995,1998,2003,2009,2016,
            Gaussian, Inc.  All Rights Reserved.
  
 This is part of the Gaussian(R) 16 program.  It is based on
 the Gaussian(R) 09 system (copyright 2009, Gaussian, Inc.),
 the Gaussian(R) 03 system (copyright 2003, Gaussian, Inc.),
 the Gaussian(R) 98 system (copyright 1998, Gaussian, Inc.),
 the Gaussian(R) 94 system (copyright 1995, Gaussian, Inc.),
 the Gaussian 92(TM) system (copyright 1992, Gaussian, Inc.),
 the Gaussian 90(TM) system (copyright 1990, Gaussian, Inc.),
 the Gaussian 88(TM) system (copyright 1988, Gaussian, Inc.),
 the Gaussian 86(TM) system (copyright 1986, Carnegie Mellon
 University), and the Gaussian 82(TM) system (copyright 1983,
 Carnegie Mellon University). Gaussian is a federally registered
 trademark of Gaussian, Inc.
  
 This software contains proprietary and confidential information,
 including trade secrets, belonging to Gaussian, Inc.
  
 This software is provided under written license and may be
 used, copied, transmitted, or stored only in accord with that
 written license.
  
 The following legend is applicable only to US Government
 contracts under FAR:
  
                    RESTRICTED RIGHTS LEGEND
  
 Use, reproduction and disclosure by the US Government is
 subject to restrictions as set forth in subparagraphs (a)
 and (c) of the Commercial Computer Software - Restricted
 Rights clause in FAR 52.227-19.
  
 Gaussian, Inc.
 340 Quinnipiac St., Bldg. 40, Wallingford CT 06492
  
  
 ---------------------------------------------------------------
 Warning -- This program may not be used in any manner that
 competes with the business of Gaussian, Inc. or will provide
 assistance to any competitor of Gaussian, Inc.  The licensee
 of this program is prohibited from giving any competitor of
 Gaussian, Inc. access to this program.  By using this program,
 the user acknowledges that Gaussian, Inc. is engaged in the
 business of creating and licensing software in the field of
 computational chemistry and represents and warrants to the
 licensee that it is not a competitor of Gaussian, Inc. and that
 it will not use this program in any manner prohibited above.
 ---------------------------------------------------------------
  

 Cite this work as:
 Gaussian 16, Revision A.03,
 M. J. Frisch, G. W. Trucks, H. B. Schlegel, G. E. Scuseria, 
 M. A. Robb, J. R. Cheeseman, G. Scalmani, V. Barone, 
 G. A. Petersson, H. Nakatsuji, X. Li, M. Caricato, A. V. Marenich, 
 J. Bloino, B. G. Janesko, R. Gomperts, B. Mennucci, H. P. Hratchian, 
 J. V. Ortiz, A. F. Izmaylov, J. L. Sonnenberg, D. Williams-Young, 
 F. Ding, F. Lipparini, F. Egidi, J. Goings, B. Peng, A. Petrone, 
 T. Henderson, D. Ranasinghe, V. G. Zakrzewski, J. Gao, N. Rega, 
 G. Zheng, W. Liang, M. Hada, M. Ehara, K. Toyota, R. Fukuda, 
 J. Hasegawa, M. Ishida, T. Nakajima, Y. Honda, O. Kitao, H. Nakai, 
 T. Vreven, K. Throssell, J. A. Montgomery, Jr., J. E. Peralta, 
 F. Ogliaro, M. J. Bearpark, J. J. Heyd, E. N. Brothers, K. N. Kudin, 
 V. N. Staroverov, T. A. Keith, R. Kobayashi, J. Normand, 
 K. Raghavachari, A. P. Rendell, J. C. Burant, S. S. Iyengar, 
 J. Tomasi, M. Cossi, J. M. Millam, M. Klene, C. Adamo, R. Cammi, 
 J. W. Ochterski, R. L. Martin, K. Morokuma, O. Farkas, 
 J. B. Foresman, and D. J. Fox, Gaussian, Inc., Wallingford CT, 2016.
 
 ******************************************
 Gaussian 16:  ES64L-G16RevA.03 25-Dec-2016
                18-Sep-2019 
 ******************************************
 %chk=Ng-295_loop3_9.0.chk
 %nprocshared=48
 Will use up to   48 processors via shared memory.
 %mem=10GB
 %nosave
 ----------------------------------------------------------------------
 #b3lyp/svp scf=(tight,noincore) Test #IOP(5/87=12) Density=Current Pop
 =(MK,readradii) iop(6/33=2) iop(6/42=6)
 ----------------------------------------------------------------------
 1/30=1,38=1,172=1/1;
 2/12=2,17=6,18=5,40=1/2;
 3/5=18,7=101,11=2,25=1,30=1,74=-5/1,2,3;
 4//1;
 5/5=4,32=2,38=5,87=12/2;
 6/7=2,8=2,9=2,10=2,15=8,20=101,22=-1,28=1,33=2,42=6/1,2;
 99/5=1,9=1/99;
 ----------------
 Ng-295_loop3_9.0
 ----------------
 Symbolic Z-matrix:
 Charge =  0 Multiplicity = 1
 C                     94.26     62.81     28.38 
 C                     94.83     61.47     27.95 
 O                     94.86     60.44     28.63 
 H                     93.277    62.66     28.827 
 H                     94.925    63.27     29.111 
 H                     94.167    63.462    27.511 
 N                     95.42     61.49     26.75 
 C                     96.01     60.33     26.11 
 C                     97.26     59.85     26.83 
 O                     97.99     60.66     27.39 
 C                     96.37     60.56     24.65 
 C                     96.69     59.22     24. 
 O                     95.93     58.26     24.24 
 O                     97.68     59.15     23.24 
 H                     95.17     62.27     26.15 
 H                     95.23     59.57     26.17 
 H                     97.12     61.36     24.6 
 H                     95.47     60.9      24.14 
 N                     97.51     58.54     26.78 
 C                     98.69     57.81     27.24 
 C                     99.97     58.44     26.71 
 O                     100.89    58.77     27.46 
 C                     98.49     56.32     27.01 
 C                     98.72     55.89     25.56 
 C                     98.76     54.37     25.38 
 C                     98.88     53.92     23.93 
 N                     100.15    54.39     23.37 
 H                     96.74     57.99     26.44 
 H                     98.71     58.14     28.27 
 H                     97.51     55.95     27.31 
 H                     99.19     55.85     27.7 
 H                     99.67     56.28     25.18 
 H                     97.91     56.25     24.94 
 H                     97.96     53.93     25.97 
 H                     99.6      54.02     25.98 
 H                     98.04     54.38     23.39 
 H                     98.7      52.85     23.87 
 H                     100.47    53.79     22.62 
 H                     100.12    55.36     23.07 
 H                     100.88    54.4      24.07 
 N                     100.05    58.67     25.4 
 C                     101.2     59.24     24.72 
 C                     101.01    60.72     24.42 
 O                     101.8     61.36     23.75 
 C                     101.56    58.44     23.47 
 C                     100.39    58.15     22.55 
 O                     100.2     58.77     21.48 
 O                     99.76     57.08     22.75 
 H                     99.3      58.47     24.75 
 H                     102.05    59.14     25.41 
 H                     102.05    57.51     23.76 
 H                     102.26    59.06     22.91 
 N                     99.94     61.26     25.01 
 C                     99.46     62.59     24.68 
 C                     99.14     62.93     23.23 
 O                     99.19     64.11     22.9 
 H                     99.45     60.75     25.72 
 H                     100.16    63.36     25. 
 H                     98.55     62.57     25.26 
 N                     98.87     61.99     22.32 
 C                     98.75     62.24     20.9 
 C                     97.54     61.51     20.32 
 O                     97.43     60.29     20.41 
 C                     100.13    61.93     20.32 
 C                     100.27    62.19     18.83 
 N                     101.06    61.39     18.12 
 O                     99.8      63.18     18.27 
 H                     98.85     61.03     22.62 
 H                     98.55     63.3      20.74 
 H                     100.42    60.89     20.49 
 H                     100.82    62.62     20.81 
 H                     101.52    60.56     18.48 
 H                     101.32    61.59     17.16 
 N                     96.63     62.24     19.68 
 C                     95.29     61.75     19.42 
 C                     95.13     60.57     18.47 
 O                     94.02     60.08     18.29 
 H                     96.78     63.24     19.65 
 H                     94.7      62.56     19.01 
 H                     94.93     61.44     20.41 
 N                     96.19     60.05     17.84 
 C                     96.1      58.88     16.99 
 C                     95.9      57.62     17.82 
 O                     96.41     57.34     18.9 
 C                     97.31     58.87     16.06 
 C                     97.45     59.91     14.97 
 C                     98.08     61.12     15.28 
 C                     96.84     59.79     13.72 
 C                     98.08     62.23     14.43 
 C                     96.88     60.85     12.8 
 C                     97.45     62.08     13.18 
 O                     97.55     63.11     12.29 
 H                     97.11     60.43     17.99 
 H                     95.26     59.01     16.31 
 H                     97.19     57.93     15.53 
 H                     98.28     58.75     16.54 
 H                     98.58     61.22     16.23 
 H                     96.4      58.86     13.4 
 H                     98.65     63.14     14.6 
 H                     96.39     60.71     11.85 
 H                     97.01     62.88     11.52 
 N                     94.94     56.8      17.36 
 C                     94.65     55.47     17.83 
 C                     95.73     54.43     17.57 
 O                     96.92     54.73     17.65 
 C                     94.02     55.45     19.22 
 C                     93.56     54.09     19.75 
 C                     92.8      56.34     19.38 
 C                     93.18     54.2      21.22 
 H                     94.35     57.11     16.6 
 H                     93.83     55.17     17.18 
 H                     94.81     55.83     19.87 
 H                     94.31     53.3      19.73 
 H                     92.72     53.72     19.16 
 H                     92.71     56.72     20.4 
 H                     93.09     57.17     18.72 
 H                     91.86     55.86     19.09 
 H                     92.82     53.2      21.43 
 H                     94.09     54.42     21.78 
 H                     92.48     54.97     21.56 
 N                     95.34     53.23     17.12 
 C                     96.27     52.13     16.98 
 C                     95.84     51.03     16.02 
 O                     96.63     50.16     15.65 
 C                     96.4      51.47     18.35 
 O                     95.22     50.9      18.88 
 H                     94.35     53.04     17.12 
 H                     97.22     52.59     16.7 
 H                     96.59     52.21     19.12 
 H                     97.18     50.72     18.32 
 H                     95.45     50.68     19.79 
 N                     94.56     50.99     15.65 
 C                     93.93     50.07     14.73 
 C                     94.12     48.57     14.94 
 O                     94.62     47.84     14.09 
 C                     94.16     50.57     13.3 
 H                     93.95     51.65     16.11 
 H                     92.84     50.11     14.79 
 H                     95.18     50.38     12.99 
 H                     93.44     49.96     12.75 
 H                     93.88     51.61     13.17 
 N                     93.64     47.92     16. 
 C                     93.01     48.38     17.22 
 C                     91.64     47.83     17.56 
 O                     91.23     46.72     17.21 
 C                     94.02     48.05     18.32 
 H                     93.82     46.93     15.91 
 H                     92.99     49.47     17.23 
 H                     93.48     48.24     19.25 
 H                     94.27     46.99     18.26 
 H                     94.9      48.66     18.11 
 N                     90.81     48.4      18.45 
 C                     90.93     49.71     19.06 
 C                     90.01     50.75     18.43 
 O                     90.32     51.93     18.29 
 C                     90.58     49.51     20.53 
 C                     90.86     50.76     21.35 
 C                     90.67     50.51     22.84 
 O                     89.85     51.18     23.5 
 O                     91.48     49.71     23.37 
 H                     89.94     47.91     18.62 
 H                     91.97     50.04     19.03 
 H                     91.27     48.72     20.85 
 H                     89.53     49.26     20.65 
 H                     90.12     51.49     21.03 
 H                     91.84     51.2      21.2 
 N                     88.78     50.31     18.18 
 C                     87.72     51.07     17.55 
 H                     86.873    51.145    18.232 
 H                     88.082    52.07     17.31 
 H                     87.406    50.568    16.635 
 H                     88.48     49.43     18.59 
 Ca                    97.7      57.74     21.14 
 O                     96.4      56.09     22.76 
 H                     96.15     56.76     23.39 
 H                     95.99     55.29     23.07 
 
 Stoichiometry    C54H83CaN15O23
 Framework group  C1[X(C54H83CaN15O23)]
 Deg. of freedom   522
 Full point group                 C1      NOp   1
 Largest Abelian subgroup         C1      NOp   1
 Largest concise Abelian subgroup C1      NOp   1
                         Standard orientation:                         
 ---------------------------------------------------------------------
 Center     Atomic      Atomic             Coordinates (Angstroms)
 Number     Number       Type             X           Y           Z
 ---------------------------------------------------------------------
      1          6           0        7.504958   -4.881219    4.968652
      2          6           0        6.520020   -4.932262    3.814230
      3          8           0        6.025362   -5.951784    3.324241
      4          1           0        7.148777   -5.518358    5.778458
      5          1           0        8.479405   -5.234010    4.630749
      6          1           0        7.593130   -3.855231    5.327105
      7          7           0        6.270628   -3.741326    3.259274
      8          6           0        5.343339   -3.527829    2.164808
      9          6           0        5.836130   -4.144389    0.865458
     10          8           0        7.038247   -4.191265    0.630260
     11          6           0        5.042595   -2.059997    1.901899
     12          6           0        3.850667   -1.958087    0.958808
     13          8           0        2.868553   -2.695298    1.179655
     14          8           0        3.900604   -1.127096    0.026305
     15          1           0        6.507430   -2.933442    3.826854
     16          1           0        4.429985   -4.026534    2.491425
     17          1           0        5.978364   -1.559539    1.621048
     18          1           0        4.687085   -1.625869    2.835090
     19          7           0        4.899704   -4.581712    0.021092
     20          6           0        5.051953   -5.077820   -1.345508
     21          6           0        5.878702   -4.120112   -2.191370
     22          8           0        6.872525   -4.496745   -2.814478
     23          6           0        3.696770   -5.506187   -1.886786
     24          6           0        2.826468   -4.335959   -2.348781
     25          6           0        1.575865   -4.778466   -3.113359
     26          6           0        0.641265   -3.635909   -3.488175
     27          7           0        1.325242   -2.717390   -4.402451
     28          1           0        3.979774   -4.634974    0.423452
     29          1           0        5.770479   -5.866490   -1.166845
     30          1           0        3.105335   -6.099259   -1.189814
     31          1           0        3.941001   -6.189925   -2.699099
     32          1           0        3.385221   -3.668355   -3.012935
     33          1           0        2.478197   -3.778947   -1.489395
     34          1           0        1.136368   -5.627994   -2.596789
     35          1           0        1.936463   -5.308142   -3.995125
     36          1           0        0.393041   -3.115875   -2.551826
     37          1           0       -0.301911   -4.044460   -3.840884
     38          1           0        0.668532   -2.228079   -4.997603
     39          1           0        1.939506   -2.063243   -3.926457
     40          1           0        1.962723   -3.211718   -5.012580
     41          7           0        5.519874   -2.836944   -2.202435
     42          6           0        6.176435   -1.791861   -2.968287
     43          6           0        7.119014   -0.961160   -2.109228
     44          8           0        7.675523    0.038858   -2.524996
     45          6           0        5.161762   -0.926838   -3.712783
     46          6           0        4.014165   -0.426065   -2.857418
     47          8           0        3.946298    0.750245   -2.436600
     48          8           0        2.985937   -1.148397   -2.804654
     49          1           0        4.746789   -2.467496   -1.663131
     50          1           0        6.776527   -2.300034   -3.736563
     51          1           0        4.777848   -1.473838   -4.574468
     52          1           0        5.711032   -0.049705   -4.054746
     53          7           0        7.326959   -1.464747   -0.889491
     54          6           0        8.010762   -0.719177    0.152017
     55          6           0        7.499747    0.662576    0.539474
     56          8           0        8.300566    1.442393    1.043828
     57          1           0        7.022381   -2.394872   -0.674087
     58          1           0        9.063117   -0.571970   -0.085002
     59          1           0        7.846884   -1.410445    0.964539
     60          7           0        6.245932    1.053556    0.295174
     61          6           0        5.766091    2.407861    0.465203
     62          6           0        4.405530    2.419221    1.159568
     63          8           0        3.441682    1.828134    0.679763
     64          6           0        5.879601    3.050281   -0.917299
     65          6           0        5.491888    4.517863   -0.973722
     66          7           0        4.904067    4.974687   -2.075529
     67          8           0        5.813253    5.335025   -0.111417
     68          1           0        5.617381    0.394508   -0.132118
     69          1           0        6.436961    2.942148    1.138755
     70          1           0        5.268566    2.531117   -1.660068
     71          1           0        6.939446    3.010869   -1.177058
     72          1           0        4.615817    4.399689   -2.860634
     73          1           0        4.754776    5.963605   -2.245688
     74          7           0        4.293792    3.125149    2.281967
     75          6           0        3.203796    2.922467    3.216916
     76          6           0        1.793296    3.272477    2.760315
     77          8           0        0.840082    3.038995    3.496160
     78          1           0        5.129478    3.581018    2.624330
     79          1           0        3.396987    3.511126    4.104867
     80          1           0        3.235936    1.844528    3.423829
     81          7           0        1.579046    3.818244    1.557345
     82          6           0        0.251160    4.094965    1.047794
     83          6           0       -0.459443    2.807203    0.656370
     84          8           0        0.020375    1.815747    0.116286
     85          6           0        0.370829    5.142003   -0.056059
     86          6           0        0.768788    6.564067    0.273586
     87          6           0        2.130102    6.884715    0.306868
     88          6           0       -0.142767    7.529475    0.704925
     89          6           0        2.626115    8.094425    0.802016
     90          6           0        0.301129    8.789076    1.138472
     91          6           0        1.682240    9.044200    1.236675
     92          8           0        2.142345   10.275502    1.604370
     93          1           0        2.349010    4.000526    0.935068
     94          1           0       -0.316652    4.608007    1.821924
     95          1           0       -0.650092    5.218505   -0.417677
     96          1           0        0.916297    4.835782   -0.947346
     97          1           0        2.845867    6.161038   -0.048762
     98          1           0       -1.205338    7.364316    0.637357
     99          1           0        3.664782    8.409440    0.740078
    100          1           0       -0.441513    9.498451    1.466297
    101          1           0        1.386061   10.778118    1.940243
    102          7           0       -1.727271    2.719216    1.092800
    103          6           0       -2.690242    1.710527    0.733446
    104          6           0       -3.140373    1.718474   -0.720143
    105          8           0       -2.344284    1.979622   -1.620445
    106          6           0       -2.375261    0.341832    1.330823
    107          6           0       -3.410591   -0.763136    1.108926
    108          6           0       -2.148251    0.338381    2.832341
    109          6           0       -2.848259   -2.106782    1.551417
    110          1           0       -2.078736    3.421097    1.729694
    111          1           0       -3.572534    2.027268    1.286741
    112          1           0       -1.443637    0.051911    0.841925
    113          1           0       -3.705845   -0.929056    0.073409
    114          1           0       -4.330204   -0.531996    1.648820
    115          1           0       -1.443631   -0.440829    3.131075
    116          1           0       -1.659808    1.316611    2.946754
    117          1           0       -3.066672    0.238036    3.419310
    118          1           0       -3.697922   -2.761764    1.400518
    119          1           0       -2.028212   -2.358816    0.877546
    120          1           0       -2.406284   -2.227347    2.545712
    121          7           0       -4.449086    1.570394   -0.964975
    122          6           0       -4.959907    1.419684   -2.310652
    123          6           0       -6.431596    1.762669   -2.492287
    124          8           0       -6.925168    1.886017   -3.614371
    125          6           0       -4.818383   -0.052823   -2.686278
    126          8           0       -5.553957   -0.968558   -1.899792
    127          1           0       -5.035586    1.317330   -0.185118
    128          1           0       -4.302548    2.025637   -2.937709
    129          1           0       -3.817811   -0.412789   -2.472083
    130          1           0       -5.073453   -0.188324   -3.729532
    131          1           0       -5.225530   -1.833184   -2.171743
    132          7           0       -7.191147    1.850447   -1.400372
    133          6           0       -8.592904    2.194213   -1.319121
    134          6           0       -9.590580    1.436291   -2.191127
    135          8           0      -10.313241    1.995241   -3.010112
    136          6           0       -8.726716    3.720492   -1.338272
    137          1           0       -6.742848    1.593942   -0.532885
    138          1           0       -9.017356    1.961923   -0.339743
    139          1           0       -8.560174    4.104471   -2.336983
    140          1           0       -9.763528    3.840605   -1.016410
    141          1           0       -8.093727    4.205520   -0.602764
    142          7           0       -9.846878    0.137342   -2.037682
    143          6           0       -9.230810   -0.885653   -1.218634
    144          6           0      -10.118040   -1.656625   -0.262900
    145          8           0      -11.321342   -1.861880   -0.443548
    146          6           0       -8.560227   -1.825958   -2.221202
    147          1           0      -10.581395   -0.147859   -2.669937
    148          1           0       -8.382349   -0.459845   -0.682536
    149          1           0       -8.242741   -2.681055   -1.620692
    150          1           0       -9.305412   -2.153760   -2.947112
    151          1           0       -7.785769   -1.235032   -2.712752
    152          7           0       -9.648988   -2.374726    0.771615
    153          6           0       -8.303478   -2.374269    1.312172
    154          6           0       -8.172681   -1.554434    2.591103
    155          8           0       -7.173598   -0.898846    2.874190
    156          6           0       -7.970453   -3.837232    1.580935
    157          6           0       -6.509089   -4.020936    1.960365
    158          6           0       -6.135663   -5.493418    2.065490
    159          8           0       -5.684750   -5.962976    3.129958
    160          8           0       -6.171139   -6.146560    0.993507
    161          1           0      -10.342656   -2.879688    1.309888
    162          1           0       -7.598465   -2.029040    0.553770
    163          1           0       -8.143218   -4.319182    0.611153
    164          1           0       -8.577841   -4.232893    2.389596
    165          1           0       -6.405387   -3.572037    2.945573
    166          1           0       -5.797133   -3.534415    1.302402
    167          7           0       -9.170521   -1.726360    3.453515
    168          6           0       -9.320738   -1.044113    4.722402
    169          1           0       -9.337710   -1.777531    5.528608
    170          1           0       -8.483340   -0.361833    4.870396
    171          1           0      -10.253469   -0.480347    4.724790
    172          1           0       -9.812089   -2.501979    3.314567
    173         20           0        1.885681    0.195249   -0.741803
    174          8           0        0.729694   -2.155066   -0.321554
    175          1           0        1.419539   -2.495975    0.240758
    176          1           0        0.058248   -2.828339   -0.329612
 ---------------------------------------------------------------------
 Rotational constants (GHZ):           0.0209416           0.0100647           0.0081365
 Standard basis: SVP (5D, 7F)
 There are  1809 symmetry adapted cartesian basis functions of A   symmetry.
 There are  1717 symmetry adapted basis functions of A   symmetry.
  1717 basis functions,  2922 primitive gaussians,  1809 cartesian basis functions
   358 alpha electrons      358 beta electrons
       nuclear repulsion energy     19899.1827338187 Hartrees.
 NAtoms=  176 NActive=  176 NUniq=  176 SFac= 1.00D+00 NAtFMM=   60 NAOKFM=T Big=T
 Integral buffers will be    131072 words long.
 Raffenetti 2 integral format.
 Two-electron integral symmetry is turned on.
 One-electron integrals computed using PRISM.
 NBasis=  1717 RedAO= T EigKep=  2.83D-04  NBF=  1717
 NBsUse=  1717 1.00D-06 EigRej= -1.00D+00 NBFU=  1717
 ExpMin= 1.98D-02 ExpMax= 3.51D+04 ExpMxC= 5.28D+03 IAcc=3 IRadAn=         5 AccDes= 0.00D+00
 Harris functional with IExCor=  402 and IRadAn=       5 diagonalized for initial guess.
 HarFok:  IExCor=  402 AccDes= 0.00D+00 IRadAn=         5 IDoV= 1 UseB2=F ITyADJ=14
 ICtDFT=  3500011 ScaDFX=  1.000000  1.000000  1.000000  1.000000
 FoFCou: FMM=F IPFlag=           0 FMFlag=      100000 FMFlg1=        2001
         NFxFlg=           0 DoJE=T BraDBF=F KetDBF=T FulRan=T
         wScrn=  0.000000 ICntrl=       500 IOpCl=  0 I1Cent=   200000004 NGrid=           0
         NMat0=    1 NMatS0=      1 NMatT0=    0 NMatD0=    1 NMtDS0=    0 NMtDT0=    0
 Petite list used in FoFCou.
 Requested convergence on RMS density matrix=1.00D-08 within 128 cycles.
 Requested convergence on MAX density matrix=1.00D-06.
 Requested convergence on             energy=1.00D-06.
 No special actions if energy rises.
 EnCoef did     2 forward-backward iterations
 EnCoef did     2 forward-backward iterations
 EnCoef did     1 forward-backward iterations
 EnCoef did     7 forward-backward iterations
 Rare condition: small coef for last iteration:  0.000D+00
 EnCoef did     5 forward-backward iterations
 EnCoef did     4 forward-backward iterations
 EnCoef did     5 forward-backward iterations
 Rare condition: small coef for last iteration: -0.666D-15
 EnCoef did   100 forward-backward iterations
 EnCoef did   100 forward-backward iterations
 Rare condition: small coef for last iteration: -0.735D-15
 Restarting incremental Fock formation.
 EnCoef did   100 forward-backward iterations
 EnCoef did     6 forward-backward iterations
 EnCoef did     7 forward-backward iterations
 SCF Done:  E(RB3LYP) =  -5333.47459351     A.U. after   32 cycles
            NFock= 32  Conv=0.46D-08     -V/T= 2.0081
 SCF density gives NOpUse=  1 NOpAll=  1.
 Hyperfine terms turned off by default for NAtoms > 100.

 **********************************************************************

            Population analysis using the SCF density.

 **********************************************************************

 Orbital symmetries:
 BldTbl:  Degeneracy threshold= 1.00D-02
       Occupied  (A) (A) (A) (A) (A) (A) (A) (A) (A) (A) (A) (A)
                 (A) (A) (A) (A) (A) (A) (A) (A) (A) (A) (A) (A)
                 (A) (A) (A) (A) (A) (A) (A) (A) (A) (A) (A) (A)
                 (A) (A) (A) (A) (A) (A) (A) (A) (A) (A) (A) (A)
                 (A) (A) (A) (A) (A) (A) (A) (A) (A) (A) (A) (A)
                 (A) (A) (A) (A) (A) (A) (A) (A) (A) (A) (A) (A)
                 (A) (A) (A) (A) (A) (A) (A) (A) (A) (A) (A) (A)
                 (A) (A) (A) (A) (A) (A) (A) (A) (A) (A) (A) (A)
                 (A) (A) (A) (A) (A) (A) (A) (A) (A) (A) (A) (A)
                 (A) (A) (A) (A) (A) (A) (A) (A) (A) (A) (A) (A)
                 (A) (A) (A) (A) (A) (A) (A) (A) (A) (A) (A) (A)
                 (A) (A) (A) (A) (A) (A) (A) (A) (A) (A) (A) (A)
                 (A) (A) (A) (A) (A) (A) (A) (A) (A) (A) (A) (A)
                 (A) (A) (A) (A) (A) (A) (A) (A) (A) (A) (A) (A)
                 (A) (A) (A) (A) (A) (A) (A) (A) (A) (A) (A) (A)
                 (A) (A) (A) (A) (A) (A) (A) (A) (A) (A) (A) (A)
                 (A) (A) (A) (A) (A) (A) (A) (A) (A) (A) (A) (A)
                 (A) (A) (A) (A) (A) (A) (A) (A) (A) (A) (A) (A)
                 (A) (A) (A) (A) (A) (A) (A) (A) (A) (A) (A) (A)
                 (A) (A) (A) (A) (A) (A) (A) (A) (A) (A) (A) (A)
                 (A) (A) (A) (A) (A) (A) (A) (A) (A) (A) (A) (A)
                 (A) (A) (A) (A) (A) (A) (A) (A) (A) (A) (A) (A)
                 (A) (A) (A) (A) (A) (A) (A) (A) (A) (A) (A) (A)
                 (A) (A) (A) (A) (A) (A) (A) (A) (A) (A) (A) (A)
                 (A) (A) (A) (A) (A) (A) (A) (A) (A) (A) (A) (A)
                 (A) (A) (A) (A) (A) (A) (A) (A) (A) (A) (A) (A)
                 (A) (A) (A) (A) (A) (A) (A) (A) (A) (A) (A) (A)
                 (A) (A) (A) (A) (A) (A) (A) (A) (A) (A) (A) (A)
                 (A) (A) (A) (A) (A) (A) (A) (A) (A) (A) (A) (A)
                 (A) (A) (A) (A) (A) (A) (A) (A) (A) (A)
       Virtual   (A) (A) (A) (A) (A) (A) (A) (A) (A) (A) (A) (A)
                 (A) (A) (A) (A) (A) (A) (A) (A) (A) (A) (A) (A)
                 (A) (A) (A) (A) (A) (A) (A) (A) (A) (A) (A) (A)
                 (A) (A) (A) (A) (A) (A) (A) (A) (A) (A) (A) (A)
                 (A) (A) (A) (A) (A) (A) (A) (A) (A) (A) (A) (A)
                 (A) (A) (A) (A) (A) (A) (A) (A) (A) (A) (A) (A)
                 (A) (A) (A) (A) (A) (A) (A) (A) (A) (A) (A) (A)
                 (A) (A) (A) (A) (A) (A) (A) (A) (A) (A) (A) (A)
                 (A) (A) (A) (A) (A) (A) (A) (A) (A) (A) (A) (A)
                 (A) (A) (A) (A) (A) (A) (A) (A) (A) (A) (A) (A)
                 (A) (A) (A) (A) (A) (A) (A) (A) (A) (A) (A) (A)
                 (A) (A) (A) (A) (A) (A) (A) (A) (A) (A) (A) (A)
                 (A) (A) (A) (A) (A) (A) (A) (A) (A) (A) (A) (A)
                 (A) (A) (A) (A) (A) (A) (A) (A) (A) (A) (A) (A)
                 (A) (A) (A) (A) (A) (A) (A) (A) (A) (A) (A) (A)
                 (A) (A) (A) (A) (A) (A) (A) (A) (A) (A) (A) (A)
                 (A) (A) (A) (A) (A) (A) (A) (A) (A) (A) (A) (A)
                 (A) (A) (A) (A) (A) (A) (A) (A) (A) (A) (A) (A)
                 (A) (A) (A) (A) (A) (A) (A) (A) (A) (A) (A) (A)
                 (A) (A) (A) (A) (A) (A) (A) (A) (A) (A) (A) (A)
                 (A) (A) (A) (A) (A) (A) (A) (A) (A) (A) (A) (A)
                 (A) (A) (A) (A) (A) (A) (A) (A) (A) (A) (A) (A)
                 (A) (A) (A) (A) (A) (A) (A) (A) (A) (A) (A) (A)
                 (A) (A) (A) (A) (A) (A) (A) (A) (A) (A) (A) (A)
                 (A) (A) (A) (A) (A) (A) (A) (A) (A) (A) (A) (A)
                 (A) (A) (A) (A) (A) (A) (A) (A) (A) (A) (A) (A)
                 (A) (A) (A) (A) (A) (A) (A) (A) (A) (A) (A) (A)
                 (A) (A) (A) (A) (A) (A) (A) (A) (A) (A) (A) (A)
                 (A) (A) (A) (A) (A) (A) (A) (A) (A) (A) (A) (A)
                 (A) (A) (A) (A) (A) (A) (A) (A) (A) (A) (A) (A)
                 (A) (A) (A) (A) (A) (A) (A) (A) (A) (A) (A) (A)
                 (A) (A) (A) (A) (A) (A) (A) (A) (A) (A) (A) (A)
                 (A) (A) (A) (A) (A) (A) (A) (A) (A) (A) (A) (A)
                 (A) (A) (A) (A) (A) (A) (A) (A) (A) (A) (A) (A)
                 (A) (A) (A) (A) (A) (A) (A) (A) (A) (A) (A) (A)
                 (A) (A) (A) (A) (A) (A) (A) (A) (A) (A) (A) (A)
                 (A) (A) (A) (A) (A) (A) (A) (A) (A) (A) (A) (A)
                 (A) (A) (A) (A) (A) (A) (A) (A) (A) (A) (A) (A)
                 (A) (A) (A) (A) (A) (A) (A) (A) (A) (A) (A) (A)
                 (A) (A) (A) (A) (A) (A) (A) (A) (A) (A) (A) (A)
                 (A) (A) (A) (A) (A) (A) (A) (A) (A) (A) (A) (A)
                 (A) (A) (A) (A) (A) (A) (A) (A) (A) (A) (A) (A)
                 (A) (A) (A) (A) (A) (A) (A) (A) (A) (A) (A) (A)
                 (A) (A) (A) (A) (A) (A) (A) (A) (A) (A) (A) (A)
                 (A) (A) (A) (A) (A) (A) (A) (A) (A) (A) (A) (A)
                 (A) (A) (A) (A) (A) (A) (A) (A) (A) (A) (A) (A)
                 (A) (A) (A) (A) (A) (A) (A) (A) (A) (A) (A) (A)
                 (A) (A) (A) (A) (A) (A) (A) (A) (A) (A) (A) (A)
                 (A) (A) (A) (A) (A) (A) (A) (A) (A) (A) (A) (A)
                 (A) (A) (A) (A) (A) (A) (A) (A) (A) (A) (A) (A)
                 (A) (A) (A) (A) (A) (A) (A) (A) (A) (A) (A) (A)
                 (A) (A) (A) (A) (A) (A) (A) (A) (A) (A) (A) (A)
                 (A) (A) (A) (A) (A) (A) (A) (A) (A) (A) (A) (A)
                 (A) (A) (A) (A) (A) (A) (A) (A) (A) (A) (A) (A)
                 (A) (A) (A) (A) (A) (A) (A) (A) (A) (A) (A) (A)
                 (A) (A) (A) (A) (A) (A) (A) (A) (A) (A) (A) (A)
                 (A) (A) (A) (A) (A) (A) (A) (A) (A) (A) (A) (A)
                 (A) (A) (A) (A) (A) (A) (A) (A) (A) (A) (A) (A)
                 (A) (A) (A) (A) (A) (A) (A) (A) (A) (A) (A) (A)
                 (A) (A) (A) (A) (A) (A) (A) (A) (A) (A) (A) (A)
                 (A) (A) (A) (A) (A) (A) (A) (A) (A) (A) (A) (A)
                 (A) (A) (A) (A) (A) (A) (A) (A) (A) (A) (A) (A)
                 (A) (A) (A) (A) (A) (A) (A) (A) (A) (A) (A) (A)
                 (A) (A) (A) (A) (A) (A) (A) (A) (A) (A) (A) (A)
                 (A) (A) (A) (A) (A) (A) (A) (A) (A) (A) (A) (A)
                 (A) (A) (A) (A) (A) (A) (A) (A) (A) (A) (A) (A)
                 (A) (A) (A) (A) (A) (A) (A) (A) (A) (A) (A) (A)
                 (A) (A) (A) (A) (A) (A) (A) (A) (A) (A) (A) (A)
                 (A) (A) (A) (A) (A) (A) (A) (A) (A) (A) (A) (A)
                 (A) (A) (A) (A) (A) (A) (A) (A) (A) (A) (A) (A)
                 (A) (A) (A) (A) (A) (A) (A) (A) (A) (A) (A) (A)
                 (A) (A) (A) (A) (A) (A) (A) (A) (A) (A) (A) (A)
                 (A) (A) (A) (A) (A) (A) (A) (A) (A) (A) (A) (A)
                 (A) (A) (A) (A) (A) (A) (A) (A) (A) (A) (A) (A)
                 (A) (A) (A) (A) (A) (A) (A) (A) (A) (A) (A) (A)
                 (A) (A) (A) (A) (A) (A) (A) (A) (A) (A) (A) (A)
                 (A) (A) (A) (A) (A) (A) (A) (A) (A) (A) (A) (A)
                 (A) (A) (A) (A) (A) (A) (A) (A) (A) (A) (A) (A)
                 (A) (A) (A) (A) (A) (A) (A) (A) (A) (A) (A) (A)
                 (A) (A) (A) (A) (A) (A) (A) (A) (A) (A) (A) (A)
                 (A) (A) (A) (A) (A) (A) (A) (A) (A) (A) (A) (A)
                 (A) (A) (A) (A) (A) (A) (A) (A) (A) (A) (A) (A)
                 (A) (A) (A) (A) (A) (A) (A) (A) (A) (A) (A) (A)
                 (A) (A) (A) (A) (A) (A) (A) (A) (A) (A) (A) (A)
                 (A) (A) (A) (A) (A) (A) (A) (A) (A) (A) (A) (A)
                 (A) (A) (A) (A) (A) (A) (A) (A) (A) (A) (A) (A)
                 (A) (A) (A) (A) (A) (A) (A) (A) (A) (A) (A) (A)
                 (A) (A) (A) (A) (A) (A) (A) (A) (A) (A) (A) (A)
                 (A) (A) (A) (A) (A) (A) (A) (A) (A) (A) (A) (A)
                 (A) (A) (A) (A) (A) (A) (A) (A) (A) (A) (A) (A)
                 (A) (A) (A) (A) (A) (A) (A) (A) (A) (A) (A) (A)
                 (A) (A) (A) (A) (A) (A) (A) (A) (A) (A) (A) (A)
                 (A) (A) (A) (A) (A) (A) (A) (A) (A) (A) (A) (A)
                 (A) (A) (A) (A) (A) (A) (A) (A) (A) (A) (A) (A)
                 (A) (A) (A) (A) (A) (A) (A) (A) (A) (A) (A) (A)
                 (A) (A) (A) (A) (A) (A) (A) (A) (A) (A) (A) (A)
                 (A) (A) (A) (A) (A) (A) (A) (A) (A) (A) (A) (A)
                 (A) (A) (A) (A) (A) (A) (A) (A) (A) (A) (A) (A)
                 (A) (A) (A) (A) (A) (A) (A) (A) (A) (A) (A) (A)
                 (A) (A) (A) (A) (A) (A) (A) (A) (A) (A) (A) (A)
                 (A) (A) (A) (A) (A) (A) (A) (A) (A) (A) (A) (A)
                 (A) (A) (A) (A) (A) (A) (A) (A) (A) (A) (A) (A)
                 (A) (A) (A) (A) (A) (A) (A) (A) (A) (A) (A) (A)
                 (A) (A) (A) (A) (A) (A) (A) (A) (A) (A) (A) (A)
                 (A) (A) (A) (A) (A) (A) (A) (A) (A) (A) (A) (A)
                 (A) (A) (A) (A) (A) (A) (A) (A) (A) (A) (A) (A)
                 (A) (A) (A) (A) (A) (A) (A) (A) (A) (A) (A) (A)
                 (A) (A) (A) (A) (A) (A) (A) (A) (A) (A) (A) (A)
                 (A) (A) (A) (A) (A) (A) (A) (A) (A) (A) (A) (A)
                 (A) (A) (A) (A) (A) (A) (A) (A) (A) (A) (A) (A)
                 (A) (A) (A) (A) (A) (A) (A) (A) (A) (A) (A) (A)
                 (A) (A) (A) (A) (A) (A) (A) (A) (A) (A) (A) (A)
                 (A) (A) (A) (A) (A) (A) (A) (A) (A) (A) (A) (A)
                 (A) (A) (A)
 The electronic state is 1-A.
 Alpha  occ. eigenvalues -- -145.47324 -19.20960 -19.19229 -19.18380 -19.17564
 Alpha  occ. eigenvalues --  -19.17050 -19.15410 -19.14248 -19.14052 -19.13979
 Alpha  occ. eigenvalues --  -19.13818 -19.13153 -19.11886 -19.11825 -19.11624
 Alpha  occ. eigenvalues --  -19.11520 -19.11365 -19.10462 -19.09593 -19.08494
 Alpha  occ. eigenvalues --  -19.07862 -19.07365 -18.94355 -18.94151 -15.53111
 Alpha  occ. eigenvalues --  -14.54273 -14.42302 -14.41761 -14.40335 -14.40062
 Alpha  occ. eigenvalues --  -14.38473 -14.38227 -14.37911 -14.37766 -14.37152
 Alpha  occ. eigenvalues --  -14.36430 -14.36386 -14.34556 -14.34243 -14.33631
 Alpha  occ. eigenvalues --  -12.66733 -12.66693 -12.66647 -10.36062 -10.35147
 Alpha  occ. eigenvalues --  -10.33504 -10.33307 -10.33187 -10.33103 -10.32574
 Alpha  occ. eigenvalues --  -10.31054 -10.31047 -10.30907 -10.30258 -10.29829
 Alpha  occ. eigenvalues --  -10.29580 -10.29341 -10.28851 -10.28736 -10.28288
 Alpha  occ. eigenvalues --  -10.27872 -10.27867 -10.27281 -10.27118 -10.27056
 Alpha  occ. eigenvalues --  -10.26890 -10.26823 -10.26761 -10.26352 -10.25953
 Alpha  occ. eigenvalues --  -10.25185 -10.24998 -10.24475 -10.24323 -10.24259
 Alpha  occ. eigenvalues --  -10.24174 -10.23645 -10.22936 -10.22878 -10.22804
 Alpha  occ. eigenvalues --  -10.22712 -10.22490 -10.22393 -10.22020 -10.21913
 Alpha  occ. eigenvalues --  -10.21795 -10.21454 -10.20945 -10.20090 -10.19773
 Alpha  occ. eigenvalues --  -10.19516 -10.18725 -10.18425 -10.18060 -10.14922
 Alpha  occ. eigenvalues --  -10.14294 -10.10542  -1.89785  -1.17451  -1.17105
 Alpha  occ. eigenvalues --   -1.16874  -1.10846  -1.10426  -1.10392  -1.09358
 Alpha  occ. eigenvalues --   -1.08455  -1.07842  -1.07509  -1.07253  -1.07187
 Alpha  occ. eigenvalues --   -1.05692  -1.05613  -1.04882  -1.04717  -1.04550
 Alpha  occ. eigenvalues --   -1.04384  -1.03820  -1.02322  -1.02107  -1.01546
 Alpha  occ. eigenvalues --   -1.00900  -0.98904  -0.98741  -0.98489  -0.98467
 Alpha  occ. eigenvalues --   -0.97202  -0.96887  -0.95676  -0.94981  -0.94463
 Alpha  occ. eigenvalues --   -0.94222  -0.92866  -0.92786  -0.92393  -0.91458
 Alpha  occ. eigenvalues --   -0.90904  -0.89446  -0.88769  -0.88567  -0.88064
 Alpha  occ. eigenvalues --   -0.85606  -0.83542  -0.83482  -0.81715  -0.81345
 Alpha  occ. eigenvalues --   -0.81137  -0.81039  -0.79006  -0.78921  -0.78547
 Alpha  occ. eigenvalues --   -0.77813  -0.77737  -0.77108  -0.77008  -0.75687
 Alpha  occ. eigenvalues --   -0.75570  -0.75347  -0.74331  -0.72950  -0.71964
 Alpha  occ. eigenvalues --   -0.71275  -0.70653  -0.70204  -0.69555  -0.69275
 Alpha  occ. eigenvalues --   -0.68629  -0.68412  -0.67472  -0.67118  -0.66333
 Alpha  occ. eigenvalues --   -0.65752  -0.65735  -0.65556  -0.65031  -0.64953
 Alpha  occ. eigenvalues --   -0.64427  -0.63943  -0.63649  -0.63533  -0.62861
 Alpha  occ. eigenvalues --   -0.62731  -0.62386  -0.62294  -0.61806  -0.61530
 Alpha  occ. eigenvalues --   -0.60922  -0.60748  -0.60666  -0.59970  -0.59802
 Alpha  occ. eigenvalues --   -0.59288  -0.59026  -0.58632  -0.58006  -0.57836
 Alpha  occ. eigenvalues --   -0.57400  -0.56994  -0.56785  -0.56527  -0.56307
 Alpha  occ. eigenvalues --   -0.55728  -0.55632  -0.55261  -0.55150  -0.54760
 Alpha  occ. eigenvalues --   -0.54458  -0.53984  -0.53804  -0.53468  -0.53381
 Alpha  occ. eigenvalues --   -0.52926  -0.52619  -0.52420  -0.52256  -0.52183
 Alpha  occ. eigenvalues --   -0.51820  -0.51383  -0.51343  -0.51323  -0.51024
 Alpha  occ. eigenvalues --   -0.50846  -0.50334  -0.50097  -0.49848  -0.49631
 Alpha  occ. eigenvalues --   -0.49533  -0.49304  -0.49188  -0.49021  -0.48956
 Alpha  occ. eigenvalues --   -0.48854  -0.48615  -0.48262  -0.48105  -0.47889
 Alpha  occ. eigenvalues --   -0.47751  -0.47537  -0.47354  -0.47096  -0.46973
 Alpha  occ. eigenvalues --   -0.46871  -0.46744  -0.46578  -0.46339  -0.46090
 Alpha  occ. eigenvalues --   -0.46081  -0.45781  -0.45754  -0.45610  -0.45470
 Alpha  occ. eigenvalues --   -0.45234  -0.45091  -0.44891  -0.44732  -0.44479
 Alpha  occ. eigenvalues --   -0.44294  -0.44159  -0.44116  -0.43807  -0.43789
 Alpha  occ. eigenvalues --   -0.43524  -0.43448  -0.43205  -0.43040  -0.42881
 Alpha  occ. eigenvalues --   -0.42768  -0.42554  -0.42379  -0.42272  -0.42223
 Alpha  occ. eigenvalues --   -0.41861  -0.41803  -0.41563  -0.41529  -0.41109
 Alpha  occ. eigenvalues --   -0.41064  -0.41007  -0.40827  -0.40783  -0.40710
 Alpha  occ. eigenvalues --   -0.40515  -0.40427  -0.40345  -0.40312  -0.40211
 Alpha  occ. eigenvalues --   -0.40014  -0.39888  -0.39785  -0.39671  -0.39504
 Alpha  occ. eigenvalues --   -0.39458  -0.39017  -0.38950  -0.38718  -0.38393
 Alpha  occ. eigenvalues --   -0.38372  -0.38012  -0.37946  -0.37647  -0.37479
 Alpha  occ. eigenvalues --   -0.37442  -0.37350  -0.37291  -0.37140  -0.36718
 Alpha  occ. eigenvalues --   -0.36445  -0.36405  -0.35796  -0.35619  -0.35452
 Alpha  occ. eigenvalues --   -0.35222  -0.34389  -0.34181  -0.33934  -0.33575
 Alpha  occ. eigenvalues --   -0.33551  -0.33185  -0.32712  -0.32413  -0.32323
 Alpha  occ. eigenvalues --   -0.31893  -0.31138  -0.31008  -0.30926  -0.30692
 Alpha  occ. eigenvalues --   -0.30606  -0.30231  -0.29984  -0.29836  -0.29762
 Alpha  occ. eigenvalues --   -0.29603  -0.29549  -0.29361  -0.29187  -0.29065
 Alpha  occ. eigenvalues --   -0.28515  -0.28260  -0.28058  -0.27834  -0.27265
 Alpha  occ. eigenvalues --   -0.27126  -0.26920  -0.26454  -0.26448  -0.26229
 Alpha  occ. eigenvalues --   -0.25898  -0.25803  -0.25490  -0.25458  -0.25167
 Alpha  occ. eigenvalues --   -0.24734  -0.24638  -0.23913  -0.23015  -0.22078
 Alpha  occ. eigenvalues --   -0.12029  -0.11876  -0.09564
 Alpha virt. eigenvalues --   -0.08528  -0.06707  -0.06426  -0.05454  -0.05072
 Alpha virt. eigenvalues --   -0.03611  -0.03409  -0.02916  -0.02580  -0.02470
 Alpha virt. eigenvalues --   -0.02201  -0.01526  -0.01421  -0.01045  -0.00895
 Alpha virt. eigenvalues --   -0.00650  -0.00515  -0.00319   0.00057   0.00217
 Alpha virt. eigenvalues --    0.00562   0.01048   0.01198   0.01418   0.01705
 Alpha virt. eigenvalues --    0.01962   0.02315   0.02444   0.02599   0.02849
 Alpha virt. eigenvalues --    0.03012   0.03203   0.03454   0.04037   0.04293
 Alpha virt. eigenvalues --    0.04601   0.04869   0.04880   0.05233   0.05551
 Alpha virt. eigenvalues --    0.05716   0.05929   0.06411   0.06501   0.06623
 Alpha virt. eigenvalues --    0.06764   0.06999   0.07243   0.07694   0.07939
 Alpha virt. eigenvalues --    0.08020   0.08146   0.08374   0.08531   0.08702
 Alpha virt. eigenvalues --    0.08817   0.08993   0.09405   0.09532   0.09712
 Alpha virt. eigenvalues --    0.09779   0.09942   0.10082   0.10274   0.10449
 Alpha virt. eigenvalues --    0.10620   0.10721   0.10861   0.10907   0.11195
 Alpha virt. eigenvalues --    0.11355   0.11574   0.11676   0.11917   0.12075
 Alpha virt. eigenvalues --    0.12309   0.12343   0.12483   0.12588   0.12614
 Alpha virt. eigenvalues --    0.12814   0.12985   0.13109   0.13355   0.13477
 Alpha virt. eigenvalues --    0.13738   0.13912   0.14102   0.14158   0.14400
 Alpha virt. eigenvalues --    0.14543   0.14584   0.14689   0.14860   0.15082
 Alpha virt. eigenvalues --    0.15266   0.15435   0.15639   0.15691   0.15950
 Alpha virt. eigenvalues --    0.16048   0.16169   0.16382   0.16615   0.16685
 Alpha virt. eigenvalues --    0.16776   0.16904   0.16969   0.17288   0.17648
 Alpha virt. eigenvalues --    0.17745   0.17902   0.18102   0.18234   0.18339
 Alpha virt. eigenvalues --    0.18727   0.18883   0.19162   0.19193   0.19407
 Alpha virt. eigenvalues --    0.19797   0.19865   0.20234   0.20461   0.20589
 Alpha virt. eigenvalues --    0.20688   0.20828   0.20969   0.21099   0.21247
 Alpha virt. eigenvalues --    0.21386   0.21432   0.21678   0.22055   0.22164
 Alpha virt. eigenvalues --    0.22608   0.22647   0.22802   0.23030   0.23193
 Alpha virt. eigenvalues --    0.23257   0.23466   0.23521   0.23982   0.24149
 Alpha virt. eigenvalues --    0.24225   0.24654   0.25058   0.25161   0.25459
 Alpha virt. eigenvalues --    0.25513   0.25652   0.25830   0.26176   0.26390
 Alpha virt. eigenvalues --    0.27011   0.27047   0.27283   0.27501   0.27790
 Alpha virt. eigenvalues --    0.28168   0.28328   0.28561   0.28800   0.29075
 Alpha virt. eigenvalues --    0.29476   0.29990   0.30244   0.30470   0.31237
 Alpha virt. eigenvalues --    0.31569   0.31639   0.32392   0.32575   0.32914
 Alpha virt. eigenvalues --    0.32998   0.33132   0.33357   0.33638   0.33881
 Alpha virt. eigenvalues --    0.34313   0.34388   0.34552   0.34951   0.35189
 Alpha virt. eigenvalues --    0.35254   0.35447   0.35970   0.36053   0.36423
 Alpha virt. eigenvalues --    0.36575   0.36887   0.37081   0.37244   0.37322
 Alpha virt. eigenvalues --    0.37508   0.37687   0.37914   0.38293   0.38576
 Alpha virt. eigenvalues --    0.39156   0.39310   0.39722   0.40016   0.40250
 Alpha virt. eigenvalues --    0.40363   0.40641   0.40920   0.41589   0.41777
 Alpha virt. eigenvalues --    0.41806   0.42001   0.42384   0.42628   0.42759
 Alpha virt. eigenvalues --    0.42980   0.43037   0.43192   0.43275   0.43326
 Alpha virt. eigenvalues --    0.43504   0.43766   0.43930   0.44319   0.44683
 Alpha virt. eigenvalues --    0.44815   0.44938   0.45061   0.45206   0.45392
 Alpha virt. eigenvalues --    0.45454   0.45633   0.45872   0.45968   0.46142
 Alpha virt. eigenvalues --    0.46622   0.46814   0.46956   0.47150   0.47341
 Alpha virt. eigenvalues --    0.47593   0.47714   0.47986   0.48091   0.48289
 Alpha virt. eigenvalues --    0.48370   0.48766   0.48884   0.49002   0.49073
 Alpha virt. eigenvalues --    0.49500   0.49661   0.49922   0.50054   0.50150
 Alpha virt. eigenvalues --    0.50247   0.50504   0.50543   0.50979   0.51076
 Alpha virt. eigenvalues --    0.51291   0.51349   0.51771   0.51870   0.51957
 Alpha virt. eigenvalues --    0.52084   0.52203   0.52628   0.52753   0.52996
 Alpha virt. eigenvalues --    0.53060   0.53383   0.53583   0.53757   0.53972
 Alpha virt. eigenvalues --    0.53989   0.54097   0.54315   0.54635   0.54893
 Alpha virt. eigenvalues --    0.54974   0.55123   0.55478   0.55703   0.55880
 Alpha virt. eigenvalues --    0.56018   0.56065   0.56347   0.56490   0.56570
 Alpha virt. eigenvalues --    0.56814   0.56927   0.57144   0.57182   0.57410
 Alpha virt. eigenvalues --    0.57554   0.57789   0.58022   0.58114   0.58236
 Alpha virt. eigenvalues --    0.58330   0.58502   0.58581   0.58801   0.58910
 Alpha virt. eigenvalues --    0.59181   0.59289   0.59413   0.59669   0.59794
 Alpha virt. eigenvalues --    0.59834   0.60034   0.60193   0.60436   0.60634
 Alpha virt. eigenvalues --    0.60700   0.60803   0.61089   0.61124   0.61299
 Alpha virt. eigenvalues --    0.61406   0.61529   0.61690   0.61857   0.61966
 Alpha virt. eigenvalues --    0.61980   0.62118   0.62242   0.62398   0.62479
 Alpha virt. eigenvalues --    0.62664   0.62723   0.62953   0.62993   0.63071
 Alpha virt. eigenvalues --    0.63326   0.63411   0.63496   0.63545   0.63584
 Alpha virt. eigenvalues --    0.63673   0.63820   0.63955   0.63971   0.64166
 Alpha virt. eigenvalues --    0.64242   0.64379   0.64404   0.64478   0.64652
 Alpha virt. eigenvalues --    0.64697   0.64805   0.64835   0.65067   0.65131
 Alpha virt. eigenvalues --    0.65173   0.65310   0.65481   0.65567   0.65712
 Alpha virt. eigenvalues --    0.65884   0.65972   0.66200   0.66210   0.66376
 Alpha virt. eigenvalues --    0.66440   0.66522   0.66725   0.66738   0.66802
 Alpha virt. eigenvalues --    0.66914   0.67019   0.67122   0.67236   0.67386
 Alpha virt. eigenvalues --    0.67516   0.67691   0.67756   0.68164   0.68204
 Alpha virt. eigenvalues --    0.68367   0.68504   0.68597   0.68639   0.68799
 Alpha virt. eigenvalues --    0.68871   0.68990   0.69085   0.69267   0.69411
 Alpha virt. eigenvalues --    0.69621   0.69696   0.69890   0.70056   0.70355
 Alpha virt. eigenvalues --    0.70704   0.70979   0.71166   0.71313   0.71359
 Alpha virt. eigenvalues --    0.71485   0.71561   0.71924   0.72007   0.72061
 Alpha virt. eigenvalues --    0.72178   0.72506   0.72537   0.72732   0.73104
 Alpha virt. eigenvalues --    0.73175   0.73326   0.73884   0.74017   0.74039
 Alpha virt. eigenvalues --    0.74129   0.74301   0.74554   0.74770   0.74975
 Alpha virt. eigenvalues --    0.75095   0.75782   0.75881   0.76011   0.76174
 Alpha virt. eigenvalues --    0.76542   0.76756   0.76890   0.77252   0.77647
 Alpha virt. eigenvalues --    0.78025   0.78345   0.78488   0.78594   0.78885
 Alpha virt. eigenvalues --    0.79123   0.79408   0.79480   0.80064   0.80269
 Alpha virt. eigenvalues --    0.80345   0.80505   0.80814   0.80928   0.81185
 Alpha virt. eigenvalues --    0.81317   0.81654   0.82014   0.82243   0.82472
 Alpha virt. eigenvalues --    0.82867   0.83065   0.83192   0.83381   0.83784
 Alpha virt. eigenvalues --    0.84185   0.84284   0.84573   0.84739   0.85034
 Alpha virt. eigenvalues --    0.85361   0.85587   0.86077   0.86744   0.86796
 Alpha virt. eigenvalues --    0.87248   0.87318   0.87500   0.87945   0.88163
 Alpha virt. eigenvalues --    0.88409   0.88539   0.88820   0.89134   0.89217
 Alpha virt. eigenvalues --    0.89650   0.89876   0.90205   0.90312   0.90610
 Alpha virt. eigenvalues --    0.90692   0.90893   0.91258   0.91503   0.91706
 Alpha virt. eigenvalues --    0.92254   0.92780   0.92827   0.93099   0.93461
 Alpha virt. eigenvalues --    0.93710   0.94131   0.94166   0.94755   0.94832
 Alpha virt. eigenvalues --    0.95169   0.95421   0.95593   0.95780   0.95936
 Alpha virt. eigenvalues --    0.96126   0.96484   0.97012   0.97109   0.97206
 Alpha virt. eigenvalues --    0.97814   0.98218   0.98451   0.98694   0.98962
 Alpha virt. eigenvalues --    0.99087   0.99262   0.99641   0.99701   0.99975
 Alpha virt. eigenvalues --    1.00682   1.01047   1.01663   1.02052   1.02169
 Alpha virt. eigenvalues --    1.02340   1.02796   1.03270   1.03495   1.03708
 Alpha virt. eigenvalues --    1.03866   1.04118   1.04414   1.04757   1.05112
 Alpha virt. eigenvalues --    1.05377   1.05645   1.05900   1.06014   1.06168
 Alpha virt. eigenvalues --    1.06353   1.06611   1.06700   1.07271   1.07718
 Alpha virt. eigenvalues --    1.07794   1.08117   1.08420   1.08576   1.08703
 Alpha virt. eigenvalues --    1.09015   1.09254   1.09475   1.09615   1.10160
 Alpha virt. eigenvalues --    1.10212   1.10412   1.10623   1.10687   1.10799
 Alpha virt. eigenvalues --    1.11412   1.11748   1.12374   1.12440   1.12531
 Alpha virt. eigenvalues --    1.12921   1.13040   1.13190   1.13642   1.13928
 Alpha virt. eigenvalues --    1.14111   1.14269   1.14407   1.14676   1.14942
 Alpha virt. eigenvalues --    1.15560   1.15663   1.15823   1.16172   1.16665
 Alpha virt. eigenvalues --    1.16761   1.17189   1.17469   1.17853   1.17933
 Alpha virt. eigenvalues --    1.18125   1.18408   1.18450   1.18570   1.18910
 Alpha virt. eigenvalues --    1.19010   1.19676   1.19987   1.20332   1.20604
 Alpha virt. eigenvalues --    1.20895   1.21361   1.21431   1.21763   1.22006
 Alpha virt. eigenvalues --    1.22388   1.22546   1.22681   1.22892   1.23033
 Alpha virt. eigenvalues --    1.23361   1.23818   1.24000   1.24114   1.24268
 Alpha virt. eigenvalues --    1.24442   1.24726   1.25148   1.25617   1.26257
 Alpha virt. eigenvalues --    1.26644   1.26725   1.26797   1.27029   1.27100
 Alpha virt. eigenvalues --    1.27763   1.27783   1.28105   1.28234   1.28715
 Alpha virt. eigenvalues --    1.29300   1.29435   1.29534   1.29841   1.29983
 Alpha virt. eigenvalues --    1.30315   1.30594   1.31087   1.31357   1.31697
 Alpha virt. eigenvalues --    1.32033   1.32368   1.32472   1.32529   1.32691
 Alpha virt. eigenvalues --    1.32837   1.33167   1.33510   1.33526   1.33899
 Alpha virt. eigenvalues --    1.34175   1.34468   1.34915   1.35505   1.35715
 Alpha virt. eigenvalues --    1.36145   1.36229   1.36431   1.36609   1.37062
 Alpha virt. eigenvalues --    1.37280   1.37728   1.37788   1.38203   1.38739
 Alpha virt. eigenvalues --    1.39116   1.39544   1.39645   1.39986   1.40240
 Alpha virt. eigenvalues --    1.40602   1.40780   1.41268   1.41654   1.42076
 Alpha virt. eigenvalues --    1.42345   1.42468   1.42763   1.43115   1.43496
 Alpha virt. eigenvalues --    1.44041   1.44162   1.44246   1.44636   1.45080
 Alpha virt. eigenvalues --    1.45358   1.45581   1.45639   1.46024   1.46246
 Alpha virt. eigenvalues --    1.46420   1.46686   1.46828   1.47397   1.47670
 Alpha virt. eigenvalues --    1.48101   1.48637   1.48748   1.48824   1.49237
 Alpha virt. eigenvalues --    1.49566   1.49750   1.49849   1.50137   1.50523
 Alpha virt. eigenvalues --    1.50846   1.50967   1.51647   1.51951   1.52255
 Alpha virt. eigenvalues --    1.52456   1.52545   1.52852   1.53078   1.53339
 Alpha virt. eigenvalues --    1.53434   1.54000   1.54103   1.54632   1.54894
 Alpha virt. eigenvalues --    1.55665   1.55710   1.55899   1.56771   1.57017
 Alpha virt. eigenvalues --    1.57465   1.57573   1.57783   1.57818   1.58084
 Alpha virt. eigenvalues --    1.58876   1.59008   1.59208   1.59345   1.59898
 Alpha virt. eigenvalues --    1.60829   1.61332   1.61703   1.61816   1.61976
 Alpha virt. eigenvalues --    1.62322   1.62670   1.63233   1.63923   1.64431
 Alpha virt. eigenvalues --    1.64729   1.65066   1.65202   1.65398   1.65521
 Alpha virt. eigenvalues --    1.66021   1.66394   1.66523   1.67115   1.67313
 Alpha virt. eigenvalues --    1.67452   1.67699   1.67771   1.68306   1.68697
 Alpha virt. eigenvalues --    1.68727   1.69030   1.69170   1.69330   1.69475
 Alpha virt. eigenvalues --    1.69789   1.69954   1.70062   1.70431   1.70484
 Alpha virt. eigenvalues --    1.70914   1.71059   1.71158   1.71391   1.71733
 Alpha virt. eigenvalues --    1.71895   1.72236   1.72652   1.72828   1.72959
 Alpha virt. eigenvalues --    1.73110   1.73394   1.73755   1.73898   1.74029
 Alpha virt. eigenvalues --    1.74425   1.74546   1.74597   1.74706   1.74811
 Alpha virt. eigenvalues --    1.74885   1.75152   1.75185   1.75384   1.75409
 Alpha virt. eigenvalues --    1.75528   1.75695   1.75792   1.75972   1.76033
 Alpha virt. eigenvalues --    1.76315   1.76620   1.76639   1.76836   1.77001
 Alpha virt. eigenvalues --    1.77219   1.77325   1.77458   1.77546   1.77645
 Alpha virt. eigenvalues --    1.77776   1.77824   1.77985   1.78334   1.78440
 Alpha virt. eigenvalues --    1.78631   1.78895   1.79226   1.79299   1.79444
 Alpha virt. eigenvalues --    1.79487   1.79780   1.80045   1.80184   1.80264
 Alpha virt. eigenvalues --    1.80608   1.80766   1.80776   1.81091   1.81160
 Alpha virt. eigenvalues --    1.81375   1.81546   1.81828   1.82014   1.82061
 Alpha virt. eigenvalues --    1.82122   1.82311   1.82423   1.82725   1.82767
 Alpha virt. eigenvalues --    1.82963   1.83490   1.83681   1.83853   1.84079
 Alpha virt. eigenvalues --    1.84102   1.84215   1.84632   1.84746   1.84920
 Alpha virt. eigenvalues --    1.85206   1.85284   1.85650   1.85794   1.85953
 Alpha virt. eigenvalues --    1.86021   1.86467   1.86580   1.86853   1.86953
 Alpha virt. eigenvalues --    1.87060   1.87267   1.87658   1.87840   1.88206
 Alpha virt. eigenvalues --    1.88250   1.88332   1.88432   1.88859   1.89028
 Alpha virt. eigenvalues --    1.89174   1.89358   1.89485   1.89761   1.90165
 Alpha virt. eigenvalues --    1.90295   1.90375   1.90463   1.90771   1.90878
 Alpha virt. eigenvalues --    1.91123   1.91223   1.91341   1.91591   1.91934
 Alpha virt. eigenvalues --    1.92155   1.92393   1.92718   1.92855   1.93072
 Alpha virt. eigenvalues --    1.93253   1.93643   1.93823   1.93856   1.94002
 Alpha virt. eigenvalues --    1.94368   1.94522   1.94768   1.95038   1.95458
 Alpha virt. eigenvalues --    1.95637   1.95781   1.95976   1.96148   1.96409
 Alpha virt. eigenvalues --    1.96479   1.96564   1.96909   1.97016   1.97192
 Alpha virt. eigenvalues --    1.97656   1.97751   1.97862   1.98040   1.98324
 Alpha virt. eigenvalues --    1.98649   1.98946   1.99111   1.99394   1.99775
 Alpha virt. eigenvalues --    2.00163   2.00549   2.00771   2.00854   2.01028
 Alpha virt. eigenvalues --    2.01560   2.01737   2.02092   2.02105   2.02388
 Alpha virt. eigenvalues --    2.02635   2.02780   2.03109   2.03607   2.04026
 Alpha virt. eigenvalues --    2.04192   2.04685   2.04970   2.05020   2.05122
 Alpha virt. eigenvalues --    2.05402   2.05692   2.06185   2.06323   2.06668
 Alpha virt. eigenvalues --    2.06795   2.07100   2.07260   2.07473   2.07573
 Alpha virt. eigenvalues --    2.07791   2.08063   2.08236   2.08433   2.08819
 Alpha virt. eigenvalues --    2.09474   2.09560   2.09694   2.09756   2.10384
 Alpha virt. eigenvalues --    2.10555   2.10719   2.10834   2.10999   2.11168
 Alpha virt. eigenvalues --    2.11616   2.11887   2.12076   2.12171   2.12345
 Alpha virt. eigenvalues --    2.12724   2.13349   2.13593   2.14004   2.14229
 Alpha virt. eigenvalues --    2.14484   2.14771   2.14990   2.15136   2.15635
 Alpha virt. eigenvalues --    2.15914   2.16005   2.16426   2.16475   2.16762
 Alpha virt. eigenvalues --    2.16975   2.17466   2.17889   2.18284   2.18607
 Alpha virt. eigenvalues --    2.19015   2.20148   2.20237   2.20803   2.20927
 Alpha virt. eigenvalues --    2.21322   2.21597   2.21924   2.22380   2.22781
 Alpha virt. eigenvalues --    2.23176   2.23645   2.23828   2.24360   2.24534
 Alpha virt. eigenvalues --    2.24976   2.25218   2.25564   2.25910   2.26146
 Alpha virt. eigenvalues --    2.26664   2.26980   2.26998   2.27136   2.27937
 Alpha virt. eigenvalues --    2.28008   2.28249   2.28555   2.28674   2.29650
 Alpha virt. eigenvalues --    2.29836   2.29854   2.29963   2.30337   2.30648
 Alpha virt. eigenvalues --    2.30904   2.31072   2.31768   2.32118   2.32201
 Alpha virt. eigenvalues --    2.32673   2.33093   2.33257   2.33338   2.33451
 Alpha virt. eigenvalues --    2.33968   2.34439   2.35034   2.35322   2.35540
 Alpha virt. eigenvalues --    2.35738   2.35860   2.36296   2.36748   2.36985
 Alpha virt. eigenvalues --    2.37701   2.37980   2.38438   2.38671   2.38878
 Alpha virt. eigenvalues --    2.39492   2.39641   2.40233   2.40646   2.40818
 Alpha virt. eigenvalues --    2.40988   2.41501   2.41653   2.42384   2.42923
 Alpha virt. eigenvalues --    2.43332   2.43653   2.43869   2.43919   2.44241
 Alpha virt. eigenvalues --    2.44643   2.44793   2.45175   2.45731   2.45940
 Alpha virt. eigenvalues --    2.46102   2.46703   2.46820   2.47164   2.47407
 Alpha virt. eigenvalues --    2.47445   2.48044   2.48693   2.48916   2.49108
 Alpha virt. eigenvalues --    2.49712   2.50215   2.50999   2.51110   2.51596
 Alpha virt. eigenvalues --    2.51703   2.52009   2.52212   2.52342   2.52732
 Alpha virt. eigenvalues --    2.53154   2.53517   2.53694   2.54063   2.54538
 Alpha virt. eigenvalues --    2.54728   2.54876   2.55083   2.55566   2.55944
 Alpha virt. eigenvalues --    2.56117   2.56423   2.56864   2.57077   2.57252
 Alpha virt. eigenvalues --    2.57332   2.57595   2.57684   2.58131   2.58680
 Alpha virt. eigenvalues --    2.58829   2.59103   2.59601   2.60035   2.60159
 Alpha virt. eigenvalues --    2.60410   2.60590   2.60730   2.60816   2.61196
 Alpha virt. eigenvalues --    2.61667   2.61797   2.62451   2.62904   2.63039
 Alpha virt. eigenvalues --    2.63130   2.63383   2.63945   2.64350   2.64455
 Alpha virt. eigenvalues --    2.64945   2.65318   2.65700   2.65810   2.65964
 Alpha virt. eigenvalues --    2.66647   2.66765   2.67192   2.67250   2.67680
 Alpha virt. eigenvalues --    2.67857   2.67882   2.68245   2.68637   2.68741
 Alpha virt. eigenvalues --    2.68946   2.69431   2.69833   2.69971   2.70009
 Alpha virt. eigenvalues --    2.70927   2.70998   2.71228   2.71766   2.71835
 Alpha virt. eigenvalues --    2.72514   2.72626   2.72992   2.73288   2.73673
 Alpha virt. eigenvalues --    2.73892   2.74098   2.74296   2.74862   2.75135
 Alpha virt. eigenvalues --    2.75300   2.75625   2.76387   2.76726   2.76939
 Alpha virt. eigenvalues --    2.77040   2.77236   2.77467   2.77732   2.77758
 Alpha virt. eigenvalues --    2.78387   2.78445   2.78487   2.78989   2.79217
 Alpha virt. eigenvalues --    2.79581   2.80127   2.80311   2.80623   2.80769
 Alpha virt. eigenvalues --    2.80872   2.81377   2.81693   2.81783   2.82690
 Alpha virt. eigenvalues --    2.83152   2.83350   2.83839   2.83867   2.84133
 Alpha virt. eigenvalues --    2.84493   2.84801   2.85007   2.85126   2.85201
 Alpha virt. eigenvalues --    2.85463   2.86151   2.86258   2.86338   2.86462
 Alpha virt. eigenvalues --    2.87063   2.87450   2.87863   2.88006   2.88325
 Alpha virt. eigenvalues --    2.88727   2.89020   2.89077   2.89109   2.89255
 Alpha virt. eigenvalues --    2.89563   2.90350   2.90652   2.90718   2.90758
 Alpha virt. eigenvalues --    2.91095   2.91332   2.91363   2.91788   2.91834
 Alpha virt. eigenvalues --    2.92283   2.92578   2.92951   2.93126   2.93227
 Alpha virt. eigenvalues --    2.93841   2.94384   2.94392   2.94909   2.95198
 Alpha virt. eigenvalues --    2.95443   2.96029   2.96371   2.96641   2.96957
 Alpha virt. eigenvalues --    2.97108   2.97748   2.97966   2.98100   2.98419
 Alpha virt. eigenvalues --    2.98683   2.98858   2.99306   2.99703   2.99788
 Alpha virt. eigenvalues --    3.00127   3.00321   3.00533   3.00891   3.01120
 Alpha virt. eigenvalues --    3.01433   3.01708   3.02070   3.02413   3.02869
 Alpha virt. eigenvalues --    3.03546   3.03712   3.04362   3.04705   3.04766
 Alpha virt. eigenvalues --    3.07081   3.07350   3.07715   3.07766   3.08153
 Alpha virt. eigenvalues --    3.08408   3.09007   3.09419   3.09839   3.10500
 Alpha virt. eigenvalues --    3.10628   3.11120   3.12284   3.12623   3.12880
 Alpha virt. eigenvalues --    3.13097   3.13494   3.13731   3.13786   3.14295
 Alpha virt. eigenvalues --    3.14861   3.14991   3.15458   3.15811   3.16102
 Alpha virt. eigenvalues --    3.16298   3.16468   3.16514   3.16766   3.17549
 Alpha virt. eigenvalues --    3.17677   3.18094   3.18447   3.18894   3.19203
 Alpha virt. eigenvalues --    3.19291   3.19963   3.20185   3.21000   3.21039
 Alpha virt. eigenvalues --    3.21297   3.22021   3.22487   3.23437   3.23742
 Alpha virt. eigenvalues --    3.23745   3.24976   3.26471   3.27333   3.27610
 Alpha virt. eigenvalues --    3.28437   3.28674   3.28838   3.30651   3.30728
 Alpha virt. eigenvalues --    3.32581   3.35302   3.35660   3.36980   3.38066
 Alpha virt. eigenvalues --    3.38420   3.40051   3.41524   3.42818   3.49336
 Alpha virt. eigenvalues --    3.49673   3.50351   3.53176   3.53785   3.54347
 Alpha virt. eigenvalues --    3.54381   3.54672   3.54855   3.55032   3.55182
 Alpha virt. eigenvalues --    3.55965   3.56710   3.56793   3.57880   3.58136
 Alpha virt. eigenvalues --    3.58968   3.62042   3.62105   3.63216   3.63349
 Alpha virt. eigenvalues --    3.63595   3.63863   3.64595   3.64936   3.65838
 Alpha virt. eigenvalues --    3.66179   3.66205   3.67054   3.67802   3.68107
 Alpha virt. eigenvalues --    3.68111   3.69131   3.69824   3.69960   3.75358
 Alpha virt. eigenvalues --    3.75802   3.77825   3.79495   3.81622
          Condensed to atoms (all electrons):
 Mulliken charges:
               1
     1  C    0.059375
     2  C    0.031344
     3  O   -0.286808
     4  H    0.039863
     5  H    0.058959
     6  H   -0.007581
     7  N   -0.110551
     8  C    0.063944
     9  C    0.048362
    10  O   -0.279629
    11  C    0.134616
    12  C    0.120634
    13  O   -0.380707
    14  O   -0.450594
    15  H    0.110302
    16  H    0.018601
    17  H   -0.028964
    18  H    0.019733
    19  N   -0.128061
    20  C    0.186524
    21  C    0.023480
    22  O   -0.243551
    23  C    0.070732
    24  C   -0.041466
    25  C   -0.062698
    26  C    0.116627
    27  N    0.084164
    28  H    0.129040
    29  H    0.022130
    30  H    0.023282
    31  H    0.017937
    32  H   -0.003695
    33  H   -0.012354
    34  H    0.035761
    35  H    0.007972
    36  H    0.024266
    37  H    0.064903
    38  H    0.160544
    39  H    0.150329
    40  H    0.162366
    41  N   -0.215615
    42  C    0.071003
    43  C    0.054271
    44  O   -0.250377
    45  C    0.163094
    46  C    0.113628
    47  O   -0.363383
    48  O   -0.476504
    49  H    0.164967
    50  H    0.044938
    51  H   -0.025957
    52  H    0.035319
    53  N   -0.175196
    54  C    0.235604
    55  C    0.013515
    56  O   -0.277027
    57  H    0.152861
    58  H    0.045804
    59  H    0.026811
    60  N   -0.151110
    61  C    0.136065
    62  C    0.096690
    63  O   -0.375701
    64  C    0.105542
    65  C   -0.020860
    66  N   -0.056616
    67  O   -0.282324
    68  H    0.146417
    69  H    0.006236
    70  H    0.014293
    71  H    0.067493
    72  H    0.118962
    73  H    0.130068
    74  N   -0.132652
    75  C    0.208363
    76  C    0.035247
    77  O   -0.279413
    78  H    0.153707
    79  H    0.053864
    80  H    0.050968
    81  N   -0.110637
    82  C    0.108598
    83  C    0.230084
    84  O   -0.384681
    85  C    0.101473
    86  C    0.021533
    87  C   -0.035175
    88  C   -0.027805
    89  C   -0.000988
    90  C   -0.032799
    91  C    0.155177
    92  O   -0.191088
    93  H    0.130618
    94  H    0.003349
    95  H   -0.008540
    96  H    0.004586
    97  H   -0.035277
    98  H   -0.031241
    99  H    0.000662
   100  H   -0.032623
   101  H    0.178991
   102  N   -0.132351
   103  C    0.148430
   104  C    0.080482
   105  O   -0.284030
   106  C   -0.098875
   107  C   -0.015984
   108  C    0.056670
   109  C    0.037147
   110  H    0.143040
   111  H   -0.020006
   112  H   -0.029176
   113  H   -0.028890
   114  H    0.028788
   115  H    0.024765
   116  H   -0.005347
   117  H    0.035915
   118  H    0.053408
   119  H   -0.063259
   120  H    0.032062
   121  N   -0.144867
   122  C    0.087078
   123  C    0.090571
   124  O   -0.259370
   125  C    0.232713
   126  O   -0.310800
   127  H    0.134206
   128  H    0.043849
   129  H   -0.022256
   130  H    0.020359
   131  H    0.187558
   132  N   -0.113315
   133  C    0.000268
   134  C    0.066613
   135  O   -0.260849
   136  C    0.085023
   137  H    0.111406
   138  H    0.029901
   139  H    0.046484
   140  H    0.017604
   141  H   -0.011983
   142  N   -0.090432
   143  C    0.018763
   144  C    0.087847
   145  O   -0.283734
   146  C    0.060551
   147  H    0.131690
   148  H   -0.003827
   149  H    0.023744
   150  H    0.009472
   151  H    0.026675
   152  N   -0.097018
   153  C    0.035319
   154  C    0.098868
   155  O   -0.279313
   156  C    0.031023
   157  C    0.069781
   158  C    0.011627
   159  O   -0.369089
   160  O   -0.415143
   161  H    0.117474
   162  H   -0.002700
   163  H    0.007985
   164  H   -0.018858
   165  H   -0.036754
   166  H   -0.038685
   167  N   -0.166830
   168  C    0.121629
   169  H    0.029239
   170  H    0.037339
   171  H    0.019100
   172  H    0.114460
   173  Ca   1.341289
   174  O   -0.324547
   175  H    0.175379
   176  H    0.208352
 Sum of Mulliken charges =  -0.00000
 Mulliken charges with hydrogens summed into heavy atoms:
               1
     1  C    0.150615
     2  C    0.031344
     3  O   -0.286808
     7  N   -0.000249
     8  C    0.082545
     9  C    0.048362
    10  O   -0.279629
    11  C    0.125385
    12  C    0.120634
    13  O   -0.380707
    14  O   -0.450594
    19  N    0.000979
    20  C    0.208653
    21  C    0.023480
    22  O   -0.243551
    23  C    0.111950
    24  C   -0.057515
    25  C   -0.018966
    26  C    0.205795
    27  N    0.557403
    41  N   -0.050648
    42  C    0.115941
    43  C    0.054271
    44  O   -0.250377
    45  C    0.172456
    46  C    0.113628
    47  O   -0.363383
    48  O   -0.476504
    53  N   -0.022335
    54  C    0.308219
    55  C    0.013515
    56  O   -0.277027
    60  N   -0.004693
    61  C    0.142301
    62  C    0.096690
    63  O   -0.375701
    64  C    0.187327
    65  C   -0.020860
    66  N    0.192415
    67  O   -0.282324
    74  N    0.021055
    75  C    0.313195
    76  C    0.035247
    77  O   -0.279413
    81  N    0.019980
    82  C    0.111947
    83  C    0.230084
    84  O   -0.384681
    85  C    0.097519
    86  C    0.021533
    87  C   -0.070453
    88  C   -0.059046
    89  C   -0.000326
    90  C   -0.065422
    91  C    0.155177
    92  O   -0.012097
   102  N    0.010689
   103  C    0.128424
   104  C    0.080482
   105  O   -0.284030
   106  C   -0.128051
   107  C   -0.016086
   108  C    0.112002
   109  C    0.059359
   121  N   -0.010661
   122  C    0.130927
   123  C    0.090571
   124  O   -0.259370
   125  C    0.230816
   126  O   -0.123242
   132  N   -0.001909
   133  C    0.030169
   134  C    0.066613
   135  O   -0.260849
   136  C    0.137127
   142  N    0.041258
   143  C    0.014937
   144  C    0.087847
   145  O   -0.283734
   146  C    0.120443
   152  N    0.020456
   153  C    0.032619
   154  C    0.098868
   155  O   -0.279313
   156  C    0.020151
   157  C   -0.005658
   158  C    0.011627
   159  O   -0.369089
   160  O   -0.415143
   167  N   -0.052370
   168  C    0.207306
   173  Ca   1.341289
   174  O    0.059184
 DipInt: DoE/N= T F RetVal/Mat= T F Init=T NMatP=  1 IDeriv=0 Min/MaxMlt=  0  4
 Entering OneElI...
 OneElI was handed  1333951383 working-precision words.
 Multipole integrals L=0 to 4 MinM= 0 MaxM= 0.
 Requested accuracy = 0.1000D-12
 ShPair: Thresh= 1.00D-13 NBox=     0 BxSize= 0.00D+00 RnKept= 2.55D+01
         NSMCal=               327645 NSMKep=              136532
 PrmmSu-InSpLW:  IPartL=    0 NPrtUS=    1 NPrtUL=    1 DoSpLW=F IThBeg=    0 IThEnd=    0 NThAct=    1.
 PrsmSu:  NPrtUS=   1 ThrOK=F IAlg=1 NPAlg=1 LenDen=           0 ISkipM=0 DoSpLW=F IThBeg=    0 IThEnd=    0.
 Prism:   IPart=     0 DynPar=F LinDyn=F Incr=         512.
 PRISM was handed  1324777765 working-precision words and136532 shell-pairs
 IPart=  0 NShTot=      136532 NBatch=         318 AvBLen=       429.3
 PrsmSu-ThDecC:  IPartSL=    0    0 NPrtUSL=    1    1 IThBeg=    0 IThEnd=    0 CPU=   -1 GPU=   -1 NThAct=    1.
 PrSmSu:  NxtVal=            513.
 Electronic moments (au):
       -716.00000000          5.62651978          7.77219422         -3.82897669
     -84155.71187912     -34722.69654042     -12346.22611874        -66.90165183
        -10.65833844         78.94071614     383290.25624216    -126955.28635274
      -6003.21541800     -82358.54714130     137293.21184964       2050.80532349
       2217.58616266      28768.10302833     -41103.79631357     -31397.34905656
  -18451227.29440187   -5084242.43864954    -512867.92804267    -125031.00795567
    -287676.07577589    -469397.49729081    -234953.04716705      22828.99900715
      69641.60491138   -2626347.09174039   -1627417.09915813    -521164.17237872
     722204.73498011     -76505.56486081     193858.02537904
 Electronic spatial extent (au):  <R**2>=         131224.6345
 DipInt: DoE/N= F T RetVal/Mat= T F Init=T NMatP=  1 IDeriv=0 Min/MaxMlt=  0  4
 Nuclear    moments (au):
        716.00000000         -0.00000000         -0.00000000         -0.00000000
      83520.06453089      34239.83810256      11964.73226360         -0.00000000
         -0.00000000         -0.00000000    -382266.23420453     128992.03831129
       5715.10393972      83006.33493984    -136455.51054813       -912.72601818
      -1698.85856538     -28903.99974511      40610.70466337      30844.41248960
   18087432.63698476    4958986.37311170     474948.71862210     122105.91092169
     274744.59400291     456097.51183840     245622.72704463     -23839.40246144
     -66696.14726135    2537657.43134910    1571018.09083883     493947.99397381
    -719273.49916457      78153.69888906    -193339.37562545
 Total      moments (au):
         -0.00000000          5.62651978          7.77219422         -3.82897669
       -635.64734823       -482.85843786       -381.49385514        -66.90165183
        -10.65833844         78.94071614       1024.02203762       2036.75195855
       -288.11147827        647.78779854        837.70130151       1138.07930531
        518.72759729       -135.89671678       -493.09165020       -552.93656696
    -363794.65741710    -125256.06553783     -37919.20942057      -2925.09703398
     -12931.48177298     -13299.98545241      10669.67987757      -1010.40345428
       2945.45765003     -88689.66039130     -56399.00831930     -27216.17840491
       2931.23581553       1648.13402825        518.64975359
 Traceless Quadrup. (au):
       -135.64746782         17.14144255        118.50602527        -66.90165183
        -10.65833844         78.94071614
 Charge=             -0.0000 electrons
 Dipole moment (field-independent basis, Debye):
    X=             14.3012    Y=             19.7549    Z=             -9.7323  Tot=             26.2583
 Quadrupole moment (field-independent basis, Debye-Ang):
   XX=           -854.9675   YY=           -649.4611   ZZ=           -513.1223
   XY=            -89.9850   XZ=            -14.3358   YZ=            106.1780
 Traceless Quadrupole moment (field-independent basis, Debye-Ang):
   XX=           -182.4505   YY=             23.0558   ZZ=            159.3947
   XY=            -89.9850   XZ=            -14.3358   YZ=            106.1780
 Octapole moment (field-independent basis, Debye-Ang**2):
  XXX=            728.8594  YYY=           1449.6816  ZZZ=           -205.0667  XYY=            461.0704
  XXY=            596.2435  XXZ=            810.0410  XZZ=            369.2103  YZZ=            -96.7260
  YYZ=           -350.9636  XYZ=           -393.5589
 Hexadecapole moment (field-independent basis, Debye-Ang**3):
 XXXX=        -137022.5125 YYYY=         -47177.4405 ZZZZ=         -14282.1926 XXXY=          -1101.7318
 XXXZ=          -4870.6161 YYYX=          -5009.4123 YYYZ=           4018.7131 ZZZX=           -380.5664
 ZZZY=           1109.4006 XXYY=         -33404.7789 XXZZ=         -21242.5710 YYZZ=         -10250.9178
 XXYZ=           1104.0440 YYXZ=            620.7663 ZZXY=            195.3484
 N-N= 1.989918273382D+04 E-N=-5.225846197806D+04  KE= 5.290595682328D+03
 Leave Link  601 at Wed Sep 18 12:47:49 2019, MaxMem=  1342177280 cpu:              50.9 elap:               1.3
 FitSet:  NAtFit=   176 NAtPot=   176 NAtFrz=     0 MDM=   180 TotChg=   0.00000
 Merz-Kollman atomic radii used.
 Read replacement radii for each type of atom:
 Rad(20) =   1.700000000000D+00
 Atom Element Radius
    1     6    1.50
    2     6    1.50
    3     8    1.40
    4     1    1.20
    5     1    1.20
    6     1    1.20
    7     7    1.50
    8     6    1.50
    9     6    1.50
   10     8    1.40
   11     6    1.50
   12     6    1.50
   13     8    1.40
   14     8    1.40
   15     1    1.20
   16     1    1.20
   17     1    1.20
   18     1    1.20
   19     7    1.50
   20     6    1.50
   21     6    1.50
   22     8    1.40
   23     6    1.50
   24     6    1.50
   25     6    1.50
   26     6    1.50
   27     7    1.50
   28     1    1.20
   29     1    1.20
   30     1    1.20
   31     1    1.20
   32     1    1.20
   33     1    1.20
   34     1    1.20
   35     1    1.20
   36     1    1.20
   37     1    1.20
   38     1    1.20
   39     1    1.20
   40     1    1.20
   41     7    1.50
   42     6    1.50
   43     6    1.50
   44     8    1.40
   45     6    1.50
   46     6    1.50
   47     8    1.40
   48     8    1.40
   49     1    1.20
   50     1    1.20
   51     1    1.20
   52     1    1.20
   53     7    1.50
   54     6    1.50
   55     6    1.50
   56     8    1.40
   57     1    1.20
   58     1    1.20
   59     1    1.20
   60     7    1.50
   61     6    1.50
   62     6    1.50
   63     8    1.40
   64     6    1.50
   65     6    1.50
   66     7    1.50
   67     8    1.40
   68     1    1.20
   69     1    1.20
   70     1    1.20
   71     1    1.20
   72     1    1.20
   73     1    1.20
   74     7    1.50
   75     6    1.50
   76     6    1.50
   77     8    1.40
   78     1    1.20
   79     1    1.20
   80     1    1.20
   81     7    1.50
   82     6    1.50
   83     6    1.50
   84     8    1.40
   85     6    1.50
   86     6    1.50
   87     6    1.50
   88     6    1.50
   89     6    1.50
   90     6    1.50
   91     6    1.50
   92     8    1.40
   93     1    1.20
   94     1    1.20
   95     1    1.20
   96     1    1.20
   97     1    1.20
   98     1    1.20
   99     1    1.20
  100     1    1.20
  101     1    1.20
  102     7    1.50
  103     6    1.50
  104     6    1.50
  105     8    1.40
  106     6    1.50
  107     6    1.50
  108     6    1.50
  109     6    1.50
  110     1    1.20
  111     1    1.20
  112     1    1.20
  113     1    1.20
  114     1    1.20
  115     1    1.20
  116     1    1.20
  117     1    1.20
  118     1    1.20
  119     1    1.20
  120     1    1.20
  121     7    1.50
  122     6    1.50
  123     6    1.50
  124     8    1.40
  125     6    1.50
  126     8    1.40
  127     1    1.20
  128     1    1.20
  129     1    1.20
  130     1    1.20
  131     1    1.20
  132     7    1.50
  133     6    1.50
  134     6    1.50
  135     8    1.40
  136     6    1.50
  137     1    1.20
  138     1    1.20
[...]
 **** Fit       0.004117
 **** Fit       0.006042
 **** Fit      -0.000121
 **** Fit       0.001481
 **** Fit       0.004049
 **** Fit      -0.004300
 **** Fit      -0.004540
 **** Fit      -0.003794
 **** Fit      -0.001842
 **** Fit       0.001408
 **** Fit       0.003952
 **** Fit       0.002733
 **** Fit       0.000732
 **** Fit      -0.001630
 **** Fit      -0.004045
 **** Fit      -0.006247
 **** Fit      -0.007943
 **** Fit      -0.008771
 **** Fit      -0.008310
 **** Fit      -0.006125
 **** Fit       0.003722
 **** Fit       0.000687
 **** Fit      -0.002829
 **** Fit      -0.006429
 **** Fit      -0.009769
 **** Fit      -0.000674
 **** Fit       0.000149
 **** Fit      -0.001831
 **** Fit      -0.000483
 **** Fit       0.000478
 **** Fit       0.000936
 **** Fit       0.000978
 **** Fit      -0.004603
 **** Fit      -0.003138
 **** Fit      -0.001523
 **** Fit      -0.000143
 **** Fit       0.000831
 **** Fit       0.001410
 **** Fit       0.001667
 **** Fit       0.001671
 **** Fit       0.001490
 **** Fit      -0.006366
 **** Fit      -0.004546
 **** Fit      -0.002579
 **** Fit      -0.000826
 **** Fit       0.000512
 **** Fit       0.001414
 **** Fit       0.001964
 **** Fit       0.002258
 **** Fit       0.002353
 **** Fit       0.002276
 **** Fit       0.002053
 **** Fit       0.001744
 **** Fit      -0.008394
 **** Fit      -0.006290
 **** Fit       0.001886
 **** Fit       0.002406
 **** Fit       0.002722
 **** Fit       0.002902
 **** Fit       0.002972
 **** Fit       0.002924
 **** Fit       0.002745
 **** Fit       0.002451
 **** Fit       0.002101
 **** Fit       0.001769
 **** Fit      -0.010042
 **** Fit      -0.010785
 **** Fit       0.002612
 **** Fit       0.003004
 **** Fit       0.003249
 **** Fit       0.003419
 **** Fit       0.003535
 **** Fit       0.002499
 **** Fit       0.002127
 **** Fit       0.001843
 **** Fit      -0.014265
 **** Fit      -0.012855
 **** Fit       0.003502
 **** Fit       0.003688
 **** Fit       0.003852
 **** Fit       0.002550
 **** Fit       0.002272
 **** Fit       0.002099
 **** Fit      -0.017922
 **** Fit      -0.016141
 **** Fit       0.003918
 **** Fit       0.004068
 **** Fit       0.004247
 **** Fit       0.002737
 **** Fit       0.002701
 **** Fit      -0.023534
 **** Fit      -0.022207
 **** Fit      -0.020209
 **** Fit       0.004190
 **** Fit       0.004344
 **** Fit       0.003482
 **** Fit       0.003686
 **** Fit       0.003832
 **** Fit      -0.029290
 **** Fit      -0.029342
 **** Fit      -0.028625
 **** Fit      -0.027316
 **** Fit      -0.025405
 **** Fit       0.004205
 **** Fit       0.004388
 **** Fit       0.004392
 **** Fit       0.004963
 **** Fit       0.005544
 **** Fit       0.005879
 **** Fit      -0.033736
 **** Fit      -0.034731
 **** Fit      -0.034849
 **** Fit      -0.034476
 **** Fit       0.004151
 **** Fit       0.004413
 **** Fit       0.005492
 **** Fit       0.006671
 **** Fit       0.007951
 **** Fit       0.003973
 **** Fit       0.004349
 **** Fit       0.006730
 **** Fit       0.008801
 **** Fit       0.003705
 **** Fit       0.004216
 **** Fit       0.008043
 **** Fit       0.002749
 **** Fit       0.003797
 **** Fit       0.004179
 **** Fit       0.001590
 **** Fit       0.003342
 **** Fit       0.003933
 **** Fit       0.003837
 **** Fit       0.002715
 **** Fit       0.003646
 **** Fit       0.003458
 **** Fit      -0.002861
 **** Fit      -0.004045
 **** Fit      -0.002469
 **** Fit      -0.001485
 **** Fit      -0.001866
 **** Fit      -0.003253
 **** Fit      -0.004455
 **** Fit      -0.005452
 **** Fit      -0.003784
 **** Fit      -0.002056
 **** Fit      -0.000802
 **** Fit      -0.000255
 **** Fit      -0.000370
 **** Fit      -0.001022
 **** Fit      -0.002142
 **** Fit      -0.003646
 **** Fit      -0.005230
 **** Fit      -0.006333
 **** Fit      -0.006435
 **** Fit      -0.007119
 **** Fit      -0.005330
 **** Fit      -0.003374
 **** Fit       0.000796
 **** Fit       0.000382
 **** Fit      -0.000286
 **** Fit      -0.001220
 **** Fit      -0.002467
 **** Fit      -0.004023
 **** Fit      -0.005759
 **** Fit      -0.007394
 **** Fit      -0.008554
 **** Fit      -0.008927
 **** Fit      -0.008407
 **** Fit      -0.009085
 **** Fit      -0.007055
 **** Fit       0.001332
 **** Fit       0.000742
 **** Fit       0.000004
 **** Fit      -0.000944
 **** Fit      -0.002181
 **** Fit      -0.003749
 **** Fit      -0.005613
 **** Fit      -0.007624
 **** Fit      -0.009523
 **** Fit      -0.010986
 **** Fit      -0.011726
 **** Fit      -0.011606
 **** Fit      -0.010671
 **** Fit      -0.011406
 **** Fit       0.001417
 **** Fit       0.000722
 **** Fit      -0.000127
 **** Fit      -0.001234
 **** Fit      -0.002689
 **** Fit      -0.004530
 **** Fit      -0.006717
 **** Fit      -0.009108
 **** Fit      -0.011454
 **** Fit      -0.013433
 **** Fit      -0.014723
 **** Fit      -0.015122
 **** Fit      -0.014607
 **** Fit      -0.013308
 **** Fit       0.001539
 **** Fit       0.000811
 **** Fit      -0.000132
 **** Fit      -0.001406
 **** Fit      -0.003093
 **** Fit      -0.005224
 **** Fit      -0.007755
 **** Fit      -0.010551
 **** Fit      -0.013377
 **** Fit      -0.015914
 **** Fit      -0.017816
 **** Fit      -0.018817
 **** Fit      -0.018821
 **** Fit      -0.017922
 **** Fit      -0.016313
 **** Fit       0.001918
 **** Fit       0.001094
 **** Fit      -0.000086
 **** Fit      -0.001747
 **** Fit      -0.003961
 **** Fit      -0.006731
 **** Fit      -0.009967
 **** Fit      -0.013471
 **** Fit      -0.016930
 **** Fit      -0.019934
 **** Fit      -0.022069
 **** Fit      -0.023054
 **** Fit      -0.022866
 **** Fit      -0.021711
 **** Fit       0.002836
 **** Fit       0.001851
 **** Fit       0.000327
 **** Fit      -0.001850
 **** Fit      -0.004723
 **** Fit      -0.008249
 **** Fit      -0.012279
 **** Fit      -0.016543
 **** Fit      -0.020641
 **** Fit      -0.024079
 **** Fit      -0.026388
 **** Fit      -0.027324
 **** Fit      -0.026984
 **** Fit       0.004036
 **** Fit       0.002287
 **** Fit      -0.000324
 **** Fit      -0.003822
 **** Fit      -0.008123
 **** Fit      -0.013018
 **** Fit      -0.018169
 **** Fit      -0.023088
 **** Fit      -0.027180
 **** Fit      -0.029905
 **** Fit      -0.031040
 **** Fit      -0.002363
 **** Fit      -0.000542
 **** Fit      -0.006054
 **** Fit      -0.003966
 **** Fit      -0.001887
 **** Fit      -0.000153
 **** Fit       0.001114
 **** Fit      -0.008152
 **** Fit      -0.005714
 **** Fit      -0.003298
 **** Fit      -0.001185
 **** Fit       0.000474
 **** Fit       0.001658
 **** Fit       0.002446
 **** Fit      -0.010215
 **** Fit      -0.010695
 **** Fit      -0.007809
 **** Fit      -0.004958
 **** Fit      -0.002408
 **** Fit      -0.000324
 **** Fit       0.001237
 **** Fit       0.002309
 **** Fit       0.002996
 **** Fit      -0.015068
 **** Fit      -0.013254
 **** Fit      -0.013940
 **** Fit      -0.010593
 **** Fit      -0.007270
 **** Fit      -0.004238
 **** Fit      -0.001672
 **** Fit       0.000346
 **** Fit       0.001814
 **** Fit       0.002797
 **** Fit       0.003407
 **** Fit       0.003786
 **** Fit      -0.019286
 **** Fit      -0.016967
 **** Fit      -0.018302
 **** Fit      -0.014195
 **** Fit      -0.010099
 **** Fit      -0.006341
 **** Fit      -0.003133
 **** Fit      -0.000581
 **** Fit       0.001306
 **** Fit       0.002594
 **** Fit       0.003397
 **** Fit       0.003858
 **** Fit      -0.024803
 **** Fit      -0.021993
 **** Fit      -0.014322
 **** Fit      -0.009608
 **** Fit      -0.005550
 **** Fit      -0.002279
 **** Fit       0.000189
 **** Fit       0.001924
 **** Fit       0.003049
 **** Fit       0.003712
 **** Fit       0.004077
 **** Fit      -0.008897
 **** Fit      -0.004626
 **** Fit      -0.001393
 **** Fit       0.000905
 **** Fit       0.002430
 **** Fit       0.003358
 **** Fit       0.003875
 **** Fit      -0.007042
 **** Fit      -0.002876
 **** Fit       0.000014
 **** Fit       0.001893
 **** Fit       0.003022
 **** Fit       0.003647
 **** Fit      -0.004327
 **** Fit      -0.000812
 **** Fit       0.001392
 **** Fit       0.002676
 **** Fit      -0.001899
 **** Fit       0.000691
 **** Fit       0.003422
 **** Fit       0.003196
 **** Fit       0.002933
 **** Fit       0.002705
 **** Fit       0.003767
 **** Fit       0.003585
 **** Fit       0.003338
 **** Fit       0.003059
 **** Fit       0.002797
 **** Fit       0.002616
 **** Fit       0.004127
 **** Fit       0.004030
 **** Fit       0.003857
 **** Fit       0.003615
 **** Fit       0.003326
 **** Fit       0.003029
 **** Fit       0.002772
 **** Fit       0.002613
 **** Fit       0.002616
 **** Fit       0.004337
 **** Fit       0.004246
 **** Fit       0.004073
 **** Fit       0.003827
 **** Fit       0.003531
 **** Fit       0.003214
 **** Fit       0.002917
 **** Fit       0.002685
 **** Fit       0.002576
 **** Fit       0.002650
 **** Fit       0.002969
 **** Fit       0.004504
 **** Fit       0.004451
 **** Fit       0.004294
 **** Fit       0.004046
 **** Fit       0.003729
 **** Fit       0.003374
 **** Fit       0.003020
 **** Fit       0.002711
 **** Fit       0.002502
 **** Fit       0.002459
 **** Fit       0.002658
 **** Fit       0.003178
 **** Fit       0.004576
 **** Fit       0.004446
 **** Fit       0.004196
 **** Fit       0.003856
 **** Fit       0.003461
 **** Fit       0.003048
 **** Fit       0.002660
 **** Fit       0.002349
 **** Fit       0.002176
 **** Fit       0.002221
 **** Fit       0.002576
 **** Fit       0.003345
 **** Fit       0.004596
 **** Fit       0.004468
 **** Fit       0.004177
 **** Fit       0.003775
 **** Fit       0.003305
 **** Fit       0.002813
 **** Fit       0.002346
 **** Fit       0.001957
 **** Fit       0.001715
 **** Fit       0.001706
 **** Fit       0.002039
 **** Fit       0.002847
 **** Fit       0.004293
 **** Fit       0.004497
 **** Fit       0.004242
 **** Fit       0.003793
 **** Fit       0.003229
 **** Fit       0.002613
 **** Fit       0.002005
 **** Fit       0.001471
 **** Fit       0.001089
 **** Fit       0.000964
 **** Fit       0.001230
 **** Fit       0.002069
 **** Fit       0.003712
 **** Fit       0.004356
 **** Fit       0.004150
 **** Fit       0.003628
 **** Fit       0.002921
 **** Fit       0.002132
 **** Fit       0.001348
 **** Fit       0.000656
 **** Fit       0.000166
 **** Fit       0.000019
 **** Fit       0.000414
 **** Fit       0.001625
 **** Fit       0.004031
 **** Fit       0.003956
 **** Fit       0.003409
 **** Fit       0.002566
 **** Fit       0.001584
 **** Fit       0.000588
 **** Fit      -0.000302
 **** Fit      -0.000948
 **** Fit      -0.001158
 **** Fit      -0.000661
 **** Fit       0.000933
 **** Fit       0.003362
 **** Fit       0.002554
 **** Fit       0.001381
 **** Fit       0.000079
 **** Fit      -0.001157
 **** Fit      -0.002116
 **** Fit      -0.002521
 **** Fit      -0.001955
 **** Fit       0.001265
 **** Fit      -0.000258
 **** Fit      -0.001860
 **** Fit      -0.003222
 **** Fit      -0.003945
 **** Fit       0.004366
 **** Fit       0.001087
 **** Fit       0.008933
 **** Fit       0.007379
 **** Fit       0.005194
 **** Fit       0.002287
 **** Fit      -0.001346
 **** Fit      -0.005600
 **** Fit       0.009499
 **** Fit       0.008805
 **** Fit       0.007694
 **** Fit       0.006010
 **** Fit       0.003639
 **** Fit       0.000525
 **** Fit      -0.003316
 **** Fit      -0.007783
 **** Fit       0.008814
 **** Fit       0.008729
 **** Fit       0.008420
 **** Fit       0.007679
 **** Fit       0.006332
 **** Fit       0.004247
 **** Fit       0.001355
 **** Fit      -0.002337
 **** Fit       0.007324
 **** Fit       0.007732
 **** Fit       0.007908
 **** Fit       0.007636
 **** Fit       0.006729
 **** Fit       0.005039
 **** Fit       0.002488
 **** Fit      -0.000914
 **** Fit       0.005014
 **** Fit       0.006072
 **** Fit       0.007016
 **** Fit       0.007593
 **** Fit       0.007553
 **** Fit       0.006689
 **** Fit       0.004866
 **** Fit       0.002052
 **** Fit       0.003496
 **** Fit       0.005453
 **** Fit       0.044291
 **** Fit       0.044970
 **** Fit       0.047055
 **** Fit       0.041671
 **** Fit       0.042820
 **** Fit       0.042289
 **** Fit       0.041500
 **** Fit       0.039680
 **** Fit       0.063738
 **** Fit       0.069589
 **** Fit       0.060952
 **** Fit       0.076235
 **** Fit       0.084056
 **** Fit       0.058534
 **** Fit       0.060846
 **** Fit       0.060676
 **** Fit       0.058139
 **** Fit       0.053478
 **** Fit       0.074324
 **** Fit       0.084347
 **** Fit       0.059546
 **** Fit       0.060595
 **** Fit       0.059462
 **** Fit       0.056685
 **** Fit       0.053114
 **** Fit       0.072124
 **** Fit       0.082743
 **** Fit       0.092874
 **** Fit       0.058635
 **** Fit       0.061127
 **** Fit       0.061631
 **** Fit       0.061010
 **** Fit       0.060408
 **** Fit       0.061261
 **** Fit       0.064842
 **** Fit       0.071480
 **** Fit       0.080388
 **** Fit       0.090488
 **** Fit       0.059691
 **** Fit       0.063126
 **** Fit       0.065076
 **** Fit       0.066790
 **** Fit       0.069618
 **** Fit       0.074625
 **** Fit       0.082106
 **** Fit       0.091669
 **** Fit       0.062260
 **** Fit       0.066788
 **** Fit       0.070657
 **** Fit       0.075272
 **** Fit       0.081700
 **** Fit       0.090349
 **** Fit       0.068405
 **** Fit       0.074605
 **** Fit       0.081740
 **** Fit       0.090778
 **** Fit       0.069460
 **** Fit       0.078044
 **** Fit       0.024637
 **** Fit       0.021941
 **** Fit       0.021129
 **** Fit       0.017871
 **** Fit       0.019561
 **** Fit       0.022208
 **** Fit       0.060827
 **** Fit       0.062139
 **** Fit       0.067840
 **** Fit       0.067935
 **** Fit       0.069495
 **** Fit       0.075659
 **** Fit       0.076517
 **** Fit       0.021569
 **** Fit       0.023543
 **** Fit       0.024151
 **** Fit       0.023698
 **** Fit       0.025874
 **** Fit       0.026929
 **** Fit       0.026138
 **** Fit       0.028984
 **** Fit       0.030889
 **** Fit       0.026292
 **** Fit       0.029855
 **** Fit       0.033122
 **** Fit       0.035699
 **** Fit       0.037127
 **** Fit       0.028712
 **** Fit       0.032570
 **** Fit       0.036393
 **** Fit       0.039846
 **** Fit       0.042651
 **** Fit       0.044463
 **** Fit       0.032643
 **** Fit       0.036382
 **** Fit       0.040330
 **** Fit       0.044171
 **** Fit       0.047668
 **** Fit       0.050633
 **** Fit       0.037303
 **** Fit       0.040467
 **** Fit       0.044184
 **** Fit       0.048113
 **** Fit       0.051980
 **** Fit       0.055568
 **** Fit       0.043180
 **** Fit       0.044718
 **** Fit       0.047395
 **** Fit       0.050854
 **** Fit       0.054736
 **** Fit       0.052754
 **** Fit       0.053170
 **** Fit       0.054945
 **** Fit       0.057815
 **** Fit       0.067108
 **** Fit       0.066020
 **** Fit       0.064594
 **** Fit       0.063431
 **** Fit       0.063189
 -----------------------------------------------------------------
 Leave Link  602 at Wed Sep 18 12:47:52 2019, MaxMem=  1342177280 cpu:             110.3 elap:               2.4

 Test job not archived.
 1\1\GINC-C506-114\SP\RB3LYP\SVP\C54H83Ca1N15O23\PENGZHI\18-Sep-2019\0\
 \#b3lyp/svp scf=(tight,noincore) Test #IOP(5/87=12) Density=Current Po
 p=(MK,readradii) iop(6/33=2) iop(6/42=6)\\Ng-295_loop3_9.0\\0,1\C,0,94
 .26,62.81,28.38\C,0,94.83,61.47,27.95\O,0,94.86,60.44,28.63\H,0,93.277
 ,62.66,28.827\H,0,94.925,63.27,29.111\H,0,94.167,63.462,27.511\N,0,95.
 42,61.49,26.75\C,0,96.01,60.33,26.11\C,0,97.26,59.85,26.83\O,0,97.99,6
 0.66,27.39\C,0,96.37,60.56,24.65\C,0,96.69,59.22,24.\O,0,95.93,58.26,2
 4.24\O,0,97.68,59.15,23.24\H,0,95.17,62.27,26.15\H,0,95.23,59.57,26.17
 \H,0,97.12,61.36,24.6\H,0,95.47,60.9,24.14\N,0,97.51,58.54,26.78\C,0,9
 8.69,57.81,27.24\C,0,99.97,58.44,26.71\O,0,100.89,58.77,27.46\C,0,98.4
 9,56.32,27.01\C,0,98.72,55.89,25.56\C,0,98.76,54.37,25.38\C,0,98.88,53
 .92,23.93\N,0,100.15,54.39,23.37\H,0,96.74,57.99,26.44\H,0,98.71,58.14
 ,28.27\H,0,97.51,55.95,27.31\H,0,99.19,55.85,27.7\H,0,99.67,56.28,25.1
 8\H,0,97.91,56.25,24.94\H,0,97.96,53.93,25.97\H,0,99.6,54.02,25.98\H,0
 ,98.04,54.38,23.39\H,0,98.7,52.85,23.87\H,0,100.47,53.79,22.62\H,0,100
 .12,55.36,23.07\H,0,100.88,54.4,24.07\N,0,100.05,58.67,25.4\C,0,101.2,
 59.24,24.72\C,0,101.01,60.72,24.42\O,0,101.8,61.36,23.75\C,0,101.56,58
 .44,23.47\C,0,100.39,58.15,22.55\O,0,100.2,58.77,21.48\O,0,99.76,57.08
 ,22.75\H,0,99.3,58.47,24.75\H,0,102.05,59.14,25.41\H,0,102.05,57.51,23
 .76\H,0,102.26,59.06,22.91\N,0,99.94,61.26,25.01\C,0,99.46,62.59,24.68
 \C,0,99.14,62.93,23.23\O,0,99.19,64.11,22.9\H,0,99.45,60.75,25.72\H,0,
 100.16,63.36,25.\H,0,98.55,62.57,25.26\N,0,98.87,61.99,22.32\C,0,98.75
 ,62.24,20.9\C,0,97.54,61.51,20.32\O,0,97.43,60.29,20.41\C,0,100.13,61.
 93,20.32\C,0,100.27,62.19,18.83\N,0,101.06,61.39,18.12\O,0,99.8,63.18,
 18.27\H,0,98.85,61.03,22.62\H,0,98.55,63.3,20.74\H,0,100.42,60.89,20.4
 9\H,0,100.82,62.62,20.81\H,0,101.52,60.56,18.48\H,0,101.32,61.59,17.16
 \N,0,96.63,62.24,19.68\C,0,95.29,61.75,19.42\C,0,95.13,60.57,18.47\O,0
 ,94.02,60.08,18.29\H,0,96.78,63.24,19.65\H,0,94.7,62.56,19.01\H,0,94.9
 3,61.44,20.41\N,0,96.19,60.05,17.84\C,0,96.1,58.88,16.99\C,0,95.9,57.6
 2,17.82\O,0,96.41,57.34,18.9\C,0,97.31,58.87,16.06\C,0,97.45,59.91,14.
 97\C,0,98.08,61.12,15.28\C,0,96.84,59.79,13.72\C,0,98.08,62.23,14.43\C
 ,0,96.88,60.85,12.8\C,0,97.45,62.08,13.18\O,0,97.55,63.11,12.29\H,0,97
 .11,60.43,17.99\H,0,95.26,59.01,16.31\H,0,97.19,57.93,15.53\H,0,98.28,
 58.75,16.54\H,0,98.58,61.22,16.23\H,0,96.4,58.86,13.4\H,0,98.65,63.14,
 14.6\H,0,96.39,60.71,11.85\H,0,97.01,62.88,11.52\N,0,94.94,56.8,17.36\
 C,0,94.65,55.47,17.83\C,0,95.73,54.43,17.57\O,0,96.92,54.73,17.65\C,0,
 94.02,55.45,19.22\C,0,93.56,54.09,19.75\C,0,92.8,56.34,19.38\C,0,93.18
 ,54.2,21.22\H,0,94.35,57.11,16.6\H,0,93.83,55.17,17.18\H,0,94.81,55.83
 ,19.87\H,0,94.31,53.3,19.73\H,0,92.72,53.72,19.16\H,0,92.71,56.72,20.4
 \H,0,93.09,57.17,18.72\H,0,91.86,55.86,19.09\H,0,92.82,53.2,21.43\H,0,
 94.09,54.42,21.78\H,0,92.48,54.97,21.56\N,0,95.34,53.23,17.12\C,0,96.2
 7,52.13,16.98\C,0,95.84,51.03,16.02\O,0,96.63,50.16,15.65\C,0,96.4,51.
 47,18.35\O,0,95.22,50.9,18.88\H,0,94.35,53.04,17.12\H,0,97.22,52.59,16
 .7\H,0,96.59,52.21,19.12\H,0,97.18,50.72,18.32\H,0,95.45,50.68,19.79\N
 ,0,94.56,50.99,15.65\C,0,93.93,50.07,14.73\C,0,94.12,48.57,14.94\O,0,9
 4.62,47.84,14.09\C,0,94.16,50.57,13.3\H,0,93.95,51.65,16.11\H,0,92.84,
 50.11,14.79\H,0,95.18,50.38,12.99\H,0,93.44,49.96,12.75\H,0,93.88,51.6
 1,13.17\N,0,93.64,47.92,16.\C,0,93.01,48.38,17.22\C,0,91.64,47.83,17.5
 6\O,0,91.23,46.72,17.21\C,0,94.02,48.05,18.32\H,0,93.82,46.93,15.91\H,
 0,92.99,49.47,17.23\H,0,93.48,48.24,19.25\H,0,94.27,46.99,18.26\H,0,94
 .9,48.66,18.11\N,0,90.81,48.4,18.45\C,0,90.93,49.71,19.06\C,0,90.01,50
 .75,18.43\O,0,90.32,51.93,18.29\C,0,90.58,49.51,20.53\C,0,90.86,50.76,
 21.35\C,0,90.67,50.51,22.84\O,0,89.85,51.18,23.5\O,0,91.48,49.71,23.37
 \H,0,89.94,47.91,18.62\H,0,91.97,50.04,19.03\H,0,91.27,48.72,20.85\H,0
 ,89.53,49.26,20.65\H,0,90.12,51.49,21.03\H,0,91.84,51.2,21.2\N,0,88.78
 ,50.31,18.18\C,0,87.72,51.07,17.55\H,0,86.873,51.145,18.232\H,0,88.082
 ,52.07,17.31\H,0,87.406,50.568,16.635\H,0,88.48,49.43,18.59\Ca,0,97.7,
 57.74,21.14\O,0,96.4,56.09,22.76\H,0,96.15,56.76,23.39\H,0,95.99,55.29
 ,23.07\\Version=ES64L-G16RevA.03\State=1-A\HF=-5333.4745935\RMSD=4.606
 e-09\Dipole=7.2406952,5.7083077,-4.6597581\Quadrupole=38.5357232,-73.3
 610049,34.8252817,-132.5845775,55.0885021,-50.3657252\PG=C01 [X(C54H83
 Ca1N15O23)]\\@


 IT IS A SIMPLE TASK TO MAKE THINGS COMPLEX,
 BUT A COMPLEX TASK TO MAKE THEM SIMPLE.
 Job cpu time:       0 days 12 hours 12 minutes 52.1 seconds.
 Elapsed time:       0 days  0 hours 15 minutes 27.2 seconds.
 File lengths (MBytes):  RWF=   1517 Int=      0 D2E=      0 Chk=    171 Scr=      1
 Normal termination of Gaussian 16 at Wed Sep 18 12:47:53 2019.
