 Entering Gaussian System, Link 0=g16
 Initial command:
 /home1/apps/gaussian/16rA.03/g16/l1.exe "/scratch/01990/pengzhi/4345066/Gau-341127.inp" -scrdir="/scratch/01990/pengzhi/4345066/"
 Entering Link 1 = /home1/apps/gaussian/16rA.03/g16/l1.exe PID=    341128.
  
 Copyright (c) 1988,1990,1992,1993,1995,1998,2003,2009,2016,
            Gaussian, Inc.  All Rights Reserved.
  
 This is part of the Gaussian(R) 16 program.  It is based on
 the Gaussian(R) 09 system (copyright 2009, Gaussian, Inc.),
 the Gaussian(R) 03 system (copyright 2003, Gaussian, Inc.),
 the Gaussian(R) 98 system (copyright 1998, Gaussian, Inc.),
 the Gaussian(R) 94 system (copyright 1995, Gaussian, Inc.),
 the Gaussian 92(TM) system (copyright 1992, Gaussian, Inc.),
 the Gaussian 90(TM) system (copyright 1990, Gaussian, Inc.),
 the Gaussian 88(TM) system (copyright 1988, Gaussian, Inc.),
 the Gaussian 86(TM) system (copyright 1986, Carnegie Mellon
 University), and the Gaussian 82(TM) system (copyright 1983,
 Carnegie Mellon University). Gaussian is a federally registered
 trademark of Gaussian, Inc.
  
 This software contains proprietary and confidential information,
 including trade secrets, belonging to Gaussian, Inc.
  
 This software is provided under written license and may be
 used, copied, transmitted, or stored only in accord with that
 written license.
  
 The following legend is applicable only to US Government
 contracts under FAR:
  
                    RESTRICTED RIGHTS LEGEND
  
 Use, reproduction and disclosure by the US Government is
 subject to restrictions as set forth in subparagraphs (a)
 and (c) of the Commercial Computer Software - Restricted
 Rights clause in FAR 52.227-19.
  
 Gaussian, Inc.
 340 Quinnipiac St., Bldg. 40, Wallingford CT 06492
  
  
 ---------------------------------------------------------------
 Warning -- This program may not be used in any manner that
 competes with the business of Gaussian, Inc. or will provide
 assistance to any competitor of Gaussian, Inc.  The licensee
 of this program is prohibited from giving any competitor of
 Gaussian, Inc. access to this program.  By using this program,
 the user acknowledges that Gaussian, Inc. is engaged in the
 business of creating and licensing software in the field of
 computational chemistry and represents and warrants to the
 licensee that it is not a competitor of Gaussian, Inc. and that
 it will not use this program in any manner prohibited above.
 ---------------------------------------------------------------
  

 Cite this work as:
 Gaussian 16, Revision A.03,
 M. J. Frisch, G. W. Trucks, H. B. Schlegel, G. E. Scuseria, 
 M. A. Robb, J. R. Cheeseman, G. Scalmani, V. Barone, 
 G. A. Petersson, H. Nakatsuji, X. Li, M. Caricato, A. V. Marenich, 
 J. Bloino, B. G. Janesko, R. Gomperts, B. Mennucci, H. P. Hratchian, 
 J. V. Ortiz, A. F. Izmaylov, J. L. Sonnenberg, D. Williams-Young, 
 F. Ding, F. Lipparini, F. Egidi, J. Goings, B. Peng, A. Petrone, 
 T. Henderson, D. Ranasinghe, V. G. Zakrzewski, J. Gao, N. Rega, 
 G. Zheng, W. Liang, M. Hada, M. Ehara, K. Toyota, R. Fukuda, 
 J. Hasegawa, M. Ishida, T. Nakajima, Y. Honda, O. Kitao, H. Nakai, 
 T. Vreven, K. Throssell, J. A. Montgomery, Jr., J. E. Peralta, 
 F. Ogliaro, M. J. Bearpark, J. J. Heyd, E. N. Brothers, K. N. Kudin, 
 V. N. Staroverov, T. A. Keith, R. Kobayashi, J. Normand, 
 K. Raghavachari, A. P. Rendell, J. C. Burant, S. S. Iyengar, 
 J. Tomasi, M. Cossi, J. M. Millam, M. Klene, C. Adamo, R. Cammi, 
 J. W. Ochterski, R. L. Martin, K. Morokuma, O. Farkas, 
 J. B. Foresman, and D. J. Fox, Gaussian, Inc., Wallingford CT, 2016.
 
 ******************************************
 Gaussian 16:  ES64L-G16RevA.03 25-Dec-2016
                17-Sep-2019 
 ******************************************
 %chk=Ng-293_loop3_48.0.chk
 %nprocshared=48
 Will use up to   48 processors via shared memory.
 %mem=10GB
 %nosave
 ----------------------------------------------------------------------
 #b3lyp/svp scf=(tight,noincore) Test #IOP(5/87=12) Density=Current Pop
 =(MK,readradii) iop(6/33=2) iop(6/42=6)
 ----------------------------------------------------------------------
 1/30=1,38=1,172=1/1;
 2/12=2,17=6,18=5,40=1/2;
 3/5=18,7=101,11=2,25=1,30=1,74=-5/1,2,3;
 4//1;
 5/5=4,32=2,38=5,87=12/2;
 6/7=2,8=2,9=2,10=2,15=8,20=101,22=-1,28=1,33=2,42=6/1,2;
 99/5=1,9=1/99;
 -----------------
 Ng-293_loop3_48.0
 -----------------
 Symbolic Z-matrix:
 Charge =  0 Multiplicity = 1
 C                     55.01     23.14     7.23 
 C                     54.48     24.41     6.59 
 O                     54.24     24.35     5.39 
 H                     55.938    23.36     7.758 
 H                     54.274    22.753    7.935 
 H                     55.2      22.395    6.457 
 N                     54.19     25.48     7.34 
 C                     53.7      26.68     6.69 
 C                     52.19     26.68     6.57 
 O                     51.45     26.12     7.38 
 C                     54.14     27.93     7.45 
 C                     54.14     28.05     8.97 
 O                     54.29     29.21     9.39 
 O                     53.97     27.11     9.78 
 H                     54.31     25.41     8.34 
 H                     54.1      26.76     5.68 
 H                     53.8      28.87     7.02 
 H                     55.22     27.91     7.27 
 N                     51.73     27.38     5.53 
 C                     50.42     27.68     5. 
 C                     49.39     28.35     5.9 
 O                     48.58     29.15     5.43 
 C                     49.86     26.5      4.2 
 C                     50.77     26.03     3.07 
 C                     50.25     24.71     2.51 
 C                     50.8      24.51     1.1 
 N                     52.23     24.19     0.98 
 H                     52.47     27.87     5.05 
 H                     50.55     28.47     4.26 
 H                     48.94     26.89     3.76 
 H                     49.57     25.7      4.88 
 H                     51.73     25.78     3.53 
 H                     50.8      26.89     2.39 
 H                     49.17     24.81     2.5 
 H                     50.55     24.01     3.29 
 H                     50.69     25.41     0.49 
 H                     50.27     23.69     0.61 
 H                     52.6      23.56     1.68 
 H                     52.48     23.86     0.06 
 H                     52.78     24.98     1.28 
 N                     49.53     28.13     7.2 
 C                     48.96     28.91     8.28 
 C                     50.03     29.57     9.14 
 O                     51.14     29.06     9.32 
 C                     48.15     27.99     9.19 
 C                     47.33     28.61     10.3 
 O                     46.82     29.75     10.28 
 O                     46.94     27.88     11.23 
 H                     50.18     27.37     7.36 
 H                     48.3      29.71     7.95 
 H                     48.81     27.31     9.74 
 H                     47.47     27.4      8.58 
 N                     49.75     30.75     9.7 
 C                     50.57     31.39     10.71 
 C                     50.03     31.09     12.1 
 O                     48.84     31.14     12.39 
 H                     48.85     31.18     9.58 
 H                     50.52     32.46     10.5 
 H                     51.61     31.08     10.73 
 N                     50.91     30.77     13.06 
 C                     50.51     30.6      14.44 
 C                     51.28     31.57     15.32 
 O                     51.06     31.48     16.52 
 C                     50.79     29.15     14.83 
 C                     49.73     28.21     14.28 
 N                     49.72     27.89     12.98 
 O                     48.8      27.85     15. 
 H                     51.9      30.7      12.87 
 H                     49.45     30.83     14.58 
 H                     50.77     29.09     15.92 
 H                     51.75     28.86     14.4 
 H                     50.41     28.35     12.41 
 H                     48.88     27.47     12.61 
 N                     52.17     32.48     14.9 
 C                     52.89     33.47     15.67 
 C                     53.41     33.       17.02 
 O                     54.25     32.11     17.06 
 H                     52.34     32.48     13.9 
 H                     52.42     34.44     15.86 
 H                     53.71     33.86     15.07 
 N                     52.91     33.68     18.06 
 C                     53.26     33.49     19.45 
 C                     52.8      32.16     20.04 
 O                     52.97     31.9      21.23 
 C                     54.74     33.75     19.74 
 C                     55.05     35.21     19.96 
 C                     55.62     36.01     18.97 
 C                     54.49     35.83     21.09 
 C                     55.74     37.4      19.11 
 C                     54.66     37.21     21.28 
 C                     55.25     38.01     20.29 
 O                     55.29     39.37     20.44 
 H                     52.27     34.42     17.82 
 H                     52.63     34.28     19.85 
 H                     55.29     33.46     18.85 
 H                     55.       33.09     20.57 
 H                     55.88     35.53     18.04 
 H                     54.       35.24     21.85 
 H                     56.07     38.04     18.31 
 H                     54.26     37.74     22.13 
 H                     54.9      39.62     21.28 
 N                     52.08     31.32     19.29 
 C                     51.35     30.15     19.72 
 C                     50.13     30.36     20.62 
 O                     49.01     30.01     20.26 
 C                     52.13     28.86     19.96 
 C                     53.12     28.55     18.83 
 C                     51.24     27.62     20.03 
 C                     54.3      27.71     19.3 
 H                     51.99     31.6      18.33 
 H                     50.81     29.91     18.81 
 H                     52.82     28.99     20.79 
 H                     53.51     29.48     18.42 
 H                     52.58     28.09     18. 
 H                     50.7      27.52     19.09 
 H                     51.82     26.72     20.24 
 H                     50.4      27.73     20.71 
 H                     54.81     28.03     20.2 
 H                     54.       26.71     19.6 
 H                     55.04     27.72     18.49 
 N                     50.28     31.06     21.75 
 C                     49.25     31.36     22.71 
 C                     48.41     30.17     23.18 
 O                     47.31     30.35     23.71 
 C                     49.82     32.07     23.94 
 O                     50.6      33.17     23.53 
 H                     51.23     31.34     21.94 
 H                     48.53     32.07     22.3 
 H                     50.39     31.38     24.56 
 H                     48.94     32.43     24.48 
 H                     49.98     33.77     23.14 
 N                     48.82     28.93     22.91 
 C                     48.05     27.72     23.14 
 C                     46.72     27.61     22.42 
 O                     45.72     27.27     23.06 
 C                     48.       27.36     24.62 
 H                     49.68     28.87     22.39 
 H                     48.71     26.98     22.69 
 H                     47.23     26.61     24.77 
 H                     48.98     27.01     24.95 
 H                     47.8      28.27     25.2 
 N                     46.67     27.95     21.13 
 C                     45.43     28.05     20.39 
 C                     45.51     27.13     19.19 
 O                     46.56     26.6      18.83 
 C                     45.15     29.48     19.93 
 H                     47.54     28.03     20.63 
 H                     44.68     27.73     21.11 
 H                     44.22     29.47     19.35 
 H                     45.12     30.19     20.76 
 H                     46.       29.74     19.31 
 N                     44.36     26.87     18.56 
 C                     44.2      25.92     17.48 
 C                     44.66     24.5      17.78 
 O                     45.26     23.82     16.95 
 C                     44.79     26.43     16.18 
 C                     44.07     27.68     15.66 
 C                     44.34     28.16     14.25 
 O                     43.51     27.83     13.37 
 O                     45.36     28.77     13.85 
 H                     43.49     27.3      18.84 
 H                     43.12     25.87     17.32 
 H                     44.69     25.66     15.41 
 H                     45.85     26.64     16.33 
 H                     44.16     28.55     16.31 
 H                     43.02     27.38     15.62 
 N                     44.26     24.       18.95 
 C                     44.79     22.74     19.43 
 H                     45.727    22.918    19.958 
 H                     44.073    22.279    20.109 
 H                     44.971    22.076    18.585 
 H                     43.7      24.55     19.59 
 Ca                    44.57     29.01     11.22 
 O                     44.21     26.53     10.42 
 H                     44.53     26.07     9.64 
 H                     43.76     25.86     10.93 
 
 Stoichiometry    C54H83CaN15O23
 Framework group  C1[X(C54H83CaN15O23)]
 Deg. of freedom   522
 Full point group                 C1      NOp   1
 Largest Abelian subgroup         C1      NOp   1
 Largest concise Abelian subgroup C1      NOp   1
                         Standard orientation:                         
 ---------------------------------------------------------------------
 Center     Atomic      Atomic             Coordinates (Angstroms)
 Number     Number       Type             X           Y           Z
 ---------------------------------------------------------------------
      1          6           0       -8.993805   -1.748324    5.715432
      2          6           0       -9.222855   -2.133089    4.265297
      3          8           0      -10.380417   -2.075027    3.867955
      4          1           0       -8.457041   -2.550034    6.222890
      5          1           0       -8.405068   -0.831885    5.760356
      6          1           0       -9.954478   -1.587827    6.205331
      7          7           0       -8.187277   -2.400906    3.460714
      8          6           0       -8.447408   -2.779628    2.085396
      9          6           0       -8.510393   -1.573941    1.170599
     10          8           0       -7.870782   -0.540858    1.372928
     11          6           0       -7.375560   -3.739623    1.572316
     12          6           0       -5.886217   -3.592052    1.863658
     13          8           0       -5.155716   -4.314270    1.164180
     14          8           0       -5.375489   -2.804188    2.692529
     15          1           0       -7.254412   -2.316191    3.837391
     16          1           0       -9.404831   -3.292529    2.003089
     17          1           0       -7.505063   -4.060539    0.540646
     18          1           0       -7.590694   -4.628339    2.174896
     19          7           0       -9.288652   -1.747690    0.099467
     20          6           0       -9.664635   -0.932984   -1.032738
     21          6           0       -8.575125   -0.352549   -1.924851
     22          8           0       -8.767038   -0.218857   -3.134105
     23          6           0      -10.750512    0.078649   -0.653960
     24          6           0      -11.998510   -0.551146   -0.044239
     25          6           0      -12.896320    0.541888    0.526386
     26          6           0      -14.322284    0.010121    0.646597
     27          7           0      -14.578304   -0.982692    1.700389
     28          1           0       -9.632547   -2.694051    0.034366
     29          1           0      -10.150137   -1.593117   -1.751844
     30          1           0      -11.027863    0.539095   -1.604309
     31          1           0      -10.319818    0.865514   -0.036023
     32          1           0      -11.663120   -1.120847    0.826769
     33          1           0      -12.403014   -1.161634   -0.860683
     34          1           0      -12.840028    1.358072   -0.185777
     35          1           0      -12.361417    0.808270    1.438153
     36          1           0      -14.643474   -0.499832   -0.264986
     37          1           0      -15.008932    0.836536    0.843960
     38          1           0      -14.102241   -0.824208    2.579051
     39          1           0      -15.562366   -1.127926    1.868705
     40          1           0      -14.082825   -1.835209    1.489877
     41          7           0       -7.398956   -0.156023   -1.345193
     42          6           0       -6.121325    0.014865   -2.007127
     43          6           0       -5.145113   -1.105175   -1.671538
     44          8           0       -5.157656   -1.688086   -0.583118
     45          6           0       -5.487147    1.323789   -1.543299
     46          6           0       -4.218237    1.792467   -2.220874
     47          8           0       -3.891952    1.553579   -3.402640
     48          8           0       -3.524693    2.655964   -1.652306
     49          1           0       -7.486750   -0.226957   -0.338734
     50          1           0       -6.184392    0.046978   -3.093171
     51          1           0       -5.178996    1.254605   -0.494129
     52          1           0       -6.217341    2.123680   -1.641233
     53          7           0       -4.260092   -1.470701   -2.602950
     54          6           0       -3.137476   -2.355611   -2.360527
     55          6           0       -1.874818   -1.550122   -2.094853
     56          8           0       -1.541993   -0.573790   -2.757199
     57          1           0       -4.220346   -1.003772   -3.491599
     58          1           0       -3.028980   -2.954120   -3.266902
     59          1           0       -3.243227   -3.018427   -1.507538
     60          7           0       -1.078254   -1.944174   -1.090558
     61          6           0        0.207417   -1.327483   -0.845521
     62          6           0        1.302245   -2.378244   -0.919360
     63          8           0        2.432462   -1.978420   -0.675944
     64          6           0        0.154000   -0.673311    0.533683
     65          6           0       -0.606387    0.642071    0.497862
     66          7           0       -1.942347    0.647708    0.410239
     67          8           0        0.011137    1.702362    0.412142
     68          1           0       -1.314249   -2.732966   -0.504713
     69          1           0        0.443983   -0.580201   -1.608218
     70          1           0        1.180692   -0.468141    0.843374
     71          1           0       -0.373955   -1.346647    1.210795
     72          1           0       -2.379295   -0.253868    0.316232
     73          1           0       -2.388437    1.514464    0.148249
     74          7           0        1.131433   -3.676660   -1.204913
     75          6           0        2.128448   -4.713943   -1.351215
     76          6           0        3.267511   -4.675693   -0.343806
     77          8           0        3.020942   -4.843513    0.843772
     78          1           0        0.168471   -3.956351   -1.357808
     79          1           0        2.605456   -4.858610   -2.325604
     80          1           0        1.638186   -5.685196   -1.322736
     81          7           0        4.475688   -4.510237   -0.897820
     82          6           0        5.739414   -4.488056   -0.195535
     83          6           0        5.937358   -3.274576    0.708283
     84          8           0        6.995708   -3.095193    1.308547
     85          6           0        6.040927   -5.793327    0.544369
     86          6           0        6.660799   -6.844309   -0.342929
     87          6           0        5.923779   -7.901936   -0.875119
     88          6           0        7.939920   -6.583326   -0.863157
     89          6           0        6.453473   -8.770574   -1.839999
     90          6           0        8.512876   -7.479657   -1.778423
     91          6           0        7.775169   -8.553479   -2.298898
     92          8           0        8.308553   -9.338837   -3.285009
     93          1           0        4.480816   -4.447377   -1.903216
     94          1           0        6.371139   -4.370858   -1.071998
     95          1           0        5.086780   -6.199999    0.865181
     96          1           0        6.636566   -5.510227    1.414523
     97          1           0        4.886657   -7.971290   -0.587947
     98          1           0        8.514458   -5.742703   -0.503907
     99          1           0        5.860528   -9.515783   -2.341577
    100          1           0        9.492619   -7.336766   -2.206307
    101          1           0        9.197843   -9.046055   -3.493916
    102          7           0        5.002631   -2.319850    0.744110
    103          6           0        5.102732   -1.001552    1.326151
    104          6           0        6.066454   -0.005378    0.677016
    105          8           0        5.659689    1.049677    0.199628
    106          6           0        4.934593   -0.864654    2.837140
    107          6           0        3.729869   -1.650320    3.370497
    108          6           0        4.675491    0.571925    3.288480
    109          6           0        3.897566   -2.060848    4.827289
    110          1           0        4.167424   -2.542732    0.233373
    111          1           0        4.181266   -0.556898    0.964926
    112          1           0        5.742696   -1.379509    3.350749
    113          1           0        3.591557   -2.553823    2.779184
    114          1           0        2.821693   -1.069052    3.198904
    115          1           0        3.765581    0.932614    2.811859
    116          1           0        4.597688    0.644480    4.374381
    117          1           0        5.386829    1.286077    2.883405
    118          1           0        4.833502   -2.528176    5.106804
    119          1           0        3.907368   -1.205994    5.497459
    120          1           0        3.099753   -2.780807    5.048547
    121          7           0        7.344198   -0.364867    0.511067
    122          6           0        8.384709    0.434736   -0.080939
    123          6           0        8.521120    1.859175    0.462170
    124          8           0        9.117956    2.722706   -0.186984
    125          6           0        9.746613   -0.256340    0.016677
    126          8           0        9.643803   -1.572432   -0.477116
    127          1           0        7.573957   -1.266558    0.899866
    128          1           0        8.221245    0.555311   -1.153013
    129          1           0       10.121978   -0.237011    1.038502
    130          1           0       10.397238    0.327988   -0.639713
    131          1           0        9.464406   -1.467367   -1.400846
    132          7           0        7.891940    2.194781    1.589158
    133          6           0        7.790485    3.539834    2.128080
    134          6           0        7.115403    4.577171    1.251953
    135          8           0        7.664515    5.671395    1.089628
    136          6           0        9.105194    3.995485    2.749709
    137          1           0        7.347437    1.458693    2.007835
    138          1           0        7.124255    3.362777    2.970984
    139          1           0        9.059483    5.067290    2.914162
    140          1           0        9.286707    3.448057    3.676627
    141          1           0        9.928947    3.721735    2.078150
    142          7           0        5.980230    4.240868    0.635120
    143          6           0        5.343318    5.082929   -0.355070
    144          6           0        3.927394    5.371482    0.097366
    145          8           0        3.394313    4.771846    1.029707
    146          6           0        5.323984    4.430201   -1.736544
    147          1           0        5.494794    3.419819    0.956883
    148          1           0        5.966165    5.974691   -0.366160
    149          1           0        4.797923    5.106588   -2.420036
    150          1           0        6.323650    4.168165   -2.091375
    151          1           0        4.776156    3.505826   -1.595422
    152          7           0        3.289124    6.361243   -0.535078
    153          6           0        1.987671    6.878261   -0.169823
    154          6           0        1.850558    7.356815    1.268991
    155          8           0        0.839941    7.140211    1.934601
    156          6           0        0.869840    5.925511   -0.545220
    157          6           0        0.756418    5.723030   -2.060949
    158          6           0       -0.464332    5.030858   -2.628457
    159          8           0       -1.373010    5.765841   -3.082665
    160          8           0       -0.706759    3.800810   -2.601766
    161          1           0        3.710689    6.860693   -1.305164
    162          1           0        1.857248    7.758537   -0.804333
    163          1           0       -0.085191    6.335496   -0.205180
    164          1           0        1.037401    4.968918   -0.048174
    165          1           0        1.625703    5.247167   -2.514159
    166          1           0        0.667910    6.738387   -2.455051
    167          7           0        2.840312    8.131554    1.715160
    168          6           0        2.919100    8.487900    3.117197
    169          1           0        3.443474    7.702814    3.662274
    170          1           0        3.461014    9.427390    3.223678
    171          1           0        1.913121    8.599344    3.521263
    172          1           0        3.630309    8.362793    1.125131
    173         20           0       -3.127821    3.930335   -3.913361
    174          8           0       -4.594498    5.520129   -2.416227
    175          1           0       -5.484360    5.412109   -2.071441
    176          1           0       -4.283626    6.338399   -2.035053
 ---------------------------------------------------------------------
 Rotational constants (GHZ):           0.0184124           0.0082001           0.0065009
 Standard basis: SVP (5D, 7F)
 There are  1809 symmetry adapted cartesian basis functions of A   symmetry.
 There are  1717 symmetry adapted basis functions of A   symmetry.
  1717 basis functions,  2922 primitive gaussians,  1809 cartesian basis functions
   358 alpha electrons      358 beta electrons
       nuclear repulsion energy     18612.9832934493 Hartrees.
 NAtoms=  176 NActive=  176 NUniq=  176 SFac= 1.00D+00 NAtFMM=   60 NAOKFM=T Big=T
 Integral buffers will be    131072 words long.
 Raffenetti 2 integral format.
 Two-electron integral symmetry is turned on.
 One-electron integrals computed using PRISM.
 NBasis=  1717 RedAO= T EigKep=  2.94D-04  NBF=  1717
 NBsUse=  1717 1.00D-06 EigRej= -1.00D+00 NBFU=  1717
 ExpMin= 1.98D-02 ExpMax= 3.51D+04 ExpMxC= 5.28D+03 IAcc=3 IRadAn=         5 AccDes= 0.00D+00
 Harris functional with IExCor=  402 and IRadAn=       5 diagonalized for initial guess.
 HarFok:  IExCor=  402 AccDes= 0.00D+00 IRadAn=         5 IDoV= 1 UseB2=F ITyADJ=14
 ICtDFT=  3500011 ScaDFX=  1.000000  1.000000  1.000000  1.000000
 FoFCou: FMM=F IPFlag=           0 FMFlag=      100000 FMFlg1=        2001
         NFxFlg=           0 DoJE=T BraDBF=F KetDBF=T FulRan=T
         wScrn=  0.000000 ICntrl=       500 IOpCl=  0 I1Cent=   200000004 NGrid=           0
         NMat0=    1 NMatS0=      1 NMatT0=    0 NMatD0=    1 NMtDS0=    0 NMtDT0=    0
 Petite list used in FoFCou.
 Requested convergence on RMS density matrix=1.00D-08 within 128 cycles.
 Requested convergence on MAX density matrix=1.00D-06.
 Requested convergence on             energy=1.00D-06.
 No special actions if energy rises.
 EnCoef did     1 forward-backward iterations
 Rare condition: small coef for last iteration:  0.000D+00
 EnCoef did   100 forward-backward iterations
 EnCoef did   100 forward-backward iterations
 Rare condition: small coef for last iteration:  0.000D+00
 EnCoef did   100 forward-backward iterations
 EnCoef did   100 forward-backward iterations
 Rare condition: small coef for last iteration:  0.173D-15
 EnCoef did   100 forward-backward iterations
 Restarting incremental Fock formation.
 SCF Done:  E(RB3LYP) =  -5333.37395132     A.U. after   29 cycles
            NFock= 29  Conv=0.13D-08     -V/T= 2.0081
 SCF density gives NOpUse=  1 NOpAll=  1.
 Hyperfine terms turned off by default for NAtoms > 100.

 **********************************************************************

            Population analysis using the SCF density.

 **********************************************************************

 Orbital symmetries:
 BldTbl:  Degeneracy threshold= 1.00D-02
       Occupied  (A) (A) (A) (A) (A) (A) (A) (A) (A) (A) (A) (A)
                 (A) (A) (A) (A) (A) (A) (A) (A) (A) (A) (A) (A)
                 (A) (A) (A) (A) (A) (A) (A) (A) (A) (A) (A) (A)
                 (A) (A) (A) (A) (A) (A) (A) (A) (A) (A) (A) (A)
                 (A) (A) (A) (A) (A) (A) (A) (A) (A) (A) (A) (A)
                 (A) (A) (A) (A) (A) (A) (A) (A) (A) (A) (A) (A)
                 (A) (A) (A) (A) (A) (A) (A) (A) (A) (A) (A) (A)
                 (A) (A) (A) (A) (A) (A) (A) (A) (A) (A) (A) (A)
                 (A) (A) (A) (A) (A) (A) (A) (A) (A) (A) (A) (A)
                 (A) (A) (A) (A) (A) (A) (A) (A) (A) (A) (A) (A)
                 (A) (A) (A) (A) (A) (A) (A) (A) (A) (A) (A) (A)
                 (A) (A) (A) (A) (A) (A) (A) (A) (A) (A) (A) (A)
                 (A) (A) (A) (A) (A) (A) (A) (A) (A) (A) (A) (A)
                 (A) (A) (A) (A) (A) (A) (A) (A) (A) (A) (A) (A)
                 (A) (A) (A) (A) (A) (A) (A) (A) (A) (A) (A) (A)
                 (A) (A) (A) (A) (A) (A) (A) (A) (A) (A) (A) (A)
                 (A) (A) (A) (A) (A) (A) (A) (A) (A) (A) (A) (A)
                 (A) (A) (A) (A) (A) (A) (A) (A) (A) (A) (A) (A)
                 (A) (A) (A) (A) (A) (A) (A) (A) (A) (A) (A) (A)
                 (A) (A) (A) (A) (A) (A) (A) (A) (A) (A) (A) (A)
                 (A) (A) (A) (A) (A) (A) (A) (A) (A) (A) (A) (A)
                 (A) (A) (A) (A) (A) (A) (A) (A) (A) (A) (A) (A)
                 (A) (A) (A) (A) (A) (A) (A) (A) (A) (A) (A) (A)
                 (A) (A) (A) (A) (A) (A) (A) (A) (A) (A) (A) (A)
                 (A) (A) (A) (A) (A) (A) (A) (A) (A) (A) (A) (A)
                 (A) (A) (A) (A) (A) (A) (A) (A) (A) (A) (A) (A)
                 (A) (A) (A) (A) (A) (A) (A) (A) (A) (A) (A) (A)
                 (A) (A) (A) (A) (A) (A) (A) (A) (A) (A) (A) (A)
                 (A) (A) (A) (A) (A) (A) (A) (A) (A) (A) (A) (A)
                 (A) (A) (A) (A) (A) (A) (A) (A) (A) (A)
       Virtual   (A) (A) (A) (A) (A) (A) (A) (A) (A) (A) (A) (A)
                 (A) (A) (A) (A) (A) (A) (A) (A) (A) (A) (A) (A)
                 (A) (A) (A) (A) (A) (A) (A) (A) (A) (A) (A) (A)
                 (A) (A) (A) (A) (A) (A) (A) (A) (A) (A) (A) (A)
                 (A) (A) (A) (A) (A) (A) (A) (A) (A) (A) (A) (A)
                 (A) (A) (A) (A) (A) (A) (A) (A) (A) (A) (A) (A)
                 (A) (A) (A) (A) (A) (A) (A) (A) (A) (A) (A) (A)
                 (A) (A) (A) (A) (A) (A) (A) (A) (A) (A) (A) (A)
                 (A) (A) (A) (A) (A) (A) (A) (A) (A) (A) (A) (A)
                 (A) (A) (A) (A) (A) (A) (A) (A) (A) (A) (A) (A)
                 (A) (A) (A) (A) (A) (A) (A) (A) (A) (A) (A) (A)
                 (A) (A) (A) (A) (A) (A) (A) (A) (A) (A) (A) (A)
                 (A) (A) (A) (A) (A) (A) (A) (A) (A) (A) (A) (A)
                 (A) (A) (A) (A) (A) (A) (A) (A) (A) (A) (A) (A)
                 (A) (A) (A) (A) (A) (A) (A) (A) (A) (A) (A) (A)
                 (A) (A) (A) (A) (A) (A) (A) (A) (A) (A) (A) (A)
                 (A) (A) (A) (A) (A) (A) (A) (A) (A) (A) (A) (A)
                 (A) (A) (A) (A) (A) (A) (A) (A) (A) (A) (A) (A)
                 (A) (A) (A) (A) (A) (A) (A) (A) (A) (A) (A) (A)
                 (A) (A) (A) (A) (A) (A) (A) (A) (A) (A) (A) (A)
                 (A) (A) (A) (A) (A) (A) (A) (A) (A) (A) (A) (A)
                 (A) (A) (A) (A) (A) (A) (A) (A) (A) (A) (A) (A)
                 (A) (A) (A) (A) (A) (A) (A) (A) (A) (A) (A) (A)
                 (A) (A) (A) (A) (A) (A) (A) (A) (A) (A) (A) (A)
                 (A) (A) (A) (A) (A) (A) (A) (A) (A) (A) (A) (A)
                 (A) (A) (A) (A) (A) (A) (A) (A) (A) (A) (A) (A)
                 (A) (A) (A) (A) (A) (A) (A) (A) (A) (A) (A) (A)
                 (A) (A) (A) (A) (A) (A) (A) (A) (A) (A) (A) (A)
                 (A) (A) (A) (A) (A) (A) (A) (A) (A) (A) (A) (A)
                 (A) (A) (A) (A) (A) (A) (A) (A) (A) (A) (A) (A)
                 (A) (A) (A) (A) (A) (A) (A) (A) (A) (A) (A) (A)
                 (A) (A) (A) (A) (A) (A) (A) (A) (A) (A) (A) (A)
                 (A) (A) (A) (A) (A) (A) (A) (A) (A) (A) (A) (A)
                 (A) (A) (A) (A) (A) (A) (A) (A) (A) (A) (A) (A)
                 (A) (A) (A) (A) (A) (A) (A) (A) (A) (A) (A) (A)
                 (A) (A) (A) (A) (A) (A) (A) (A) (A) (A) (A) (A)
                 (A) (A) (A) (A) (A) (A) (A) (A) (A) (A) (A) (A)
                 (A) (A) (A) (A) (A) (A) (A) (A) (A) (A) (A) (A)
                 (A) (A) (A) (A) (A) (A) (A) (A) (A) (A) (A) (A)
                 (A) (A) (A) (A) (A) (A) (A) (A) (A) (A) (A) (A)
                 (A) (A) (A) (A) (A) (A) (A) (A) (A) (A) (A) (A)
                 (A) (A) (A) (A) (A) (A) (A) (A) (A) (A) (A) (A)
                 (A) (A) (A) (A) (A) (A) (A) (A) (A) (A) (A) (A)
                 (A) (A) (A) (A) (A) (A) (A) (A) (A) (A) (A) (A)
                 (A) (A) (A) (A) (A) (A) (A) (A) (A) (A) (A) (A)
                 (A) (A) (A) (A) (A) (A) (A) (A) (A) (A) (A) (A)
                 (A) (A) (A) (A) (A) (A) (A) (A) (A) (A) (A) (A)
                 (A) (A) (A) (A) (A) (A) (A) (A) (A) (A) (A) (A)
                 (A) (A) (A) (A) (A) (A) (A) (A) (A) (A) (A) (A)
                 (A) (A) (A) (A) (A) (A) (A) (A) (A) (A) (A) (A)
                 (A) (A) (A) (A) (A) (A) (A) (A) (A) (A) (A) (A)
                 (A) (A) (A) (A) (A) (A) (A) (A) (A) (A) (A) (A)
                 (A) (A) (A) (A) (A) (A) (A) (A) (A) (A) (A) (A)
                 (A) (A) (A) (A) (A) (A) (A) (A) (A) (A) (A) (A)
                 (A) (A) (A) (A) (A) (A) (A) (A) (A) (A) (A) (A)
                 (A) (A) (A) (A) (A) (A) (A) (A) (A) (A) (A) (A)
                 (A) (A) (A) (A) (A) (A) (A) (A) (A) (A) (A) (A)
                 (A) (A) (A) (A) (A) (A) (A) (A) (A) (A) (A) (A)
                 (A) (A) (A) (A) (A) (A) (A) (A) (A) (A) (A) (A)
                 (A) (A) (A) (A) (A) (A) (A) (A) (A) (A) (A) (A)
                 (A) (A) (A) (A) (A) (A) (A) (A) (A) (A) (A) (A)
                 (A) (A) (A) (A) (A) (A) (A) (A) (A) (A) (A) (A)
                 (A) (A) (A) (A) (A) (A) (A) (A) (A) (A) (A) (A)
                 (A) (A) (A) (A) (A) (A) (A) (A) (A) (A) (A) (A)
                 (A) (A) (A) (A) (A) (A) (A) (A) (A) (A) (A) (A)
                 (A) (A) (A) (A) (A) (A) (A) (A) (A) (A) (A) (A)
                 (A) (A) (A) (A) (A) (A) (A) (A) (A) (A) (A) (A)
                 (A) (A) (A) (A) (A) (A) (A) (A) (A) (A) (A) (A)
                 (A) (A) (A) (A) (A) (A) (A) (A) (A) (A) (A) (A)
                 (A) (A) (A) (A) (A) (A) (A) (A) (A) (A) (A) (A)
                 (A) (A) (A) (A) (A) (A) (A) (A) (A) (A) (A) (A)
                 (A) (A) (A) (A) (A) (A) (A) (A) (A) (A) (A) (A)
                 (A) (A) (A) (A) (A) (A) (A) (A) (A) (A) (A) (A)
                 (A) (A) (A) (A) (A) (A) (A) (A) (A) (A) (A) (A)
                 (A) (A) (A) (A) (A) (A) (A) (A) (A) (A) (A) (A)
                 (A) (A) (A) (A) (A) (A) (A) (A) (A) (A) (A) (A)
                 (A) (A) (A) (A) (A) (A) (A) (A) (A) (A) (A) (A)
                 (A) (A) (A) (A) (A) (A) (A) (A) (A) (A) (A) (A)
                 (A) (A) (A) (A) (A) (A) (A) (A) (A) (A) (A) (A)
                 (A) (A) (A) (A) (A) (A) (A) (A) (A) (A) (A) (A)
                 (A) (A) (A) (A) (A) (A) (A) (A) (A) (A) (A) (A)
                 (A) (A) (A) (A) (A) (A) (A) (A) (A) (A) (A) (A)
                 (A) (A) (A) (A) (A) (A) (A) (A) (A) (A) (A) (A)
                 (A) (A) (A) (A) (A) (A) (A) (A) (A) (A) (A) (A)
                 (A) (A) (A) (A) (A) (A) (A) (A) (A) (A) (A) (A)
                 (A) (A) (A) (A) (A) (A) (A) (A) (A) (A) (A) (A)
                 (A) (A) (A) (A) (A) (A) (A) (A) (A) (A) (A) (A)
                 (A) (A) (A) (A) (A) (A) (A) (A) (A) (A) (A) (A)
                 (A) (A) (A) (A) (A) (A) (A) (A) (A) (A) (A) (A)
                 (A) (A) (A) (A) (A) (A) (A) (A) (A) (A) (A) (A)
                 (A) (A) (A) (A) (A) (A) (A) (A) (A) (A) (A) (A)
                 (A) (A) (A) (A) (A) (A) (A) (A) (A) (A) (A) (A)
                 (A) (A) (A) (A) (A) (A) (A) (A) (A) (A) (A) (A)
                 (A) (A) (A) (A) (A) (A) (A) (A) (A) (A) (A) (A)
                 (A) (A) (A) (A) (A) (A) (A) (A) (A) (A) (A) (A)
                 (A) (A) (A) (A) (A) (A) (A) (A) (A) (A) (A) (A)
                 (A) (A) (A) (A) (A) (A) (A) (A) (A) (A) (A) (A)
                 (A) (A) (A) (A) (A) (A) (A) (A) (A) (A) (A) (A)
                 (A) (A) (A) (A) (A) (A) (A) (A) (A) (A) (A) (A)
                 (A) (A) (A) (A) (A) (A) (A) (A) (A) (A) (A) (A)
                 (A) (A) (A) (A) (A) (A) (A) (A) (A) (A) (A) (A)
                 (A) (A) (A) (A) (A) (A) (A) (A) (A) (A) (A) (A)
                 (A) (A) (A) (A) (A) (A) (A) (A) (A) (A) (A) (A)
                 (A) (A) (A) (A) (A) (A) (A) (A) (A) (A) (A) (A)
                 (A) (A) (A) (A) (A) (A) (A) (A) (A) (A) (A) (A)
                 (A) (A) (A) (A) (A) (A) (A) (A) (A) (A) (A) (A)
                 (A) (A) (A) (A) (A) (A) (A) (A) (A) (A) (A) (A)
                 (A) (A) (A) (A) (A) (A) (A) (A) (A) (A) (A) (A)
                 (A) (A) (A) (A) (A) (A) (A) (A) (A) (A) (A) (A)
                 (A) (A) (A) (A) (A) (A) (A) (A) (A) (A) (A) (A)
                 (A) (A) (A) (A) (A) (A) (A) (A) (A) (A) (A) (A)
                 (A) (A) (A) (A) (A) (A) (A) (A) (A) (A) (A) (A)
                 (A) (A) (A) (A) (A) (A) (A) (A) (A) (A) (A) (A)
                 (A) (A) (A)
 The electronic state is 1-A.
 Alpha  occ. eigenvalues -- -145.43948 -19.19164 -19.15704 -19.12207 -19.09359
 Alpha  occ. eigenvalues --  -19.09265 -19.08996 -19.08451 -19.08321 -19.07497
 Alpha  occ. eigenvalues --  -19.07339 -19.07266 -19.06847 -19.06465 -19.06462
 Alpha  occ. eigenvalues --  -19.06049 -19.05807 -19.05577 -19.04676 -19.03705
 Alpha  occ. eigenvalues --  -19.02636 -19.02277 -18.96589 -18.95752 -15.49863
 Alpha  occ. eigenvalues --  -14.57476 -14.36616 -14.35949 -14.35930 -14.34443
 Alpha  occ. eigenvalues --  -14.33360 -14.33021 -14.32952 -14.32946 -14.32854
 Alpha  occ. eigenvalues --  -14.32571 -14.32356 -14.31869 -14.31018 -14.28517
 Alpha  occ. eigenvalues --  -12.63454 -12.63436 -12.63375 -10.35336 -10.28325
 Alpha  occ. eigenvalues --  -10.28145 -10.27725 -10.27350 -10.27294 -10.26887
 Alpha  occ. eigenvalues --  -10.26330 -10.26146 -10.25806 -10.25400 -10.25338
 Alpha  occ. eigenvalues --  -10.25183 -10.25174 -10.24820 -10.24656 -10.24506
 Alpha  occ. eigenvalues --  -10.24452 -10.24342 -10.23911 -10.23212 -10.22428
 Alpha  occ. eigenvalues --  -10.22251 -10.22154 -10.22107 -10.22064 -10.21704
 Alpha  occ. eigenvalues --  -10.21261 -10.21253 -10.20704 -10.20397 -10.20316
 Alpha  occ. eigenvalues --  -10.20209 -10.19849 -10.19099 -10.18389 -10.18316
 Alpha  occ. eigenvalues --  -10.18269 -10.18171 -10.18008 -10.17506 -10.17451
 Alpha  occ. eigenvalues --  -10.17149 -10.16470 -10.16298 -10.16120 -10.15667
 Alpha  occ. eigenvalues --  -10.15162 -10.14493 -10.14414 -10.14309 -10.13949
 Alpha  occ. eigenvalues --  -10.13564 -10.13355  -1.86599  -1.14052  -1.13684
 Alpha  occ. eigenvalues --   -1.13473  -1.13156  -1.04999  -1.04245  -1.03546
 Alpha  occ. eigenvalues --   -1.02554  -1.02329  -1.01755  -1.01722  -1.01218
 Alpha  occ. eigenvalues --   -1.01156  -1.01045  -1.00580  -1.00244  -1.00207
 Alpha  occ. eigenvalues --   -0.99417  -0.99118  -0.98683  -0.98175  -0.98049
 Alpha  occ. eigenvalues --   -0.95597  -0.93226  -0.93168  -0.92382  -0.91181
 Alpha  occ. eigenvalues --   -0.90639  -0.90407  -0.90111  -0.90098  -0.89785
 Alpha  occ. eigenvalues --   -0.89742  -0.89181  -0.88949  -0.88928  -0.88733
 Alpha  occ. eigenvalues --   -0.88206  -0.87841  -0.86592  -0.84090  -0.83354
 Alpha  occ. eigenvalues --   -0.82883  -0.80636  -0.79287  -0.78668  -0.78307
 Alpha  occ. eigenvalues --   -0.77004  -0.76570  -0.76244  -0.75602  -0.74755
 Alpha  occ. eigenvalues --   -0.74354  -0.73791  -0.73396  -0.72977  -0.72390
 Alpha  occ. eigenvalues --   -0.71842  -0.71018  -0.70826  -0.70627  -0.69925
 Alpha  occ. eigenvalues --   -0.69839  -0.68573  -0.67737  -0.66086  -0.65908
 Alpha  occ. eigenvalues --   -0.65370  -0.64857  -0.64357  -0.63778  -0.63062
 Alpha  occ. eigenvalues --   -0.61715  -0.61620  -0.61557  -0.61224  -0.60774
 Alpha  occ. eigenvalues --   -0.60302  -0.59701  -0.59270  -0.58874  -0.58497
 Alpha  occ. eigenvalues --   -0.58239  -0.58214  -0.57131  -0.57009  -0.56931
 Alpha  occ. eigenvalues --   -0.56143  -0.56115  -0.55960  -0.55616  -0.55001
 Alpha  occ. eigenvalues --   -0.54739  -0.54712  -0.54403  -0.53970  -0.53955
 Alpha  occ. eigenvalues --   -0.53760  -0.53634  -0.53229  -0.52803  -0.52725
 Alpha  occ. eigenvalues --   -0.52551  -0.51674  -0.51487  -0.51029  -0.50832
 Alpha  occ. eigenvalues --   -0.50185  -0.49696  -0.49161  -0.48474  -0.48449
 Alpha  occ. eigenvalues --   -0.48431  -0.48178  -0.47656  -0.47498  -0.47409
 Alpha  occ. eigenvalues --   -0.47176  -0.47001  -0.46491  -0.46316  -0.46163
 Alpha  occ. eigenvalues --   -0.46011  -0.45755  -0.45538  -0.45520  -0.45055
 Alpha  occ. eigenvalues --   -0.44932  -0.44679  -0.44584  -0.44231  -0.44172
 Alpha  occ. eigenvalues --   -0.44044  -0.43851  -0.43507  -0.43464  -0.43403
 Alpha  occ. eigenvalues --   -0.43144  -0.42811  -0.42644  -0.42591  -0.42154
 Alpha  occ. eigenvalues --   -0.42086  -0.41958  -0.41922  -0.41685  -0.41388
 Alpha  occ. eigenvalues --   -0.41306  -0.40991  -0.40787  -0.40607  -0.40515
 Alpha  occ. eigenvalues --   -0.40370  -0.40291  -0.40262  -0.39991  -0.39955
 Alpha  occ. eigenvalues --   -0.39804  -0.39729  -0.39526  -0.39415  -0.39245
 Alpha  occ. eigenvalues --   -0.39074  -0.38855  -0.38639  -0.38628  -0.38429
 Alpha  occ. eigenvalues --   -0.38369  -0.38175  -0.37965  -0.37893  -0.37867
 Alpha  occ. eigenvalues --   -0.37737  -0.37527  -0.37356  -0.37262  -0.37138
 Alpha  occ. eigenvalues --   -0.37096  -0.37073  -0.36880  -0.36743  -0.36725
 Alpha  occ. eigenvalues --   -0.36423  -0.36373  -0.36067  -0.35843  -0.35663
 Alpha  occ. eigenvalues --   -0.35468  -0.35288  -0.35225  -0.35150  -0.35072
 Alpha  occ. eigenvalues --   -0.34988  -0.34903  -0.34715  -0.34609  -0.34445
 Alpha  occ. eigenvalues --   -0.34074  -0.34033  -0.33993  -0.33908  -0.33741
 Alpha  occ. eigenvalues --   -0.33602  -0.33259  -0.33100  -0.33094  -0.33002
 Alpha  occ. eigenvalues --   -0.32420  -0.32021  -0.31895  -0.31870  -0.31807
 Alpha  occ. eigenvalues --   -0.31332  -0.30713  -0.30276  -0.29806  -0.29308
 Alpha  occ. eigenvalues --   -0.28356  -0.28094  -0.27870  -0.27422  -0.27319
 Alpha  occ. eigenvalues --   -0.27152  -0.26748  -0.26428  -0.26224  -0.25621
 Alpha  occ. eigenvalues --   -0.25055  -0.24908  -0.24884  -0.24537  -0.24414
 Alpha  occ. eigenvalues --   -0.24374  -0.24265  -0.24236  -0.24063  -0.23950
 Alpha  occ. eigenvalues --   -0.23714  -0.23371  -0.23280  -0.22679  -0.22612
 Alpha  occ. eigenvalues --   -0.22574  -0.22385  -0.22216  -0.22065  -0.21768
 Alpha  occ. eigenvalues --   -0.21727  -0.21700  -0.21376  -0.21052  -0.20719
 Alpha  occ. eigenvalues --   -0.20506  -0.20391  -0.20120  -0.18398  -0.17613
 Alpha  occ. eigenvalues --   -0.14450  -0.13355  -0.11167
 Alpha virt. eigenvalues --   -0.10018  -0.08588  -0.03687  -0.03645  -0.01040
 Alpha virt. eigenvalues --   -0.00801   0.00114   0.00519   0.00818   0.01246
 Alpha virt. eigenvalues --    0.01403   0.01613   0.02052   0.02257   0.03135
 Alpha virt. eigenvalues --    0.03262   0.03303   0.03391   0.03536   0.03905
 Alpha virt. eigenvalues --    0.03988   0.04121   0.04344   0.04688   0.04944
 Alpha virt. eigenvalues --    0.05070   0.05246   0.05358   0.05476   0.05941
 Alpha virt. eigenvalues --    0.06495   0.06726   0.06796   0.06879   0.07219
 Alpha virt. eigenvalues --    0.07251   0.07715   0.08045   0.08239   0.08571
 Alpha virt. eigenvalues --    0.08659   0.09115   0.09409   0.09472   0.09513
 Alpha virt. eigenvalues --    0.09847   0.09973   0.10168   0.10214   0.10623
 Alpha virt. eigenvalues --    0.10836   0.11103   0.11187   0.11697   0.11881
 Alpha virt. eigenvalues --    0.11917   0.11998   0.12106   0.12330   0.12555
 Alpha virt. eigenvalues --    0.12944   0.13161   0.13268   0.13339   0.13444
 Alpha virt. eigenvalues --    0.13854   0.13897   0.14066   0.14175   0.14420
 Alpha virt. eigenvalues --    0.14612   0.14938   0.15218   0.15315   0.15465
 Alpha virt. eigenvalues --    0.15661   0.15845   0.16022   0.16178   0.16188
 Alpha virt. eigenvalues --    0.16202   0.16494   0.16572   0.16674   0.16715
 Alpha virt. eigenvalues --    0.16839   0.16950   0.17171   0.17348   0.17504
 Alpha virt. eigenvalues --    0.17602   0.17745   0.17929   0.18016   0.18220
 Alpha virt. eigenvalues --    0.18390   0.18523   0.18681   0.18834   0.18921
 Alpha virt. eigenvalues --    0.19015   0.19155   0.19378   0.19585   0.19804
 Alpha virt. eigenvalues --    0.19925   0.20054   0.20570   0.20744   0.20789
 Alpha virt. eigenvalues --    0.21011   0.21096   0.21402   0.21655   0.22026
 Alpha virt. eigenvalues --    0.22138   0.22302   0.22584   0.22707   0.22983
 Alpha virt. eigenvalues --    0.23122   0.23219   0.23545   0.23764   0.24015
 Alpha virt. eigenvalues --    0.24196   0.24316   0.24419   0.24738   0.24919
 Alpha virt. eigenvalues --    0.25180   0.25335   0.25370   0.25718   0.26076
 Alpha virt. eigenvalues --    0.26222   0.26507   0.26862   0.26982   0.27132
 Alpha virt. eigenvalues --    0.27277   0.27680   0.27867   0.28075   0.28086
 Alpha virt. eigenvalues --    0.28154   0.28407   0.28593   0.28629   0.29160
 Alpha virt. eigenvalues --    0.29180   0.29330   0.29866   0.30441   0.30515
 Alpha virt. eigenvalues --    0.30616   0.31099   0.31314   0.31343   0.31777
 Alpha virt. eigenvalues --    0.31999   0.32113   0.32482   0.32668   0.32705
 Alpha virt. eigenvalues --    0.32912   0.33320   0.33438   0.33883   0.34306
 Alpha virt. eigenvalues --    0.34620   0.35122   0.35306   0.35460   0.35509
 Alpha virt. eigenvalues --    0.35598   0.35983   0.36076   0.36553   0.37005
 Alpha virt. eigenvalues --    0.37522   0.37623   0.37846   0.37936   0.38052
 Alpha virt. eigenvalues --    0.38951   0.39428   0.39487   0.39913   0.40058
 Alpha virt. eigenvalues --    0.40100   0.40327   0.41143   0.41458   0.41744
 Alpha virt. eigenvalues --    0.42053   0.42238   0.42294   0.42555   0.42908
 Alpha virt. eigenvalues --    0.42922   0.43401   0.43508   0.43959   0.44172
 Alpha virt. eigenvalues --    0.44284   0.44412   0.44501   0.44738   0.45118
 Alpha virt. eigenvalues --    0.45243   0.45312   0.45475   0.45804   0.45889
 Alpha virt. eigenvalues --    0.46145   0.46433   0.46614   0.46706   0.46839
 Alpha virt. eigenvalues --    0.47305   0.47340   0.47360   0.47485   0.47731
 Alpha virt. eigenvalues --    0.47906   0.48241   0.48409   0.48651   0.48703
 Alpha virt. eigenvalues --    0.48755   0.49130   0.49368   0.49543   0.49731
 Alpha virt. eigenvalues --    0.49845   0.50044   0.50113   0.50341   0.50799
 Alpha virt. eigenvalues --    0.50824   0.51193   0.51295   0.51554   0.51743
 Alpha virt. eigenvalues --    0.51883   0.52120   0.52249   0.52337   0.52363
 Alpha virt. eigenvalues --    0.52535   0.52806   0.53021   0.53242   0.53398
 Alpha virt. eigenvalues --    0.53728   0.53909   0.53963   0.54124   0.54170
 Alpha virt. eigenvalues --    0.54396   0.54596   0.54719   0.55145   0.55173
 Alpha virt. eigenvalues --    0.55380   0.55470   0.55624   0.55900   0.56119
 Alpha virt. eigenvalues --    0.56505   0.56699   0.56973   0.57102   0.57392
 Alpha virt. eigenvalues --    0.57527   0.57710   0.57756   0.58016   0.58486
 Alpha virt. eigenvalues --    0.58607   0.58760   0.58854   0.59052   0.59344
 Alpha virt. eigenvalues --    0.59578   0.59618   0.59830   0.60071   0.60273
 Alpha virt. eigenvalues --    0.60419   0.60494   0.60772   0.60851   0.61026
 Alpha virt. eigenvalues --    0.61240   0.61302   0.61328   0.61676   0.61779
 Alpha virt. eigenvalues --    0.61924   0.62243   0.62282   0.62573   0.62648
 Alpha virt. eigenvalues --    0.62771   0.62831   0.62949   0.63098   0.63319
 Alpha virt. eigenvalues --    0.63409   0.63459   0.63489   0.63694   0.63881
 Alpha virt. eigenvalues --    0.63980   0.64154   0.64329   0.64425   0.64503
 Alpha virt. eigenvalues --    0.64556   0.64641   0.64794   0.65082   0.65145
 Alpha virt. eigenvalues --    0.65229   0.65303   0.65520   0.65677   0.65837
 Alpha virt. eigenvalues --    0.66005   0.66029   0.66123   0.66132   0.66349
 Alpha virt. eigenvalues --    0.66535   0.66664   0.66878   0.67062   0.67185
 Alpha virt. eigenvalues --    0.67313   0.67331   0.67495   0.67602   0.67628
 Alpha virt. eigenvalues --    0.67739   0.67772   0.67870   0.67945   0.68063
 Alpha virt. eigenvalues --    0.68138   0.68262   0.68416   0.68462   0.68484
 Alpha virt. eigenvalues --    0.68648   0.68752   0.68756   0.68847   0.68978
 Alpha virt. eigenvalues --    0.69104   0.69297   0.69357   0.69394   0.69492
 Alpha virt. eigenvalues --    0.69807   0.69833   0.69986   0.70146   0.70265
 Alpha virt. eigenvalues --    0.70351   0.70508   0.70580   0.70711   0.70736
 Alpha virt. eigenvalues --    0.70912   0.70984   0.71154   0.71157   0.71274
 Alpha virt. eigenvalues --    0.71423   0.71450   0.71552   0.71744   0.71878
 Alpha virt. eigenvalues --    0.71911   0.72076   0.72183   0.72217   0.72363
 Alpha virt. eigenvalues --    0.72420   0.72451   0.72493   0.72637   0.72802
 Alpha virt. eigenvalues --    0.72858   0.72911   0.73010   0.73197   0.73407
 Alpha virt. eigenvalues --    0.73580   0.73843   0.74044   0.74074   0.74449
 Alpha virt. eigenvalues --    0.74597   0.74733   0.74747   0.75179   0.75300
 Alpha virt. eigenvalues --    0.75360   0.75676   0.75772   0.75963   0.76412
 Alpha virt. eigenvalues --    0.76583   0.76786   0.76980   0.77049   0.77261
 Alpha virt. eigenvalues --    0.77338   0.77452   0.77816   0.78059   0.78455
 Alpha virt. eigenvalues --    0.78662   0.78829   0.79102   0.79203   0.79500
 Alpha virt. eigenvalues --    0.79683   0.79929   0.80126   0.80306   0.80650
 Alpha virt. eigenvalues --    0.81001   0.81150   0.81681   0.81877   0.82006
 Alpha virt. eigenvalues --    0.82321   0.82444   0.82470   0.82889   0.83156
 Alpha virt. eigenvalues --    0.83333   0.83613   0.84218   0.84340   0.84581
 Alpha virt. eigenvalues --    0.84676   0.85033   0.85453   0.85787   0.86178
 Alpha virt. eigenvalues --    0.86332   0.86836   0.87335   0.87894   0.88115
 Alpha virt. eigenvalues --    0.88464   0.88791   0.89219   0.89344   0.89458
 Alpha virt. eigenvalues --    0.89693   0.89840   0.90371   0.90440   0.90731
 Alpha virt. eigenvalues --    0.91296   0.91633   0.91703   0.91888   0.92341
 Alpha virt. eigenvalues --    0.92441   0.92953   0.93215   0.93484   0.93884
 Alpha virt. eigenvalues --    0.94059   0.94273   0.94780   0.94930   0.95235
 Alpha virt. eigenvalues --    0.95504   0.95837   0.96172   0.96729   0.96838
 Alpha virt. eigenvalues --    0.96920   0.97308   0.97511   0.97748   0.98092
 Alpha virt. eigenvalues --    0.98122   0.98376   0.98578   0.98682   0.98889
 Alpha virt. eigenvalues --    0.99210   0.99606   0.99835   0.99931   1.00397
 Alpha virt. eigenvalues --    1.00754   1.01228   1.01533   1.01801   1.02236
 Alpha virt. eigenvalues --    1.02547   1.02814   1.03193   1.03349   1.03504
 Alpha virt. eigenvalues --    1.04403   1.04639   1.04989   1.05426   1.05644
 Alpha virt. eigenvalues --    1.05797   1.05915   1.06138   1.06258   1.06610
 Alpha virt. eigenvalues --    1.06688   1.06851   1.07199   1.07438   1.07711
 Alpha virt. eigenvalues --    1.07774   1.07992   1.08249   1.08305   1.08583
 Alpha virt. eigenvalues --    1.09342   1.09681   1.09975   1.10294   1.10559
 Alpha virt. eigenvalues --    1.10608   1.10755   1.10950   1.11156   1.11430
 Alpha virt. eigenvalues --    1.12060   1.12212   1.12609   1.12698   1.12885
 Alpha virt. eigenvalues --    1.13053   1.13307   1.13659   1.13907   1.14057
 Alpha virt. eigenvalues --    1.14452   1.14526   1.14907   1.15086   1.15234
 Alpha virt. eigenvalues --    1.15618   1.15715   1.16323   1.16496   1.16985
 Alpha virt. eigenvalues --    1.17191   1.17238   1.17513   1.17804   1.18081
 Alpha virt. eigenvalues --    1.18718   1.18758   1.19090   1.19142   1.19336
 Alpha virt. eigenvalues --    1.19841   1.20375   1.20682   1.20863   1.21194
 Alpha virt. eigenvalues --    1.21287   1.21371   1.21743   1.21773   1.22284
 Alpha virt. eigenvalues --    1.22626   1.22914   1.23042   1.23495   1.23568
 Alpha virt. eigenvalues --    1.23873   1.24037   1.24181   1.24559   1.24689
 Alpha virt. eigenvalues --    1.25195   1.25514   1.25800   1.26078   1.26263
 Alpha virt. eigenvalues --    1.26718   1.26806   1.26968   1.27330   1.27606
 Alpha virt. eigenvalues --    1.27852   1.28143   1.28398   1.28817   1.28927
 Alpha virt. eigenvalues --    1.29307   1.29395   1.29548   1.29829   1.29866
 Alpha virt. eigenvalues --    1.30568   1.30824   1.30852   1.31263   1.31541
 Alpha virt. eigenvalues --    1.31876   1.31940   1.32757   1.33096   1.33192
 Alpha virt. eigenvalues --    1.33658   1.33841   1.34109   1.34178   1.34346
 Alpha virt. eigenvalues --    1.34798   1.34891   1.35174   1.35495   1.36234
 Alpha virt. eigenvalues --    1.36634   1.36784   1.36892   1.37064   1.37737
 Alpha virt. eigenvalues --    1.38035   1.38114   1.38181   1.38719   1.39307
 Alpha virt. eigenvalues --    1.39591   1.40139   1.40304   1.40665   1.41047
 Alpha virt. eigenvalues --    1.41130   1.41443   1.41788   1.42047   1.42158
 Alpha virt. eigenvalues --    1.42327   1.42648   1.42746   1.43002   1.43408
 Alpha virt. eigenvalues --    1.43416   1.43906   1.44141   1.44466   1.44614
 Alpha virt. eigenvalues --    1.44740   1.44991   1.45099   1.45251   1.45544
 Alpha virt. eigenvalues --    1.46061   1.46375   1.46922   1.47167   1.47443
 Alpha virt. eigenvalues --    1.47711   1.48176   1.48240   1.48814   1.49211
 Alpha virt. eigenvalues --    1.49439   1.49709   1.49977   1.50604   1.50853
 Alpha virt. eigenvalues --    1.50915   1.51122   1.51352   1.51577   1.51619
 Alpha virt. eigenvalues --    1.51847   1.52023   1.53281   1.53374   1.53474
 Alpha virt. eigenvalues --    1.53540   1.54568   1.54981   1.55588   1.55709
 Alpha virt. eigenvalues --    1.55816   1.55889   1.56236   1.56428   1.56512
 Alpha virt. eigenvalues --    1.57111   1.57560   1.57907   1.57981   1.58030
 Alpha virt. eigenvalues --    1.58199   1.58736   1.59018   1.59225   1.59432
 Alpha virt. eigenvalues --    1.59775   1.60338   1.60805   1.61355   1.61752
 Alpha virt. eigenvalues --    1.62179   1.62210   1.62363   1.62832   1.63064
 Alpha virt. eigenvalues --    1.63229   1.64326   1.64574   1.64687   1.65004
 Alpha virt. eigenvalues --    1.65098   1.65416   1.66191   1.66437   1.66611
 Alpha virt. eigenvalues --    1.66664   1.66817   1.67171   1.67931   1.68358
 Alpha virt. eigenvalues --    1.68369   1.68883   1.69145   1.69425   1.69822
 Alpha virt. eigenvalues --    1.70126   1.70536   1.70714   1.71064   1.71145
 Alpha virt. eigenvalues --    1.71334   1.71351   1.72199   1.72311   1.72429
 Alpha virt. eigenvalues --    1.72959   1.73247   1.73310   1.73342   1.73731
 Alpha virt. eigenvalues --    1.73826   1.74138   1.74301   1.74453   1.74707
 Alpha virt. eigenvalues --    1.75035   1.75063   1.75234   1.75348   1.75574
 Alpha virt. eigenvalues --    1.75886   1.75962   1.76102   1.76293   1.76613
 Alpha virt. eigenvalues --    1.76877   1.76957   1.77442   1.77521   1.77620
 Alpha virt. eigenvalues --    1.77794   1.77856   1.78310   1.78328   1.78805
 Alpha virt. eigenvalues --    1.78970   1.79030   1.79063   1.79189   1.79341
 Alpha virt. eigenvalues --    1.79419   1.79491   1.79680   1.79892   1.80149
 Alpha virt. eigenvalues --    1.80178   1.80386   1.80471   1.80554   1.80639
 Alpha virt. eigenvalues --    1.81146   1.81286   1.81507   1.81619   1.81708
 Alpha virt. eigenvalues --    1.81776   1.81946   1.82120   1.82420   1.82544
 Alpha virt. eigenvalues --    1.82813   1.82849   1.82965   1.83330   1.83465
 Alpha virt. eigenvalues --    1.83567   1.83632   1.83715   1.83881   1.84032
 Alpha virt. eigenvalues --    1.84093   1.84266   1.84327   1.84597   1.84875
 Alpha virt. eigenvalues --    1.85045   1.85119   1.85232   1.85683   1.86067
 Alpha virt. eigenvalues --    1.86245   1.86468   1.86857   1.87007   1.87247
 Alpha virt. eigenvalues --    1.87357   1.87839   1.88044   1.88099   1.88534
 Alpha virt. eigenvalues --    1.88624   1.89031   1.89111   1.89232   1.89267
 Alpha virt. eigenvalues --    1.89523   1.89679   1.89807   1.89978   1.90050
 Alpha virt. eigenvalues --    1.90373   1.90392   1.90569   1.90875   1.91073
 Alpha virt. eigenvalues --    1.91290   1.91720   1.91948   1.91995   1.92312
 Alpha virt. eigenvalues --    1.92557   1.92656   1.93029   1.93363   1.93402
 Alpha virt. eigenvalues --    1.93510   1.93776   1.93854   1.94142   1.94472
 Alpha virt. eigenvalues --    1.94709   1.94879   1.95234   1.95366   1.95449
 Alpha virt. eigenvalues --    1.95735   1.95739   1.96142   1.96364   1.96430
 Alpha virt. eigenvalues --    1.96783   1.96861   1.97139   1.97770   1.98211
 Alpha virt. eigenvalues --    1.98458   1.98654   1.98808   1.99124   1.99284
 Alpha virt. eigenvalues --    1.99409   1.99591   1.99625   1.99782   2.00049
 Alpha virt. eigenvalues --    2.00344   2.00375   2.00442   2.00522   2.00775
 Alpha virt. eigenvalues --    2.01085   2.01439   2.01692   2.01738   2.01903
 Alpha virt. eigenvalues --    2.02179   2.02379   2.02591   2.03166   2.03198
 Alpha virt. eigenvalues --    2.03468   2.03548   2.03883   2.04082   2.04162
 Alpha virt. eigenvalues --    2.04358   2.04570   2.05055   2.05435   2.05966
 Alpha virt. eigenvalues --    2.06079   2.06760   2.06933   2.07080   2.07255
 Alpha virt. eigenvalues --    2.07379   2.07619   2.08441   2.08579   2.08812
 Alpha virt. eigenvalues --    2.08922   2.09042   2.09265   2.09414   2.09635
 Alpha virt. eigenvalues --    2.10312   2.10742   2.10863   2.11362   2.11424
 Alpha virt. eigenvalues --    2.11570   2.12234   2.12536   2.12734   2.12905
 Alpha virt. eigenvalues --    2.12946   2.13352   2.13391   2.13714   2.13844
 Alpha virt. eigenvalues --    2.13889   2.13996   2.14100   2.14189   2.14797
 Alpha virt. eigenvalues --    2.15377   2.15535   2.15890   2.16350   2.16737
 Alpha virt. eigenvalues --    2.16845   2.16952   2.17392   2.17760   2.17788
 Alpha virt. eigenvalues --    2.18047   2.18238   2.18866   2.19180   2.19330
 Alpha virt. eigenvalues --    2.19641   2.19941   2.20851   2.20937   2.21081
 Alpha virt. eigenvalues --    2.21385   2.21855   2.21892   2.22158   2.22225
 Alpha virt. eigenvalues --    2.22749   2.23036   2.23166   2.23593   2.24174
 Alpha virt. eigenvalues --    2.24817   2.24982   2.25987   2.26057   2.26340
 Alpha virt. eigenvalues --    2.26740   2.27021   2.27653   2.27812   2.28714
 Alpha virt. eigenvalues --    2.28795   2.28982   2.29557   2.29702   2.30394
 Alpha virt. eigenvalues --    2.30597   2.31086   2.31123   2.31311   2.31496
 Alpha virt. eigenvalues --    2.31773   2.32032   2.32291   2.32850   2.33141
 Alpha virt. eigenvalues --    2.33231   2.33543   2.33685   2.33786   2.34264
 Alpha virt. eigenvalues --    2.34612   2.34709   2.35259   2.35675   2.35799
 Alpha virt. eigenvalues --    2.35971   2.36071   2.36239   2.36419   2.36613
 Alpha virt. eigenvalues --    2.37420   2.37516   2.38015   2.38251   2.38545
 Alpha virt. eigenvalues --    2.39186   2.39287   2.40246   2.40414   2.40556
 Alpha virt. eigenvalues --    2.41012   2.41217   2.41645   2.42327   2.42710
 Alpha virt. eigenvalues --    2.43094   2.43506   2.43689   2.43997   2.44275
 Alpha virt. eigenvalues --    2.44562   2.44940   2.45194   2.45276   2.46010
 Alpha virt. eigenvalues --    2.46457   2.46776   2.47209   2.47309   2.47728
 Alpha virt. eigenvalues --    2.48204   2.48453   2.48722   2.48829   2.48978
 Alpha virt. eigenvalues --    2.49776   2.49931   2.50047   2.50363   2.50638
 Alpha virt. eigenvalues --    2.51196   2.51957   2.52069   2.52612   2.52795
 Alpha virt. eigenvalues --    2.53129   2.53223   2.53311   2.53491   2.53885
 Alpha virt. eigenvalues --    2.54005   2.54768   2.55576   2.55707   2.56039
 Alpha virt. eigenvalues --    2.56465   2.56725   2.57008   2.57333   2.57692
 Alpha virt. eigenvalues --    2.57858   2.58101   2.58534   2.58565   2.58969
 Alpha virt. eigenvalues --    2.59195   2.59446   2.59799   2.60194   2.60559
 Alpha virt. eigenvalues --    2.61093   2.61403   2.61468   2.61646   2.61751
 Alpha virt. eigenvalues --    2.61949   2.61969   2.62499   2.62573   2.62968
 Alpha virt. eigenvalues --    2.63365   2.63823   2.64174   2.65054   2.65730
 Alpha virt. eigenvalues --    2.65961   2.66070   2.66306   2.66988   2.67202
 Alpha virt. eigenvalues --    2.68225   2.68457   2.68462   2.69120   2.69197
 Alpha virt. eigenvalues --    2.69295   2.69408   2.69980   2.70855   2.71198
 Alpha virt. eigenvalues --    2.71306   2.71545   2.71680   2.71892   2.72001
 Alpha virt. eigenvalues --    2.72119   2.72405   2.73278   2.73333   2.73378
 Alpha virt. eigenvalues --    2.73788   2.74025   2.74139   2.74319   2.74403
 Alpha virt. eigenvalues --    2.75237   2.75672   2.76036   2.76442   2.76558
 Alpha virt. eigenvalues --    2.76740   2.76869   2.77088   2.77497   2.77599
 Alpha virt. eigenvalues --    2.78152   2.78311   2.78374   2.78741   2.78876
 Alpha virt. eigenvalues --    2.79053   2.79109   2.79826   2.79864   2.80014
 Alpha virt. eigenvalues --    2.80419   2.80503   2.80809   2.80911   2.81233
 Alpha virt. eigenvalues --    2.81432   2.81512   2.81901   2.81987   2.82322
 Alpha virt. eigenvalues --    2.82407   2.82841   2.82905   2.83035   2.83065
 Alpha virt. eigenvalues --    2.83324   2.83408   2.83555   2.84396   2.84468
 Alpha virt. eigenvalues --    2.85058   2.85362   2.85611   2.85826   2.86685
 Alpha virt. eigenvalues --    2.86948   2.86993   2.87145   2.88333   2.88385
 Alpha virt. eigenvalues --    2.88538   2.88683   2.89156   2.89834   2.89941
 Alpha virt. eigenvalues --    2.90266   2.90645   2.90872   2.91290   2.91403
 Alpha virt. eigenvalues --    2.91937   2.92156   2.92500   2.92738   2.93139
 Alpha virt. eigenvalues --    2.93492   2.93547   2.93640   2.93879   2.94223
 Alpha virt. eigenvalues --    2.94380   2.94439   2.94833   2.94940   2.95312
 Alpha virt. eigenvalues --    2.96395   2.96506   2.97181   2.97450   2.97797
 Alpha virt. eigenvalues --    2.98034   2.98529   2.98770   2.98857   2.98920
 Alpha virt. eigenvalues --    2.99253   2.99541   2.99583   2.99896   3.00012
 Alpha virt. eigenvalues --    3.00293   3.00974   3.00998   3.01681   3.01723
 Alpha virt. eigenvalues --    3.02019   3.02317   3.02554   3.02723   3.02846
 Alpha virt. eigenvalues --    3.03399   3.03578   3.03941   3.04576   3.05425
 Alpha virt. eigenvalues --    3.05469   3.06256   3.06400   3.06800   3.07166
 Alpha virt. eigenvalues --    3.07392   3.08745   3.08801   3.09297   3.09825
 Alpha virt. eigenvalues --    3.09958   3.10574   3.11167   3.12347   3.13571
 Alpha virt. eigenvalues --    3.13592   3.13727   3.14205   3.14676   3.14893
 Alpha virt. eigenvalues --    3.15237   3.15675   3.16357   3.16507   3.16991
 Alpha virt. eigenvalues --    3.17804   3.17839   3.18440   3.18540   3.18969
 Alpha virt. eigenvalues --    3.19055   3.19319   3.19812   3.19933   3.20104
 Alpha virt. eigenvalues --    3.20234   3.20862   3.20931   3.21734   3.21761
 Alpha virt. eigenvalues --    3.22093   3.22451   3.22903   3.23274   3.23888
 Alpha virt. eigenvalues --    3.24255   3.24722   3.24910   3.25408   3.25562
 Alpha virt. eigenvalues --    3.25660   3.25972   3.26569   3.27128   3.27389
 Alpha virt. eigenvalues --    3.27539   3.27719   3.27927   3.28203   3.29613
 Alpha virt. eigenvalues --    3.30652   3.31032   3.33225   3.33543   3.33930
 Alpha virt. eigenvalues --    3.34638   3.34919   3.35240   3.35872   3.36379
 Alpha virt. eigenvalues --    3.40087   3.40490   3.45461   3.50266   3.50563
 Alpha virt. eigenvalues --    3.54735   3.56233   3.56454   3.57515   3.58129
 Alpha virt. eigenvalues --    3.58208   3.58320   3.59442   3.59955   3.60045
 Alpha virt. eigenvalues --    3.60301   3.61747   3.62016   3.62113   3.62632
 Alpha virt. eigenvalues --    3.62802   3.67694   3.68598   3.68841   3.69365
 Alpha virt. eigenvalues --    3.70042   3.70385   3.70685   3.71080   3.71251
 Alpha virt. eigenvalues --    3.71375   3.71458   3.71709   3.72219   3.72514
 Alpha virt. eigenvalues --    3.73138   3.73458   3.74592   3.75333   3.76373
 Alpha virt. eigenvalues --    3.76599   3.79963   3.81495   3.81625
          Condensed to atoms (all electrons):
 Mulliken charges:
               1
     1  C    0.066459
     2  C    0.007319
     3  O   -0.353187
     4  H    0.028007
     5  H    0.039761
     6  H    0.000944
     7  N   -0.099524
     8  C    0.149697
     9  C    0.095347
    10  O   -0.282834
    11  C    0.026820
    12  C    0.080585
    13  O   -0.376278
    14  O   -0.364153
    15  H    0.118618
    16  H   -0.042644
    17  H   -0.023032
    18  H   -0.001674
    19  N   -0.121808
    20  C    0.092965
    21  C    0.048453
    22  O   -0.300685
    23  C    0.025329
    24  C   -0.044991
    25  C    0.000307
    26  C    0.063289
    27  N    0.094919
    28  H    0.114916
    29  H   -0.000322
    30  H    0.009333
    31  H    0.017483
    32  H    0.017088
    33  H    0.002288
    34  H    0.045335
    35  H    0.061019
    36  H    0.058202
    37  H    0.057343
    38  H    0.168320
    39  H    0.156020
    40  H    0.161852
    41  N   -0.110751
    42  C    0.178459
    43  C    0.032027
    44  O   -0.238576
    45  C    0.081696
    46  C    0.068489
    47  O   -0.460734
    48  O   -0.390104
    49  H    0.137255
    50  H   -0.011692
    51  H    0.039003
    52  H   -0.005909
    53  N   -0.124695
    54  C    0.236048
    55  C    0.003575
    56  O   -0.253710
    57  H    0.120471
    58  H    0.014926
    59  H    0.039026
    60  N   -0.185507
    61  C    0.106945
    62  C    0.084871
    63  O   -0.297100
    64  C    0.104418
    65  C   -0.020003
    66  N   -0.055387
    67  O   -0.249325
    68  H    0.135394
    69  H    0.074505
    70  H    0.035070
    71  H    0.004845
    72  H    0.116621
    73  H    0.152026
    74  N   -0.099528
    75  C    0.224943
    76  C    0.035568
    77  O   -0.256402
    78  H    0.108879
    79  H   -0.023070
    80  H    0.020233
    81  N   -0.169096
    82  C    0.116921
    83  C    0.087806
    84  O   -0.312477
    85  C    0.173393
    86  C   -0.045703
    87  C   -0.012276
    88  C   -0.020589
    89  C   -0.008976
    90  C   -0.020110
    91  C    0.139039
    92  O   -0.197712
    93  H    0.124529
    94  H    0.004854
    95  H    0.012168
    96  H    0.026634
    97  H   -0.030132
    98  H   -0.006097
    99  H   -0.028122
   100  H   -0.051408
   101  H    0.170967
   102  N   -0.105189
   103  C    0.213718
   104  C   -0.018118
   105  O   -0.271106
   106  C   -0.101996
   107  C   -0.000503
   108  C    0.099144
   109  C    0.037703
   110  H    0.143448
   111  H    0.003778
   112  H   -0.017397
   113  H   -0.001549
   114  H   -0.003819
   115  H    0.028390
   116  H    0.011365
   117  H   -0.033901
   118  H   -0.003524
   119  H   -0.006780
   120  H    0.016574
   121  N   -0.113862
   122  C    0.090467
   123  C    0.045575
   124  O   -0.291209
   125  C    0.240455
   126  O   -0.291608
   127  H    0.133543
   128  H   -0.000787
   129  H    0.007226
   130  H    0.015358
   131  H    0.151330
   132  N   -0.112834
   133  C    0.056378
   134  C    0.079496
   135  O   -0.287399
   136  C    0.090170
   137  H    0.114307
   138  H    0.007416
   139  H    0.022533
   140  H   -0.019076
   141  H    0.024820
   142  N   -0.122340
   143  C    0.073037
   144  C    0.073137
   145  O   -0.256026
   146  C    0.078551
   147  H    0.136128
   148  H    0.011022
   149  H   -0.010072
   150  H    0.033693
   151  H    0.030357
   152  N   -0.132173
   153  C    0.047205
   154  C    0.100089
   155  O   -0.263078
   156  C    0.073505
   157  C    0.100806
   158  C    0.081058
   159  O   -0.478973
   160  O   -0.372266
   161  H    0.112048
   162  H   -0.012422
   163  H    0.005853
   164  H    0.062229
   165  H   -0.010990
   166  H   -0.045174
   167  N   -0.156357
   168  C    0.133151
   169  H    0.029844
   170  H    0.001943
   171  H    0.039120
   172  H    0.105343
   173  Ca   1.377349
   174  O   -0.305449
   175  H    0.183547
   176  H    0.200472
 Sum of Mulliken charges =  -0.00000
 Mulliken charges with hydrogens summed into heavy atoms:
               1
     1  C    0.135171
     2  C    0.007319
     3  O   -0.353187
     7  N    0.019094
     8  C    0.107053
     9  C    0.095347
    10  O   -0.282834
    11  C    0.002114
    12  C    0.080585
    13  O   -0.376278
    14  O   -0.364153
    19  N   -0.006892
    20  C    0.092642
    21  C    0.048453
    22  O   -0.300685
    23  C    0.052145
    24  C   -0.025615
    25  C    0.106661
    26  C    0.178834
    27  N    0.581111
    41  N    0.026504
    42  C    0.166767
    43  C    0.032027
    44  O   -0.238576
    45  C    0.114789
    46  C    0.068489
    47  O   -0.460734
    48  O   -0.390104
    53  N   -0.004223
    54  C    0.290001
    55  C    0.003575
    56  O   -0.253710
    60  N   -0.050113
    61  C    0.181450
    62  C    0.084871
    63  O   -0.297100
    64  C    0.144333
    65  C   -0.020003
    66  N    0.213261
    67  O   -0.249325
    74  N    0.009351
    75  C    0.222105
    76  C    0.035568
    77  O   -0.256402
    81  N   -0.044567
    82  C    0.121776
    83  C    0.087806
    84  O   -0.312477
    85  C    0.212196
    86  C   -0.045703
    87  C   -0.042408
    88  C   -0.026687
    89  C   -0.037098
    90  C   -0.071518
    91  C    0.139039
    92  O   -0.026745
   102  N    0.038258
   103  C    0.217496
   104  C   -0.018118
   105  O   -0.271106
   106  C   -0.119394
   107  C   -0.005872
   108  C    0.104999
   109  C    0.043973
   121  N    0.019681
   122  C    0.089679
   123  C    0.045575
   124  O   -0.291209
   125  C    0.263039
   126  O   -0.140278
   132  N    0.001473
   133  C    0.063794
   134  C    0.079496
   135  O   -0.287399
   136  C    0.118446
   142  N    0.013788
   143  C    0.084058
   144  C    0.073137
   145  O   -0.256026
   146  C    0.132530
   152  N   -0.020125
   153  C    0.034783
   154  C    0.100089
   155  O   -0.263078
   156  C    0.141586
   157  C    0.044642
   158  C    0.081058
   159  O   -0.478973
   160  O   -0.372266
   167  N   -0.051013
   168  C    0.204057
   173  Ca   1.377349
   174  O    0.078570
 DipInt: DoE/N= T F RetVal/Mat= T F Init=T NMatP=  1 IDeriv=0 Min/MaxMlt=  0  4
 Entering OneElI...
 OneElI was handed  1333951383 working-precision words.
 Multipole integrals L=0 to 4 MinM= 0 MaxM= 0.
 Requested accuracy = 0.1000D-12
 ShPair: Thresh= 1.00D-13 NBox=     0 BxSize= 0.00D+00 RnKept= 3.38D+01
         NSMCal=               327645 NSMKep=              118373
 PrmmSu-InSpLW:  IPartL=    0 NPrtUS=    1 NPrtUL=    1 DoSpLW=F IThBeg=    0 IThEnd=    0 NThAct=    1.
 PrsmSu:  NPrtUS=   1 ThrOK=F IAlg=1 NPAlg=1 LenDen=           0 ISkipM=0 DoSpLW=F IThBeg=    0 IThEnd=    0.
 Prism:   IPart=     0 DynPar=F LinDyn=F Incr=         512.
 PRISM was handed  1325504055 working-precision words and118373 shell-pairs
 IPart=  0 NShTot=      118373 NBatch=         282 AvBLen=       419.8
 PrsmSu-ThDecC:  IPartSL=    0    0 NPrtUSL=    1    1 IThBeg=    0 IThEnd=    0 CPU=   -1 GPU=   -1 NThAct=    1.
 PrSmSu:  NxtVal=            513.
 Electronic moments (au):
       -716.00000000        -17.67103714          1.32084003         -5.21395450
    -107890.76026998     -41851.34855165     -11404.62375805        -56.21167833
        -27.94676836         -6.83179080     509628.40164365      -6719.60962032
     -15701.51927067    -256156.10544669     173368.60394533    -101395.66724905
      38066.93634172      -1146.22764800      28576.06311932     -93260.21573349
  -34167012.60835821   -6440680.35149688    -528834.76989356    -570919.22999766
    1777204.45942757    1618518.12476793    -816258.41334781     153911.45681343
     108741.53483206   -4558788.63616762   -1669879.65928129    -646927.87670802
    -207819.86516076     367766.50712607     -18554.31264927
 Electronic spatial extent (au):  <R**2>=         161146.7326
 DipInt: DoE/N= F T RetVal/Mat= T F Init=T NMatP=  1 IDeriv=0 Min/MaxMlt=  0  4
 Nuclear    moments (au):
        716.00000000         -0.00000000          0.00000000          0.00000000
     107940.91518759      41438.49553295      11023.95263955          0.00000000
          0.00000000         -0.00000000    -525153.10975665       7631.42949379
      15358.59718968     255660.99890734    -174130.79593664     102227.91615846
     -38152.41952797       1486.97501906     -29187.73281757      93648.95789631
   34203352.62046207    6296054.98879226     493838.54495846     574892.38269015
   -1822797.49280157   -1619491.91521745     814766.56879844    -153515.41205604
    -111542.97639955    4473589.07373492    1606131.66931705     618346.78590255
     208387.55570136    -366882.63636114      16069.08734037
 Total      moments (au):
         -0.00000000        -17.67103714          1.32084003         -5.21395450
         50.15491761       -412.85301870       -380.67111850        -56.21167833
        -27.94676836         -6.83179080     -15524.70811300        911.81987347
       -342.92208099       -495.10653935       -762.19199131        832.24890941
        -85.48318626        340.74737106       -611.66969825        388.74216282
      36340.01210386    -144625.36270462     -34996.22493510       3973.15269249
     -45593.03337400       -973.79044952      -1491.84454936        396.04475739
      -2801.44156749     -85199.56243270     -63747.98996424     -28581.09080547
        567.69054059        883.87076493      -2485.22530889
 Traceless Quadrup. (au):
        297.94465747       -165.06327883       -132.88137864        -56.21167833
        -27.94676836         -6.83179080
 Charge=             -0.0000 electrons
 Dipole moment (field-independent basis, Debye):
    X=            -44.9153    Y=              3.3572    Z=            -13.2525  Tot=             46.9498
 Quadrupole moment (field-independent basis, Debye-Ang):
   XX=             67.4601   YY=           -555.3015   ZZ=           -512.0157
   XY=            -75.6066   XZ=            -37.5894   YZ=             -9.1890
 Traceless Quadrupole moment (field-independent basis, Debye-Ang):
   XX=            400.7458   YY=           -222.0158   ZZ=           -178.7300
   XY=            -75.6066   XZ=            -37.5894   YZ=             -9.1890
 Octapole moment (field-independent basis, Debye-Ang**2):
  XXX=         -11049.8891  YYY=            648.9983  ZZZ=           -244.0787  XYY=           -352.3978
  XXY=           -542.4989  XXZ=            592.3627  XZZ=            -60.8436  YZZ=            242.5309
  YYZ=           -435.3629  XYZ=            276.6917
 Hexadecapole moment (field-independent basis, Debye-Ang**3):
 XXXX=          13687.3911 YYYY=         -54472.8466 ZZZZ=         -13181.2564 XXXY=           1496.4798
 XXXZ=         -17172.5226 YYYX=           -366.7762 YYYZ=           -561.9002 ZZZX=            149.1694
 ZZZY=          -1055.1572 XXYY=         -32090.2407 XXZZ=         -24010.5498 YYZZ=         -10765.0093
 XXYZ=            213.8195 YYXZ=            332.9081 ZZXY=           -936.0550
 N-N= 1.861298329345D+04 E-N=-4.971632036252D+04  KE= 5.290651573597D+03
 Leave Link  601 at Tue Sep 17 10:17:56 2019, MaxMem=  1342177280 cpu:              50.7 elap:               1.2
 FitSet:  NAtFit=   176 NAtPot=   176 NAtFrz=     0 MDM=   180 TotChg=   0.00000
 Merz-Kollman atomic radii used.
 Read replacement radii for each type of atom:
 Rad(20) =   1.700000000000D+00
 Atom Element Radius
    1     6    1.50
    2     6    1.50
    3     8    1.40
    4     1    1.20
    5     1    1.20
    6     1    1.20
    7     7    1.50
    8     6    1.50
    9     6    1.50
   10     8    1.40
   11     6    1.50
   12     6    1.50
   13     8    1.40
   14     8    1.40
   15     1    1.20
   16     1    1.20
   17     1    1.20
   18     1    1.20
   19     7    1.50
   20     6    1.50
   21     6    1.50
   22     8    1.40
   23     6    1.50
   24     6    1.50
   25     6    1.50
   26     6    1.50
   27     7    1.50
   28     1    1.20
   29     1    1.20
   30     1    1.20
   31     1    1.20
   32     1    1.20
   33     1    1.20
   34     1    1.20
   35     1    1.20
   36     1    1.20
   37     1    1.20
   38     1    1.20
   39     1    1.20
   40     1    1.20
   41     7    1.50
   42     6    1.50
   43     6    1.50
   44     8    1.40
   45     6    1.50
   46     6    1.50
   47     8    1.40
   48     8    1.40
   49     1    1.20
   50     1    1.20
   51     1    1.20
   52     1    1.20
   53     7    1.50
   54     6    1.50
   55     6    1.50
   56     8    1.40
   57     1    1.20
   58     1    1.20
   59     1    1.20
   60     7    1.50
   61     6    1.50
   62     6    1.50
   63     8    1.40
   64     6    1.50
   65     6    1.50
   66     7    1.50
   67     8    1.40
   68     1    1.20
   69     1    1.20
   70     1    1.20
   71     1    1.20
   72     1    1.20
   73     1    1.20
   74     7    1.50
   75     6    1.50
   76     6    1.50
   77     8    1.40
   78     1    1.20
   79     1    1.20
   80     1    1.20
   81     7    1.50
   82     6    1.50
   83     6    1.50
   84     8    1.40
   85     6    1.50
   86     6    1.50
   87     6    1.50
   88     6    1.50
   89     6    1.50
   90     6    1.50
   91     6    1.50
   92     8    1.40
   93     1    1.20
   94     1    1.20
   95     1    1.20
   96     1    1.20
   97     1    1.20
   98     1    1.20
   99     1    1.20
  100     1    1.20
  101     1    1.20
  102     7    1.50
  103     6    1.50
  104     6    1.50
  105     8    1.40
  106     6    1.50
  107     6    1.50
  108     6    1.50
  109     6    1.50
  110     1    1.20
  111     1    1.20
  112     1    1.20
  113     1    1.20
  114     1    1.20
  115     1    1.20
  116     1    1.20
  117     1    1.20
  118     1    1.20
  119     1    1.20
  120     1    1.20
  121     7    1.50
  122     6    1.50
  123     6    1.50
  124     8    1.40
  125     6    1.50
  126     8    1.40
  127     1    1.20
  128     1    1.20
  129     1    1.20
  130     1    1.20
  131     1    1.20
  132     7    1.50
  133     6    1.50
  134     6    1.50
  135     8    1.40
  136     6    1.50
  137     1    1.20
  138     1    1.20
  139     1    1.20
  140     1    1.20
  141     1    1.20
  142     7    1.50
  143     6    1.50
  144     6    1.50
  145     8    1.40
  146     6    1.50
  147     1    1.20
  148     1    1.20
  149     1    1.20
  150     1    1.20
  151     1    1.20
  152     7    1.50
  153     6    1.50
  154     6    1.50
[...]
 **** Fit       0.002755
 **** Fit      -0.004208
 **** Fit      -0.001848
 **** Fit       0.000580
 **** Fit       0.002563
 **** Fit       0.003896
 **** Fit       0.004517
 **** Fit       0.004422
 **** Fit       0.003636
 **** Fit       0.002952
 **** Fit       0.004313
 **** Fit       0.005450
 **** Fit       0.006074
 **** Fit       0.006073
 **** Fit       0.005443
 **** Fit       0.004256
 **** Fit       0.007908
 **** Fit       0.008074
 **** Fit       0.008298
 **** Fit       0.008204
 **** Fit       0.007667
 **** Fit       0.006748
 **** Fit       0.011801
 **** Fit       0.011118
 **** Fit       0.010431
 **** Fit       0.049147
 **** Fit       0.052684
 **** Fit       0.046211
 **** Fit       0.038062
 **** Fit       0.058917
 **** Fit       0.055900
 **** Fit       0.050854
 **** Fit       0.043908
 **** Fit       0.035094
 **** Fit       0.025026
 **** Fit       0.033564
 **** Fit       0.039860
 **** Fit       0.060881
 **** Fit       0.060848
 **** Fit       0.058989
 **** Fit       0.055265
 **** Fit       0.049705
 **** Fit       0.042344
 **** Fit       0.033185
 **** Fit      -0.033464
 **** Fit      -0.030704
 **** Fit      -0.029742
 **** Fit       0.027792
 **** Fit       0.036009
 **** Fit       0.042585
 **** Fit       0.047656
 **** Fit       0.051571
 **** Fit       0.054766
 **** Fit       0.057574
 **** Fit       0.060059
 **** Fit       0.061992
 **** Fit       0.062986
 **** Fit       0.062676
 **** Fit       0.060823
 **** Fit       0.057317
 **** Fit       0.052133
 **** Fit       0.045295
 **** Fit       0.036848
 **** Fit      -0.021319
 **** Fit      -0.018048
 **** Fit      -0.015643
 **** Fit      -0.014334
 **** Fit      -0.013947
 **** Fit       0.001787
 **** Fit       0.023348
 **** Fit       0.031532
 **** Fit       0.038953
 **** Fit       0.045296
 **** Fit       0.050494
 **** Fit       0.054662
 **** Fit       0.058012
 **** Fit       0.060741
 **** Fit       0.062916
 **** Fit       0.064435
 **** Fit       0.065074
 **** Fit       0.064584
 **** Fit       0.062766
 **** Fit       0.059507
 **** Fit       0.054777
 **** Fit       0.048613
 **** Fit       0.041110
 **** Fit       0.032424
 **** Fit      -0.006431
 **** Fit      -0.004116
 **** Fit      -0.002213
 **** Fit      -0.000933
 **** Fit      -0.000243
 **** Fit       0.000103
 **** Fit       0.000442
 **** Fit       0.001015
 **** Fit       0.013231
 **** Fit       0.013548
 **** Fit       0.013489
 **** Fit       0.013072
 **** Fit       0.012757
 **** Fit       0.019767
 **** Fit       0.025524
 **** Fit       0.032172
 **** Fit       0.038970
 **** Fit       0.045340
 **** Fit       0.050932
 **** Fit       0.055616
 **** Fit       0.059416
 **** Fit       0.062425
 **** Fit       0.064708
 **** Fit       0.066229
 **** Fit       0.066854
 **** Fit       0.066396
 **** Fit       0.064684
 **** Fit       0.061615
 **** Fit       0.057170
 **** Fit       0.051422
 **** Fit       0.044538
 **** Fit       0.036791
 **** Fit       0.028604
 **** Fit       0.004837
 **** Fit       0.006186
 **** Fit       0.007772
 **** Fit       0.009295
 **** Fit       0.010518
 **** Fit       0.011354
 **** Fit       0.011890
 **** Fit       0.012307
 **** Fit       0.012756
 **** Fit       0.023194
 **** Fit       0.023532
 **** Fit       0.023770
 **** Fit       0.024076
 **** Fit       0.024875
 **** Fit       0.026701
 **** Fit       0.029889
 **** Fit       0.034380
 **** Fit       0.039752
 **** Fit       0.045434
 **** Fit       0.050904
 **** Fit       0.055801
 **** Fit       0.059941
 **** Fit       0.063269
 **** Fit       0.065781
 **** Fit       0.067449
 **** Fit       0.068182
 **** Fit       0.067843
 **** Fit       0.066300
 **** Fit       0.063472
 **** Fit       0.059370
 **** Fit       0.054113
 **** Fit       0.047942
 **** Fit       0.041228
 **** Fit       0.034490
 **** Fit       0.028360
 **** Fit       0.018232
 **** Fit       0.017601
 **** Fit       0.017826
 **** Fit       0.018576
 **** Fit       0.019558
 **** Fit       0.020521
 **** Fit       0.021309
 **** Fit       0.021896
 **** Fit       0.022358
 **** Fit       0.022783
 **** Fit       0.031845
 **** Fit       0.032341
 **** Fit       0.032952
 **** Fit       0.033892
 **** Fit       0.035500
 **** Fit       0.038073
 **** Fit       0.041677
 **** Fit       0.046080
 **** Fit       0.050855
 **** Fit       0.055545
 **** Fit       0.059788
 **** Fit       0.063357
 **** Fit       0.066128
 **** Fit       0.068022
 **** Fit       0.068953
 **** Fit       0.068810
 **** Fit       0.067493
 **** Fit       0.064953
 **** Fit       0.061238
 **** Fit       0.056520
 **** Fit       0.051106
 **** Fit       0.045433
 **** Fit       0.040035
 **** Fit       0.035442
 **** Fit       0.032018
 **** Fit       0.029854
 **** Fit       0.028792
 **** Fit       0.028551
 **** Fit       0.028833
 **** Fit       0.029368
 **** Fit       0.029951
 **** Fit       0.030478
 **** Fit       0.030942
 **** Fit       0.031386
 **** Fit       0.039316
 **** Fit       0.040044
 **** Fit       0.041072
 **** Fit       0.042629
 **** Fit       0.044955
 **** Fit       0.048140
 **** Fit       0.052016
 **** Fit       0.056204
 **** Fit       0.060266
 **** Fit       0.063828
 **** Fit       0.066629
 **** Fit       0.068495
 **** Fit       0.069290
 **** Fit       0.068899
 **** Fit       0.067255
 **** Fit       0.064389
 **** Fit       0.060472
 **** Fit       0.055835
 **** Fit       0.050953
 **** Fit       0.046372
 **** Fit       0.042579
 **** Fit       0.039853
 **** Fit       0.038205
 **** Fit       0.037445
 **** Fit       0.037299
 **** Fit       0.037501
 **** Fit       0.037858
 **** Fit       0.038276
 **** Fit       0.038750
 **** Fit       0.045712
 **** Fit       0.046696
 **** Fit       0.048148
 **** Fit       0.050256
 **** Fit       0.053109
 **** Fit       0.056564
 **** Fit       0.060250
 **** Fit       0.063704
 **** Fit       0.066509
 **** Fit       0.068356
 **** Fit       0.069029
 **** Fit       0.068398
 **** Fit       0.066450
 **** Fit       0.063340
 **** Fit       0.059422
 **** Fit       0.055221
 **** Fit       0.051321
 **** Fit       0.048193
 **** Fit       0.046055
 **** Fit       0.044849
 **** Fit       0.044357
 **** Fit       0.044328
 **** Fit       0.044580
 **** Fit       0.045036
 **** Fit       0.051120
 **** Fit       0.052441
 **** Fit       0.054461
 **** Fit       0.057240
 **** Fit       0.060550
 **** Fit       0.063857
 **** Fit       0.066519
 **** Fit       0.067999
 **** Fit       0.067966
 **** Fit       0.066347
 **** Fit       0.063395
 **** Fit       0.059702
 **** Fit       0.056049
 **** Fit       0.053111
 **** Fit       0.051203
 **** Fit       0.050260
 **** Fit       0.050041
 **** Fit       0.050347
 **** Fit       0.055616
 **** Fit       0.057369
 **** Fit       0.060074
 **** Fit       0.063231
 **** Fit       0.065806
 **** Fit       0.066760
 **** Fit       0.065616
 **** Fit       0.062765
 **** Fit       0.059353
 **** Fit       0.056611
 **** Fit       0.055132
 **** Fit       0.054862
 **** Fit       0.059263
 **** Fit       0.061688
 **** Fit       0.064349
 **** Fit       0.064219
 **** Fit       0.061349
 **** Fit       0.059061
 **** Fit       0.062115
 **** Fit      -0.006821
 **** Fit      -0.014846
 **** Fit      -0.004224
 **** Fit       0.003169
 **** Fit       0.001484
 **** Fit      -0.008789
 **** Fit      -0.017767
 **** Fit      -0.022547
 **** Fit       0.012216
 **** Fit      -0.010119
 **** Fit      -0.022489
 **** Fit      -0.029935
 **** Fit      -0.029510
 **** Fit      -0.029840
 **** Fit      -0.038433
 **** Fit      -0.036615
 **** Fit      -0.045997
 **** Fit      -0.042850
 **** Fit      -0.052696
 **** Fit       0.040210
 **** Fit       0.037254
 **** Fit       0.038888
 **** Fit       0.034795
 **** Fit       0.036334
 **** Fit       0.038163
 **** Fit       0.040351
 **** Fit       0.032532
 **** Fit       0.034120
 **** Fit       0.035810
 **** Fit       0.037744
 **** Fit       0.039950
 **** Fit       0.027547
 **** Fit       0.030051
 **** Fit       0.031962
 **** Fit       0.033676
 **** Fit       0.035464
 **** Fit       0.037469
 **** Fit       0.039716
 **** Fit       0.042124
 **** Fit       0.053423
 **** Fit       0.021989
 **** Fit       0.026237
 **** Fit       0.029225
 **** Fit       0.031416
 **** Fit       0.033230
 **** Fit       0.035000
 **** Fit       0.036949
 **** Fit       0.039177
 **** Fit       0.041676
 **** Fit       0.044357
 **** Fit       0.047112
 **** Fit       0.049911
 **** Fit       0.052921
 **** Fit       0.056628
 **** Fit       0.031663
 **** Fit       0.033277
 **** Fit       0.034751
 **** Fit       0.036263
 **** Fit       0.038018
 **** Fit       0.040160
 **** Fit       0.042751
 **** Fit       0.045789
 **** Fit       0.049283
 **** Fit       0.053374
 **** Fit       0.058498
 **** Fit       0.040266
 **** Fit       0.040771
 **** Fit       0.042067
 **** Fit       0.044177
 **** Fit       0.047167
 **** Fit       0.051137
 **** Fit       0.056343
 **** Fit       0.049539
 **** Fit       0.049872
 **** Fit       0.052333
 **** Fit       0.056952
 **** Fit       0.007902
 **** Fit       0.010340
 **** Fit       0.015068
 **** Fit       0.013523
 **** Fit       0.006530
 **** Fit      -0.000311
 **** Fit       0.019145
 **** Fit       0.021276
 **** Fit       0.021179
 **** Fit       0.018768
 **** Fit       0.013713
 **** Fit       0.006110
 **** Fit      -0.002821
 **** Fit       0.025694
 **** Fit       0.026561
 **** Fit       0.026629
 **** Fit       0.025748
 **** Fit       0.023592
 **** Fit       0.019826
 **** Fit       0.014216
 **** Fit       0.006670
 **** Fit      -0.002673
 **** Fit      -0.012867
 **** Fit       0.030868
 **** Fit       0.030963
 **** Fit       0.030856
 **** Fit       0.030291
 **** Fit       0.028974
 **** Fit       0.026613
 **** Fit       0.022965
 **** Fit       0.017842
 **** Fit       0.011055
 **** Fit       0.034828
 **** Fit       0.034446
 **** Fit       0.034320
 **** Fit       0.034153
 **** Fit       0.033661
 **** Fit       0.032583
 **** Fit       0.030681
 **** Fit       0.027762
 **** Fit       0.023701
 **** Fit       0.037259
 **** Fit       0.036942
 **** Fit       0.036876
 **** Fit       0.036783
 **** Fit       0.036426
 **** Fit       0.035599
 **** Fit       0.034123
 **** Fit       0.031866
 **** Fit       0.028780
 **** Fit       0.039803
 **** Fit       0.038972
 **** Fit       0.038764
 **** Fit       0.038812
 **** Fit       0.038845
 **** Fit       0.038648
 **** Fit       0.038032
 **** Fit       0.036845
 **** Fit       0.034986
 **** Fit       0.032471
 **** Fit       0.040543
 **** Fit       0.040024
 **** Fit       0.040015
 **** Fit       0.040204
 **** Fit       0.040361
 **** Fit       0.040300
 **** Fit       0.039866
 **** Fit       0.038932
 **** Fit       0.037430
 **** Fit       0.035407
 **** Fit       0.040653
 **** Fit       0.040667
 **** Fit       0.040953
 **** Fit       0.041282
 **** Fit       0.041475
 **** Fit       0.041387
 **** Fit       0.040893
 **** Fit       0.039912
 **** Fit       0.038441
 **** Fit       0.036632
 **** Fit       0.040749
 **** Fit       0.041107
 **** Fit       0.041605
 **** Fit       0.042048
 **** Fit       0.042279
 **** Fit       0.042169
 **** Fit       0.041620
 **** Fit       0.040600
 **** Fit       0.039192
 **** Fit       0.041044
 **** Fit       0.041756
 **** Fit       0.042410
 **** Fit       0.042852
 **** Fit       0.042961
 **** Fit       0.042657
 **** Fit       0.041934
 **** Fit       0.040919
 **** Fit       0.039922
 **** Fit       0.041782
 **** Fit       0.042685
 **** Fit       0.043387
 **** Fit       0.043796
 **** Fit       0.043870
 **** Fit       0.043658
 **** Fit       0.043359
 **** Fit       0.043363
 **** Fit       0.042904
 **** Fit       0.044028
 **** Fit       0.044914
 **** Fit       0.045582
 **** Fit       0.046205
 **** Fit       0.047190
 **** Fit       0.049273
 **** Fit       0.046606
 **** Fit       0.048187
 **** Fit       0.050213
 **** Fit      -0.000233
 **** Fit      -0.007332
 **** Fit       0.000124
 **** Fit       0.006780
 **** Fit       0.007235
 **** Fit      -0.008304
 **** Fit      -0.014047
 **** Fit      -0.007113
 **** Fit       0.000663
 **** Fit       0.007627
 **** Fit       0.012804
 **** Fit       0.015619
 **** Fit       0.015134
 **** Fit      -0.018182
 **** Fit      -0.020288
 **** Fit      -0.013508
 **** Fit      -0.006024
 **** Fit       0.001348
 **** Fit       0.007951
 **** Fit       0.013477
 **** Fit       0.017893
 **** Fit       0.021233
 **** Fit       0.023347
 **** Fit      -0.025603
 **** Fit      -0.026013
 **** Fit      -0.019035
 **** Fit      -0.011487
 **** Fit      -0.003872
 **** Fit       0.003258
 **** Fit       0.009551
 **** Fit       0.014920
 **** Fit       0.019452
 **** Fit       0.023323
 **** Fit       0.026706
 **** Fit       0.029669
 **** Fit      -0.032087
 **** Fit      -0.024306
 **** Fit      -0.016409
 **** Fit      -0.008343
 **** Fit      -0.000673
 **** Fit       0.006206
 **** Fit       0.012158
 **** Fit       0.017237
 **** Fit       0.021601
 **** Fit       0.025466
 **** Fit       0.029073
 **** Fit       0.032671
 **** Fit      -0.038147
 **** Fit      -0.022386
 **** Fit      -0.013557
 **** Fit      -0.005177
 **** Fit       0.002330
 **** Fit       0.008831
 **** Fit       0.014375
 **** Fit       0.019104
 **** Fit       0.023206
 **** Fit       0.026892
 **** Fit       0.030403
 **** Fit       0.034012
 **** Fit      -0.008616
 **** Fit       0.000032
 **** Fit       0.007280
 **** Fit       0.013318
 **** Fit       0.018373
 **** Fit       0.022679
 **** Fit       0.026465
 **** Fit       0.029975
 **** Fit       0.033480
 **** Fit       0.037315
 **** Fit      -0.013438
 **** Fit      -0.003116
 **** Fit       0.005126
 **** Fit       0.011764
 **** Fit       0.017186
 **** Fit       0.021701
 **** Fit       0.025574
 **** Fit       0.029046
 **** Fit       0.032363
 **** Fit       0.035812
 **** Fit       0.039759
 **** Fit      -0.005605
 **** Fit       0.003779
 **** Fit       0.011029
 **** Fit       0.016774
 **** Fit       0.021448
 **** Fit       0.025371
 **** Fit       0.028808
 **** Fit       0.032005
 **** Fit       0.035225
 **** Fit       0.038793
 **** Fit      -0.004734
 **** Fit       0.005294
 **** Fit       0.012751
 **** Fit       0.018501
 **** Fit       0.023089
 **** Fit       0.026898
 **** Fit       0.030226
 **** Fit       0.033349
 **** Fit       0.036560
 **** Fit      -0.000789
 **** Fit       0.008929
 **** Fit       0.016006
 **** Fit       0.021380
 **** Fit       0.025633
 **** Fit       0.029170
 **** Fit       0.032312
 **** Fit       0.035364
 **** Fit       0.004621
 **** Fit       0.013222
 **** Fit       0.019488
 **** Fit       0.024245
 **** Fit       0.028021
 **** Fit       0.031193
 **** Fit       0.013919
 **** Fit       0.020469
 **** Fit       0.025318
 **** Fit       0.029069
 **** Fit       0.016563
 **** Fit       0.022627
 -----------------------------------------------------------------
 Leave Link  602 at Tue Sep 17 10:17:59 2019, MaxMem=  1342177280 cpu:             137.2 elap:               2.9

 Test job not archived.
 1\1\GINC-C490-133\SP\RB3LYP\SVP\C54H83Ca1N15O23\PENGZHI\17-Sep-2019\0\
 \#b3lyp/svp scf=(tight,noincore) Test #IOP(5/87=12) Density=Current Po
 p=(MK,readradii) iop(6/33=2) iop(6/42=6)\\Ng-293_loop3_48.0\\0,1\C,0,5
 5.01,23.14,7.23\C,0,54.48,24.41,6.59\O,0,54.24,24.35,5.39\H,0,55.938,2
 3.36,7.758\H,0,54.274,22.753,7.935\H,0,55.2,22.395,6.457\N,0,54.19,25.
 48,7.34\C,0,53.7,26.68,6.69\C,0,52.19,26.68,6.57\O,0,51.45,26.12,7.38\
 C,0,54.14,27.93,7.45\C,0,54.14,28.05,8.97\O,0,54.29,29.21,9.39\O,0,53.
 97,27.11,9.78\H,0,54.31,25.41,8.34\H,0,54.1,26.76,5.68\H,0,53.8,28.87,
 7.02\H,0,55.22,27.91,7.27\N,0,51.73,27.38,5.53\C,0,50.42,27.68,5.\C,0,
 49.39,28.35,5.9\O,0,48.58,29.15,5.43\C,0,49.86,26.5,4.2\C,0,50.77,26.0
 3,3.07\C,0,50.25,24.71,2.51\C,0,50.8,24.51,1.1\N,0,52.23,24.19,0.98\H,
 0,52.47,27.87,5.05\H,0,50.55,28.47,4.26\H,0,48.94,26.89,3.76\H,0,49.57
 ,25.7,4.88\H,0,51.73,25.78,3.53\H,0,50.8,26.89,2.39\H,0,49.17,24.81,2.
 5\H,0,50.55,24.01,3.29\H,0,50.69,25.41,0.49\H,0,50.27,23.69,0.61\H,0,5
 2.6,23.56,1.68\H,0,52.48,23.86,0.06\H,0,52.78,24.98,1.28\N,0,49.53,28.
 13,7.2\C,0,48.96,28.91,8.28\C,0,50.03,29.57,9.14\O,0,51.14,29.06,9.32\
 C,0,48.15,27.99,9.19\C,0,47.33,28.61,10.3\O,0,46.82,29.75,10.28\O,0,46
 .94,27.88,11.23\H,0,50.18,27.37,7.36\H,0,48.3,29.71,7.95\H,0,48.81,27.
 31,9.74\H,0,47.47,27.4,8.58\N,0,49.75,30.75,9.7\C,0,50.57,31.39,10.71\
 C,0,50.03,31.09,12.1\O,0,48.84,31.14,12.39\H,0,48.85,31.18,9.58\H,0,50
 .52,32.46,10.5\H,0,51.61,31.08,10.73\N,0,50.91,30.77,13.06\C,0,50.51,3
 0.6,14.44\C,0,51.28,31.57,15.32\O,0,51.06,31.48,16.52\C,0,50.79,29.15,
 14.83\C,0,49.73,28.21,14.28\N,0,49.72,27.89,12.98\O,0,48.8,27.85,15.\H
 ,0,51.9,30.7,12.87\H,0,49.45,30.83,14.58\H,0,50.77,29.09,15.92\H,0,51.
 75,28.86,14.4\H,0,50.41,28.35,12.41\H,0,48.88,27.47,12.61\N,0,52.17,32
 .48,14.9\C,0,52.89,33.47,15.67\C,0,53.41,33.,17.02\O,0,54.25,32.11,17.
 06\H,0,52.34,32.48,13.9\H,0,52.42,34.44,15.86\H,0,53.71,33.86,15.07\N,
 0,52.91,33.68,18.06\C,0,53.26,33.49,19.45\C,0,52.8,32.16,20.04\O,0,52.
 97,31.9,21.23\C,0,54.74,33.75,19.74\C,0,55.05,35.21,19.96\C,0,55.62,36
 .01,18.97\C,0,54.49,35.83,21.09\C,0,55.74,37.4,19.11\C,0,54.66,37.21,2
 1.28\C,0,55.25,38.01,20.29\O,0,55.29,39.37,20.44\H,0,52.27,34.42,17.82
 \H,0,52.63,34.28,19.85\H,0,55.29,33.46,18.85\H,0,55.,33.09,20.57\H,0,5
 5.88,35.53,18.04\H,0,54.,35.24,21.85\H,0,56.07,38.04,18.31\H,0,54.26,3
 7.74,22.13\H,0,54.9,39.62,21.28\N,0,52.08,31.32,19.29\C,0,51.35,30.15,
 19.72\C,0,50.13,30.36,20.62\O,0,49.01,30.01,20.26\C,0,52.13,28.86,19.9
 6\C,0,53.12,28.55,18.83\C,0,51.24,27.62,20.03\C,0,54.3,27.71,19.3\H,0,
 51.99,31.6,18.33\H,0,50.81,29.91,18.81\H,0,52.82,28.99,20.79\H,0,53.51
 ,29.48,18.42\H,0,52.58,28.09,18.\H,0,50.7,27.52,19.09\H,0,51.82,26.72,
 20.24\H,0,50.4,27.73,20.71\H,0,54.81,28.03,20.2\H,0,54.,26.71,19.6\H,0
 ,55.04,27.72,18.49\N,0,50.28,31.06,21.75\C,0,49.25,31.36,22.71\C,0,48.
 41,30.17,23.18\O,0,47.31,30.35,23.71\C,0,49.82,32.07,23.94\O,0,50.6,33
 .17,23.53\H,0,51.23,31.34,21.94\H,0,48.53,32.07,22.3\H,0,50.39,31.38,2
 4.56\H,0,48.94,32.43,24.48\H,0,49.98,33.77,23.14\N,0,48.82,28.93,22.91
 \C,0,48.05,27.72,23.14\C,0,46.72,27.61,22.42\O,0,45.72,27.27,23.06\C,0
 ,48.,27.36,24.62\H,0,49.68,28.87,22.39\H,0,48.71,26.98,22.69\H,0,47.23
 ,26.61,24.77\H,0,48.98,27.01,24.95\H,0,47.8,28.27,25.2\N,0,46.67,27.95
 ,21.13\C,0,45.43,28.05,20.39\C,0,45.51,27.13,19.19\O,0,46.56,26.6,18.8
 3\C,0,45.15,29.48,19.93\H,0,47.54,28.03,20.63\H,0,44.68,27.73,21.11\H,
 0,44.22,29.47,19.35\H,0,45.12,30.19,20.76\H,0,46.,29.74,19.31\N,0,44.3
 6,26.87,18.56\C,0,44.2,25.92,17.48\C,0,44.66,24.5,17.78\O,0,45.26,23.8
 2,16.95\C,0,44.79,26.43,16.18\C,0,44.07,27.68,15.66\C,0,44.34,28.16,14
 .25\O,0,43.51,27.83,13.37\O,0,45.36,28.77,13.85\H,0,43.49,27.3,18.84\H
 ,0,43.12,25.87,17.32\H,0,44.69,25.66,15.41\H,0,45.85,26.64,16.33\H,0,4
 4.16,28.55,16.31\H,0,43.02,27.38,15.62\N,0,44.26,24.,18.95\C,0,44.79,2
 2.74,19.43\H,0,45.727,22.918,19.958\H,0,44.073,22.279,20.109\H,0,44.97
 1,22.076,18.585\H,0,43.7,24.55,19.59\Ca,0,44.57,29.01,11.22\O,0,44.21,
 26.53,10.42\H,0,44.53,26.07,9.64\H,0,43.76,25.86,10.93\\Version=ES64L-
 G16RevA.03\State=1-A\HF=-5333.3739513\RMSD=1.250e-09\Dipole=-3.5166766
 ,-1.8193041,-18.0421343\Quadrupole=-148.9963348,-82.8660698,231.862404
 6,-14.529882,18.7793966,169.8452639\PG=C01 [X(C54H83Ca1N15O23)]\\@


 EVERYBODY NEEDS BEAUTY AS WELL AS BREAD, PLACES TO PLAY IN AND PRAY IN,
 WHERE NATURE MAY HEAL AND CHEER AND GIVE STRENGTH TO BODY AND SOUL ALIKE.

                                    -- JOHN MUIR
 Job cpu time:       0 days  7 hours 52 minutes 30.2 seconds.
 Elapsed time:       0 days  0 hours  9 minutes 59.5 seconds.
 File lengths (MBytes):  RWF=   1517 Int=      0 D2E=      0 Chk=    171 Scr=      1
 Normal termination of Gaussian 16 at Tue Sep 17 10:18:01 2019.
