 Entering Gaussian System, Link 0=g16
 Initial command:
 /home1/apps/gaussian/16rA.03/g16/l1.exe "/scratch/01990/pengzhi/4345549/Gau-457160.inp" -scrdir="/scratch/01990/pengzhi/4345549/"
 Entering Link 1 = /home1/apps/gaussian/16rA.03/g16/l1.exe PID=    457161.
  
 Copyright (c) 1988,1990,1992,1993,1995,1998,2003,2009,2016,
            Gaussian, Inc.  All Rights Reserved.
  
 This is part of the Gaussian(R) 16 program.  It is based on
 the Gaussian(R) 09 system (copyright 2009, Gaussian, Inc.),
 the Gaussian(R) 03 system (copyright 2003, Gaussian, Inc.),
 the Gaussian(R) 98 system (copyright 1998, Gaussian, Inc.),
 the Gaussian(R) 94 system (copyright 1995, Gaussian, Inc.),
 the Gaussian 92(TM) system (copyright 1992, Gaussian, Inc.),
 the Gaussian 90(TM) system (copyright 1990, Gaussian, Inc.),
 the Gaussian 88(TM) system (copyright 1988, Gaussian, Inc.),
 the Gaussian 86(TM) system (copyright 1986, Carnegie Mellon
 University), and the Gaussian 82(TM) system (copyright 1983,
 Carnegie Mellon University). Gaussian is a federally registered
 trademark of Gaussian, Inc.
  
 This software contains proprietary and confidential information,
 including trade secrets, belonging to Gaussian, Inc.
  
 This software is provided under written license and may be
 used, copied, transmitted, or stored only in accord with that
 written license.
  
 The following legend is applicable only to US Government
 contracts under FAR:
  
                    RESTRICTED RIGHTS LEGEND
  
 Use, reproduction and disclosure by the US Government is
 subject to restrictions as set forth in subparagraphs (a)
 and (c) of the Commercial Computer Software - Restricted
 Rights clause in FAR 52.227-19.
  
 Gaussian, Inc.
 340 Quinnipiac St., Bldg. 40, Wallingford CT 06492
  
  
 ---------------------------------------------------------------
 Warning -- This program may not be used in any manner that
 competes with the business of Gaussian, Inc. or will provide
 assistance to any competitor of Gaussian, Inc.  The licensee
 of this program is prohibited from giving any competitor of
 Gaussian, Inc. access to this program.  By using this program,
 the user acknowledges that Gaussian, Inc. is engaged in the
 business of creating and licensing software in the field of
 computational chemistry and represents and warrants to the
 licensee that it is not a competitor of Gaussian, Inc. and that
 it will not use this program in any manner prohibited above.
 ---------------------------------------------------------------
  

 Cite this work as:
 Gaussian 16, Revision A.03,
 M. J. Frisch, G. W. Trucks, H. B. Schlegel, G. E. Scuseria, 
 M. A. Robb, J. R. Cheeseman, G. Scalmani, V. Barone, 
 G. A. Petersson, H. Nakatsuji, X. Li, M. Caricato, A. V. Marenich, 
 J. Bloino, B. G. Janesko, R. Gomperts, B. Mennucci, H. P. Hratchian, 
 J. V. Ortiz, A. F. Izmaylov, J. L. Sonnenberg, D. Williams-Young, 
 F. Ding, F. Lipparini, F. Egidi, J. Goings, B. Peng, A. Petrone, 
 T. Henderson, D. Ranasinghe, V. G. Zakrzewski, J. Gao, N. Rega, 
 G. Zheng, W. Liang, M. Hada, M. Ehara, K. Toyota, R. Fukuda, 
 J. Hasegawa, M. Ishida, T. Nakajima, Y. Honda, O. Kitao, H. Nakai, 
 T. Vreven, K. Throssell, J. A. Montgomery, Jr., J. E. Peralta, 
 F. Ogliaro, M. J. Bearpark, J. J. Heyd, E. N. Brothers, K. N. Kudin, 
 V. N. Staroverov, T. A. Keith, R. Kobayashi, J. Normand, 
 K. Raghavachari, A. P. Rendell, J. C. Burant, S. S. Iyengar, 
 J. Tomasi, M. Cossi, J. M. Millam, M. Klene, C. Adamo, R. Cammi, 
 J. W. Ochterski, R. L. Martin, K. Morokuma, O. Farkas, 
 J. B. Foresman, and D. J. Fox, Gaussian, Inc., Wallingford CT, 2016.
 
 ******************************************
 Gaussian 16:  ES64L-G16RevA.03 25-Dec-2016
                17-Sep-2019 
 ******************************************
 %chk=Ng-293_loop3_71.0.chk
 %nprocshared=48
 Will use up to   48 processors via shared memory.
 %mem=10GB
 %nosave
 ----------------------------------------------------------------------
 #b3lyp/svp scf=(tight,noincore) Test #IOP(5/87=12) Density=Current Pop
 =(MK,readradii) iop(6/33=2) iop(6/42=6)
 ----------------------------------------------------------------------
 1/30=1,38=1,172=1/1;
 2/12=2,17=6,18=5,40=1/2;
 3/5=18,7=101,11=2,25=1,30=1,74=-5/1,2,3;
 4//1;
 5/5=4,32=2,38=5,87=12/2;
 6/7=2,8=2,9=2,10=2,15=8,20=101,22=-1,28=1,33=2,42=6/1,2;
 99/5=1,9=1/99;
 -----------------
 Ng-293_loop3_71.0
 -----------------
 Symbolic Z-matrix:
 Charge =  0 Multiplicity = 1
 C                     65.41     23.72     10.76 
 C                     65.73     24.52     9.5 
 O                     65.07     24.29     8.49 
 H                     64.382    23.362    10.711 
 H                     66.087    22.869    10.832 
 H                     65.531    24.357    11.636 
 N                     66.66     25.47     9.54 
 C                     67.02     26.43     8.52 
 C                     66.35     27.78     8.74 
 O                     66.1      28.23     9.86 
 C                     68.53     26.57     8.39 
 C                     69.33     26.66     9.68 
 O                     69.64     25.68     10.39 
 O                     69.76     27.8      9.97 
 H                     67.07     25.8      10.41 
 H                     66.6      26.08     7.58 
 H                     68.77     27.37     7.69 
 H                     68.89     25.72     7.81 
 N                     65.95     28.33     7.59 
 C                     65.2      29.55     7.36 
 C                     65.77     30.86     7.88 
 O                     65.95     31.8      7.12 
 C                     63.76     29.26     7.78 
 C                     62.78     30.38     7.44 
 C                     61.48     30.05     8.17 
 C                     60.44     31.15     7.98 
 N                     59.06     30.82     8.36 
 H                     66.21     27.82     6.76 
 H                     65.13     29.57     6.27 
 H                     63.86     29.25     8.87 
 H                     63.39     28.36     7.29 
 H                     62.62     30.37     6.36 
 H                     63.16     31.35     7.77 
 H                     61.72     30.12     9.23 
 H                     61.27     29.       7.94 
 H                     60.48     31.47     6.94 
 H                     60.71     32.01     8.59 
 H                     59.06     30.49     9.31 
 H                     58.49     31.66     8.37 
 H                     58.67     30.12     7.75 
 N                     66.18     30.9      9.15 
 C                     66.59     32.03     9.97 
 C                     67.59     31.64     11.04 
 O                     67.4      30.63     11.72 
 C                     65.3      32.57     10.57 
 C                     65.29     33.88     11.35 
 O                     66.17     34.77     11.28 
 O                     64.25     34.23     11.96 
 H                     66.16     29.99     9.59 
 H                     67.08     32.77     9.33 
 H                     64.96     31.84     11.3 
 H                     64.51     32.58     9.82 
 N                     68.67     32.4      11.24 
 C                     69.79     32.2      12.15 
 C                     69.5      32.76     13.53 
 O                     69.18     33.93     13.73 
 H                     68.79     33.07     10.49 
 H                     70.63     32.76     11.72 
 H                     69.85     31.12     12.14 
 N                     69.56     31.94     14.58 
 C                     69.34     32.32     15.97 
 C                     70.54     33.03     16.58 
 O                     70.36     33.77     17.55 
 C                     69.03     31.04     16.73 
 C                     67.86     30.22     16.18 
 N                     68.06     29.23     15.3 
 O                     66.72     30.57     16.44 
 H                     69.6      30.97     14.28 
 H                     68.5      32.99     16.1 
 H                     68.82     31.34     17.75 
 H                     69.88     30.36     16.67 
 H                     68.99     28.99     15.02 
 H                     67.26     28.66     15.09 
 N                     71.73     32.75     16.05 
 C                     72.97     33.05     16.74 
 C                     73.15     32.42     18.12 
 O                     72.54     31.41     18.46 
 H                     71.8      32.2      15.21 
 H                     72.87     34.14     16.74 
 H                     73.84     32.76     16.16 
 N                     73.86     33.15     18.98 
 C                     73.98     33.03     20.42 
 C                     72.68     33.       21.21 
 O                     72.67     32.95     22.43 
 C                     74.94     31.98     20.97 
 C                     76.37     32.25     20.55 
 C                     77.       31.36     19.67 
 C                     77.04     33.4      20.97 
 C                     78.35     31.53     19.35 
 C                     78.39     33.58     20.64 
 C                     79.08     32.62     19.88 
 O                     80.43     32.61     19.74 
 H                     74.38     33.93     18.61 
 H                     74.4      34.       20.7 
 H                     74.6      30.98     20.71 
 H                     74.85     31.97     22.06 
 H                     76.35     30.63     19.21 
 H                     76.57     34.13     21.61 
 H                     78.84     30.74     18.8 
 H                     78.94     34.37     21.14 
 H                     80.91     33.4      20. 
 N                     71.52     33.02     20.55 
 C                     70.13     33.16     20.95 
 C                     69.66     34.46     21.59 
 O                     68.53     34.84     21.3 
 C                     69.67     31.91     21.7 
 C                     69.92     30.62     20.92 
 C                     68.18     32.05     22.01 
 C                     70.14     29.43     21.85 
 H                     71.66     33.15     19.56 
 H                     69.65     32.98     19.99 
 H                     70.21     31.89     22.64 
 H                     70.87     30.66     20.39 
 H                     69.12     30.36     20.23 
 H                     67.83     31.09     22.4 
 H                     68.08     32.78     22.81 
 H                     67.59     32.25     21.12 
 H                     70.97     29.69     22.51 
 H                     69.32     29.3      22.56 
 H                     70.31     28.48     21.35 
 N                     70.5      35.15     22.37 
 C                     70.2      36.45     22.94 
 C                     69.02     36.46     23.91 
 O                     68.59     37.53     24.32 
 C                     71.43     37.09     23.59 
 O                     72.53     37.12     22.71 
 H                     71.39     34.73     22.58 
 H                     69.9      37.16     22.18 
 H                     71.72     36.56     24.5 
 H                     71.23     38.14     23.84 
 H                     73.28     37.33     23.28 
 N                     68.47     35.29     24.22 
 C                     67.09     35.22     24.65 
 C                     66.02     35.81     23.75 
 O                     65.04     36.38     24.22 
 C                     67.12     35.47     26.16 
 H                     68.96     34.4      24.16 
 H                     66.86     34.16     24.64 
 H                     66.26     35.01     26.63 
 H                     68.04     34.97     26.48 
 H                     67.13     36.54     26.39 
 N                     66.15     35.84     22.42 
 C                     65.25     36.51     21.5 
 C                     64.68     35.42     20.59 
 O                     65.33     34.46     20.19 
 C                     66.1      37.53     20.74 
 H                     67.       35.45     22.04 
 H                     64.39     36.9      22.04 
 H                     65.51     37.97     19.94 
 H                     66.35     38.36     21.4 
 H                     66.98     37.       20.37 
 N                     63.48     35.68     20.08 
 C                     62.69     34.9      19.14 
 C                     62.64     33.43     19.51 
 O                     63.12     32.56     18.79 
 C                     63.32     35.16     17.77 
 C                     62.99     36.56     17.26 
 C                     63.52     36.61     15.84 
 O                     63.03     35.98     14.88 
 O                     64.66     37.09     15.63 
 H                     63.08     36.56     20.38 
 H                     61.69     35.32     19.12 
 H                     62.93     34.42     17.08 
 H                     64.38     34.94     17.8 
 H                     63.58     37.23     17.88 
 H                     61.91     36.65     17.35 
 N                     62.12     33.05     20.69 
 C                     62.28     31.73     21.27 
 H                     63.104    31.745    21.984 
 H                     61.361    31.444    21.782 
 H                     62.497    31.01     20.481 
 H                     61.68     33.69     21.32 
 Ca                    64.63     36.54     13.01 
 O                     65.       37.29     10.61 
 H                     65.45     37.96     10.09 
 H                     65.       36.51     10.04 
 
 Stoichiometry    C54H83CaN15O23
 Framework group  C1[X(C54H83CaN15O23)]
 Deg. of freedom   522
 Full point group                 C1      NOp   1
 Largest Abelian subgroup         C1      NOp   1
 Largest concise Abelian subgroup C1      NOp   1
                         Standard orientation:                         
 ---------------------------------------------------------------------
 Center     Atomic      Atomic             Coordinates (Angstroms)
 Number     Number       Type             X           Y           Z
 ---------------------------------------------------------------------
      1          6           0        8.569727    3.039694    5.613885
      2          6           0        9.265223    3.242362    4.270303
      3          8           0       10.469782    3.011082    4.205917
      4          1           0        9.137867    2.328393    6.212732
      5          1           0        8.511913    3.992032    6.140595
      6          1           0        7.564233    2.653154    5.448494
      7          7           0        8.553060    3.602784    3.206386
      8          6           0        8.975023    3.712035    1.827396
      9          6           0        8.618551    2.472097    1.017903
     10          8           0        7.612165    1.794819    1.236721
     11          6           0        8.438250    4.978410    1.175654
     12          6           0        6.982622    5.329259    1.440709
     13          8           0        6.565498    5.877265    2.482965
     14          8           0        6.194383    5.115465    0.491198
     15          1           0        7.536264    3.605707    3.202229
     16          1           0       10.062335    3.725695    1.819201
     17          1           0        8.685129    4.983259    0.114227
     18          1           0        9.066268    5.807520    1.502257
     19          7           0        9.587876    2.143011    0.159351
     20          6           0        9.691455    0.996798   -0.723410
     21          6           0        8.595095    0.773443   -1.752734
     22          8           0        8.872288    0.676938   -2.939094
     23          6           0        9.999767   -0.208037    0.163955
     24          6           0       10.321866   -1.481558   -0.613730
     25          6           0       10.321120   -2.619102    0.404992
     26          6           0       10.544911   -3.969743   -0.268347
     27          7           0       10.876480   -5.095566    0.614991
     28          1           0       10.360747    2.789343    0.120291
     29          1           0       10.648370    1.178448   -1.218100
     30          1           0        9.027644   -0.368396    0.640884
     31          1           0       10.858282   -0.005422    0.803407
     32          1           0       11.315825   -1.366082   -1.050550
     33          1           0        9.574092   -1.670481   -1.387901
     34          1           0        9.293020   -2.688322    0.757582
     35          1           0       10.940965   -2.270558    1.237944
     36          1           0       11.318239   -3.841014   -1.023987
     37          1           0        9.636261   -4.267932   -0.787999
     38          1           0       10.167633   -5.164598    1.325040
     39          1           0       10.824729   -5.969678    0.101328
     40          1           0       11.781472   -4.973275    1.039529
     41          7           0        7.328545    0.815831   -1.332431
     42          6           0        6.096692    0.467317   -2.024150
     43          6           0        4.904748    1.258773   -1.524283
     44          8           0        4.722774    1.396848   -0.313325
     45          6           0        5.922974   -1.026391   -1.791002
     46          6           0        4.835180   -1.808936   -2.518276
     47          8           0        4.256736   -1.439009   -3.567065
     48          8           0        4.614282   -3.003522   -2.201465
     49          1           0        7.252377    1.110153   -0.368236
     50          1           0        6.211562    0.700796   -3.086973
     51          1           0        5.667724   -1.155997   -0.742455
     52          1           0        6.878951   -1.538341   -1.894515
     53          7           0        4.056625    1.797688   -2.404203
     54          6           0        2.892785    2.643094   -2.173409
     55          6           0        1.643784    1.821606   -1.914075
     56          8           0        1.222705    0.969251   -2.693487
     57          1           0        4.436268    1.769722   -3.342760
     58          1           0        2.745671    3.211196   -3.100618
     59          1           0        3.225653    3.187033   -1.299664
     60          7           0        0.983156    2.003508   -0.769967
     61          6           0       -0.244346    1.321644   -0.378561
     62          6           0       -1.476130    1.892144   -1.066631
     63          8           0       -2.475266    1.178099   -1.179619
     64          6           0       -0.359974    1.460486    1.131224
     65          6           0        0.843806    0.951903    1.928757
     66          7           0        1.838332    1.775864    2.284432
     67          8           0        0.963212   -0.248181    2.116484
     68          1           0        1.537411    2.547100   -0.114368
     69          1           0       -0.236404    0.264584   -0.610857
     70          1           0       -1.248153    0.908723    1.416172
     71          1           0       -0.428758    2.514573    1.400796
     72          1           0        1.784507    2.749859    2.062311
     73          1           0        2.521919    1.394103    2.913691
     74          7           0       -1.406376    3.165685   -1.452153
     75          6           0       -2.590584    3.938212   -1.775501
     76          6           0       -3.643609    4.061235   -0.675636
     77          8           0       -3.366031    3.916022    0.511657
     78          1           0       -0.536128    3.668897   -1.402704
     79          1           0       -2.902116    3.357603   -2.649538
     80          1           0       -2.346869    4.952316   -2.074828
     81          7           0       -4.900646    4.143255   -1.111218
     82          6           0       -6.145646    3.969427   -0.388613
     83          6           0       -6.294620    2.681962    0.408407
     84          8           0       -7.321466    2.415117    1.012875
     85          6           0       -6.662544    5.145618    0.433575
     86          6           0       -6.960411    6.350918   -0.434023
     87          6           0       -6.169901    7.499697   -0.296914
     88          6           0       -7.959308    6.309269   -1.407815
     89          6           0       -6.489382    8.658467   -1.010345
     90          6           0       -8.273432    7.465805   -2.134142
     91          6           0       -7.587298    8.670365   -1.902723
     92          8           0       -8.003207    9.869352   -2.384024
     93          1           0       -5.042362    4.322243   -2.092839
     94          1           0       -6.866491    3.826454   -1.198329
     95          1           0       -5.981145    5.366468    1.252185
     96          1           0       -7.558769    4.821688    0.970371
     97          1           0       -5.280098    7.377226    0.303297
     98          1           0       -8.556180    5.426086   -1.572535
     99          1           0       -5.958387    9.565365   -0.760785
    100          1           0       -9.176962    7.465755   -2.734337
    101          1           0       -8.672814    9.864301   -3.072283
    102          7           0       -5.271301    1.826219    0.454464
    103          6           0       -5.104456    0.473949    0.959665
    104          6           0       -5.885128   -0.667836    0.321402
    105          8           0       -5.307399   -1.746276    0.228697
    106          6           0       -5.161256    0.472348    2.487202
    107          6           0       -4.175782    1.452435    3.122239
    108          6           0       -4.877229   -0.945289    2.982616
    109          6           0       -4.678035    1.967577    4.468260
    110          1           0       -4.519561    2.115726   -0.151896
    111          1           0       -4.030831    0.363433    0.819966
    112          1           0       -6.177194    0.729860    2.764974
    113          1           0       -4.113343    2.374180    2.546491
    114          1           0       -3.180237    1.040556    3.273717
    115          1           0       -4.762543   -0.900865    4.069388
    116          1           0       -5.759210   -1.546781    2.774727
    117          1           0       -3.942269   -1.339023    2.594001
    118          1           0       -5.659819    2.412191    4.293565
    119          1           0       -4.917853    1.157133    5.160407
    120          1           0       -4.010526    2.660064    4.974514
    121          7           0       -7.112544   -0.437330   -0.158617
    122          6           0       -7.901054   -1.416643   -0.882563
    123          6           0       -8.265332   -2.660395   -0.073995
    124          8           0       -8.790439   -3.610435   -0.639314
    125          6           0       -9.156576   -0.797769   -1.503577
    126          8           0       -8.850474    0.338240   -2.278874
    127          1           0       -7.512850    0.471064    0.006234
    128          1           0       -7.357952   -1.822032   -1.726602
    129          1           0       -9.882449   -0.517192   -0.737102
    130          1           0       -9.629804   -1.503886   -2.198166
    131          1           0       -9.706943    0.757390   -2.428119
    132          7           0       -7.934383   -2.674456    1.213551
    133          6           0       -7.729561   -3.929751    1.903829
    134          6           0       -6.720035   -4.911352    1.337865
    135          8           0       -6.915698   -6.121859    1.388763
    136          6           0       -9.117991   -4.365043    2.379523
    137          1           0       -7.791644   -1.835018    1.771018
    138          1           0       -7.287298   -3.644546    2.852333
    139          1           0       -9.029459   -5.004943    3.248309
    140          1           0       -9.598883   -3.419856    2.651855
    141          1           0       -9.664393   -4.894840    1.592974
    142          7           0       -5.640277   -4.506797    0.661730
    143          6           0       -4.707293   -5.373735   -0.033438
    144          6           0       -3.347188   -5.160389    0.634169
    145          8           0       -2.954015   -4.073160    1.043372
    146          6           0       -4.723537   -4.929733   -1.497370
    147          1           0       -5.527961   -3.510595    0.543549
    148          1           0       -4.952921   -6.415388    0.161308
    149          1           0       -3.943201   -5.453076   -2.044077
    150          1           0       -5.657433   -5.243043   -1.962856
    151          1           0       -4.586642   -3.846491   -1.504107
    152          7           0       -2.514005   -6.193992    0.562269
    153          6           0       -1.140235   -6.303779    1.027891
    154          6           0       -0.963771   -5.765100    2.434655
    155          8           0       -0.257097   -4.791372    2.675826
    156          6           0       -0.300048   -5.563912   -0.015222
    157          6           0       -0.182000   -6.365738   -1.308335
    158          6           0        0.808757   -5.605173   -2.168417
    159          8           0        2.031482   -5.520138   -1.931115
    160          8           0        0.378803   -4.793163   -3.022747
    161          1           0       -2.895431   -7.006676    0.094873
    162          1           0       -0.859039   -7.350622    0.984878
    163          1           0        0.686496   -5.405053    0.405841
    164          1           0       -0.678285   -4.558456   -0.152681
    165          1           0       -1.165794   -6.304541   -1.766380
    166          1           0        0.143165   -7.357064   -1.001512
    167          7           0       -1.646152   -6.312076    3.455622
    168          6           0       -1.782160   -5.709017    4.767956
    169          1           0       -2.728886   -5.170849    4.823469
    170          1           0       -1.762210   -6.488322    5.530049
    171          1           0       -0.959581   -5.013869    4.935719
    172          1           0       -2.217405   -7.126297    3.351631
    173         20           0        2.816534   -3.966174   -3.758515
    174          8           0        4.486489   -3.435278   -5.599385
    175          1           0        4.536930   -3.232107   -6.536389
    176          1           0        5.227160   -2.950152   -5.212915
 ---------------------------------------------------------------------
 Rotational constants (GHZ):           0.0179838           0.0087207           0.0068845
 Standard basis: SVP (5D, 7F)
 There are  1809 symmetry adapted cartesian basis functions of A   symmetry.
 There are  1717 symmetry adapted basis functions of A   symmetry.
  1717 basis functions,  2922 primitive gaussians,  1809 cartesian basis functions
   358 alpha electrons      358 beta electrons
       nuclear repulsion energy     18651.5763821606 Hartrees.
 NAtoms=  176 NActive=  176 NUniq=  176 SFac= 1.00D+00 NAtFMM=   60 NAOKFM=T Big=T
 Integral buffers will be    131072 words long.
 Raffenetti 2 integral format.
 Two-electron integral symmetry is turned on.
 One-electron integrals computed using PRISM.
 NBasis=  1717 RedAO= T EigKep=  2.87D-04  NBF=  1717
 NBsUse=  1717 1.00D-06 EigRej= -1.00D+00 NBFU=  1717
 ExpMin= 1.98D-02 ExpMax= 3.51D+04 ExpMxC= 5.28D+03 IAcc=3 IRadAn=         5 AccDes= 0.00D+00
 Harris functional with IExCor=  402 and IRadAn=       5 diagonalized for initial guess.
 HarFok:  IExCor=  402 AccDes= 0.00D+00 IRadAn=         5 IDoV= 1 UseB2=F ITyADJ=14
 ICtDFT=  3500011 ScaDFX=  1.000000  1.000000  1.000000  1.000000
 FoFCou: FMM=F IPFlag=           0 FMFlag=      100000 FMFlg1=        2001
         NFxFlg=           0 DoJE=T BraDBF=F KetDBF=T FulRan=T
         wScrn=  0.000000 ICntrl=       500 IOpCl=  0 I1Cent=   200000004 NGrid=           0
         NMat0=    1 NMatS0=      1 NMatT0=    0 NMatD0=    1 NMtDS0=    0 NMtDT0=    0
 Petite list used in FoFCou.
 Requested convergence on RMS density matrix=1.00D-08 within 128 cycles.
 Requested convergence on MAX density matrix=1.00D-06.
 Requested convergence on             energy=1.00D-06.
 No special actions if energy rises.
 EnCoef did     2 forward-backward iterations
 EnCoef did     3 forward-backward iterations
 EnCoef did     1 forward-backward iterations
 EnCoef did     5 forward-backward iterations
 EnCoef did   100 forward-backward iterations
 EnCoef did   100 forward-backward iterations
 EnCoef did    45 forward-backward iterations
 Rare condition: small coef for last iteration: -0.444D-15
 EnCoef did    20 forward-backward iterations
 EnCoef did     6 forward-backward iterations
 Rare condition: small coef for last iteration:  0.444D-15
 EnCoef did   100 forward-backward iterations
 Rare condition: small coef for last iteration:  0.000D+00
 Restarting incremental Fock formation.
 EnCoef did   100 forward-backward iterations
 EnCoef did   100 forward-backward iterations
 EnCoef did   100 forward-backward iterations
 Rare condition: small coef for last iteration:  0.909D-16
 EnCoef did   100 forward-backward iterations
 SCF Done:  E(RB3LYP) =  -5333.34387476     A.U. after   39 cycles
            NFock= 39  Conv=0.54D-09     -V/T= 2.0080
 SCF density gives NOpUse=  1 NOpAll=  1.
 Hyperfine terms turned off by default for NAtoms > 100.

 **********************************************************************

            Population analysis using the SCF density.

 **********************************************************************

 Orbital symmetries:
 BldTbl:  Degeneracy threshold= 1.00D-02
       Occupied  (A) (A) (A) (A) (A) (A) (A) (A) (A) (A) (A) (A)
                 (A) (A) (A) (A) (A) (A) (A) (A) (A) (A) (A) (A)
                 (A) (A) (A) (A) (A) (A) (A) (A) (A) (A) (A) (A)
                 (A) (A) (A) (A) (A) (A) (A) (A) (A) (A) (A) (A)
                 (A) (A) (A) (A) (A) (A) (A) (A) (A) (A) (A) (A)
                 (A) (A) (A) (A) (A) (A) (A) (A) (A) (A) (A) (A)
                 (A) (A) (A) (A) (A) (A) (A) (A) (A) (A) (A) (A)
                 (A) (A) (A) (A) (A) (A) (A) (A) (A) (A) (A) (A)
                 (A) (A) (A) (A) (A) (A) (A) (A) (A) (A) (A) (A)
                 (A) (A) (A) (A) (A) (A) (A) (A) (A) (A) (A) (A)
                 (A) (A) (A) (A) (A) (A) (A) (A) (A) (A) (A) (A)
                 (A) (A) (A) (A) (A) (A) (A) (A) (A) (A) (A) (A)
                 (A) (A) (A) (A) (A) (A) (A) (A) (A) (A) (A) (A)
                 (A) (A) (A) (A) (A) (A) (A) (A) (A) (A) (A) (A)
                 (A) (A) (A) (A) (A) (A) (A) (A) (A) (A) (A) (A)
                 (A) (A) (A) (A) (A) (A) (A) (A) (A) (A) (A) (A)
                 (A) (A) (A) (A) (A) (A) (A) (A) (A) (A) (A) (A)
                 (A) (A) (A) (A) (A) (A) (A) (A) (A) (A) (A) (A)
                 (A) (A) (A) (A) (A) (A) (A) (A) (A) (A) (A) (A)
                 (A) (A) (A) (A) (A) (A) (A) (A) (A) (A) (A) (A)
                 (A) (A) (A) (A) (A) (A) (A) (A) (A) (A) (A) (A)
                 (A) (A) (A) (A) (A) (A) (A) (A) (A) (A) (A) (A)
                 (A) (A) (A) (A) (A) (A) (A) (A) (A) (A) (A) (A)
                 (A) (A) (A) (A) (A) (A) (A) (A) (A) (A) (A) (A)
                 (A) (A) (A) (A) (A) (A) (A) (A) (A) (A) (A) (A)
                 (A) (A) (A) (A) (A) (A) (A) (A) (A) (A) (A) (A)
                 (A) (A) (A) (A) (A) (A) (A) (A) (A) (A) (A) (A)
                 (A) (A) (A) (A) (A) (A) (A) (A) (A) (A) (A) (A)
                 (A) (A) (A) (A) (A) (A) (A) (A) (A) (A) (A) (A)
                 (A) (A) (A) (A) (A) (A) (A) (A) (A) (A)
       Virtual   (A) (A) (A) (A) (A) (A) (A) (A) (A) (A) (A) (A)
                 (A) (A) (A) (A) (A) (A) (A) (A) (A) (A) (A) (A)
                 (A) (A) (A) (A) (A) (A) (A) (A) (A) (A) (A) (A)
                 (A) (A) (A) (A) (A) (A) (A) (A) (A) (A) (A) (A)
                 (A) (A) (A) (A) (A) (A) (A) (A) (A) (A) (A) (A)
                 (A) (A) (A) (A) (A) (A) (A) (A) (A) (A) (A) (A)
                 (A) (A) (A) (A) (A) (A) (A) (A) (A) (A) (A) (A)
                 (A) (A) (A) (A) (A) (A) (A) (A) (A) (A) (A) (A)
                 (A) (A) (A) (A) (A) (A) (A) (A) (A) (A) (A) (A)
                 (A) (A) (A) (A) (A) (A) (A) (A) (A) (A) (A) (A)
                 (A) (A) (A) (A) (A) (A) (A) (A) (A) (A) (A) (A)
                 (A) (A) (A) (A) (A) (A) (A) (A) (A) (A) (A) (A)
                 (A) (A) (A) (A) (A) (A) (A) (A) (A) (A) (A) (A)
                 (A) (A) (A) (A) (A) (A) (A) (A) (A) (A) (A) (A)
                 (A) (A) (A) (A) (A) (A) (A) (A) (A) (A) (A) (A)
                 (A) (A) (A) (A) (A) (A) (A) (A) (A) (A) (A) (A)
                 (A) (A) (A) (A) (A) (A) (A) (A) (A) (A) (A) (A)
                 (A) (A) (A) (A) (A) (A) (A) (A) (A) (A) (A) (A)
                 (A) (A) (A) (A) (A) (A) (A) (A) (A) (A) (A) (A)
                 (A) (A) (A) (A) (A) (A) (A) (A) (A) (A) (A) (A)
                 (A) (A) (A) (A) (A) (A) (A) (A) (A) (A) (A) (A)
                 (A) (A) (A) (A) (A) (A) (A) (A) (A) (A) (A) (A)
                 (A) (A) (A) (A) (A) (A) (A) (A) (A) (A) (A) (A)
                 (A) (A) (A) (A) (A) (A) (A) (A) (A) (A) (A) (A)
                 (A) (A) (A) (A) (A) (A) (A) (A) (A) (A) (A) (A)
                 (A) (A) (A) (A) (A) (A) (A) (A) (A) (A) (A) (A)
                 (A) (A) (A) (A) (A) (A) (A) (A) (A) (A) (A) (A)
                 (A) (A) (A) (A) (A) (A) (A) (A) (A) (A) (A) (A)
                 (A) (A) (A) (A) (A) (A) (A) (A) (A) (A) (A) (A)
                 (A) (A) (A) (A) (A) (A) (A) (A) (A) (A) (A) (A)
                 (A) (A) (A) (A) (A) (A) (A) (A) (A) (A) (A) (A)
                 (A) (A) (A) (A) (A) (A) (A) (A) (A) (A) (A) (A)
                 (A) (A) (A) (A) (A) (A) (A) (A) (A) (A) (A) (A)
                 (A) (A) (A) (A) (A) (A) (A) (A) (A) (A) (A) (A)
                 (A) (A) (A) (A) (A) (A) (A) (A) (A) (A) (A) (A)
                 (A) (A) (A) (A) (A) (A) (A) (A) (A) (A) (A) (A)
                 (A) (A) (A) (A) (A) (A) (A) (A) (A) (A) (A) (A)
                 (A) (A) (A) (A) (A) (A) (A) (A) (A) (A) (A) (A)
                 (A) (A) (A) (A) (A) (A) (A) (A) (A) (A) (A) (A)
                 (A) (A) (A) (A) (A) (A) (A) (A) (A) (A) (A) (A)
                 (A) (A) (A) (A) (A) (A) (A) (A) (A) (A) (A) (A)
                 (A) (A) (A) (A) (A) (A) (A) (A) (A) (A) (A) (A)
                 (A) (A) (A) (A) (A) (A) (A) (A) (A) (A) (A) (A)
                 (A) (A) (A) (A) (A) (A) (A) (A) (A) (A) (A) (A)
                 (A) (A) (A) (A) (A) (A) (A) (A) (A) (A) (A) (A)
                 (A) (A) (A) (A) (A) (A) (A) (A) (A) (A) (A) (A)
                 (A) (A) (A) (A) (A) (A) (A) (A) (A) (A) (A) (A)
                 (A) (A) (A) (A) (A) (A) (A) (A) (A) (A) (A) (A)
                 (A) (A) (A) (A) (A) (A) (A) (A) (A) (A) (A) (A)
                 (A) (A) (A) (A) (A) (A) (A) (A) (A) (A) (A) (A)
                 (A) (A) (A) (A) (A) (A) (A) (A) (A) (A) (A) (A)
                 (A) (A) (A) (A) (A) (A) (A) (A) (A) (A) (A) (A)
                 (A) (A) (A) (A) (A) (A) (A) (A) (A) (A) (A) (A)
                 (A) (A) (A) (A) (A) (A) (A) (A) (A) (A) (A) (A)
                 (A) (A) (A) (A) (A) (A) (A) (A) (A) (A) (A) (A)
                 (A) (A) (A) (A) (A) (A) (A) (A) (A) (A) (A) (A)
                 (A) (A) (A) (A) (A) (A) (A) (A) (A) (A) (A) (A)
                 (A) (A) (A) (A) (A) (A) (A) (A) (A) (A) (A) (A)
                 (A) (A) (A) (A) (A) (A) (A) (A) (A) (A) (A) (A)
                 (A) (A) (A) (A) (A) (A) (A) (A) (A) (A) (A) (A)
                 (A) (A) (A) (A) (A) (A) (A) (A) (A) (A) (A) (A)
                 (A) (A) (A) (A) (A) (A) (A) (A) (A) (A) (A) (A)
                 (A) (A) (A) (A) (A) (A) (A) (A) (A) (A) (A) (A)
                 (A) (A) (A) (A) (A) (A) (A) (A) (A) (A) (A) (A)
                 (A) (A) (A) (A) (A) (A) (A) (A) (A) (A) (A) (A)
                 (A) (A) (A) (A) (A) (A) (A) (A) (A) (A) (A) (A)
                 (A) (A) (A) (A) (A) (A) (A) (A) (A) (A) (A) (A)
                 (A) (A) (A) (A) (A) (A) (A) (A) (A) (A) (A) (A)
                 (A) (A) (A) (A) (A) (A) (A) (A) (A) (A) (A) (A)
                 (A) (A) (A) (A) (A) (A) (A) (A) (A) (A) (A) (A)
                 (A) (A) (A) (A) (A) (A) (A) (A) (A) (A) (A) (A)
                 (A) (A) (A) (A) (A) (A) (A) (A) (A) (A) (A) (A)
                 (A) (A) (A) (A) (A) (A) (A) (A) (A) (A) (A) (A)
                 (A) (A) (A) (A) (A) (A) (A) (A) (A) (A) (A) (A)
                 (A) (A) (A) (A) (A) (A) (A) (A) (A) (A) (A) (A)
                 (A) (A) (A) (A) (A) (A) (A) (A) (A) (A) (A) (A)
                 (A) (A) (A) (A) (A) (A) (A) (A) (A) (A) (A) (A)
                 (A) (A) (A) (A) (A) (A) (A) (A) (A) (A) (A) (A)
                 (A) (A) (A) (A) (A) (A) (A) (A) (A) (A) (A) (A)
                 (A) (A) (A) (A) (A) (A) (A) (A) (A) (A) (A) (A)
                 (A) (A) (A) (A) (A) (A) (A) (A) (A) (A) (A) (A)
                 (A) (A) (A) (A) (A) (A) (A) (A) (A) (A) (A) (A)
                 (A) (A) (A) (A) (A) (A) (A) (A) (A) (A) (A) (A)
                 (A) (A) (A) (A) (A) (A) (A) (A) (A) (A) (A) (A)
                 (A) (A) (A) (A) (A) (A) (A) (A) (A) (A) (A) (A)
                 (A) (A) (A) (A) (A) (A) (A) (A) (A) (A) (A) (A)
                 (A) (A) (A) (A) (A) (A) (A) (A) (A) (A) (A) (A)
                 (A) (A) (A) (A) (A) (A) (A) (A) (A) (A) (A) (A)
                 (A) (A) (A) (A) (A) (A) (A) (A) (A) (A) (A) (A)
                 (A) (A) (A) (A) (A) (A) (A) (A) (A) (A) (A) (A)
                 (A) (A) (A) (A) (A) (A) (A) (A) (A) (A) (A) (A)
                 (A) (A) (A) (A) (A) (A) (A) (A) (A) (A) (A) (A)
                 (A) (A) (A) (A) (A) (A) (A) (A) (A) (A) (A) (A)
                 (A) (A) (A) (A) (A) (A) (A) (A) (A) (A) (A) (A)
                 (A) (A) (A) (A) (A) (A) (A) (A) (A) (A) (A) (A)
                 (A) (A) (A) (A) (A) (A) (A) (A) (A) (A) (A) (A)
                 (A) (A) (A) (A) (A) (A) (A) (A) (A) (A) (A) (A)
                 (A) (A) (A) (A) (A) (A) (A) (A) (A) (A) (A) (A)
                 (A) (A) (A) (A) (A) (A) (A) (A) (A) (A) (A) (A)
                 (A) (A) (A) (A) (A) (A) (A) (A) (A) (A) (A) (A)
                 (A) (A) (A) (A) (A) (A) (A) (A) (A) (A) (A) (A)
                 (A) (A) (A) (A) (A) (A) (A) (A) (A) (A) (A) (A)
                 (A) (A) (A) (A) (A) (A) (A) (A) (A) (A) (A) (A)
                 (A) (A) (A) (A) (A) (A) (A) (A) (A) (A) (A) (A)
                 (A) (A) (A) (A) (A) (A) (A) (A) (A) (A) (A) (A)
                 (A) (A) (A) (A) (A) (A) (A) (A) (A) (A) (A) (A)
                 (A) (A) (A) (A) (A) (A) (A) (A) (A) (A) (A) (A)
                 (A) (A) (A) (A) (A) (A) (A) (A) (A) (A) (A) (A)
                 (A) (A) (A) (A) (A) (A) (A) (A) (A) (A) (A) (A)
                 (A) (A) (A) (A) (A) (A) (A) (A) (A) (A) (A) (A)
                 (A) (A) (A) (A) (A) (A) (A) (A) (A) (A) (A) (A)
                 (A) (A) (A) (A) (A) (A) (A) (A) (A) (A) (A) (A)
                 (A) (A) (A) (A) (A) (A) (A) (A) (A) (A) (A) (A)
                 (A) (A) (A)
 The electronic state is 1-A.
 Alpha  occ. eigenvalues -- -145.43498 -19.21263 -19.16390 -19.13371 -19.10973
 Alpha  occ. eigenvalues --  -19.09909 -19.09127 -19.09051 -19.08959 -19.08482
 Alpha  occ. eigenvalues --  -19.08421 -19.07968 -19.07141 -19.06320 -19.06163
 Alpha  occ. eigenvalues --  -19.06044 -19.06006 -19.05973 -19.05938 -19.05890
 Alpha  occ. eigenvalues --  -19.05185 -19.04701 -18.96927 -18.96479 -15.49501
 Alpha  occ. eigenvalues --  -14.56888 -14.37215 -14.36137 -14.35391 -14.35136
 Alpha  occ. eigenvalues --  -14.34926 -14.34063 -14.33970 -14.33584 -14.33538
 Alpha  occ. eigenvalues --  -14.32836 -14.32679 -14.32618 -14.30731 -14.30145
 Alpha  occ. eigenvalues --  -12.63127 -12.63068 -12.62977 -10.34104 -10.29828
 Alpha  occ. eigenvalues --  -10.28229 -10.27866 -10.27856 -10.27448 -10.27095
 Alpha  occ. eigenvalues --  -10.26995 -10.26853 -10.26625 -10.26229 -10.25903
 Alpha  occ. eigenvalues --  -10.25658 -10.25528 -10.25409 -10.25286 -10.24974
 Alpha  occ. eigenvalues --  -10.24782 -10.24469 -10.24389 -10.24251 -10.24106
 Alpha  occ. eigenvalues --  -10.23739 -10.23461 -10.22740 -10.22667 -10.22601
 Alpha  occ. eigenvalues --  -10.22365 -10.21684 -10.21404 -10.21214 -10.21193
 Alpha  occ. eigenvalues --  -10.20371 -10.19733 -10.19585 -10.19457 -10.19307
 Alpha  occ. eigenvalues --  -10.19016 -10.18970 -10.18806 -10.18757 -10.18407
 Alpha  occ. eigenvalues --  -10.18088 -10.16833 -10.16636 -10.16564 -10.16108
 Alpha  occ. eigenvalues --  -10.15830 -10.15528 -10.15234 -10.15153 -10.14924
 Alpha  occ. eigenvalues --  -10.14916 -10.12658  -1.86276  -1.14017  -1.13574
 Alpha  occ. eigenvalues --   -1.13178  -1.12482  -1.06840  -1.04946  -1.04392
 Alpha  occ. eigenvalues --   -1.02996  -1.02587  -1.02369  -1.02338  -1.01702
 Alpha  occ. eigenvalues --   -1.01651  -1.01565  -1.01431  -1.01410  -1.01224
 Alpha  occ. eigenvalues --   -1.00336  -1.00117  -0.99521  -0.99151  -0.98596
 Alpha  occ. eigenvalues --   -0.97834  -0.94022  -0.92932  -0.92713  -0.92179
 Alpha  occ. eigenvalues --   -0.91438  -0.91097  -0.90913  -0.90499  -0.90390
 Alpha  occ. eigenvalues --   -0.90261  -0.90083  -0.89711  -0.89665  -0.88346
 Alpha  occ. eigenvalues --   -0.88233  -0.87679  -0.87423  -0.87378  -0.85107
 Alpha  occ. eigenvalues --   -0.81951  -0.80885  -0.80215  -0.79126  -0.78414
 Alpha  occ. eigenvalues --   -0.77684  -0.77655  -0.76914  -0.75945  -0.74977
 Alpha  occ. eigenvalues --   -0.74616  -0.74415  -0.73442  -0.73313  -0.72767
 Alpha  occ. eigenvalues --   -0.72544  -0.72241  -0.71712  -0.71293  -0.71111
 Alpha  occ. eigenvalues --   -0.68593  -0.68404  -0.67751  -0.67251  -0.67045
 Alpha  occ. eigenvalues --   -0.66148  -0.65341  -0.64554  -0.63805  -0.63346
 Alpha  occ. eigenvalues --   -0.62511  -0.61895  -0.61632  -0.61476  -0.60833
 Alpha  occ. eigenvalues --   -0.60410  -0.60117  -0.60040  -0.59969  -0.59647
 Alpha  occ. eigenvalues --   -0.59345  -0.58547  -0.58470  -0.58247  -0.57323
 Alpha  occ. eigenvalues --   -0.57300  -0.56626  -0.56032  -0.55985  -0.55934
 Alpha  occ. eigenvalues --   -0.55788  -0.55429  -0.55413  -0.55205  -0.54658
 Alpha  occ. eigenvalues --   -0.54350  -0.54177  -0.53987  -0.53074  -0.52901
 Alpha  occ. eigenvalues --   -0.52595  -0.52291  -0.51678  -0.51374  -0.51194
 Alpha  occ. eigenvalues --   -0.50758  -0.50605  -0.50370  -0.50094  -0.49963
 Alpha  occ. eigenvalues --   -0.49435  -0.49396  -0.48707  -0.48642  -0.47932
 Alpha  occ. eigenvalues --   -0.47610  -0.47384  -0.47227  -0.46878  -0.46746
 Alpha  occ. eigenvalues --   -0.46574  -0.46184  -0.45682  -0.45639  -0.45424
 Alpha  occ. eigenvalues --   -0.45257  -0.45166  -0.44912  -0.44708  -0.44673
 Alpha  occ. eigenvalues --   -0.44468  -0.44321  -0.44161  -0.43965  -0.43688
 Alpha  occ. eigenvalues --   -0.43619  -0.43278  -0.43193  -0.43147  -0.42869
 Alpha  occ. eigenvalues --   -0.42690  -0.42593  -0.42496  -0.42316  -0.42158
 Alpha  occ. eigenvalues --   -0.42102  -0.41916  -0.41779  -0.41502  -0.41325
 Alpha  occ. eigenvalues --   -0.41201  -0.41046  -0.40974  -0.40880  -0.40862
 Alpha  occ. eigenvalues --   -0.40841  -0.40486  -0.40422  -0.40304  -0.39967
 Alpha  occ. eigenvalues --   -0.39955  -0.39911  -0.39564  -0.39358  -0.39252
 Alpha  occ. eigenvalues --   -0.38986  -0.38902  -0.38846  -0.38813  -0.38670
 Alpha  occ. eigenvalues --   -0.38443  -0.38385  -0.38359  -0.38053  -0.37963
 Alpha  occ. eigenvalues --   -0.37802  -0.37670  -0.37554  -0.37274  -0.37222
 Alpha  occ. eigenvalues --   -0.37059  -0.36913  -0.36889  -0.36503  -0.36484
 Alpha  occ. eigenvalues --   -0.36288  -0.35830  -0.35753  -0.35601  -0.35594
 Alpha  occ. eigenvalues --   -0.35571  -0.35203  -0.35108  -0.35034  -0.34703
 Alpha  occ. eigenvalues --   -0.34680  -0.34472  -0.34394  -0.34392  -0.33945
 Alpha  occ. eigenvalues --   -0.33860  -0.33752  -0.33742  -0.33499  -0.33454
 Alpha  occ. eigenvalues --   -0.33323  -0.33117  -0.33097  -0.32544  -0.32360
 Alpha  occ. eigenvalues --   -0.32207  -0.32139  -0.31913  -0.31151  -0.31037
 Alpha  occ. eigenvalues --   -0.29362  -0.28660  -0.28051  -0.27984  -0.27828
 Alpha  occ. eigenvalues --   -0.27720  -0.27246  -0.27137  -0.27078  -0.26824
 Alpha  occ. eigenvalues --   -0.26567  -0.25966  -0.25939  -0.25855  -0.25239
 Alpha  occ. eigenvalues --   -0.25001  -0.24772  -0.24681  -0.24588  -0.24205
 Alpha  occ. eigenvalues --   -0.23986  -0.23965  -0.23752  -0.23607  -0.23423
 Alpha  occ. eigenvalues --   -0.23376  -0.22966  -0.22867  -0.22754  -0.22575
 Alpha  occ. eigenvalues --   -0.22280  -0.22222  -0.21822  -0.21675  -0.21522
 Alpha  occ. eigenvalues --   -0.21374  -0.20946  -0.20882  -0.20825  -0.20590
 Alpha  occ. eigenvalues --   -0.14568  -0.13913  -0.10994
 Alpha virt. eigenvalues --   -0.10091  -0.06104  -0.03587  -0.03058  -0.01964
 Alpha virt. eigenvalues --   -0.01156  -0.00265  -0.00030   0.00829   0.01272
 Alpha virt. eigenvalues --    0.01432   0.01514   0.01972   0.02242   0.02438
 Alpha virt. eigenvalues --    0.02681   0.02715   0.02812   0.03018   0.03200
 Alpha virt. eigenvalues --    0.03468   0.03578   0.03881   0.03973   0.04215
 Alpha virt. eigenvalues --    0.04534   0.04572   0.04621   0.05208   0.05563
 Alpha virt. eigenvalues --    0.05746   0.06149   0.06295   0.06433   0.06611
 Alpha virt. eigenvalues --    0.06876   0.06929   0.07106   0.07316   0.07563
 Alpha virt. eigenvalues --    0.07868   0.07929   0.08359   0.08580   0.08873
 Alpha virt. eigenvalues --    0.08932   0.09333   0.09833   0.10091   0.10235
 Alpha virt. eigenvalues --    0.10363   0.10491   0.10576   0.10688   0.10870
 Alpha virt. eigenvalues --    0.10990   0.11088   0.11330   0.11358   0.11510
 Alpha virt. eigenvalues --    0.11930   0.12182   0.12406   0.12901   0.12948
 Alpha virt. eigenvalues --    0.13106   0.13338   0.13397   0.13586   0.13806
 Alpha virt. eigenvalues --    0.14051   0.14121   0.14322   0.14702   0.14749
 Alpha virt. eigenvalues --    0.15000   0.15021   0.15222   0.15367   0.15439
 Alpha virt. eigenvalues --    0.15618   0.15808   0.15981   0.16049   0.16223
 Alpha virt. eigenvalues --    0.16304   0.16580   0.16613   0.16987   0.17086
 Alpha virt. eigenvalues --    0.17125   0.17259   0.17470   0.17637   0.17652
 Alpha virt. eigenvalues --    0.17787   0.17971   0.18166   0.18469   0.18683
 Alpha virt. eigenvalues --    0.18785   0.18891   0.18937   0.19285   0.19337
 Alpha virt. eigenvalues --    0.19495   0.19731   0.19854   0.19961   0.19993
 Alpha virt. eigenvalues --    0.20497   0.20535   0.20768   0.20970   0.21301
 Alpha virt. eigenvalues --    0.21554   0.21808   0.22006   0.22346   0.22428
 Alpha virt. eigenvalues --    0.22879   0.22921   0.23143   0.23184   0.23324
 Alpha virt. eigenvalues --    0.23490   0.23750   0.23817   0.24335   0.24403
 Alpha virt. eigenvalues --    0.24459   0.24632   0.24889   0.25131   0.25345
 Alpha virt. eigenvalues --    0.25437   0.25676   0.25791   0.26034   0.26474
 Alpha virt. eigenvalues --    0.26606   0.26941   0.27131   0.27144   0.27159
 Alpha virt. eigenvalues --    0.27540   0.27802   0.28036   0.28482   0.28591
 Alpha virt. eigenvalues --    0.28712   0.29032   0.29377   0.29531   0.30125
 Alpha virt. eigenvalues --    0.30149   0.30507   0.30715   0.30751   0.30994
 Alpha virt. eigenvalues --    0.31301   0.31372   0.31501   0.31656   0.31791
 Alpha virt. eigenvalues --    0.32227   0.32353   0.32474   0.32702   0.33153
 Alpha virt. eigenvalues --    0.33196   0.33553   0.34625   0.34689   0.34937
 Alpha virt. eigenvalues --    0.35562   0.35762   0.36153   0.36399   0.36535
 Alpha virt. eigenvalues --    0.36637   0.36991   0.37364   0.37635   0.37667
 Alpha virt. eigenvalues --    0.38068   0.38688   0.38904   0.39093   0.39177
 Alpha virt. eigenvalues --    0.39235   0.39690   0.39947   0.40391   0.40640
 Alpha virt. eigenvalues --    0.41118   0.41363   0.41568   0.41939   0.42386
 Alpha virt. eigenvalues --    0.42610   0.42682   0.42796   0.43068   0.43503
 Alpha virt. eigenvalues --    0.43602   0.43909   0.44214   0.44452   0.44643
 Alpha virt. eigenvalues --    0.44916   0.45019   0.45260   0.45484   0.45713
 Alpha virt. eigenvalues --    0.45783   0.46044   0.46166   0.46228   0.46490
 Alpha virt. eigenvalues --    0.46614   0.46834   0.46901   0.47067   0.47103
 Alpha virt. eigenvalues --    0.47393   0.47499   0.47581   0.47867   0.48021
 Alpha virt. eigenvalues --    0.48294   0.48378   0.48626   0.48769   0.48836
 Alpha virt. eigenvalues --    0.49023   0.49202   0.49327   0.49713   0.49798
 Alpha virt. eigenvalues --    0.50079   0.50754   0.50818   0.50847   0.50992
 Alpha virt. eigenvalues --    0.51056   0.51140   0.51404   0.51825   0.52008
 Alpha virt. eigenvalues --    0.52146   0.52353   0.52501   0.52579   0.52828
 Alpha virt. eigenvalues --    0.53148   0.53309   0.53433   0.53546   0.53937
 Alpha virt. eigenvalues --    0.54014   0.54174   0.54365   0.54466   0.54554
 Alpha virt. eigenvalues --    0.54653   0.54919   0.55085   0.55124   0.55531
 Alpha virt. eigenvalues --    0.55713   0.55893   0.56086   0.56641   0.56730
 Alpha virt. eigenvalues --    0.56862   0.56949   0.57099   0.57484   0.57752
 Alpha virt. eigenvalues --    0.57925   0.58154   0.58264   0.58335   0.58386
 Alpha virt. eigenvalues --    0.58701   0.58929   0.59121   0.59467   0.59476
 Alpha virt. eigenvalues --    0.60011   0.60149   0.60233   0.60435   0.60490
 Alpha virt. eigenvalues --    0.60870   0.61062   0.61227   0.61259   0.61344
 Alpha virt. eigenvalues --    0.61515   0.61591   0.61666   0.61802   0.61918
 Alpha virt. eigenvalues --    0.62002   0.62194   0.62245   0.62435   0.62472
 Alpha virt. eigenvalues --    0.62548   0.62783   0.62974   0.63123   0.63166
 Alpha virt. eigenvalues --    0.63436   0.63627   0.63655   0.63753   0.63926
 Alpha virt. eigenvalues --    0.64267   0.64394   0.64542   0.64656   0.64745
 Alpha virt. eigenvalues --    0.64916   0.64949   0.65155   0.65251   0.65302
 Alpha virt. eigenvalues --    0.65521   0.65578   0.65620   0.65806   0.65864
 Alpha virt. eigenvalues --    0.65993   0.66095   0.66160   0.66413   0.66487
 Alpha virt. eigenvalues --    0.66590   0.66704   0.66781   0.66985   0.67083
 Alpha virt. eigenvalues --    0.67168   0.67198   0.67449   0.67493   0.67619
 Alpha virt. eigenvalues --    0.67684   0.67817   0.67879   0.67971   0.68010
 Alpha virt. eigenvalues --    0.68061   0.68283   0.68336   0.68433   0.68519
 Alpha virt. eigenvalues --    0.68573   0.68676   0.68814   0.68960   0.68990
 Alpha virt. eigenvalues --    0.69123   0.69160   0.69398   0.69547   0.69566
 Alpha virt. eigenvalues --    0.69881   0.70089   0.70136   0.70172   0.70315
 Alpha virt. eigenvalues --    0.70470   0.70578   0.70612   0.70624   0.70787
 Alpha virt. eigenvalues --    0.70929   0.71040   0.71149   0.71198   0.71264
 Alpha virt. eigenvalues --    0.71278   0.71452   0.71512   0.71630   0.71756
 Alpha virt. eigenvalues --    0.71857   0.71940   0.72123   0.72136   0.72298
 Alpha virt. eigenvalues --    0.72459   0.72770   0.72872   0.73017   0.73244
 Alpha virt. eigenvalues --    0.73308   0.73422   0.73765   0.73931   0.74091
 Alpha virt. eigenvalues --    0.74194   0.74361   0.74698   0.74819   0.74965
 Alpha virt. eigenvalues --    0.75052   0.75175   0.75554   0.75602   0.75840
 Alpha virt. eigenvalues --    0.75917   0.75949   0.76136   0.76536   0.76770
 Alpha virt. eigenvalues --    0.77133   0.77264   0.77488   0.77743   0.77857
 Alpha virt. eigenvalues --    0.77883   0.78292   0.78511   0.78676   0.78908
 Alpha virt. eigenvalues --    0.79074   0.79326   0.79465   0.79739   0.79867
 Alpha virt. eigenvalues --    0.79877   0.80166   0.80561   0.80789   0.81138
 Alpha virt. eigenvalues --    0.81259   0.81794   0.81866   0.82264   0.82477
 Alpha virt. eigenvalues --    0.82552   0.82876   0.83400   0.83786   0.83953
 Alpha virt. eigenvalues --    0.84300   0.84718   0.84846   0.85214   0.85300
 Alpha virt. eigenvalues --    0.85705   0.86265   0.86499   0.86992   0.87155
 Alpha virt. eigenvalues --    0.87375   0.87724   0.88009   0.88201   0.88329
 Alpha virt. eigenvalues --    0.88755   0.89324   0.89572   0.89689   0.89844
 Alpha virt. eigenvalues --    0.90197   0.91143   0.91262   0.91820   0.92030
 Alpha virt. eigenvalues --    0.92196   0.92577   0.92803   0.93262   0.93327
 Alpha virt. eigenvalues --    0.93646   0.93721   0.94213   0.94472   0.94558
 Alpha virt. eigenvalues --    0.94906   0.95030   0.95126   0.95678   0.95958
 Alpha virt. eigenvalues --    0.96059   0.96126   0.96431   0.96651   0.96989
 Alpha virt. eigenvalues --    0.97100   0.97414   0.97651   0.98037   0.98217
 Alpha virt. eigenvalues --    0.98396   0.98769   0.99103   0.99201   0.99374
 Alpha virt. eigenvalues --    0.99515   0.99853   1.00614   1.00818   1.00889
 Alpha virt. eigenvalues --    1.01183   1.01316   1.01527   1.02071   1.02170
 Alpha virt. eigenvalues --    1.02489   1.02577   1.02820   1.03213   1.04149
 Alpha virt. eigenvalues --    1.04225   1.04643   1.04769   1.05086   1.05446
 Alpha virt. eigenvalues --    1.05821   1.06287   1.06492   1.06800   1.07067
 Alpha virt. eigenvalues --    1.07138   1.07289   1.07503   1.08026   1.08152
 Alpha virt. eigenvalues --    1.08228   1.08446   1.08771   1.08947   1.09679
 Alpha virt. eigenvalues --    1.09741   1.10049   1.10232   1.10488   1.10785
 Alpha virt. eigenvalues --    1.11141   1.11355   1.11692   1.11757   1.12032
 Alpha virt. eigenvalues --    1.12193   1.12714   1.13077   1.13257   1.13395
 Alpha virt. eigenvalues --    1.13694   1.13922   1.14420   1.14722   1.14910
 Alpha virt. eigenvalues --    1.15189   1.15514   1.15705   1.15737   1.16151
 Alpha virt. eigenvalues --    1.16332   1.16642   1.17036   1.17247   1.17782
 Alpha virt. eigenvalues --    1.17998   1.18465   1.18661   1.18813   1.19027
 Alpha virt. eigenvalues --    1.19252   1.19576   1.19796   1.20029   1.20130
 Alpha virt. eigenvalues --    1.20389   1.20719   1.20817   1.21251   1.21339
 Alpha virt. eigenvalues --    1.21482   1.22081   1.22126   1.22267   1.22828
 Alpha virt. eigenvalues --    1.23010   1.23585   1.23729   1.23915   1.24122
 Alpha virt. eigenvalues --    1.24269   1.24297   1.24775   1.24886   1.25068
 Alpha virt. eigenvalues --    1.25303   1.25501   1.25817   1.26007   1.26448
 Alpha virt. eigenvalues --    1.26606   1.26827   1.27079   1.27374   1.27530
 Alpha virt. eigenvalues --    1.27652   1.27950   1.28388   1.28669   1.28827
 Alpha virt. eigenvalues --    1.29222   1.29587   1.30002   1.30159   1.30502
 Alpha virt. eigenvalues --    1.30957   1.31462   1.31521   1.31604   1.31944
 Alpha virt. eigenvalues --    1.31990   1.32177   1.32660   1.32757   1.33091
 Alpha virt. eigenvalues --    1.33848   1.33950   1.34126   1.34445   1.34553
 Alpha virt. eigenvalues --    1.35334   1.35587   1.35920   1.35996   1.36353
 Alpha virt. eigenvalues --    1.36470   1.36750   1.37354   1.37814   1.37863
 Alpha virt. eigenvalues --    1.37884   1.38563   1.38775   1.39012   1.39403
 Alpha virt. eigenvalues --    1.39722   1.39872   1.39965   1.40073   1.40598
 Alpha virt. eigenvalues --    1.40923   1.41123   1.41407   1.41800   1.42111
 Alpha virt. eigenvalues --    1.42392   1.42942   1.43362   1.43556   1.43801
 Alpha virt. eigenvalues --    1.44305   1.44493   1.44595   1.44759   1.45378
 Alpha virt. eigenvalues --    1.45620   1.45778   1.46252   1.46325   1.46433
 Alpha virt. eigenvalues --    1.46951   1.47230   1.47374   1.47618   1.48008
 Alpha virt. eigenvalues --    1.48197   1.48627   1.48979   1.49130   1.49338
 Alpha virt. eigenvalues --    1.49640   1.49838   1.50277   1.50393   1.50518
 Alpha virt. eigenvalues --    1.51230   1.51639   1.52401   1.52846   1.52934
 Alpha virt. eigenvalues --    1.53447   1.53721   1.53773   1.54170   1.54283
 Alpha virt. eigenvalues --    1.54482   1.54645   1.55007   1.55240   1.55558
 Alpha virt. eigenvalues --    1.56267   1.56821   1.57044   1.57299   1.57400
 Alpha virt. eigenvalues --    1.57916   1.58330   1.58655   1.59053   1.59563
 Alpha virt. eigenvalues --    1.59713   1.59794   1.59965   1.60197   1.60577
 Alpha virt. eigenvalues --    1.61095   1.61793   1.62336   1.62685   1.63022
 Alpha virt. eigenvalues --    1.63313   1.64276   1.64411   1.64576   1.65118
 Alpha virt. eigenvalues --    1.65252   1.65391   1.65822   1.66336   1.66811
 Alpha virt. eigenvalues --    1.67078   1.67256   1.67327   1.67392   1.67523
 Alpha virt. eigenvalues --    1.67801   1.68133   1.68268   1.68758   1.69182
 Alpha virt. eigenvalues --    1.69205   1.69674   1.70350   1.70556   1.70884
 Alpha virt. eigenvalues --    1.71276   1.71385   1.71783   1.71871   1.72034
 Alpha virt. eigenvalues --    1.72275   1.72642   1.72772   1.72912   1.73082
 Alpha virt. eigenvalues --    1.73418   1.73682   1.73866   1.73968   1.74042
 Alpha virt. eigenvalues --    1.74387   1.74591   1.74940   1.74963   1.75178
 Alpha virt. eigenvalues --    1.75466   1.75485   1.75558   1.75853   1.76106
 Alpha virt. eigenvalues --    1.76201   1.76211   1.76561   1.76763   1.76837
 Alpha virt. eigenvalues --    1.77114   1.77355   1.77427   1.77520   1.77666
 Alpha virt. eigenvalues --    1.77778   1.78005   1.78146   1.78553   1.78708
 Alpha virt. eigenvalues --    1.78918   1.79035   1.79194   1.79272   1.79351
 Alpha virt. eigenvalues --    1.79586   1.79708   1.79805   1.79854   1.79925
 Alpha virt. eigenvalues --    1.80077   1.80338   1.80663   1.80840   1.81125
 Alpha virt. eigenvalues --    1.81323   1.81414   1.81576   1.81647   1.82171
 Alpha virt. eigenvalues --    1.82368   1.82596   1.82666   1.82743   1.82913
 Alpha virt. eigenvalues --    1.83101   1.83304   1.83382   1.83564   1.83625
 Alpha virt. eigenvalues --    1.84040   1.84205   1.84337   1.84478   1.84712
 Alpha virt. eigenvalues --    1.84722   1.85067   1.85192   1.85434   1.85906
 Alpha virt. eigenvalues --    1.86164   1.86192   1.86370   1.86565   1.86775
 Alpha virt. eigenvalues --    1.87067   1.87216   1.87459   1.87583   1.87680
 Alpha virt. eigenvalues --    1.88039   1.88362   1.88403   1.88555   1.88826
 Alpha virt. eigenvalues --    1.89068   1.89234   1.89254   1.89344   1.89514
 Alpha virt. eigenvalues --    1.89697   1.89789   1.90042   1.90599   1.90642
 Alpha virt. eigenvalues --    1.91094   1.91342   1.91430   1.91504   1.91691
 Alpha virt. eigenvalues --    1.91813   1.91945   1.92063   1.92260   1.92549
 Alpha virt. eigenvalues --    1.92728   1.92789   1.93240   1.93309   1.93631
 Alpha virt. eigenvalues --    1.94237   1.94364   1.94396   1.94782   1.94909
 Alpha virt. eigenvalues --    1.94969   1.95248   1.95448   1.95614   1.96053
 Alpha virt. eigenvalues --    1.96391   1.96626   1.96927   1.97185   1.97267
 Alpha virt. eigenvalues --    1.97413   1.97674   1.97703   1.98163   1.98448
 Alpha virt. eigenvalues --    1.98468   1.98739   1.98859   1.99035   1.99324
 Alpha virt. eigenvalues --    1.99527   1.99980   2.00241   2.00515   2.00641
 Alpha virt. eigenvalues --    2.00824   2.00973   2.01409   2.01487   2.01631
 Alpha virt. eigenvalues --    2.01741   2.01811   2.02046   2.02105   2.02653
 Alpha virt. eigenvalues --    2.02846   2.02877   2.03293   2.03463   2.03638
 Alpha virt. eigenvalues --    2.04025   2.04137   2.04247   2.04853   2.05121
 Alpha virt. eigenvalues --    2.05287   2.05381   2.05876   2.06220   2.06294
 Alpha virt. eigenvalues --    2.06586   2.07085   2.07360   2.07426   2.07562
 Alpha virt. eigenvalues --    2.07782   2.07999   2.08253   2.08737   2.08904
 Alpha virt. eigenvalues --    2.09426   2.09447   2.09956   2.10150   2.10378
 Alpha virt. eigenvalues --    2.10566   2.10779   2.10850   2.11325   2.11550
 Alpha virt. eigenvalues --    2.11857   2.11998   2.12241   2.13058   2.13363
 Alpha virt. eigenvalues --    2.13702   2.14000   2.14166   2.14431   2.14693
 Alpha virt. eigenvalues --    2.14830   2.15137   2.15670   2.15733   2.16211
 Alpha virt. eigenvalues --    2.16434   2.16816   2.16983   2.17009   2.17426
 Alpha virt. eigenvalues --    2.17762   2.17989   2.18476   2.18564   2.18650
 Alpha virt. eigenvalues --    2.18949   2.19223   2.19384   2.19586   2.20103
 Alpha virt. eigenvalues --    2.20308   2.20328   2.20832   2.20980   2.21485
 Alpha virt. eigenvalues --    2.21769   2.21884   2.22258   2.22424   2.22657
 Alpha virt. eigenvalues --    2.23550   2.24420   2.24522   2.24969   2.25918
 Alpha virt. eigenvalues --    2.26179   2.26365   2.26472   2.26787   2.27686
 Alpha virt. eigenvalues --    2.28089   2.28590   2.28648   2.28810   2.29070
 Alpha virt. eigenvalues --    2.29308   2.29682   2.29709   2.30379   2.30785
 Alpha virt. eigenvalues --    2.31284   2.31449   2.31784   2.32064   2.32175
 Alpha virt. eigenvalues --    2.32366   2.32627   2.33367   2.33506   2.33734
 Alpha virt. eigenvalues --    2.33921   2.34212   2.34530   2.34965   2.35309
 Alpha virt. eigenvalues --    2.35347   2.35565   2.35870   2.35957   2.36250
 Alpha virt. eigenvalues --    2.36610   2.36918   2.37254   2.37480   2.37852
 Alpha virt. eigenvalues --    2.38253   2.38593   2.38663   2.38940   2.39522
 Alpha virt. eigenvalues --    2.39765   2.40193   2.40440   2.41029   2.41320
 Alpha virt. eigenvalues --    2.41841   2.42212   2.42658   2.42667   2.43406
 Alpha virt. eigenvalues --    2.43960   2.44913   2.44960   2.45416   2.45525
 Alpha virt. eigenvalues --    2.46133   2.46339   2.46425   2.46904   2.47365
 Alpha virt. eigenvalues --    2.47780   2.47952   2.48123   2.48679   2.48826
 Alpha virt. eigenvalues --    2.49362   2.49801   2.50475   2.50738   2.51231
 Alpha virt. eigenvalues --    2.51419   2.51513   2.52050   2.52214   2.52606
 Alpha virt. eigenvalues --    2.53220   2.53338   2.53543   2.54009   2.54042
 Alpha virt. eigenvalues --    2.54309   2.54525   2.54602   2.54812   2.55070
 Alpha virt. eigenvalues --    2.56022   2.56297   2.56530   2.56780   2.57818
 Alpha virt. eigenvalues --    2.58228   2.58293   2.58683   2.58781   2.59036
 Alpha virt. eigenvalues --    2.59350   2.59470   2.59784   2.60014   2.60282
 Alpha virt. eigenvalues --    2.60483   2.60816   2.60836   2.61125   2.61320
 Alpha virt. eigenvalues --    2.62036   2.62520   2.62785   2.63173   2.63721
 Alpha virt. eigenvalues --    2.63860   2.63965   2.64643   2.64689   2.64853
 Alpha virt. eigenvalues --    2.64890   2.65481   2.65827   2.65916   2.66141
 Alpha virt. eigenvalues --    2.66452   2.66892   2.66970   2.67013   2.67265
 Alpha virt. eigenvalues --    2.68357   2.68469   2.68715   2.68833   2.68959
 Alpha virt. eigenvalues --    2.69433   2.69723   2.69919   2.70887   2.71470
 Alpha virt. eigenvalues --    2.71638   2.72118   2.72268   2.72286   2.72375
 Alpha virt. eigenvalues --    2.72555   2.72791   2.73243   2.73650   2.74107
 Alpha virt. eigenvalues --    2.74163   2.74307   2.74356   2.74560   2.75294
 Alpha virt. eigenvalues --    2.75507   2.75543   2.75909   2.76611   2.76853
 Alpha virt. eigenvalues --    2.76908   2.77137   2.77720   2.77863   2.77909
 Alpha virt. eigenvalues --    2.78486   2.78537   2.78598   2.78931   2.79041
 Alpha virt. eigenvalues --    2.79506   2.79587   2.79709   2.79994   2.80739
 Alpha virt. eigenvalues --    2.80827   2.81033   2.81504   2.82137   2.82236
 Alpha virt. eigenvalues --    2.82408   2.82668   2.82696   2.82766   2.83150
 Alpha virt. eigenvalues --    2.83276   2.83571   2.83730   2.84278   2.84475
 Alpha virt. eigenvalues --    2.84556   2.85512   2.85833   2.85892   2.86082
 Alpha virt. eigenvalues --    2.86167   2.86592   2.87560   2.87749   2.87823
 Alpha virt. eigenvalues --    2.88002   2.88395   2.88496   2.88587   2.88849
 Alpha virt. eigenvalues --    2.89125   2.89187   2.89955   2.90199   2.90321
 Alpha virt. eigenvalues --    2.90720   2.90925   2.91314   2.91916   2.92261
 Alpha virt. eigenvalues --    2.92548   2.93116   2.93183   2.93298   2.93459
 Alpha virt. eigenvalues --    2.93607   2.93990   2.94408   2.94574   2.95460
 Alpha virt. eigenvalues --    2.95638   2.95802   2.96081   2.96547   2.96736
 Alpha virt. eigenvalues --    2.96969   2.97384   2.97523   2.97668   2.98373
 Alpha virt. eigenvalues --    2.98396   2.98897   2.98975   2.99298   2.99815
 Alpha virt. eigenvalues --    2.99989   3.00304   3.01473   3.01597   3.01948
 Alpha virt. eigenvalues --    3.02142   3.02355   3.02657   3.02727   3.03021
 Alpha virt. eigenvalues --    3.03371   3.03938   3.04182   3.04294   3.05339
 Alpha virt. eigenvalues --    3.05632   3.06073   3.06432   3.07096   3.07395
 Alpha virt. eigenvalues --    3.07972   3.08009   3.08333   3.08779   3.09318
 Alpha virt. eigenvalues --    3.09537   3.09932   3.10144   3.10623   3.12578
 Alpha virt. eigenvalues --    3.12671   3.12686   3.12853   3.13047   3.14050
 Alpha virt. eigenvalues --    3.14113   3.14388   3.14846   3.15039   3.16000
 Alpha virt. eigenvalues --    3.16256   3.16647   3.16882   3.17260   3.17988
 Alpha virt. eigenvalues --    3.18210   3.18528   3.18878   3.18984   3.19461
 Alpha virt. eigenvalues --    3.19872   3.20026   3.20282   3.20317   3.20446
 Alpha virt. eigenvalues --    3.20721   3.20896   3.21186   3.21383   3.21787
 Alpha virt. eigenvalues --    3.22038   3.22481   3.23120   3.23168   3.23490
 Alpha virt. eigenvalues --    3.23637   3.25391   3.25556   3.25814   3.26164
 Alpha virt. eigenvalues --    3.27444   3.28289   3.28751   3.29585   3.30172
 Alpha virt. eigenvalues --    3.30755   3.31098   3.32559   3.32698   3.32972
 Alpha virt. eigenvalues --    3.33296   3.33772   3.35098   3.36981   3.37410
 Alpha virt. eigenvalues --    3.38403   3.39529   3.42910   3.48121   3.48692
 Alpha virt. eigenvalues --    3.53154   3.54273   3.55497   3.56517   3.56549
 Alpha virt. eigenvalues --    3.57585   3.57819   3.58159   3.59941   3.60310
 Alpha virt. eigenvalues --    3.60447   3.60930   3.62029   3.62888   3.63437
 Alpha virt. eigenvalues --    3.64614   3.66029   3.66124   3.67514   3.67770
 Alpha virt. eigenvalues --    3.69043   3.69213   3.69273   3.70376   3.70512
 Alpha virt. eigenvalues --    3.70665   3.70704   3.71014   3.71502   3.71627
 Alpha virt. eigenvalues --    3.71747   3.72372   3.72922   3.73825   3.75570
 Alpha virt. eigenvalues --    3.75719   3.77680   3.78773   3.79202
          Condensed to atoms (all electrons):
 Mulliken charges:
               1
     1  C    0.063359
     2  C    0.007077
     3  O   -0.316246
     4  H    0.011961
     5  H    0.041799
     6  H    0.009828
     7  N   -0.096859
     8  C    0.070629
     9  C    0.106010
    10  O   -0.288070
    11  C    0.159646
    12  C    0.010830
    13  O   -0.358361
    14  O   -0.362833
    15  H    0.137334
    16  H   -0.032679
    17  H   -0.044699
    18  H   -0.018634
    19  N   -0.117366
    20  C    0.147270
    21  C    0.041111
    22  O   -0.281082
    23  C   -0.005892
    24  C   -0.008364
    25  C   -0.043042
    26  C    0.044911
    27  N    0.139196
    28  H    0.126024
    29  H   -0.022504
    30  H    0.026932
    31  H    0.015265
    32  H    0.007790
    33  H    0.032627
    34  H    0.033089
    35  H    0.036382
    36  H    0.055176
    37  H    0.061348
    38  H    0.147001
    39  H    0.131991
    40  H    0.143257
    41  N   -0.144668
    42  C    0.180900
    43  C    0.071548
    44  O   -0.270125
    45  C    0.057353
    46  C    0.107907
    47  O   -0.415681
    48  O   -0.470514
    49  H    0.151851
    50  H   -0.019434
    51  H    0.029366
    52  H   -0.008075
    53  N   -0.121138
    54  C    0.226321
    55  C    0.022732
    56  O   -0.274545
    57  H    0.115532
    58  H    0.025121
    59  H    0.040907
    60  N   -0.158088
    61  C    0.141736
    62  C    0.102408
    63  O   -0.276849
    64  C    0.073271
    65  C   -0.011507
    66  N   -0.029276
    67  O   -0.237443
    68  H    0.111883
    69  H    0.038733
    70  H    0.046131
    71  H   -0.017438
    72  H    0.115026
    73  H    0.141083
    74  N   -0.124437
    75  C    0.161853
    76  C    0.054222
    77  O   -0.262010
    78  H    0.115009
    79  H    0.036806
    80  H    0.034928
    81  N   -0.141757
    82  C    0.096017
    83  C    0.052118
    84  O   -0.308095
    85  C    0.171885
    86  C   -0.033768
    87  C   -0.004719
    88  C   -0.033317
    89  C   -0.017736
    90  C   -0.048342
    91  C    0.183346
    92  O   -0.202997
    93  H    0.127013
    94  H    0.015020
    95  H    0.000229
    96  H    0.020140
    97  H   -0.019762
    98  H   -0.026452
    99  H   -0.018476
   100  H   -0.040071
   101  H    0.177949
   102  N   -0.106265
   103  C    0.205264
   104  C    0.072468
   105  O   -0.273313
   106  C   -0.179975
   107  C    0.029119
   108  C    0.123963
   109  C    0.015609
   110  H    0.129749
   111  H    0.017480
   112  H   -0.019606
   113  H    0.015685
   114  H    0.003987
   115  H   -0.013985
   116  H   -0.037681
   117  H    0.049293
   118  H   -0.000220
   119  H   -0.014218
   120  H    0.008798
   121  N   -0.120191
   122  C    0.124664
   123  C    0.044608
   124  O   -0.260904
   125  C    0.200084
   126  O   -0.308081
   127  H    0.130002
   128  H    0.029103
   129  H   -0.015410
   130  H    0.018793
   131  H    0.165228
   132  N   -0.135847
   133  C    0.057934
   134  C    0.058195
   135  O   -0.288287
   136  C    0.087100
   137  H    0.135959
   138  H    0.012725
   139  H    0.003040
   140  H   -0.015059
   141  H    0.040833
   142  N   -0.145845
   143  C    0.100331
   144  C    0.045471
   145  O   -0.257657
   146  C    0.071721
   147  H    0.141819
   148  H   -0.007301
   149  H   -0.006407
   150  H    0.027834
   151  H    0.042620
   152  N   -0.129412
   153  C    0.118641
   154  C    0.092727
   155  O   -0.245131
   156  C   -0.015462
   157  C    0.159270
   158  C    0.088854
   159  O   -0.454790
   160  O   -0.441882
   161  H    0.104726
   162  H   -0.016505
   163  H    0.020819
   164  H    0.043591
   165  H   -0.013372
   166  H   -0.026251
   167  N   -0.157644
   168  C    0.122146
   169  H    0.027192
   170  H    0.003247
   171  H    0.049501
   172  H    0.094036
   173  Ca   1.384506
   174  O   -0.335248
   175  H    0.193184
   176  H    0.209186
 Sum of Mulliken charges =  -0.00000
 Mulliken charges with hydrogens summed into heavy atoms:
               1
     1  C    0.126946
     2  C    0.007077
     3  O   -0.316246
     7  N    0.040475
     8  C    0.037951
     9  C    0.106010
    10  O   -0.288070
    11  C    0.096312
    12  C    0.010830
    13  O   -0.358361
    14  O   -0.362833
    19  N    0.008658
    20  C    0.124767
    21  C    0.041111
    22  O   -0.281082
    23  C    0.036305
    24  C    0.032053
    25  C    0.026429
    26  C    0.161436
    27  N    0.561446
    41  N    0.007183
    42  C    0.161466
    43  C    0.071548
    44  O   -0.270125
    45  C    0.078644
    46  C    0.107907
    47  O   -0.415681
    48  O   -0.470514
    53  N   -0.005606
    54  C    0.292350
    55  C    0.022732
    56  O   -0.274545
    60  N   -0.046204
    61  C    0.180468
    62  C    0.102408
    63  O   -0.276849
    64  C    0.101964
    65  C   -0.011507
    66  N    0.226833
    67  O   -0.237443
    74  N   -0.009428
    75  C    0.233587
    76  C    0.054222
    77  O   -0.262010
    81  N   -0.014743
    82  C    0.111037
    83  C    0.052118
    84  O   -0.308095
    85  C    0.192254
    86  C   -0.033768
    87  C   -0.024481
    88  C   -0.059769
    89  C   -0.036212
    90  C   -0.088413
    91  C    0.183346
    92  O   -0.025048
   102  N    0.023485
   103  C    0.222744
   104  C    0.072468
   105  O   -0.273313
   106  C   -0.199581
   107  C    0.048791
   108  C    0.121590
   109  C    0.009969
   121  N    0.009811
   122  C    0.153768
   123  C    0.044608
   124  O   -0.260904
   125  C    0.203468
   126  O   -0.142852
   132  N    0.000112
   133  C    0.070660
   134  C    0.058195
   135  O   -0.288287
   136  C    0.115914
   142  N   -0.004026
   143  C    0.093030
   144  C    0.045471
   145  O   -0.257657
   146  C    0.135769
   152  N   -0.024687
   153  C    0.102136
   154  C    0.092727
   155  O   -0.245131
   156  C    0.048947
   157  C    0.119647
   158  C    0.088854
   159  O   -0.454790
   160  O   -0.441882
   167  N   -0.063608
   168  C    0.202085
   173  Ca   1.384506
   174  O    0.067122
 DipInt: DoE/N= T F RetVal/Mat= T F Init=T NMatP=  1 IDeriv=0 Min/MaxMlt=  0  4
 Entering OneElI...
 OneElI was handed  1333951383 working-precision words.
 Multipole integrals L=0 to 4 MinM= 0 MaxM= 0.
 Requested accuracy = 0.1000D-12
 ShPair: Thresh= 1.00D-13 NBox=     0 BxSize= 0.00D+00 RnKept= 3.40D+01
         NSMCal=               327645 NSMKep=              119987
 PrmmSu-InSpLW:  IPartL=    0 NPrtUS=    1 NPrtUL=    1 DoSpLW=F IThBeg=    0 IThEnd=    0 NThAct=    1.
 PrsmSu:  NPrtUS=   1 ThrOK=F IAlg=1 NPAlg=1 LenDen=           0 ISkipM=0 DoSpLW=F IThBeg=    0 IThEnd=    0.
 Prism:   IPart=     0 DynPar=F LinDyn=F Incr=         512.
 PRISM was handed  1325451787 working-precision words and119987 shell-pairs
 IPart=  0 NShTot=      119987 NBatch=         283 AvBLen=       424.0
 PrsmSu-ThDecC:  IPartSL=    0    0 NPrtUSL=    1    1 IThBeg=    0 IThEnd=    0 CPU=   -1 GPU=   -1 NThAct=    1.
 PrSmSu:  NxtVal=            513.
 Electronic moments (au):
       -716.00000000          6.91408680         -8.92351221         -6.00115503
     -99271.89052568     -41807.93697432     -12688.68991896       -269.51970645
        -25.51542059        -28.74023863    -280932.62732928     -56593.73849638
     -11894.71570244     158272.80503252    -130010.57182951     -49201.11376467
     -41068.33004011       9833.54366490       7008.91083811    -101491.82431824
  -24364721.00609127   -5660870.23903790    -672743.30403857      67828.03610422
   -1351809.77017278    1647667.30096785     566492.61730101     -48946.97451825
    -145684.10683601   -5635086.97043930   -1610513.34068013    -696873.98146043
     -87957.43785097    -494476.90118346    -127969.33700565
 Electronic spatial extent (au):  <R**2>=         153768.5174
 DipInt: DoE/N= F T RetVal/Mat= T F Init=T NMatP=  1 IDeriv=0 Min/MaxMlt=  0  4
 Nuclear    moments (au):
        716.00000000          0.00000000          0.00000000          0.00000000
      99051.16279521      41420.37744528      12314.92211489          0.00000000
         -0.00000000          0.00000000     285310.34863881      55100.80603825
      11269.36722948    -157417.19380299     126981.91068941      48341.42313219
      40942.47279322     -10278.31122444      -7605.95332685     101520.57249819
   24132404.99947502    5518136.01256654     637140.14868186    -158962.73337133
    1352501.58297566   -1675821.90010376    -572784.35978176      44336.17119253
     147764.98164032    5570159.13146282    1543677.03569973     669717.81443949
      75110.11328802     495014.72758297     121686.67638684
 Total      moments (au):
         -0.00000000          6.91408680         -8.92351221         -6.00115503
       -220.72773047       -387.55952903       -373.76780407       -269.51970645
        -25.51542059        -28.74023863       4377.72130954      -1492.93245813
       -625.34847296        855.61122953      -3028.66114010       -859.69063247
       -125.85724689       -444.76755954       -597.04248874         28.74817995
    -232316.00661625    -142734.22647137     -35603.15535671     -91134.69726710
        691.81280288     -28154.59913591      -6291.74248075      -4610.80332571
       2080.87480431     -64927.83897647     -66836.30498040     -27156.16702094
     -12847.32456295        537.82639951      -6282.66061881
 Traceless Quadrup. (au):
        106.62395739        -60.20784118        -46.41611621       -269.51970645
        -25.51542059        -28.74023863
 Charge=             -0.0000 electrons
 Dipole moment (field-independent basis, Debye):
    X=             17.5739    Y=            -22.6813    Z=            -15.2534  Tot=             32.4954
 Quadrupole moment (field-independent basis, Debye-Ang):
   XX=           -296.8864   YY=           -521.2808   ZZ=           -502.7305
   XY=           -362.5132   XZ=            -34.3191   YZ=            -38.6566
 Traceless Quadrupole moment (field-independent basis, Debye-Ang):
   XX=            143.4129   YY=            -80.9816   ZZ=            -62.4313
   XY=           -362.5132   XZ=            -34.3191   YZ=            -38.6566
 Octapole moment (field-independent basis, Debye-Ang**2):
  XXX=           3115.8934  YYY=          -1062.6118  ZZZ=           -445.0990  XYY=            608.9911
  XXY=          -2155.6843  XXZ=           -611.8947  XZZ=            -89.5803  YZZ=           -316.5684
  YYZ=           -424.9518  XYZ=             20.4618
 Hexadecapole moment (field-independent basis, Debye-Ang**3):
 XXXX=         -87501.3480 YYYY=         -53760.5540 ZZZZ=         -13409.8555 XXXY=         -34325.6970
 XXXZ=            260.5699 YYYX=         -10604.3721 YYYZ=          -2369.7719 ZZZX=          -1736.6496
 ZZZY=            783.7572 XXYY=         -24454.9376 XXZZ=         -25173.7574 YYZZ=         -10228.3147
 XXYZ=          -4838.9185 YYXZ=            202.5712 ZZXY=          -2366.3513
 N-N= 1.865157638216D+04 E-N=-4.978893688901D+04  KE= 5.290828910434D+03
 Leave Link  601 at Tue Sep 17 18:43:42 2019, MaxMem=  1342177280 cpu:              41.9 elap:               1.0
 FitSet:  NAtFit=   176 NAtPot=   176 NAtFrz=     0 MDM=   180 TotChg=   0.00000
 Merz-Kollman atomic radii used.
 Read replacement radii for each type of atom:
 Rad(20) =   1.700000000000D+00
 Atom Element Radius
    1     6    1.50
    2     6    1.50
    3     8    1.40
    4     1    1.20
    5     1    1.20
    6     1    1.20
    7     7    1.50
    8     6    1.50
    9     6    1.50
   10     8    1.40
   11     6    1.50
   12     6    1.50
   13     8    1.40
   14     8    1.40
   15     1    1.20
   16     1    1.20
   17     1    1.20
   18     1    1.20
   19     7    1.50
   20     6    1.50
   21     6    1.50
   22     8    1.40
   23     6    1.50
   24     6    1.50
   25     6    1.50
   26     6    1.50
   27     7    1.50
   28     1    1.20
   29     1    1.20
   30     1    1.20
   31     1    1.20
   32     1    1.20
   33     1    1.20
   34     1    1.20
   35     1    1.20
   36     1    1.20
   37     1    1.20
   38     1    1.20
   39     1    1.20
   40     1    1.20
   41     7    1.50
   42     6    1.50
   43     6    1.50
   44     8    1.40
   45     6    1.50
   46     6    1.50
   47     8    1.40
   48     8    1.40
   49     1    1.20
   50     1    1.20
   51     1    1.20
   52     1    1.20
   53     7    1.50
   54     6    1.50
   55     6    1.50
   56     8    1.40
   57     1    1.20
   58     1    1.20
   59     1    1.20
   60     7    1.50
   61     6    1.50
   62     6    1.50
   63     8    1.40
   64     6    1.50
   65     6    1.50
   66     7    1.50
   67     8    1.40
   68     1    1.20
   69     1    1.20
   70     1    1.20
   71     1    1.20
   72     1    1.20
   73     1    1.20
   74     7    1.50
   75     6    1.50
   76     6    1.50
   77     8    1.40
   78     1    1.20
   79     1    1.20
   80     1    1.20
   81     7    1.50
   82     6    1.50
   83     6    1.50
   84     8    1.40
   85     6    1.50
   86     6    1.50
   87     6    1.50
   88     6    1.50
   89     6    1.50
   90     6    1.50
   91     6    1.50
   92     8    1.40
   93     1    1.20
   94     1    1.20
   95     1    1.20
   96     1    1.20
   97     1    1.20
   98     1    1.20
   99     1    1.20
  100     1    1.20
  101     1    1.20
  102     7    1.50
  103     6    1.50
  104     6    1.50
  105     8    1.40
  106     6    1.50
  107     6    1.50
  108     6    1.50
  109     6    1.50
  110     1    1.20
  111     1    1.20
  112     1    1.20
  113     1    1.20
  114     1    1.20
  115     1    1.20
  116     1    1.20
  117     1    1.20
  118     1    1.20
  119     1    1.20
  120     1    1.20
  121     7    1.50
  122     6    1.50
  123     6    1.50
  124     8    1.40
  125     6    1.50
  126     8    1.40
  127     1    1.20
  128     1    1.20
  129     1    1.20
  130     1    1.20
  131     1    1.20
  132     7    1.50
[...]
 **** Fit       0.007712
 **** Fit       0.008481
 **** Fit       0.008524
 **** Fit       0.007769
 **** Fit       0.000065
 **** Fit       0.002540
 **** Fit       0.004854
 **** Fit       0.006782
 **** Fit       0.008175
 **** Fit       0.008942
 **** Fit       0.009023
 **** Fit       0.008369
 **** Fit      -0.005332
 **** Fit      -0.002485
 **** Fit       0.000564
 **** Fit       0.003457
 **** Fit       0.005930
 **** Fit       0.007827
 **** Fit       0.009071
 **** Fit       0.009623
 **** Fit       0.009456
 **** Fit       0.008533
 **** Fit      -0.011478
 **** Fit      -0.008791
 **** Fit      -0.005384
 **** Fit      -0.001702
 **** Fit       0.001805
 **** Fit       0.004837
 **** Fit       0.007243
 **** Fit       0.008964
 **** Fit       0.009989
 **** Fit       0.010316
 **** Fit       0.009938
 **** Fit       0.008827
 **** Fit      -0.013835
 **** Fit      -0.010176
 **** Fit      -0.005853
 **** Fit      -0.001517
 **** Fit       0.002372
 **** Fit       0.005590
 **** Fit       0.008061
 **** Fit       0.009787
 **** Fit       0.010794
 **** Fit       0.011106
 **** Fit       0.010733
 **** Fit       0.009660
 **** Fit      -0.017871
 **** Fit      -0.014316
 **** Fit      -0.009467
 **** Fit      -0.004281
 **** Fit       0.000495
 **** Fit       0.004496
 **** Fit       0.007616
 **** Fit       0.009870
 **** Fit       0.011315
 **** Fit       0.012010
 **** Fit       0.011997
 **** Fit       0.011293
 **** Fit      -0.008790
 **** Fit      -0.003119
 **** Fit       0.001983
 **** Fit       0.006138
 **** Fit       0.009278
 **** Fit       0.011465
 **** Fit       0.012794
 **** Fit       0.013358
 **** Fit       0.013231
 **** Fit       0.012462
 **** Fit       0.004747
 **** Fit       0.008699
 **** Fit       0.011611
 **** Fit       0.013575
 **** Fit       0.014727
 **** Fit       0.015211
 **** Fit      -0.052799
 **** Fit      -0.048477
 **** Fit      -0.048850
 **** Fit      -0.044857
 **** Fit      -0.044380
 **** Fit      -0.045134
 **** Fit      -0.041293
 **** Fit      -0.040989
 **** Fit      -0.042051
 **** Fit      -0.040214
 **** Fit      -0.038880
 **** Fit      -0.038821
 **** Fit      -0.040827
 **** Fit      -0.037682
 **** Fit      -0.037868
 **** Fit      -0.003885
 **** Fit      -0.036883
 **** Fit      -0.037513
 **** Fit       0.007461
 **** Fit       0.008543
 **** Fit      -0.036051
 **** Fit       0.016202
 **** Fit       0.019084
 **** Fit       0.019339
 **** Fit      -0.032397
 **** Fit       0.018150
 **** Fit       0.023424
 **** Fit       0.026997
 **** Fit       0.028722
 **** Fit       0.028462
 **** Fit       0.026058
 **** Fit      -0.026820
 **** Fit       0.024016
 **** Fit       0.028973
 **** Fit       0.032786
 **** Fit       0.035280
 **** Fit       0.036346
 **** Fit       0.035913
 **** Fit       0.033955
 **** Fit       0.030501
 **** Fit      -0.019869
 **** Fit      -0.020579
 **** Fit       0.024859
 **** Fit       0.029623
 **** Fit       0.033922
 **** Fit       0.037479
 **** Fit       0.040099
 **** Fit       0.041664
 **** Fit       0.042118
 **** Fit       0.041478
 **** Fit       0.039852
 **** Fit       0.037469
 **** Fit       0.034715
 **** Fit      -0.012739
 **** Fit      -0.011318
 **** Fit      -0.013214
 **** Fit       0.024355
 **** Fit       0.028699
 **** Fit       0.032927
 **** Fit       0.036887
 **** Fit       0.040365
 **** Fit       0.043160
 **** Fit       0.045114
 **** Fit       0.046128
 **** Fit       0.046177
 **** Fit       0.045343
 **** Fit       0.043856
 **** Fit      -0.010140
 **** Fit      -0.005378
 **** Fit      -0.002772
 **** Fit      -0.002691
 **** Fit      -0.005276
 **** Fit       0.026379
 **** Fit       0.031249
 **** Fit       0.035505
 **** Fit       0.039320
 **** Fit       0.042684
 **** Fit       0.045489
 **** Fit       0.047597
 **** Fit       0.048884
 **** Fit       0.049264
 **** Fit       0.048725
 **** Fit       0.047381
 **** Fit      -0.006166
 **** Fit      -0.000724
 **** Fit       0.003427
 **** Fit       0.005911
 **** Fit       0.006428
 **** Fit       0.004855
 **** Fit       0.001243
 **** Fit       0.023491
 **** Fit       0.030089
 **** Fit       0.035416
 **** Fit       0.039826
 **** Fit       0.043541
 **** Fit       0.046633
 **** Fit       0.049068
 **** Fit       0.050750
 **** Fit       0.051560
 **** Fit       0.051398
 **** Fit       0.050216
 **** Fit       0.003531
 **** Fit       0.008248
 **** Fit       0.011869
 **** Fit       0.014185
 **** Fit       0.014995
 **** Fit       0.014212
 **** Fit       0.011911
 **** Fit       0.008361
 **** Fit       0.026737
 **** Fit       0.033207
 **** Fit       0.038630
 **** Fit       0.043109
 **** Fit       0.046773
 **** Fit       0.049694
 **** Fit       0.051862
 **** Fit       0.053205
 **** Fit       0.053602
 **** Fit       0.052922
 **** Fit       0.010779
 **** Fit       0.015213
 **** Fit       0.018803
 **** Fit       0.021363
 **** Fit       0.022720
 **** Fit       0.022780
 **** Fit       0.021600
 **** Fit       0.019431
 **** Fit       0.016750
 **** Fit       0.014267
 **** Fit       0.026322
 **** Fit       0.032420
 **** Fit       0.038151
 **** Fit       0.043168
 **** Fit       0.047356
 **** Fit       0.050704
 **** Fit       0.053200
 **** Fit       0.054783
 **** Fit       0.055333
 **** Fit       0.054675
 **** Fit       0.022104
 **** Fit       0.025285
 **** Fit       0.027840
 **** Fit       0.029517
 **** Fit       0.030181
 **** Fit       0.029850
 **** Fit       0.028726
 **** Fit       0.027223
 **** Fit       0.025935
 **** Fit       0.025536
 **** Fit       0.026569
 **** Fit       0.029213
 **** Fit       0.033187
 **** Fit       0.037895
 **** Fit       0.042700
 **** Fit       0.047122
 **** Fit       0.050879
 **** Fit       0.053821
 **** Fit       0.055836
 **** Fit       0.056790
 **** Fit       0.056494
 **** Fit       0.032025
 **** Fit       0.034007
 **** Fit       0.035632
 **** Fit       0.036607
 **** Fit       0.036850
 **** Fit       0.036482
 **** Fit       0.035831
 **** Fit       0.035381
 **** Fit       0.035654
 **** Fit       0.037029
 **** Fit       0.039571
 **** Fit       0.042999
 **** Fit       0.046827
 **** Fit       0.050558
 **** Fit       0.053805
 **** Fit       0.056297
 **** Fit       0.057827
 **** Fit       0.058186
 **** Fit       0.041013
 **** Fit       0.041914
 **** Fit       0.042644
 **** Fit       0.042964
 **** Fit       0.042947
 **** Fit       0.042907
 **** Fit       0.043283
 **** Fit       0.044453
 **** Fit       0.046549
 **** Fit       0.049376
 **** Fit       0.052509
 **** Fit       0.055464
 **** Fit       0.057827
 **** Fit       0.059268
 **** Fit       0.059517
 **** Fit       0.048277
 **** Fit       0.048353
 **** Fit       0.048545
 **** Fit       0.048752
 **** Fit       0.049208
 **** Fit       0.050236
 **** Fit       0.052000
 **** Fit       0.054358
 **** Fit       0.056906
 **** Fit       0.059147
 **** Fit       0.060653
 **** Fit       0.053817
 **** Fit       0.053788
 **** Fit       0.054328
 **** Fit       0.055556
 **** Fit       0.057461
 **** Fit       0.059677
 **** Fit       0.061647
 **** Fit       0.058825
 **** Fit       0.060136
 **** Fit       0.062207
 **** Fit       0.035138
 **** Fit       0.041215
 **** Fit       0.039716
 **** Fit       0.045502
 **** Fit       0.042504
 **** Fit       0.041214
 **** Fit       0.041154
 **** Fit       0.046588
 **** Fit       0.043140
 **** Fit       0.041419
 **** Fit       0.041031
 **** Fit       0.041608
 **** Fit       0.042797
 **** Fit       0.047284
 **** Fit       0.043507
 **** Fit       0.041335
 **** Fit       0.040479
 **** Fit       0.040657
 **** Fit       0.041584
 **** Fit       0.042976
 **** Fit       0.048993
 **** Fit       0.044723
 **** Fit       0.041914
 **** Fit       0.040388
 **** Fit       0.039946
 **** Fit       0.040370
 **** Fit       0.041427
 **** Fit       0.042871
 **** Fit       0.044440
 **** Fit       0.014094
 **** Fit       0.008249
 **** Fit       0.012841
 **** Fit       0.019966
 **** Fit       0.052046
 **** Fit       0.047326
 **** Fit       0.043810
 **** Fit       0.041472
 **** Fit       0.040223
 **** Fit       0.039926
 **** Fit       0.040407
 **** Fit       0.041469
 **** Fit       0.042889
 **** Fit       0.044426
 **** Fit       0.020083
 **** Fit       0.018236
 **** Fit       0.018015
 **** Fit       0.019649
 **** Fit       0.023202
 **** Fit       0.028550
 **** Fit       0.035365
 **** Fit       0.043139
 **** Fit       0.059542
 **** Fit       0.054683
 **** Fit       0.050258
 **** Fit       0.046548
 **** Fit       0.043707
 **** Fit       0.041790
 **** Fit       0.040774
 **** Fit       0.040576
 **** Fit       0.041068
 **** Fit       0.042084
 **** Fit       0.043430
 **** Fit       0.044892
 **** Fit       0.046236
 **** Fit       0.048308
 **** Fit       0.039590
 **** Fit       0.045154
 **** Fit       0.050824
 **** Fit       0.056001
 **** Fit       0.061405
 **** Fit       0.058461
 **** Fit       0.054980
 **** Fit       0.051416
 **** Fit       0.048148
 **** Fit       0.045452
 **** Fit       0.043492
 **** Fit       0.042334
 **** Fit       0.041962
 **** Fit       0.042290
 **** Fit       0.043181
 **** Fit       0.044451
 **** Fit       0.045887
 **** Fit       0.047254
 **** Fit       0.056295
 **** Fit       0.058106
 **** Fit       0.058617
 **** Fit       0.057868
 **** Fit       0.056090
 **** Fit       0.053650
 **** Fit       0.050964
 **** Fit       0.048423
 **** Fit       0.046336
 **** Fit       0.044904
 **** Fit       0.044218
 **** Fit       0.044268
 **** Fit       0.044958
 **** Fit       0.046124
 **** Fit       0.041218
 **** Fit       0.037625
 **** Fit       0.033921
 **** Fit       0.030411
 **** Fit       0.027404
 **** Fit       0.025223
 **** Fit       0.024197
 **** Fit       0.024617
 **** Fit       0.026677
 **** Fit       0.030410
 **** Fit       0.047840
 **** Fit       0.047097
 **** Fit       0.045629
 **** Fit       0.043527
 **** Fit       0.040977
 **** Fit       0.038216
 **** Fit       0.035491
 **** Fit       0.033045
 **** Fit       0.031121
 **** Fit       0.029969
 **** Fit       0.029827
 **** Fit       0.030878
 **** Fit       0.033189
 **** Fit       0.036665
 **** Fit       0.041031
 **** Fit       0.045853
 **** Fit       0.050598
 **** Fit       0.054707
 **** Fit       0.046614
 **** Fit       0.047406
 **** Fit       0.047894
 **** Fit       0.047247
 **** Fit       0.046476
 **** Fit       0.045172
 **** Fit       0.043426
 **** Fit       0.041402
 **** Fit       0.039299
 **** Fit       0.037320
 **** Fit       0.035666
 **** Fit       0.034535
 **** Fit       0.034117
 **** Fit       0.034565
 **** Fit       0.035955
 **** Fit       0.038242
 **** Fit       0.041237
 **** Fit       0.044623
 **** Fit       0.047998
 **** Fit       0.050945
 **** Fit       0.053107
 **** Fit       0.054254
 **** Fit       0.054334
 **** Fit       0.053486
 **** Fit       0.052001
 **** Fit       0.050252
 **** Fit       0.048599
 **** Fit       0.047316
 **** Fit       0.046551
 **** Fit       0.046315
 **** Fit       0.046498
 **** Fit       0.046910
 **** Fit       0.047318
 **** Fit       0.047492
 **** Fit       0.047006
 **** Fit       0.046200
 **** Fit       0.044961
 **** Fit       0.043400
 **** Fit       0.041700
 **** Fit       0.040067
 **** Fit       0.038713
 **** Fit       0.037839
 **** Fit       0.037623
 **** Fit       0.038189
 **** Fit       0.039561
 **** Fit       0.041624
 **** Fit       0.044123
 **** Fit       0.046701
 **** Fit       0.048973
 **** Fit       0.050614
 **** Fit       0.051434
 **** Fit       0.051423
 **** Fit       0.050751
 **** Fit       0.049710
 **** Fit       0.048624
 **** Fit       0.047757
 **** Fit       0.047254
 **** Fit       0.047116
 **** Fit       0.047224
 **** Fit       0.047380
 **** Fit       0.047367
 **** Fit       0.046951
 **** Fit       0.046146
 **** Fit       0.045003
 **** Fit       0.043660
 **** Fit       0.042320
 **** Fit       0.041208
 **** Fit       0.040538
 **** Fit       0.040484
 **** Fit       0.041136
 **** Fit       0.042456
 **** Fit       0.044252
 **** Fit       0.046209
 **** Fit       0.047963
 **** Fit       0.049211
 **** Fit       0.049793
 **** Fit       0.049743
 **** Fit       0.049256
 **** Fit       0.048609
 **** Fit       0.048050
 **** Fit       0.047714
 **** Fit       0.047589
 **** Fit       0.047544
 **** Fit       0.047388
 **** Fit       0.046972
 **** Fit       0.046152
 **** Fit       0.045080
 **** Fit       0.043966
 **** Fit       0.043085
 **** Fit       0.042700
 **** Fit       0.042981
 **** Fit       0.043931
 **** Fit       0.045344
 **** Fit       0.046853
 **** Fit       0.048067
 **** Fit       0.048733
 **** Fit       0.048838
 **** Fit       0.048577
 **** Fit       0.048218
 **** Fit       0.047936
 **** Fit       0.047734
 **** Fit       0.047471
 **** Fit       0.047001
 **** Fit       0.046127
 **** Fit       0.045166
 **** Fit       0.044558
 **** Fit       0.044684
 **** Fit       0.045575
 **** Fit       0.046817
 **** Fit       0.047810
 **** Fit       0.048218
 **** Fit       0.048154
 **** Fit       0.047907
 **** Fit       0.047569
 **** Fit       0.047000
 **** Fit       0.046152
 **** Fit       0.045996
 **** Fit       0.046879
 **** Fit       0.047622
 **** Fit       0.047585
 **** Fit       0.046955
 **** Fit       0.030376
 **** Fit       0.031474
 **** Fit       0.037260
 **** Fit       0.037223
 **** Fit       0.036660
 **** Fit       0.034873
 **** Fit       0.034228
 **** Fit       0.028888
 **** Fit       0.022211
 **** Fit       0.040934
 **** Fit       0.040909
 **** Fit       0.040081
 **** Fit       0.037947
 **** Fit       0.036106
 **** Fit       0.031170
 **** Fit       0.025115
 **** Fit       0.018483
 **** Fit       0.011896
 **** Fit       0.042703
 **** Fit       0.042709
 **** Fit       0.041800
 **** Fit       0.039656
 **** Fit       0.037667
 **** Fit       0.033368
 **** Fit       0.028172
 **** Fit       0.022527
 **** Fit       0.016940
 **** Fit       0.011653
 **** Fit       0.043489
 **** Fit       0.043587
 **** Fit       0.042765
 **** Fit       0.040820
 **** Fit       0.039239
 **** Fit       0.035522
 **** Fit       0.031073
 **** Fit       0.026288
 **** Fit       0.021579
 **** Fit       0.017133
 **** Fit       0.012725
 **** Fit       0.044210
 **** Fit       0.043615
 **** Fit       0.041969
 **** Fit       0.041043
 **** Fit       0.037888
 **** Fit       0.034139
 **** Fit       0.030151
 **** Fit       0.026249
 **** Fit       0.022570
 **** Fit       0.018982
 **** Fit       0.015236
 **** Fit       0.044675
 **** Fit       0.043346
 **** Fit       0.043296
 **** Fit       0.040708
 **** Fit       0.037670
 **** Fit       0.034481
 **** Fit       0.031400
 **** Fit       0.028553
 **** Fit       0.025928
 **** Fit       0.023518
 **** Fit       0.045199
 **** Fit       0.046294
 **** Fit       0.044041
 **** Fit       0.041487
 **** Fit       0.038933
 **** Fit       0.036641
 **** Fit       0.034780
 -----------------------------------------------------------------
 Leave Link  602 at Tue Sep 17 18:43:44 2019, MaxMem=  1342177280 cpu:             131.6 elap:               2.8

 Test job not archived.
 1\1\GINC-C477-113\SP\RB3LYP\SVP\C54H83Ca1N15O23\PENGZHI\17-Sep-2019\0\
 \#b3lyp/svp scf=(tight,noincore) Test #IOP(5/87=12) Density=Current Po
 p=(MK,readradii) iop(6/33=2) iop(6/42=6)\\Ng-293_loop3_71.0\\0,1\C,0,6
 5.41,23.72,10.76\C,0,65.73,24.52,9.5\O,0,65.07,24.29,8.49\H,0,64.382,2
 3.362,10.711\H,0,66.087,22.869,10.832\H,0,65.531,24.357,11.636\N,0,66.
 66,25.47,9.54\C,0,67.02,26.43,8.52\C,0,66.35,27.78,8.74\O,0,66.1,28.23
 ,9.86\C,0,68.53,26.57,8.39\C,0,69.33,26.66,9.68\O,0,69.64,25.68,10.39\
 O,0,69.76,27.8,9.97\H,0,67.07,25.8,10.41\H,0,66.6,26.08,7.58\H,0,68.77
 ,27.37,7.69\H,0,68.89,25.72,7.81\N,0,65.95,28.33,7.59\C,0,65.2,29.55,7
 .36\C,0,65.77,30.86,7.88\O,0,65.95,31.8,7.12\C,0,63.76,29.26,7.78\C,0,
 62.78,30.38,7.44\C,0,61.48,30.05,8.17\C,0,60.44,31.15,7.98\N,0,59.06,3
 0.82,8.36\H,0,66.21,27.82,6.76\H,0,65.13,29.57,6.27\H,0,63.86,29.25,8.
 87\H,0,63.39,28.36,7.29\H,0,62.62,30.37,6.36\H,0,63.16,31.35,7.77\H,0,
 61.72,30.12,9.23\H,0,61.27,29.,7.94\H,0,60.48,31.47,6.94\H,0,60.71,32.
 01,8.59\H,0,59.06,30.49,9.31\H,0,58.49,31.66,8.37\H,0,58.67,30.12,7.75
 \N,0,66.18,30.9,9.15\C,0,66.59,32.03,9.97\C,0,67.59,31.64,11.04\O,0,67
 .4,30.63,11.72\C,0,65.3,32.57,10.57\C,0,65.29,33.88,11.35\O,0,66.17,34
 .77,11.28\O,0,64.25,34.23,11.96\H,0,66.16,29.99,9.59\H,0,67.08,32.77,9
 .33\H,0,64.96,31.84,11.3\H,0,64.51,32.58,9.82\N,0,68.67,32.4,11.24\C,0
 ,69.79,32.2,12.15\C,0,69.5,32.76,13.53\O,0,69.18,33.93,13.73\H,0,68.79
 ,33.07,10.49\H,0,70.63,32.76,11.72\H,0,69.85,31.12,12.14\N,0,69.56,31.
 94,14.58\C,0,69.34,32.32,15.97\C,0,70.54,33.03,16.58\O,0,70.36,33.77,1
 7.55\C,0,69.03,31.04,16.73\C,0,67.86,30.22,16.18\N,0,68.06,29.23,15.3\
 O,0,66.72,30.57,16.44\H,0,69.6,30.97,14.28\H,0,68.5,32.99,16.1\H,0,68.
 82,31.34,17.75\H,0,69.88,30.36,16.67\H,0,68.99,28.99,15.02\H,0,67.26,2
 8.66,15.09\N,0,71.73,32.75,16.05\C,0,72.97,33.05,16.74\C,0,73.15,32.42
 ,18.12\O,0,72.54,31.41,18.46\H,0,71.8,32.2,15.21\H,0,72.87,34.14,16.74
 \H,0,73.84,32.76,16.16\N,0,73.86,33.15,18.98\C,0,73.98,33.03,20.42\C,0
 ,72.68,33.,21.21\O,0,72.67,32.95,22.43\C,0,74.94,31.98,20.97\C,0,76.37
 ,32.25,20.55\C,0,77.,31.36,19.67\C,0,77.04,33.4,20.97\C,0,78.35,31.53,
 19.35\C,0,78.39,33.58,20.64\C,0,79.08,32.62,19.88\O,0,80.43,32.61,19.7
 4\H,0,74.38,33.93,18.61\H,0,74.4,34.,20.7\H,0,74.6,30.98,20.71\H,0,74.
 85,31.97,22.06\H,0,76.35,30.63,19.21\H,0,76.57,34.13,21.61\H,0,78.84,3
 0.74,18.8\H,0,78.94,34.37,21.14\H,0,80.91,33.4,20.\N,0,71.52,33.02,20.
 55\C,0,70.13,33.16,20.95\C,0,69.66,34.46,21.59\O,0,68.53,34.84,21.3\C,
 0,69.67,31.91,21.7\C,0,69.92,30.62,20.92\C,0,68.18,32.05,22.01\C,0,70.
 14,29.43,21.85\H,0,71.66,33.15,19.56\H,0,69.65,32.98,19.99\H,0,70.21,3
 1.89,22.64\H,0,70.87,30.66,20.39\H,0,69.12,30.36,20.23\H,0,67.83,31.09
 ,22.4\H,0,68.08,32.78,22.81\H,0,67.59,32.25,21.12\H,0,70.97,29.69,22.5
 1\H,0,69.32,29.3,22.56\H,0,70.31,28.48,21.35\N,0,70.5,35.15,22.37\C,0,
 70.2,36.45,22.94\C,0,69.02,36.46,23.91\O,0,68.59,37.53,24.32\C,0,71.43
 ,37.09,23.59\O,0,72.53,37.12,22.71\H,0,71.39,34.73,22.58\H,0,69.9,37.1
 6,22.18\H,0,71.72,36.56,24.5\H,0,71.23,38.14,23.84\H,0,73.28,37.33,23.
 28\N,0,68.47,35.29,24.22\C,0,67.09,35.22,24.65\C,0,66.02,35.81,23.75\O
 ,0,65.04,36.38,24.22\C,0,67.12,35.47,26.16\H,0,68.96,34.4,24.16\H,0,66
 .86,34.16,24.64\H,0,66.26,35.01,26.63\H,0,68.04,34.97,26.48\H,0,67.13,
 36.54,26.39\N,0,66.15,35.84,22.42\C,0,65.25,36.51,21.5\C,0,64.68,35.42
 ,20.59\O,0,65.33,34.46,20.19\C,0,66.1,37.53,20.74\H,0,67.,35.45,22.04\
 H,0,64.39,36.9,22.04\H,0,65.51,37.97,19.94\H,0,66.35,38.36,21.4\H,0,66
 .98,37.,20.37\N,0,63.48,35.68,20.08\C,0,62.69,34.9,19.14\C,0,62.64,33.
 43,19.51\O,0,63.12,32.56,18.79\C,0,63.32,35.16,17.77\C,0,62.99,36.56,1
 7.26\C,0,63.52,36.61,15.84\O,0,63.03,35.98,14.88\O,0,64.66,37.09,15.63
 \H,0,63.08,36.56,20.38\H,0,61.69,35.32,19.12\H,0,62.93,34.42,17.08\H,0
 ,64.38,34.94,17.8\H,0,63.58,37.23,17.88\H,0,61.91,36.65,17.35\N,0,62.1
 2,33.05,20.69\C,0,62.28,31.73,21.27\H,0,63.104,31.745,21.984\H,0,61.36
 1,31.444,21.782\H,0,62.497,31.01,20.481\H,0,61.68,33.69,21.32\Ca,0,64.
 63,36.54,13.01\O,0,65.,37.29,10.61\H,0,65.45,37.96,10.09\H,0,65.,36.51
 ,10.04\\Version=ES64L-G16RevA.03\State=1-A\HF=-5333.3438748\RMSD=5.401
 e-10\Dipole=-8.5532695,6.8046069,-6.632227\Quadrupole=162.3269416,-147
 .5364704,-14.7904713,56.4605335,213.8653567,-97.9687687\PG=C01 [X(C54H
 83Ca1N15O23)]\\@


 CHEMISTRY BEGAN BY SAYING IT WOULD CHANGE THE BASER
 METALS INTO GOLD.  BY NOT DOING THAT IT HAS DONE MUCH
 GREATER THINGS.  --  RALPH WALDO EMERSON
 Job cpu time:       0 days 10 hours 37 minutes 14.5 seconds.
 Elapsed time:       0 days  0 hours 13 minutes 27.8 seconds.
 File lengths (MBytes):  RWF=   1517 Int=      0 D2E=      0 Chk=    171 Scr=      1
 Normal termination of Gaussian 16 at Tue Sep 17 18:43:46 2019.
