 Entering Gaussian System, Link 0=g16
 Initial command:
 /home1/apps/gaussian/16rA.03/g16/l1.exe "/scratch/01990/pengzhi/4353682/Gau-386953.inp" -scrdir="/scratch/01990/pengzhi/4353682/"
 Entering Link 1 = /home1/apps/gaussian/16rA.03/g16/l1.exe PID=    386954.
  
 Copyright (c) 1988,1990,1992,1993,1995,1998,2003,2009,2016,
            Gaussian, Inc.  All Rights Reserved.
  
 This is part of the Gaussian(R) 16 program.  It is based on
 the Gaussian(R) 09 system (copyright 2009, Gaussian, Inc.),
 the Gaussian(R) 03 system (copyright 2003, Gaussian, Inc.),
 the Gaussian(R) 98 system (copyright 1998, Gaussian, Inc.),
 the Gaussian(R) 94 system (copyright 1995, Gaussian, Inc.),
 the Gaussian 92(TM) system (copyright 1992, Gaussian, Inc.),
 the Gaussian 90(TM) system (copyright 1990, Gaussian, Inc.),
 the Gaussian 88(TM) system (copyright 1988, Gaussian, Inc.),
 the Gaussian 86(TM) system (copyright 1986, Carnegie Mellon
 University), and the Gaussian 82(TM) system (copyright 1983,
 Carnegie Mellon University). Gaussian is a federally registered
 trademark of Gaussian, Inc.
  
 This software contains proprietary and confidential information,
 including trade secrets, belonging to Gaussian, Inc.
  
 This software is provided under written license and may be
 used, copied, transmitted, or stored only in accord with that
 written license.
  
 The following legend is applicable only to US Government
 contracts under FAR:
  
                    RESTRICTED RIGHTS LEGEND
  
 Use, reproduction and disclosure by the US Government is
 subject to restrictions as set forth in subparagraphs (a)
 and (c) of the Commercial Computer Software - Restricted
 Rights clause in FAR 52.227-19.
  
 Gaussian, Inc.
 340 Quinnipiac St., Bldg. 40, Wallingford CT 06492
  
  
 ---------------------------------------------------------------
 Warning -- This program may not be used in any manner that
 competes with the business of Gaussian, Inc. or will provide
 assistance to any competitor of Gaussian, Inc.  The licensee
 of this program is prohibited from giving any competitor of
 Gaussian, Inc. access to this program.  By using this program,
 the user acknowledges that Gaussian, Inc. is engaged in the
 business of creating and licensing software in the field of
 computational chemistry and represents and warrants to the
 licensee that it is not a competitor of Gaussian, Inc. and that
 it will not use this program in any manner prohibited above.
 ---------------------------------------------------------------
  

 Cite this work as:
 Gaussian 16, Revision A.03,
 M. J. Frisch, G. W. Trucks, H. B. Schlegel, G. E. Scuseria, 
 M. A. Robb, J. R. Cheeseman, G. Scalmani, V. Barone, 
 G. A. Petersson, H. Nakatsuji, X. Li, M. Caricato, A. V. Marenich, 
 J. Bloino, B. G. Janesko, R. Gomperts, B. Mennucci, H. P. Hratchian, 
 J. V. Ortiz, A. F. Izmaylov, J. L. Sonnenberg, D. Williams-Young, 
 F. Ding, F. Lipparini, F. Egidi, J. Goings, B. Peng, A. Petrone, 
 T. Henderson, D. Ranasinghe, V. G. Zakrzewski, J. Gao, N. Rega, 
 G. Zheng, W. Liang, M. Hada, M. Ehara, K. Toyota, R. Fukuda, 
 J. Hasegawa, M. Ishida, T. Nakajima, Y. Honda, O. Kitao, H. Nakai, 
 T. Vreven, K. Throssell, J. A. Montgomery, Jr., J. E. Peralta, 
 F. Ogliaro, M. J. Bearpark, J. J. Heyd, E. N. Brothers, K. N. Kudin, 
 V. N. Staroverov, T. A. Keith, R. Kobayashi, J. Normand, 
 K. Raghavachari, A. P. Rendell, J. C. Burant, S. S. Iyengar, 
 J. Tomasi, M. Cossi, J. M. Millam, M. Klene, C. Adamo, R. Cammi, 
 J. W. Ochterski, R. L. Martin, K. Morokuma, O. Farkas, 
 J. B. Foresman, and D. J. Fox, Gaussian, Inc., Wallingford CT, 2016.
 
 ******************************************
 Gaussian 16:  ES64L-G16RevA.03 25-Dec-2016
                18-Sep-2019 
 ******************************************
 %chk=Ng-295_loop3_32.0.chk
 %nprocshared=48
 Will use up to   48 processors via shared memory.
 %mem=10GB
 %nosave
 ----------------------------------------------------------------------
 #b3lyp/svp scf=(tight,noincore) Test #IOP(5/87=12) Density=Current Pop
 =(MK,readradii) iop(6/33=2) iop(6/42=6)
 ----------------------------------------------------------------------
 1/30=1,38=1,172=1/1;
 2/12=2,17=6,18=5,40=1/2;
 3/5=18,7=101,11=2,25=1,30=1,74=-5/1,2,3;
 4//1;
 5/5=4,32=2,38=5,87=12/2;
 6/7=2,8=2,9=2,10=2,15=8,20=101,22=-1,28=1,33=2,42=6/1,2;
 99/5=1,9=1/99;
 -----------------
 Ng-295_loop3_32.0
 -----------------
 Symbolic Z-matrix:
 Charge =  0 Multiplicity = 1
 C                     5.995     75.995    64.96 
 C                     4.665     76.105    64.23 
 O                     3.945     77.075    64.02 
 H                     6.713     76.681    64.511 
 H                     5.856     76.252    66.01 
 H                     6.37      74.975    64.881 
 N                     4.275     74.995    63.59 
 C                     3.105     74.785    62.77 
 C                     2.165     73.675    63.24 
 O                     2.525     72.675    63.84 
 C                     3.575     74.585    61.33 
 C                     2.565     74.665    60.2 
 O                     2.915     75.245    59.16 
 O                     1.375     74.325    60.39 
 H                     4.935     74.235    63.69 
 H                     2.485     75.675    62.69 
 H                     4.055     73.615    61.22 
 H                     4.345     75.335    61.14 
 N                     0.865     73.865    63. 
 C                    -0.125     72.875    63.39 
 C                    -0.445     71.845    62.31 
 O                    -1.205     70.905    62.55 
 C                    -1.395     73.615    63.81 
 C                    -1.345     74.105    65.25 
 C                    -0.125     74.835    65.8 
 C                    -0.095     75.405    67.21 
 N                     0.315     74.435    68.23 
 H                     0.575     74.645    62.43 
 H                     0.235     72.255    64.21 
 H                    -2.175     72.845    63.76 
 H                    -1.545     74.495    63.19 
 H                    -1.475     73.165    65.79 
 H                    -2.225     74.725    65.45 
 H                     0.045     75.705    65.17 
 H                     0.715     74.155    65.65 
 H                    -1.025     75.875    67.55 
 H                     0.695     76.145    67.13 
 H                     0.155     74.945    69.08 
 H                    -0.255     73.615    68.12 
 H                     1.305     74.255    68.14 
 N                     0.005     71.985    61.07 
 C                     0.215     70.835    60.22 
 C                     1.665     70.445    59.98 
 O                     1.835     69.395    59.36 
 C                    -0.565     71.085    58.93 
 C                    -0.045     72.245    58.09 
 O                    -0.745     73.005    57.38 
 O                     1.185     72.435    58.01 
 H                     0.325     72.895    60.76 
 H                    -0.255     69.965    60.69 
 H                    -1.605     71.215    59.24 
 H                    -0.535     70.155    58.36 
 N                     2.665     71.155    60.5 
 C                     4.035     70.725    60.3 
 C                     4.565     70.765    58.88 
 O                     5.645     70.215    58.63 
 H                     2.495     72.095    60.84 
 H                     4.205     69.705    60.65 
 H                     4.605     71.375    60.97 
 N                     3.845     71.405    57.96 
 C                     4.155     71.365    56.54 
 C                     4.215     72.715    55.85 
 O                     3.645     73.685    56.34 
 C                     3.195     70.415    55.82 
 C                     3.705     69.895    54.49 
 N                     2.825     69.125    53.84 
 O                     4.835     70.135    54.07 
 H                     2.945     71.815    58.14 
 H                     5.165     70.975    56.39 
 H                     2.255     70.965    55.79 
 H                     3.145     69.545    56.48 
 H                     2.005     68.785    54.31 
 H                     3.135     68.695    52.98 
 N                     5.015     72.765    54.78 
 C                     5.305     73.945    54. 
 C                     5.635     73.685    52.54 
 O                     6.575     74.275    52.02 
 H                     5.525     71.945    54.48 
 H                     6.175     74.355    54.51 
 H                     4.555     74.725    54.15 
 N                     4.975     72.725    51.88 
 C                     5.315     72.265    50.55 
 C                     4.945     73.225    49.43 
 O                     3.835     73.715    49.28 
 C                     4.745     70.865    50.38 
 C                     4.965     70.225    49.03 
 C                     3.985     70.355    48.04 
 C                     6.075     69.385    48.88 
 C                     4.065     69.595    46.87 
 C                     6.205     68.635    47.7 
 C                     5.215     68.805    46.71 
 O                     5.485     68.225    45.5 
 H                     4.285     72.165    52.36 
 H                     6.405     72.165    50.51 
 H                     3.675     70.825    50.61 
 H                     5.185     70.255    51.17 
 H                     3.155     71.045    48.05 
 H                     6.875     69.395    49.6 
 H                     3.355     69.625    46.06 
 H                     7.125     68.155    47.4 
 H                     6.325     67.755    45.52 
 N                     5.955     73.605    48.64 
 C                     6.065     74.515    47.51 
 C                     5.025     74.485    46.4 
 O                     3.815     74.385    46.59 
 C                     6.515     75.925    47.88 
 C                     7.805     76.055    48.7 
 C                     5.425     76.645    48.66 
 C                     9.065     75.365    48.19 
 H                     6.815     73.085    48.76 
 H                     7.005     74.095    47.16 
 H                     6.745     76.485    46.97 
 H                     7.565     75.665    49.69 
 H                     7.895     77.135    48.78 
 H                     5.285     76.185    49.64 
 H                     5.635     77.715    48.66 
 H                     4.515     76.565    48.07 
 H                     9.855     75.585    48.91 
 H                     8.845     74.295    48.16 
 H                     9.295     75.615    47.15 
 N                     5.445     74.785    45.17 
 C                     4.625     75.255    44.07 
 C                     5.025     74.925    42.65 
 O                     4.185     74.715    41.78 
 C                     4.465     76.775    44.06 
 O                     5.715     77.425    43.98 
 H                     6.445     74.685    45.09 
 H                     3.585     74.935    44.21 
 H                     3.935     76.935    45. 
 H                     3.905     77.145    43.2 
 H                     5.505     78.355    43.88 
 N                     6.345     74.835    42.44 
 C                     7.035     74.495    41.21 
 C                     6.545     75.125    39.92 
 O                     6.285     74.505    38.89 
 C                     7.065     72.975    41.06 
 H                     6.905     75.125    43.23 
 H                     8.075     74.815    41.29 
 H                     6.055     72.615    41.28 
 H                     7.395     72.745    40.04 
 H                     7.775     72.655    41.82 
 N                     6.565     76.455    39.83 
 C                     7.135     77.455    40.71 
 C                     8.345     78.195    40.15 
 O                     8.545     78.245    38.93 
 C                     6.015     78.475    40.9 
 H                     6.025     76.725    39.02 
 H                     7.265     77.025    41.7 
 H                     5.095     78.155    41.38 
 H                     6.265     79.375    41.47 
 H                     5.795     78.985    39.96 
 N                     9.165     78.855    40.96 
 C                     9.325     78.825    42.4 
 C                     10.445    77.925    42.91 
 O                     10.065    77.045    43.68 
 C                     9.565     80.215    42.98 
 C                     9.195     80.325    44.46 
 C                     9.345     81.745    45. 
 O                     8.305     82.415    45.11 
 O                     10.475    82.165    45.32 
 H                     9.875     79.385    40.47 
 H                     8.395     78.395    42.77 
 H                     8.925     80.925    42.45 
 H                     10.605    80.475    42.77 
 H                     9.845     79.665    45.04 
 H                     8.175     79.985    44.63 
 N                     11.675    77.975    42.4 
 C                     12.765    77.195    42.95 
 H                     13.605    77.853    43.173 
 H                     12.435    76.704    43.866 
 H                     13.076    76.442    42.225 
 H                     11.965    78.785    41.87 
 Ca                    1.28      74.93     57.07 
 O                     0.14      76.07     59. 
 H                     0.38      75.51     59.74 
 H                    -0.39      76.76     59.39 
 
 Stoichiometry    C54H83CaN15O23
 Framework group  C1[X(C54H83CaN15O23)]
 Deg. of freedom   522
 Full point group                 C1      NOp   1
 Largest Abelian subgroup         C1      NOp   1
 Largest concise Abelian subgroup C1      NOp   1
                         Standard orientation:                         
 ---------------------------------------------------------------------
 Center     Atomic      Atomic             Coordinates (Angstroms)
 Number     Number       Type             X           Y           Z
 ---------------------------------------------------------------------
      1          6           0      -11.056963    5.216547    3.456514
      2          6           0      -10.745589    4.726538    2.050514
      3          8           0      -10.609392    5.343451    0.999671
      4          1           0      -10.314211    5.955798    3.755763
      5          1           0      -12.047439    5.671054    3.472332
      6          1           0      -11.030756    4.375613    4.148907
      7          7           0      -10.431238    3.427889    1.958359
      8          6           0      -10.037650    2.670866    0.793282
      9          6           0      -10.932103    1.479135    0.452207
     10          8           0      -11.547061    0.820910    1.275716
     11          6           0       -8.572781    2.273540    0.968755
     12          6           0       -7.794430    1.754942   -0.226497
     13          8           0       -6.620242    2.136516   -0.353711
     14          8           0       -8.378819    1.123705   -1.136348
     15          1           0      -10.448752    2.957986    2.853951
     16          1           0      -10.006845    3.277440   -0.108948
     17          1           0       -8.478474    1.503127    1.730969
     18          1           0       -8.048710    3.152018    1.349707
     19          7           0      -11.061104    1.193757   -0.846106
     20          6           0      -11.876236    0.076929   -1.293941
     21          6           0      -11.114045   -1.236196   -1.450364
     22          8           0      -11.711937   -2.273638   -1.741979
     23          6           0      -12.532430    0.470102   -2.617468
     24          6           0      -13.798094    1.293802   -2.428218
     25          6           0      -13.841266    2.476563   -1.467483
     26          6           0      -15.072089    3.360108   -1.332128
     27          7           0      -16.063344    2.849335   -0.380327
     28          1           0      -10.488041    1.678959   -1.519589
     29          1           0      -12.639181   -0.177584   -0.559409
     30          1           0      -12.836423   -0.489542   -3.053898
     31          1           0      -11.855196    1.077788   -3.211919
     32          1           0      -14.492194    0.524925   -2.083031
     33          1           0      -14.150262    1.642072   -3.404683
     34          1           0      -13.061443    3.171073   -1.771181
     35          1           0      -13.557423    2.073322   -0.494174
     36          1           0      -15.594404    3.590076   -2.267918
     37          1           0      -14.647316    4.262931   -0.904836
     38          1           0      -16.832071    3.479949   -0.520275
     39          1           0      -16.256439    1.893482   -0.622111
     40          1           0      -15.713577    2.966362    0.560188
     41          7           0       -9.790482   -1.277676   -1.371880
     42          6           0       -9.106874   -2.480635   -0.953944
     43          6           0       -8.512373   -2.452196    0.445327
     44          8           0       -8.041731   -3.518400    0.842194
     45          6           0       -8.083124   -2.812135   -2.038860
     46          6           0       -6.956528   -1.795834   -2.178550
     47          8           0       -6.376029   -1.490034   -3.246823
     48          8           0       -6.487374   -1.262662   -1.153356
     49          1           0       -9.261560   -0.420635   -1.482879
     50          1           0       -9.824728   -3.307299   -0.957321
     51          1           0       -8.662812   -2.935725   -2.957167
     52          1           0       -7.682306   -3.798790   -1.801041
     53          7           0       -8.595522   -1.362982    1.207692
     54          6           0       -8.068641   -1.385947    2.558125
     55          6           0       -6.567388   -1.539428    2.705037
     56          8           0       -6.097971   -1.774297    3.825699
     57          1           0       -8.819483   -0.467469    0.788173
     58          1           0       -8.507381   -2.183230    3.161157
     59          1           0       -8.429795   -0.446862    2.987063
     60          7           0       -5.813653   -1.402240    1.615329
     61          6           0       -4.390014   -1.696904    1.592407
     62          6           0       -3.511275   -0.610381    1.001234
     63          8           0       -3.990311    0.226887    0.242680
     64          6           0       -4.144027   -3.043973    0.908744
     65          6           0       -2.820934   -3.695482    1.261391
     66          7           0       -2.589127   -4.835209    0.600264
     67          8           0       -2.053181   -3.231779    2.101888
     68          1           0       -6.185681   -1.257953    0.692682
     69          1           0       -4.010573   -1.781502    2.613958
     70          1           0       -4.308148   -2.835686   -0.147987
     71          1           0       -4.916598   -3.694082    1.327664
     72          1           0       -3.327843   -5.282885    0.087639
     73          1           0       -1.754085   -5.348674    0.844512
     74          7           0       -2.258353   -0.584480    1.466977
     75          6           0       -1.253260    0.394325    1.125467
     76          6           0        0.179646   -0.106170    1.191695
     77          8           0        1.040032    0.595585    1.710710
     78          1           0       -1.952703   -1.255187    2.159241
     79          1           0       -1.412304    1.165535    1.877158
     80          1           0       -1.494848    0.917101    0.197168
     81          7           0        0.456337   -1.355152    0.796366
     82          6           0        1.738475   -2.003888    0.973471
     83          6           0        2.834243   -1.514870    0.039097
     84          8           0        2.723512   -1.443870   -1.176385
     85          6           0        1.511369   -3.507305    0.929212
     86          6           0        2.748728   -4.363253    1.058802
     87          6           0        3.411839   -4.791863   -0.096178
     88          6           0        3.087517   -4.830322    2.334447
     89          6           0        4.419400   -5.756313   -0.009252
     90          6           0        4.120864   -5.772686    2.460709
     91          6           0        4.787259   -6.167641    1.282138
     92          8           0        5.916860   -6.918261    1.466447
     93          1           0       -0.287666   -1.962361    0.483545
     94          1           0        2.083217   -1.770172    1.986501
     95          1           0        0.971646   -3.816152    0.027707
     96          1           0        0.801936   -3.735476    1.725732
     97          1           0        3.264444   -4.411198   -1.095412
     98          1           0        2.647411   -4.395735    3.215323
     99          1           0        4.977203   -6.148859   -0.843437
    100          1           0        4.600963   -6.004962    3.400045
    101          1           0        6.073292   -7.086350    2.401421
    102          7           0        3.936995   -1.051605    0.637365
    103          6           0        5.176469   -0.463248    0.152969
    104          6           0        5.909919   -1.087120   -1.024925
    105          8           0        5.357080   -1.504113   -2.040152
    106          6           0        5.181147    1.062184    0.129841
    107          6           0        4.810592    1.782676    1.432523
    108          6           0        4.235873    1.581975   -0.943086
    109          6           0        5.556443    1.409947    2.708681
    110          1           0        3.997307   -1.234571    1.630987
    111          1           0        5.718974   -0.646709    1.077378
    112          1           0        6.194187    1.420804   -0.069514
    113          1           0        3.745746    1.597002    1.578907
    114          1           0        4.930460    2.822087    1.138997
    115          1           0        3.199123    1.360310   -0.683057
    116          1           0        4.465088    2.629232   -1.142370
    117          1           0        4.509984    1.081596   -1.868874
    118          1           0        5.146163    2.034306    3.504134
    119          1           0        5.352537    0.352147    2.892208
    120          1           0        6.643588    1.451534    2.592984
    121          7           0        7.240158   -0.988413   -1.029524
    122          6           0        8.107371   -1.082912   -2.188106
    123          6           0        9.512376   -1.616191   -2.024171
    124          8           0       10.050767   -2.284082   -2.902042
    125          6           0        8.306738    0.261220   -2.887863
    126          8           0        8.853629    1.222982   -2.011892
    127          1           0        7.595952   -0.792353   -0.106826
    128          1           0        7.617624   -1.662055   -2.980787
    129          1           0        7.289031    0.478927   -3.214936
    130          1           0        9.009143    0.214636   -3.721265
    131          1           0        9.030893    1.987511   -2.562412
    132          7           0       10.086961   -1.344800   -0.844849
    133          6           0       11.397206   -1.750722   -0.372530
    134          6           0       12.566128   -1.643992   -1.333431
    135          8           0       13.362974   -2.549690   -1.573533
    136          6           0       11.310130   -3.174682    0.173870
    137          1           0        9.553561   -0.709534   -0.267163
    138          1           0       11.679638   -1.116835    0.469384
    139          1           0       10.747632   -3.761417   -0.559231
    140          1           0       12.333091   -3.538139    0.327654
    141          1           0       10.754168   -3.060895    1.102342
    142          7           0       12.864503   -0.438846   -1.819224
    143          6           0       12.360101    0.873911   -1.470590
    144          6           0       13.361524    1.786569   -0.770942
    145          8           0       14.578184    1.590465   -0.881305
    146          6           0       12.008761    1.513156   -2.811794
    147          1           0       13.510098   -0.558666   -2.586981
    148          1           0       11.398537    0.765390   -0.975092
    149          1           0       11.234142    1.055554   -3.419878
    150          1           0       11.686145    2.558444   -2.785517
    151          1           0       12.909056    1.679883   -3.406580
    152          7           0       12.944008    2.846624   -0.088253
    153          6           0       11.629723    3.226648    0.389592
    154          6           0       11.340162    2.871790    1.843804
    155          8           0       10.364687    2.138295    1.992581
    156          6           0       11.371223    4.721331    0.230846
    157          6           0        9.884212    5.076740    0.187482
    158          6           0        9.641448    6.561318   -0.072509
    159          8           0        9.334533    6.883862   -1.231978
    160          8           0        9.739973    7.374461    0.868125
    161          1           0       13.698672    3.429950    0.251325
    162          1           0       10.938627    2.637579   -0.212143
    163          1           0       11.792057    5.044473   -0.724706
    164          1           0       11.917566    5.227955    1.029684
    165          1           0        9.427028    4.815035    1.145079
    166          1           0        9.368993    4.492852   -0.573126
    167          7           0       12.192663    3.169394    2.823688
    168          6           0       11.875263    2.925456    4.216078
    169          1           0       12.016507    3.843763    4.786214
    170          1           0       10.837740    2.600914    4.301257
    171          1           0       12.532958    2.149269    4.608921
    172          1           0       12.904407    3.870624    2.672699
    173         20           0       -5.183929    0.823917   -2.185279
    174          8           0       -7.162120    2.000182   -3.198818
    175          1           0       -7.875833    1.743926   -2.612519
    176          1           0       -7.578796    2.567745   -3.841743
 ---------------------------------------------------------------------
 Rotational constants (GHZ):           0.0321264           0.0046531           0.0043503
 Standard basis: SVP (5D, 7F)
 There are  1809 symmetry adapted cartesian basis functions of A   symmetry.
 There are  1717 symmetry adapted basis functions of A   symmetry.
  1717 basis functions,  2922 primitive gaussians,  1809 cartesian basis functions
   358 alpha electrons      358 beta electrons
       nuclear repulsion energy     17875.8330429915 Hartrees.
 NAtoms=  176 NActive=  176 NUniq=  176 SFac= 1.00D+00 NAtFMM=   60 NAOKFM=T Big=T
 Integral buffers will be    131072 words long.
 Raffenetti 2 integral format.
 Two-electron integral symmetry is turned on.
 One-electron integrals computed using PRISM.
 NBasis=  1717 RedAO= T EigKep=  3.16D-04  NBF=  1717
 NBsUse=  1717 1.00D-06 EigRej= -1.00D+00 NBFU=  1717
 ExpMin= 1.98D-02 ExpMax= 3.51D+04 ExpMxC= 5.28D+03 IAcc=3 IRadAn=         5 AccDes= 0.00D+00
 Harris functional with IExCor=  402 and IRadAn=       5 diagonalized for initial guess.
 HarFok:  IExCor=  402 AccDes= 0.00D+00 IRadAn=         5 IDoV= 1 UseB2=F ITyADJ=14
 ICtDFT=  3500011 ScaDFX=  1.000000  1.000000  1.000000  1.000000
 FoFCou: FMM=F IPFlag=           0 FMFlag=      100000 FMFlg1=        2001
         NFxFlg=           0 DoJE=T BraDBF=F KetDBF=T FulRan=T
         wScrn=  0.000000 ICntrl=       500 IOpCl=  0 I1Cent=   200000004 NGrid=           0
         NMat0=    1 NMatS0=      1 NMatT0=    0 NMatD0=    1 NMtDS0=    0 NMtDT0=    0
 Petite list used in FoFCou.
 Requested convergence on RMS density matrix=1.00D-08 within 128 cycles.
 Requested convergence on MAX density matrix=1.00D-06.
 Requested convergence on             energy=1.00D-06.
 No special actions if energy rises.
 EnCoef did     2 forward-backward iterations
 EnCoef did     3 forward-backward iterations
 EnCoef did     4 forward-backward iterations
 EnCoef did     1 forward-backward iterations
 EnCoef did     1 forward-backward iterations
 EnCoef did     2 forward-backward iterations
 EnCoef did     5 forward-backward iterations
 EnCoef did    13 forward-backward iterations
 EnCoef did   100 forward-backward iterations
 EnCoef did   100 forward-backward iterations
 EnCoef did   100 forward-backward iterations
 EnCoef did   100 forward-backward iterations
 EnCoef did   100 forward-backward iterations
 EnCoef did   100 forward-backward iterations
 EnCoef did   100 forward-backward iterations
 EnCoef did   100 forward-backward iterations
 EnCoef did   100 forward-backward iterations
 Restarting incremental Fock formation.
 EnCoef did   100 forward-backward iterations
 EnCoef did   100 forward-backward iterations
 Rare condition: small coef for last iteration:  0.306D-14
 EnCoef did   100 forward-backward iterations
 Rare condition: small coef for last iteration: -0.142D-15
 EnCoef did   100 forward-backward iterations
 EnCoef did   100 forward-backward iterations
 Rare condition: small coef for last iteration:  0.481D-14
 EnCoef did   100 forward-backward iterations
 EnCoef did   100 forward-backward iterations
 EnCoef did   100 forward-backward iterations
 EnCoef did   100 forward-backward iterations
 EnCoef did   100 forward-backward iterations
 EnCoef did   100 forward-backward iterations
 EnCoef did   100 forward-backward iterations
 EnCoef did   100 forward-backward iterations
 EnCoef did   100 forward-backward iterations
 EnCoef did   100 forward-backward iterations
 EnCoef did   100 forward-backward iterations
 EnCoef did   100 forward-backward iterations
 Rare condition: small coef for last iteration:  0.458D-05
 EnCoef did   100 forward-backward iterations
 EnCoef did   100 forward-backward iterations
 EnCoef did   100 forward-backward iterations
 Restarting incremental Fock formation.
 EnCoef did   100 forward-backward iterations
 EnCoef did   100 forward-backward iterations
 EnCoef did   100 forward-backward iterations
 EnCoef did   100 forward-backward iterations
 EnCoef did   100 forward-backward iterations
 EnCoef did   100 forward-backward iterations
 EnCoef did   100 forward-backward iterations
 EnCoef did   100 forward-backward iterations
 EnCoef did   100 forward-backward iterations
 EnCoef did   100 forward-backward iterations
 EnCoef did   100 forward-backward iterations
 EnCoef did   100 forward-backward iterations
 EnCoef did   100 forward-backward iterations
 EnCoef did   100 forward-backward iterations
 EnCoef did    84 forward-backward iterations
 EnCoef did   100 forward-backward iterations
 EnCoef did   100 forward-backward iterations
 EnCoef did    33 forward-backward iterations
 Rare condition: small coef for last iteration:  0.999D-15
 EnCoef did    39 forward-backward iterations
 Rare condition: small coef for last iteration:  0.000D+00
 Restarting incremental Fock formation.
 EnCoef did   100 forward-backward iterations
 Rare condition: small coef for last iteration:  0.000D+00
 EnCoef did   100 forward-backward iterations
 EnCoef did   100 forward-backward iterations
 EnCoef did   100 forward-backward iterations
 EnCoef did   100 forward-backward iterations
 Rare condition: small coef for last iteration:  0.000D+00
 EnCoef did    64 forward-backward iterations
 EnCoef did    14 forward-backward iterations
 Rare condition: small coef for last iteration:  0.444D-15
 EnCoef did   100 forward-backward iterations
 EnCoef did    74 forward-backward iterations
 Rare condition: small coef for last iteration: -0.225D-14
 EnCoef did   100 forward-backward iterations
 EnCoef did    90 forward-backward iterations
 EnCoef did   100 forward-backward iterations
 EnCoef did    60 forward-backward iterations
 EnCoef did    53 forward-backward iterations
 EnCoef did    15 forward-backward iterations
 EnCoef did    49 forward-backward iterations
 EnCoef did    10 forward-backward iterations
 EnCoef did   100 forward-backward iterations
 EnCoef did    73 forward-backward iterations
 Restarting incremental Fock formation.
 EnCoef did   100 forward-backward iterations
 EnCoef did   100 forward-backward iterations
 EnCoef did    69 forward-backward iterations
 EnCoef did    61 forward-backward iterations
 EnCoef did    38 forward-backward iterations
 EnCoef did     5 forward-backward iterations
 EnCoef did   100 forward-backward iterations
 EnCoef did   100 forward-backward iterations
 EnCoef did     6 forward-backward iterations
 EnCoef did     6 forward-backward iterations
 EnCoef did     4 forward-backward iterations
 EnCoef did     2 forward-backward iterations
 EnCoef did     3 forward-backward iterations
 EnCoef did     1 forward-backward iterations
 EnCoef did    61 forward-backward iterations
 EnCoef did     5 forward-backward iterations
 EnCoef did    49 forward-backward iterations
 EnCoef did    45 forward-backward iterations
 EnCoef did     6 forward-backward iterations
 EnCoef did   100 forward-backward iterations
 Restarting incremental Fock formation.
 EnCoef did   100 forward-backward iterations
 EnCoef did   100 forward-backward iterations
 EnCoef did   100 forward-backward iterations
 EnCoef did   100 forward-backward iterations
 Rare condition: small coef for last iteration: -0.836D-15
 EnCoef did   100 forward-backward iterations
 EnCoef did   100 forward-backward iterations
 EnCoef did   100 forward-backward iterations
 EnCoef did   100 forward-backward iterations
 Rare condition: small coef for last iteration:  0.670D-15
 EnCoef did   100 forward-backward iterations
 Rare condition: small coef for last iteration:  0.175D-16
 EnCoef did   100 forward-backward iterations
 EnCoef did   100 forward-backward iterations
 EnCoef did   100 forward-backward iterations
 EnCoef did   100 forward-backward iterations
 EnCoef did   100 forward-backward iterations
 EnCoef did   100 forward-backward iterations
 EnCoef did     5 forward-backward iterations
 Restarting incremental Fock formation.
 SCF Done:  E(RB3LYP) =  -5333.34897198     A.U. after  128 cycles
            NFock=128  Conv=0.19D-08     -V/T= 2.0080
 SCF density gives NOpUse=  1 NOpAll=  1.
 Hyperfine terms turned off by default for NAtoms > 100.

 **********************************************************************

            Population analysis using the SCF density.

 **********************************************************************

 Orbital symmetries:
 BldTbl:  Degeneracy threshold= 1.00D-02
       Occupied  (A) (A) (A) (A) (A) (A) (A) (A) (A) (A) (A) (A)
                 (A) (A) (A) (A) (A) (A) (A) (A) (A) (A) (A) (A)
                 (A) (A) (A) (A) (A) (A) (A) (A) (A) (A) (A) (A)
                 (A) (A) (A) (A) (A) (A) (A) (A) (A) (A) (A) (A)
                 (A) (A) (A) (A) (A) (A) (A) (A) (A) (A) (A) (A)
                 (A) (A) (A) (A) (A) (A) (A) (A) (A) (A) (A) (A)
                 (A) (A) (A) (A) (A) (A) (A) (A) (A) (A) (A) (A)
                 (A) (A) (A) (A) (A) (A) (A) (A) (A) (A) (A) (A)
                 (A) (A) (A) (A) (A) (A) (A) (A) (A) (A) (A) (A)
                 (A) (A) (A) (A) (A) (A) (A) (A) (A) (A) (A) (A)
                 (A) (A) (A) (A) (A) (A) (A) (A) (A) (A) (A) (A)
                 (A) (A) (A) (A) (A) (A) (A) (A) (A) (A) (A) (A)
                 (A) (A) (A) (A) (A) (A) (A) (A) (A) (A) (A) (A)
                 (A) (A) (A) (A) (A) (A) (A) (A) (A) (A) (A) (A)
                 (A) (A) (A) (A) (A) (A) (A) (A) (A) (A) (A) (A)
                 (A) (A) (A) (A) (A) (A) (A) (A) (A) (A) (A) (A)
                 (A) (A) (A) (A) (A) (A) (A) (A) (A) (A) (A) (A)
                 (A) (A) (A) (A) (A) (A) (A) (A) (A) (A) (A) (A)
                 (A) (A) (A) (A) (A) (A) (A) (A) (A) (A) (A) (A)
                 (A) (A) (A) (A) (A) (A) (A) (A) (A) (A) (A) (A)
                 (A) (A) (A) (A) (A) (A) (A) (A) (A) (A) (A) (A)
                 (A) (A) (A) (A) (A) (A) (A) (A) (A) (A) (A) (A)
                 (A) (A) (A) (A) (A) (A) (A) (A) (A) (A) (A) (A)
                 (A) (A) (A) (A) (A) (A) (A) (A) (A) (A) (A) (A)
                 (A) (A) (A) (A) (A) (A) (A) (A) (A) (A) (A) (A)
                 (A) (A) (A) (A) (A) (A) (A) (A) (A) (A) (A) (A)
                 (A) (A) (A) (A) (A) (A) (A) (A) (A) (A) (A) (A)
                 (A) (A) (A) (A) (A) (A) (A) (A) (A) (A) (A) (A)
                 (A) (A) (A) (A) (A) (A) (A) (A) (A) (A) (A) (A)
                 (A) (A) (A) (A) (A) (A) (A) (A) (A) (A)
       Virtual   (A) (A) (A) (A) (A) (A) (A) (A) (A) (A) (A) (A)
                 (A) (A) (A) (A) (A) (A) (A) (A) (A) (A) (A) (A)
                 (A) (A) (A) (A) (A) (A) (A) (A) (A) (A) (A) (A)
                 (A) (A) (A) (A) (A) (A) (A) (A) (A) (A) (A) (A)
                 (A) (A) (A) (A) (A) (A) (A) (A) (A) (A) (A) (A)
                 (A) (A) (A) (A) (A) (A) (A) (A) (A) (A) (A) (A)
                 (A) (A) (A) (A) (A) (A) (A) (A) (A) (A) (A) (A)
                 (A) (A) (A) (A) (A) (A) (A) (A) (A) (A) (A) (A)
                 (A) (A) (A) (A) (A) (A) (A) (A) (A) (A) (A) (A)
                 (A) (A) (A) (A) (A) (A) (A) (A) (A) (A) (A) (A)
                 (A) (A) (A) (A) (A) (A) (A) (A) (A) (A) (A) (A)
                 (A) (A) (A) (A) (A) (A) (A) (A) (A) (A) (A) (A)
                 (A) (A) (A) (A) (A) (A) (A) (A) (A) (A) (A) (A)
                 (A) (A) (A) (A) (A) (A) (A) (A) (A) (A) (A) (A)
                 (A) (A) (A) (A) (A) (A) (A) (A) (A) (A) (A) (A)
                 (A) (A) (A) (A) (A) (A) (A) (A) (A) (A) (A) (A)
                 (A) (A) (A) (A) (A) (A) (A) (A) (A) (A) (A) (A)
                 (A) (A) (A) (A) (A) (A) (A) (A) (A) (A) (A) (A)
                 (A) (A) (A) (A) (A) (A) (A) (A) (A) (A) (A) (A)
                 (A) (A) (A) (A) (A) (A) (A) (A) (A) (A) (A) (A)
                 (A) (A) (A) (A) (A) (A) (A) (A) (A) (A) (A) (A)
                 (A) (A) (A) (A) (A) (A) (A) (A) (A) (A) (A) (A)
                 (A) (A) (A) (A) (A) (A) (A) (A) (A) (A) (A) (A)
                 (A) (A) (A) (A) (A) (A) (A) (A) (A) (A) (A) (A)
                 (A) (A) (A) (A) (A) (A) (A) (A) (A) (A) (A) (A)
                 (A) (A) (A) (A) (A) (A) (A) (A) (A) (A) (A) (A)
                 (A) (A) (A) (A) (A) (A) (A) (A) (A) (A) (A) (A)
                 (A) (A) (A) (A) (A) (A) (A) (A) (A) (A) (A) (A)
                 (A) (A) (A) (A) (A) (A) (A) (A) (A) (A) (A) (A)
                 (A) (A) (A) (A) (A) (A) (A) (A) (A) (A) (A) (A)
                 (A) (A) (A) (A) (A) (A) (A) (A) (A) (A) (A) (A)
                 (A) (A) (A) (A) (A) (A) (A) (A) (A) (A) (A) (A)
                 (A) (A) (A) (A) (A) (A) (A) (A) (A) (A) (A) (A)
                 (A) (A) (A) (A) (A) (A) (A) (A) (A) (A) (A) (A)
                 (A) (A) (A) (A) (A) (A) (A) (A) (A) (A) (A) (A)
                 (A) (A) (A) (A) (A) (A) (A) (A) (A) (A) (A) (A)
                 (A) (A) (A) (A) (A) (A) (A) (A) (A) (A) (A) (A)
                 (A) (A) (A) (A) (A) (A) (A) (A) (A) (A) (A) (A)
                 (A) (A) (A) (A) (A) (A) (A) (A) (A) (A) (A) (A)
                 (A) (A) (A) (A) (A) (A) (A) (A) (A) (A) (A) (A)
                 (A) (A) (A) (A) (A) (A) (A) (A) (A) (A) (A) (A)
                 (A) (A) (A) (A) (A) (A) (A) (A) (A) (A) (A) (A)
                 (A) (A) (A) (A) (A) (A) (A) (A) (A) (A) (A) (A)
                 (A) (A) (A) (A) (A) (A) (A) (A) (A) (A) (A) (A)
                 (A) (A) (A) (A) (A) (A) (A) (A) (A) (A) (A) (A)
                 (A) (A) (A) (A) (A) (A) (A) (A) (A) (A) (A) (A)
                 (A) (A) (A) (A) (A) (A) (A) (A) (A) (A) (A) (A)
                 (A) (A) (A) (A) (A) (A) (A) (A) (A) (A) (A) (A)
                 (A) (A) (A) (A) (A) (A) (A) (A) (A) (A) (A) (A)
                 (A) (A) (A) (A) (A) (A) (A) (A) (A) (A) (A) (A)
                 (A) (A) (A) (A) (A) (A) (A) (A) (A) (A) (A) (A)
                 (A) (A) (A) (A) (A) (A) (A) (A) (A) (A) (A) (A)
                 (A) (A) (A) (A) (A) (A) (A) (A) (A) (A) (A) (A)
                 (A) (A) (A) (A) (A) (A) (A) (A) (A) (A) (A) (A)
                 (A) (A) (A) (A) (A) (A) (A) (A) (A) (A) (A) (A)
                 (A) (A) (A) (A) (A) (A) (A) (A) (A) (A) (A) (A)
                 (A) (A) (A) (A) (A) (A) (A) (A) (A) (A) (A) (A)
                 (A) (A) (A) (A) (A) (A) (A) (A) (A) (A) (A) (A)
                 (A) (A) (A) (A) (A) (A) (A) (A) (A) (A) (A) (A)
                 (A) (A) (A) (A) (A) (A) (A) (A) (A) (A) (A) (A)
                 (A) (A) (A) (A) (A) (A) (A) (A) (A) (A) (A) (A)
                 (A) (A) (A) (A) (A) (A) (A) (A) (A) (A) (A) (A)
                 (A) (A) (A) (A) (A) (A) (A) (A) (A) (A) (A) (A)
                 (A) (A) (A) (A) (A) (A) (A) (A) (A) (A) (A) (A)
                 (A) (A) (A) (A) (A) (A) (A) (A) (A) (A) (A) (A)
                 (A) (A) (A) (A) (A) (A) (A) (A) (A) (A) (A) (A)
                 (A) (A) (A) (A) (A) (A) (A) (A) (A) (A) (A) (A)
                 (A) (A) (A) (A) (A) (A) (A) (A) (A) (A) (A) (A)
                 (A) (A) (A) (A) (A) (A) (A) (A) (A) (A) (A) (A)
                 (A) (A) (A) (A) (A) (A) (A) (A) (A) (A) (A) (A)
                 (A) (A) (A) (A) (A) (A) (A) (A) (A) (A) (A) (A)
                 (A) (A) (A) (A) (A) (A) (A) (A) (A) (A) (A) (A)
                 (A) (A) (A) (A) (A) (A) (A) (A) (A) (A) (A) (A)
                 (A) (A) (A) (A) (A) (A) (A) (A) (A) (A) (A) (A)
                 (A) (A) (A) (A) (A) (A) (A) (A) (A) (A) (A) (A)
                 (A) (A) (A) (A) (A) (A) (A) (A) (A) (A) (A) (A)
                 (A) (A) (A) (A) (A) (A) (A) (A) (A) (A) (A) (A)
                 (A) (A) (A) (A) (A) (A) (A) (A) (A) (A) (A) (A)
                 (A) (A) (A) (A) (A) (A) (A) (A) (A) (A) (A) (A)
                 (A) (A) (A) (A) (A) (A) (A) (A) (A) (A) (A) (A)
                 (A) (A) (A) (A) (A) (A) (A) (A) (A) (A) (A) (A)
                 (A) (A) (A) (A) (A) (A) (A) (A) (A) (A) (A) (A)
                 (A) (A) (A) (A) (A) (A) (A) (A) (A) (A) (A) (A)
                 (A) (A) (A) (A) (A) (A) (A) (A) (A) (A) (A) (A)
                 (A) (A) (A) (A) (A) (A) (A) (A) (A) (A) (A) (A)
                 (A) (A) (A) (A) (A) (A) (A) (A) (A) (A) (A) (A)
                 (A) (A) (A) (A) (A) (A) (A) (A) (A) (A) (A) (A)
                 (A) (A) (A) (A) (A) (A) (A) (A) (A) (A) (A) (A)
                 (A) (A) (A) (A) (A) (A) (A) (A) (A) (A) (A) (A)
                 (A) (A) (A) (A) (A) (A) (A) (A) (A) (A) (A) (A)
                 (A) (A) (A) (A) (A) (A) (A) (A) (A) (A) (A) (A)
                 (A) (A) (A) (A) (A) (A) (A) (A) (A) (A) (A) (A)
                 (A) (A) (A) (A) (A) (A) (A) (A) (A) (A) (A) (A)
                 (A) (A) (A) (A) (A) (A) (A) (A) (A) (A) (A) (A)
                 (A) (A) (A) (A) (A) (A) (A) (A) (A) (A) (A) (A)
                 (A) (A) (A) (A) (A) (A) (A) (A) (A) (A) (A) (A)
                 (A) (A) (A) (A) (A) (A) (A) (A) (A) (A) (A) (A)
                 (A) (A) (A) (A) (A) (A) (A) (A) (A) (A) (A) (A)
                 (A) (A) (A) (A) (A) (A) (A) (A) (A) (A) (A) (A)
                 (A) (A) (A) (A) (A) (A) (A) (A) (A) (A) (A) (A)
                 (A) (A) (A) (A) (A) (A) (A) (A) (A) (A) (A) (A)
                 (A) (A) (A) (A) (A) (A) (A) (A) (A) (A) (A) (A)
                 (A) (A) (A) (A) (A) (A) (A) (A) (A) (A) (A) (A)
                 (A) (A) (A) (A) (A) (A) (A) (A) (A) (A) (A) (A)
                 (A) (A) (A) (A) (A) (A) (A) (A) (A) (A) (A) (A)
                 (A) (A) (A) (A) (A) (A) (A) (A) (A) (A) (A) (A)
                 (A) (A) (A) (A) (A) (A) (A) (A) (A) (A) (A) (A)
                 (A) (A) (A) (A) (A) (A) (A) (A) (A) (A) (A) (A)
                 (A) (A) (A) (A) (A) (A) (A) (A) (A) (A) (A) (A)
                 (A) (A) (A) (A) (A) (A) (A) (A) (A) (A) (A) (A)
                 (A) (A) (A) (A) (A) (A) (A) (A) (A) (A) (A) (A)
                 (A) (A) (A) (A) (A) (A) (A) (A) (A) (A) (A) (A)
                 (A) (A) (A) (A) (A) (A) (A) (A) (A) (A) (A) (A)
                 (A) (A) (A)
 The electronic state is 1-A.
 Alpha  occ. eigenvalues -- -145.47884 -19.18704 -19.15363 -19.14696 -19.14074
 Alpha  occ. eigenvalues --  -19.13787 -19.12728 -19.12662 -19.12137 -19.11800
 Alpha  occ. eigenvalues --  -19.11115 -19.10532 -19.09929 -19.09868 -19.09224
 Alpha  occ. eigenvalues --  -19.08864 -19.07577 -19.07167 -19.07123 -19.06800
 Alpha  occ. eigenvalues --  -19.06057 -19.05551 -18.97751 -18.97640 -15.53724
 Alpha  occ. eigenvalues --  -14.57967 -14.39399 -14.38675 -14.38481 -14.38361
 Alpha  occ. eigenvalues --  -14.36691 -14.36622 -14.35457 -14.34707 -14.34479
 Alpha  occ. eigenvalues --  -14.34222 -14.34082 -14.33856 -14.32710 -14.31075
 Alpha  occ. eigenvalues --  -12.67314 -12.67287 -12.67280 -10.35950 -10.32341
 Alpha  occ. eigenvalues --  -10.32260 -10.32117 -10.31918 -10.31514 -10.29912
 Alpha  occ. eigenvalues --  -10.29808 -10.28834 -10.28639 -10.28615 -10.28257
 Alpha  occ. eigenvalues --  -10.27518 -10.27294 -10.26765 -10.26529 -10.26468
 Alpha  occ. eigenvalues --  -10.26211 -10.25503 -10.25352 -10.24957 -10.24762
 Alpha  occ. eigenvalues --  -10.24683 -10.24666 -10.24489 -10.23795 -10.23714
 Alpha  occ. eigenvalues --  -10.23658 -10.23548 -10.22402 -10.22380 -10.22092
 Alpha  occ. eigenvalues --  -10.21963 -10.21725 -10.21378 -10.21128 -10.20172
 Alpha  occ. eigenvalues --  -10.19828 -10.19812 -10.19772 -10.19490 -10.19080
 Alpha  occ. eigenvalues --  -10.18885 -10.18876 -10.18334 -10.16911 -10.16543
 Alpha  occ. eigenvalues --  -10.16440 -10.16139 -10.15378 -10.14937 -10.14717
 Alpha  occ. eigenvalues --  -10.14312 -10.10998  -1.90328  -1.17700  -1.17473
 Alpha  occ. eigenvalues --   -1.17393  -1.14204  -1.08037  -1.07541  -1.07036
 Alpha  occ. eigenvalues --   -1.06113  -1.05992  -1.05227  -1.05076  -1.04481
 Alpha  occ. eigenvalues --   -1.04118  -1.03837  -1.03129  -1.01731  -1.01456
 Alpha  occ. eigenvalues --   -1.00973  -1.00319  -1.00161  -1.00098  -0.99338
 Alpha  occ. eigenvalues --   -0.98611  -0.97473  -0.96424  -0.95664  -0.95016
 Alpha  occ. eigenvalues --   -0.93719  -0.93654  -0.93188  -0.92999  -0.92585
 Alpha  occ. eigenvalues --   -0.91996  -0.91577  -0.91318  -0.90890  -0.90056
 Alpha  occ. eigenvalues --   -0.89887  -0.89736  -0.89090  -0.88175  -0.84934
 Alpha  occ. eigenvalues --   -0.84859  -0.82607  -0.82213  -0.80983  -0.80176
 Alpha  occ. eigenvalues --   -0.79408  -0.78767  -0.77760  -0.77060  -0.76960
 Alpha  occ. eigenvalues --   -0.75840  -0.75564  -0.74561  -0.74527  -0.74455
 Alpha  occ. eigenvalues --   -0.74121  -0.73943  -0.73707  -0.72865  -0.71448
 Alpha  occ. eigenvalues --   -0.71395  -0.69813  -0.69361  -0.69332  -0.69080
 Alpha  occ. eigenvalues --   -0.67072  -0.65522  -0.65395  -0.65351  -0.64303
 Alpha  occ. eigenvalues --   -0.63976  -0.63477  -0.63142  -0.62705  -0.62239
 Alpha  occ. eigenvalues --   -0.62094  -0.61725  -0.61396  -0.61320  -0.60793
 Alpha  occ. eigenvalues --   -0.60451  -0.60409  -0.59745  -0.59471  -0.59428
 Alpha  occ. eigenvalues --   -0.59340  -0.58530  -0.58021  -0.57885  -0.57627
 Alpha  occ. eigenvalues --   -0.57115  -0.57020  -0.56984  -0.56574  -0.56244
 Alpha  occ. eigenvalues --   -0.55848  -0.55397  -0.54781  -0.54574  -0.54503
 Alpha  occ. eigenvalues --   -0.54151  -0.53949  -0.53199  -0.53108  -0.52534
 Alpha  occ. eigenvalues --   -0.52492  -0.52108  -0.52084  -0.51945  -0.51462
 Alpha  occ. eigenvalues --   -0.51274  -0.50802  -0.50685  -0.50597  -0.50066
 Alpha  occ. eigenvalues --   -0.49773  -0.49551  -0.49111  -0.48917  -0.48813
 Alpha  occ. eigenvalues --   -0.48722  -0.48465  -0.48407  -0.48092  -0.47741
 Alpha  occ. eigenvalues --   -0.47438  -0.47388  -0.46959  -0.46737  -0.46700
 Alpha  occ. eigenvalues --   -0.46596  -0.46444  -0.46365  -0.45929  -0.45809
 Alpha  occ. eigenvalues --   -0.45690  -0.45609  -0.45380  -0.45170  -0.45096
 Alpha  occ. eigenvalues --   -0.44993  -0.44650  -0.44479  -0.44344  -0.44285
 Alpha  occ. eigenvalues --   -0.44126  -0.44018  -0.43825  -0.43603  -0.43494
 Alpha  occ. eigenvalues --   -0.43238  -0.43066  -0.42932  -0.42885  -0.42568
 Alpha  occ. eigenvalues --   -0.42519  -0.42413  -0.41954  -0.41735  -0.41452
 Alpha  occ. eigenvalues --   -0.41280  -0.41009  -0.40993  -0.40935  -0.40796
 Alpha  occ. eigenvalues --   -0.40601  -0.40475  -0.40384  -0.40166  -0.39971
 Alpha  occ. eigenvalues --   -0.39892  -0.39835  -0.39708  -0.39644  -0.39615
 Alpha  occ. eigenvalues --   -0.39342  -0.38922  -0.38852  -0.38733  -0.38639
 Alpha  occ. eigenvalues --   -0.38540  -0.38522  -0.38183  -0.38092  -0.37954
 Alpha  occ. eigenvalues --   -0.37809  -0.37345  -0.37076  -0.36978  -0.36878
 Alpha  occ. eigenvalues --   -0.36736  -0.36285  -0.36233  -0.36004  -0.35722
 Alpha  occ. eigenvalues --   -0.35513  -0.35392  -0.35308  -0.35123  -0.35112
 Alpha  occ. eigenvalues --   -0.34999  -0.34779  -0.34294  -0.34037  -0.33979
 Alpha  occ. eigenvalues --   -0.33628  -0.33485  -0.32894  -0.32846  -0.32594
 Alpha  occ. eigenvalues --   -0.32244  -0.31913  -0.31521  -0.31472  -0.31213
 Alpha  occ. eigenvalues --   -0.31204  -0.31146  -0.30577  -0.30566  -0.30109
 Alpha  occ. eigenvalues --   -0.30055  -0.29819  -0.29746  -0.29297  -0.28957
 Alpha  occ. eigenvalues --   -0.28890  -0.28425  -0.28317  -0.28136  -0.28111
 Alpha  occ. eigenvalues --   -0.27734  -0.27387  -0.27194  -0.27121  -0.27034
 Alpha  occ. eigenvalues --   -0.26641  -0.26598  -0.25865  -0.25706  -0.25521
 Alpha  occ. eigenvalues --   -0.24956  -0.24714  -0.24607  -0.24572  -0.24461
 Alpha  occ. eigenvalues --   -0.24308  -0.23820  -0.23474  -0.22721  -0.22289
 Alpha  occ. eigenvalues --   -0.21901  -0.21691  -0.21042  -0.20847  -0.20668
 Alpha  occ. eigenvalues --   -0.14755  -0.14286  -0.11859
 Alpha virt. eigenvalues --   -0.11432  -0.11150  -0.05475  -0.04711  -0.02946
 Alpha virt. eigenvalues --   -0.02342  -0.01970  -0.01718  -0.01506  -0.01240
 Alpha virt. eigenvalues --   -0.01230  -0.01005  -0.00099  -0.00005   0.00268
 Alpha virt. eigenvalues --    0.00821   0.01014   0.01121   0.01357   0.01737
 Alpha virt. eigenvalues --    0.01887   0.02238   0.02361   0.02715   0.02911
 Alpha virt. eigenvalues --    0.03113   0.03237   0.03389   0.03671   0.03715
 Alpha virt. eigenvalues --    0.03863   0.04387   0.04512   0.04702   0.04960
 Alpha virt. eigenvalues --    0.05059   0.05500   0.05619   0.05964   0.05989
 Alpha virt. eigenvalues --    0.06337   0.06696   0.06754   0.07167   0.07433
 Alpha virt. eigenvalues --    0.07628   0.07859   0.08063   0.08656   0.08927
 Alpha virt. eigenvalues --    0.09109   0.09468   0.09613   0.09761   0.09943
 Alpha virt. eigenvalues --    0.09964   0.10072   0.10293   0.10506   0.10779
 Alpha virt. eigenvalues --    0.10871   0.10960   0.11157   0.11316   0.11620
 Alpha virt. eigenvalues --    0.11846   0.11975   0.12166   0.12392   0.12558
 Alpha virt. eigenvalues --    0.12661   0.12794   0.12971   0.13074   0.13218
 Alpha virt. eigenvalues --    0.13466   0.13762   0.13844   0.13884   0.14264
 Alpha virt. eigenvalues --    0.14368   0.14553   0.14733   0.14862   0.15103
 Alpha virt. eigenvalues --    0.15477   0.15614   0.15713   0.15820   0.15917
 Alpha virt. eigenvalues --    0.15966   0.16056   0.16342   0.16452   0.16874
 Alpha virt. eigenvalues --    0.16920   0.17001   0.17314   0.17390   0.17481
 Alpha virt. eigenvalues --    0.17715   0.17927   0.17976   0.18021   0.18161
 Alpha virt. eigenvalues --    0.18296   0.18545   0.18646   0.18880   0.19068
 Alpha virt. eigenvalues --    0.19294   0.19348   0.19639   0.19921   0.20101
 Alpha virt. eigenvalues --    0.20268   0.20452   0.20544   0.20811   0.21361
 Alpha virt. eigenvalues --    0.21374   0.21711   0.21847   0.22041   0.22555
 Alpha virt. eigenvalues --    0.22588   0.22607   0.22980   0.23163   0.23238
 Alpha virt. eigenvalues --    0.23509   0.23785   0.23871   0.24229   0.24403
 Alpha virt. eigenvalues --    0.24519   0.24712   0.24751   0.24887   0.25299
 Alpha virt. eigenvalues --    0.25459   0.25593   0.25780   0.25917   0.26055
 Alpha virt. eigenvalues --    0.26409   0.26462   0.26932   0.27174   0.27362
 Alpha virt. eigenvalues --    0.27394   0.27558   0.27880   0.27899   0.28028
 Alpha virt. eigenvalues --    0.28153   0.28256   0.28609   0.29017   0.29414
 Alpha virt. eigenvalues --    0.29513   0.29792   0.29887   0.30447   0.30672
 Alpha virt. eigenvalues --    0.30759   0.30937   0.31055   0.31213   0.31767
 Alpha virt. eigenvalues --    0.31911   0.32684   0.32785   0.33288   0.33445
 Alpha virt. eigenvalues --    0.33604   0.33656   0.34312   0.34699   0.34711
 Alpha virt. eigenvalues --    0.35118   0.35244   0.35435   0.35868   0.36406
 Alpha virt. eigenvalues --    0.36618   0.37135   0.37337   0.37422   0.37628
 Alpha virt. eigenvalues --    0.38135   0.38375   0.38913   0.39174   0.39506
 Alpha virt. eigenvalues --    0.39782   0.40316   0.40440   0.40705   0.40949
 Alpha virt. eigenvalues --    0.41144   0.41261   0.41709   0.41793   0.41952
 Alpha virt. eigenvalues --    0.42276   0.42357   0.42696   0.42989   0.43206
 Alpha virt. eigenvalues --    0.43609   0.43883   0.44116   0.44128   0.44282
 Alpha virt. eigenvalues --    0.44365   0.44718   0.44975   0.44995   0.45048
 Alpha virt. eigenvalues --    0.45217   0.45293   0.45439   0.45727   0.45845
 Alpha virt. eigenvalues --    0.45944   0.46467   0.46847   0.46986   0.47144
 Alpha virt. eigenvalues --    0.47359   0.47847   0.47969   0.48162   0.48353
 Alpha virt. eigenvalues --    0.48409   0.48587   0.48620   0.48679   0.48946
 Alpha virt. eigenvalues --    0.49038   0.49173   0.49316   0.49466   0.49558
 Alpha virt. eigenvalues --    0.50223   0.50418   0.50472   0.50579   0.50842
 Alpha virt. eigenvalues --    0.50986   0.51157   0.51371   0.51598   0.51698
 Alpha virt. eigenvalues --    0.52001   0.52163   0.52447   0.52609   0.52642
 Alpha virt. eigenvalues --    0.52866   0.52902   0.53062   0.53184   0.53267
 Alpha virt. eigenvalues --    0.53571   0.53693   0.53957   0.54098   0.54218
 Alpha virt. eigenvalues --    0.54387   0.54515   0.54602   0.54638   0.54776
 Alpha virt. eigenvalues --    0.54957   0.55403   0.55527   0.55629   0.56050
 Alpha virt. eigenvalues --    0.56473   0.56589   0.56777   0.56970   0.57060
 Alpha virt. eigenvalues --    0.57497   0.57530   0.57764   0.58069   0.58332
 Alpha virt. eigenvalues --    0.58503   0.58581   0.58738   0.58890   0.58986
 Alpha virt. eigenvalues --    0.59137   0.59404   0.59655   0.59712   0.59832
 Alpha virt. eigenvalues --    0.60062   0.60205   0.60395   0.60546   0.60773
 Alpha virt. eigenvalues --    0.60886   0.60904   0.61034   0.61126   0.61258
 Alpha virt. eigenvalues --    0.61549   0.61595   0.61658   0.61864   0.61896
 Alpha virt. eigenvalues --    0.62105   0.62222   0.62318   0.62341   0.62432
 Alpha virt. eigenvalues --    0.62658   0.62839   0.62995   0.63026   0.63132
 Alpha virt. eigenvalues --    0.63201   0.63382   0.63490   0.63520   0.63738
 Alpha virt. eigenvalues --    0.63790   0.63931   0.64028   0.64155   0.64275
 Alpha virt. eigenvalues --    0.64424   0.64527   0.64600   0.64820   0.64839
 Alpha virt. eigenvalues --    0.64930   0.65034   0.65115   0.65275   0.65427
 Alpha virt. eigenvalues --    0.65573   0.65662   0.65746   0.65879   0.65994
 Alpha virt. eigenvalues --    0.66137   0.66195   0.66301   0.66395   0.66498
 Alpha virt. eigenvalues --    0.66557   0.66757   0.66931   0.66975   0.67165
 Alpha virt. eigenvalues --    0.67201   0.67340   0.67524   0.67551   0.67576
 Alpha virt. eigenvalues --    0.67872   0.67935   0.68084   0.68252   0.68362
 Alpha virt. eigenvalues --    0.68407   0.68520   0.68654   0.68897   0.69085
 Alpha virt. eigenvalues --    0.69236   0.69372   0.69420   0.69487   0.69593
 Alpha virt. eigenvalues --    0.69786   0.69938   0.70170   0.70256   0.70328
 Alpha virt. eigenvalues --    0.70509   0.70722   0.70802   0.70994   0.71026
 Alpha virt. eigenvalues --    0.71109   0.71261   0.71329   0.71477   0.71847
 Alpha virt. eigenvalues --    0.72105   0.72247   0.72333   0.72415   0.72457
 Alpha virt. eigenvalues --    0.72643   0.72705   0.72743   0.72862   0.73038
 Alpha virt. eigenvalues --    0.73196   0.73454   0.73698   0.73807   0.73869
 Alpha virt. eigenvalues --    0.74061   0.74152   0.74271   0.74496   0.74553
 Alpha virt. eigenvalues --    0.74803   0.74925   0.75253   0.75302   0.75642
 Alpha virt. eigenvalues --    0.75838   0.75911   0.75976   0.76134   0.76276
 Alpha virt. eigenvalues --    0.76377   0.76957   0.77332   0.77752   0.77951
 Alpha virt. eigenvalues --    0.78498   0.78582   0.78809   0.78898   0.79031
 Alpha virt. eigenvalues --    0.79295   0.79426   0.79615   0.79655   0.80084
 Alpha virt. eigenvalues --    0.80251   0.80496   0.80621   0.80834   0.81422
 Alpha virt. eigenvalues --    0.81568   0.82022   0.82345   0.82418   0.82820
 Alpha virt. eigenvalues --    0.83243   0.83288   0.83481   0.83727   0.84269
 Alpha virt. eigenvalues --    0.84431   0.84484   0.84893   0.85111   0.85289
 Alpha virt. eigenvalues --    0.86117   0.86216   0.86845   0.87167   0.87453
 Alpha virt. eigenvalues --    0.87608   0.88014   0.88168   0.88611   0.88768
 Alpha virt. eigenvalues --    0.88934   0.89215   0.89303   0.89849   0.90176
 Alpha virt. eigenvalues --    0.90370   0.90998   0.91185   0.91550   0.91684
 Alpha virt. eigenvalues --    0.92076   0.92493   0.92641   0.93315   0.93522
 Alpha virt. eigenvalues --    0.93596   0.93774   0.94019   0.94480   0.94507
 Alpha virt. eigenvalues --    0.94785   0.95293   0.95595   0.95686   0.96040
 Alpha virt. eigenvalues --    0.96105   0.96313   0.96476   0.96537   0.96825
 Alpha virt. eigenvalues --    0.97046   0.97478   0.97640   0.97919   0.98678
 Alpha virt. eigenvalues --    0.98903   0.99027   0.99557   0.99863   0.99984
 Alpha virt. eigenvalues --    1.00437   1.00689   1.00847   1.01003   1.01458
 Alpha virt. eigenvalues --    1.01767   1.01934   1.02269   1.02353   1.02407
 Alpha virt. eigenvalues --    1.02792   1.03138   1.03222   1.03413   1.03514
 Alpha virt. eigenvalues --    1.03912   1.04144   1.04433   1.04991   1.05159
 Alpha virt. eigenvalues --    1.05255   1.05461   1.05717   1.06052   1.06173
 Alpha virt. eigenvalues --    1.06600   1.07492   1.07640   1.08086   1.08461
 Alpha virt. eigenvalues --    1.08765   1.09435   1.09734   1.09788   1.09985
 Alpha virt. eigenvalues --    1.10259   1.10894   1.10979   1.11213   1.11519
 Alpha virt. eigenvalues --    1.12063   1.12178   1.12371   1.12680   1.12827
 Alpha virt. eigenvalues --    1.13068   1.13384   1.13691   1.14067   1.14130
 Alpha virt. eigenvalues --    1.14313   1.14424   1.14630   1.14804   1.15152
 Alpha virt. eigenvalues --    1.15220   1.15803   1.16006   1.16153   1.16333
 Alpha virt. eigenvalues --    1.16785   1.16953   1.17156   1.17542   1.17639
 Alpha virt. eigenvalues --    1.17801   1.18270   1.18346   1.18678   1.18731
 Alpha virt. eigenvalues --    1.19147   1.19355   1.19611   1.19947   1.19996
 Alpha virt. eigenvalues --    1.20279   1.20589   1.21029   1.21227   1.21729
 Alpha virt. eigenvalues --    1.21845   1.22393   1.22505   1.22841   1.23386
 Alpha virt. eigenvalues --    1.23541   1.23932   1.24103   1.24273   1.24431
 Alpha virt. eigenvalues --    1.24497   1.24901   1.25119   1.25597   1.26078
 Alpha virt. eigenvalues --    1.26116   1.26241   1.27062   1.27116   1.27354
 Alpha virt. eigenvalues --    1.27440   1.27733   1.28020   1.28327   1.28535
 Alpha virt. eigenvalues --    1.29062   1.29095   1.29294   1.29793   1.30128
 Alpha virt. eigenvalues --    1.30376   1.30994   1.31340   1.31403   1.31600
 Alpha virt. eigenvalues --    1.31959   1.32135   1.32390   1.33095   1.33144
 Alpha virt. eigenvalues --    1.33402   1.33943   1.34370   1.34699   1.34984
 Alpha virt. eigenvalues --    1.35137   1.35850   1.35988   1.36114   1.36247
 Alpha virt. eigenvalues --    1.36305   1.36383   1.36606   1.37246   1.37355
 Alpha virt. eigenvalues --    1.37593   1.37722   1.37772   1.38600   1.38854
 Alpha virt. eigenvalues --    1.39417   1.39603   1.39756   1.40068   1.40132
 Alpha virt. eigenvalues --    1.40216   1.40644   1.40687   1.41034   1.41149
 Alpha virt. eigenvalues --    1.41443   1.41519   1.41932   1.42490   1.42981
 Alpha virt. eigenvalues --    1.43058   1.43199   1.43781   1.44363   1.44402
 Alpha virt. eigenvalues --    1.44963   1.45364   1.46127   1.46256   1.46424
 Alpha virt. eigenvalues --    1.46571   1.47090   1.47361   1.47507   1.47681
 Alpha virt. eigenvalues --    1.47771   1.47973   1.48205   1.48702   1.48990
 Alpha virt. eigenvalues --    1.49176   1.49935   1.50194   1.50830   1.50911
 Alpha virt. eigenvalues --    1.50956   1.51453   1.51498   1.51610   1.51688
 Alpha virt. eigenvalues --    1.52277   1.52505   1.52568   1.52892   1.53029
 Alpha virt. eigenvalues --    1.54005   1.54181   1.54257   1.54621   1.54704
 Alpha virt. eigenvalues --    1.54712   1.54992   1.55107   1.55809   1.56281
 Alpha virt. eigenvalues --    1.56630   1.56736   1.57372   1.58216   1.58276
 Alpha virt. eigenvalues --    1.58457   1.58616   1.58835   1.59398   1.59629
 Alpha virt. eigenvalues --    1.59782   1.59869   1.60170   1.60610   1.60878
 Alpha virt. eigenvalues --    1.60952   1.61539   1.61930   1.62380   1.62477
 Alpha virt. eigenvalues --    1.62777   1.62970   1.63241   1.63486   1.63991
 Alpha virt. eigenvalues --    1.64684   1.64915   1.65604   1.65785   1.66672
 Alpha virt. eigenvalues --    1.66732   1.67345   1.67408   1.67544   1.67841
 Alpha virt. eigenvalues --    1.67942   1.68078   1.68119   1.68498   1.68934
 Alpha virt. eigenvalues --    1.69160   1.69238   1.69618   1.70185   1.70499
 Alpha virt. eigenvalues --    1.70572   1.70886   1.71224   1.71312   1.71682
 Alpha virt. eigenvalues --    1.71847   1.71952   1.72034   1.72327   1.72494
 Alpha virt. eigenvalues --    1.72947   1.73020   1.73120   1.73297   1.73571
 Alpha virt. eigenvalues --    1.74156   1.74371   1.74396   1.74772   1.74858
 Alpha virt. eigenvalues --    1.74968   1.75427   1.75431   1.75700   1.75874
 Alpha virt. eigenvalues --    1.76247   1.76435   1.76625   1.76815   1.77105
 Alpha virt. eigenvalues --    1.77248   1.77501   1.77761   1.77791   1.78009
 Alpha virt. eigenvalues --    1.78290   1.78363   1.78494   1.78726   1.78929
 Alpha virt. eigenvalues --    1.79103   1.79184   1.79503   1.79533   1.79720
 Alpha virt. eigenvalues --    1.79859   1.79947   1.80042   1.80203   1.80267
 Alpha virt. eigenvalues --    1.80371   1.80467   1.80704   1.80762   1.80960
 Alpha virt. eigenvalues --    1.81040   1.81266   1.81428   1.81683   1.81759
 Alpha virt. eigenvalues --    1.81947   1.82058   1.82174   1.82451   1.82774
 Alpha virt. eigenvalues --    1.82861   1.83123   1.83324   1.83489   1.83697
 Alpha virt. eigenvalues --    1.83918   1.84034   1.84231   1.84747   1.84884
 Alpha virt. eigenvalues --    1.85268   1.85400   1.85440   1.85665   1.85880
 Alpha virt. eigenvalues --    1.86335   1.86601   1.86726   1.86816   1.87235
 Alpha virt. eigenvalues --    1.87283   1.87366   1.87595   1.87650   1.87709
 Alpha virt. eigenvalues --    1.87961   1.88154   1.88244   1.88547   1.88755
 Alpha virt. eigenvalues --    1.88815   1.88935   1.89219   1.89826   1.89965
 Alpha virt. eigenvalues --    1.90062   1.90193   1.90405   1.90642   1.90801
 Alpha virt. eigenvalues --    1.90867   1.91030   1.91143   1.91199   1.91243
 Alpha virt. eigenvalues --    1.91775   1.91993   1.92113   1.92317   1.92421
 Alpha virt. eigenvalues --    1.92687   1.93034   1.93077   1.93414   1.93629
 Alpha virt. eigenvalues --    1.93890   1.93954   1.94197   1.94439   1.94906
 Alpha virt. eigenvalues --    1.95037   1.95112   1.95732   1.95803   1.95891
 Alpha virt. eigenvalues --    1.96122   1.96420   1.96437   1.96679   1.96778
 Alpha virt. eigenvalues --    1.97000   1.97378   1.97503   1.97688   1.97915
 Alpha virt. eigenvalues --    1.98075   1.98095   1.98389   1.98854   1.99082
 Alpha virt. eigenvalues --    1.99393   1.99844   1.99958   2.00020   2.00293
 Alpha virt. eigenvalues --    2.00468   2.00913   2.01096   2.01470   2.01603
 Alpha virt. eigenvalues --    2.01865   2.02058   2.02082   2.02234   2.02838
 Alpha virt. eigenvalues --    2.02991   2.03134   2.03237   2.03546   2.03876
 Alpha virt. eigenvalues --    2.03994   2.04128   2.04496   2.04566   2.05179
 Alpha virt. eigenvalues --    2.05462   2.05798   2.05909   2.05971   2.06445
 Alpha virt. eigenvalues --    2.06500   2.06695   2.07347   2.07758   2.08135
 Alpha virt. eigenvalues --    2.08391   2.08697   2.08798   2.09379   2.10137
 Alpha virt. eigenvalues --    2.10341   2.10404   2.10424   2.10709   2.10965
 Alpha virt. eigenvalues --    2.11236   2.11519   2.11836   2.11889   2.12223
 Alpha virt. eigenvalues --    2.12360   2.12734   2.12924   2.13003   2.13513
 Alpha virt. eigenvalues --    2.13664   2.13917   2.14307   2.14505   2.14885
 Alpha virt. eigenvalues --    2.14987   2.15244   2.15441   2.15679   2.15746
 Alpha virt. eigenvalues --    2.16203   2.16265   2.16550   2.16944   2.17336
 Alpha virt. eigenvalues --    2.17519   2.18008   2.18520   2.18932   2.19092
 Alpha virt. eigenvalues --    2.19375   2.19504   2.19785   2.20453   2.21050
 Alpha virt. eigenvalues --    2.21063   2.21381   2.21393   2.21640   2.22298
 Alpha virt. eigenvalues --    2.22529   2.22802   2.23269   2.23763   2.23874
 Alpha virt. eigenvalues --    2.24287   2.24376   2.24521   2.25208   2.25853
 Alpha virt. eigenvalues --    2.26043   2.26857   2.27548   2.27565   2.27758
 Alpha virt. eigenvalues --    2.28198   2.28778   2.29333   2.29396   2.29617
 Alpha virt. eigenvalues --    2.30442   2.31264   2.31280   2.31576   2.31865
 Alpha virt. eigenvalues --    2.31916   2.31994   2.32076   2.32367   2.32776
 Alpha virt. eigenvalues --    2.33092   2.33249   2.33407   2.33672   2.33751
 Alpha virt. eigenvalues --    2.33995   2.34080   2.34334   2.34783   2.34866
 Alpha virt. eigenvalues --    2.35213   2.35449   2.36288   2.36420   2.36586
 Alpha virt. eigenvalues --    2.36895   2.37178   2.37372   2.38233   2.38661
 Alpha virt. eigenvalues --    2.38673   2.38901   2.39259   2.39421   2.40315
 Alpha virt. eigenvalues --    2.40894   2.41041   2.41252   2.41488   2.41703
 Alpha virt. eigenvalues --    2.42109   2.42509   2.42958   2.43155   2.43610
 Alpha virt. eigenvalues --    2.44421   2.44535   2.45607   2.45896   2.46143
 Alpha virt. eigenvalues --    2.46485   2.46825   2.47448   2.47682   2.47861
 Alpha virt. eigenvalues --    2.48220   2.48873   2.48963   2.49400   2.49451
 Alpha virt. eigenvalues --    2.49959   2.50084   2.50539   2.50750   2.50955
 Alpha virt. eigenvalues --    2.51297   2.51594   2.51903   2.52550   2.52605
 Alpha virt. eigenvalues --    2.53036   2.53400   2.53472   2.53871   2.54132
 Alpha virt. eigenvalues --    2.54525   2.54574   2.55220   2.55809   2.55940
 Alpha virt. eigenvalues --    2.56213   2.56412   2.56963   2.57261   2.57435
 Alpha virt. eigenvalues --    2.57696   2.57914   2.58097   2.58218   2.58694
 Alpha virt. eigenvalues --    2.58884   2.59485   2.59884   2.59978   2.60229
 Alpha virt. eigenvalues --    2.60427   2.61143   2.61419   2.61680   2.61817
 Alpha virt. eigenvalues --    2.62902   2.63059   2.63390   2.63916   2.64012
 Alpha virt. eigenvalues --    2.64509   2.64789   2.64831   2.65194   2.65581
 Alpha virt. eigenvalues --    2.65773   2.65907   2.65928   2.66216   2.66759
 Alpha virt. eigenvalues --    2.66910   2.67360   2.67430   2.67730   2.67751
 Alpha virt. eigenvalues --    2.68015   2.68668   2.68727   2.68921   2.69007
 Alpha virt. eigenvalues --    2.69543   2.69721   2.69952   2.70485   2.70806
 Alpha virt. eigenvalues --    2.71040   2.71246   2.71421   2.71880   2.72324
 Alpha virt. eigenvalues --    2.72583   2.72794   2.72884   2.73221   2.73400
 Alpha virt. eigenvalues --    2.73593   2.74256   2.74486   2.74893   2.75189
 Alpha virt. eigenvalues --    2.75274   2.75682   2.75803   2.76266   2.76324
 Alpha virt. eigenvalues --    2.77162   2.77411   2.77494   2.77496   2.78082
 Alpha virt. eigenvalues --    2.78096   2.78196   2.78598   2.78633   2.78926
 Alpha virt. eigenvalues --    2.79187   2.79601   2.79878   2.80030   2.80236
 Alpha virt. eigenvalues --    2.80833   2.80866   2.80966   2.81340   2.81468
 Alpha virt. eigenvalues --    2.81637   2.81936   2.82068   2.83089   2.83733
 Alpha virt. eigenvalues --    2.83987   2.84218   2.84534   2.84669   2.84846
 Alpha virt. eigenvalues --    2.84991   2.85060   2.85159   2.85479   2.86443
 Alpha virt. eigenvalues --    2.86824   2.86940   2.87223   2.87562   2.88333
 Alpha virt. eigenvalues --    2.88340   2.88478   2.88533   2.88748   2.89375
 Alpha virt. eigenvalues --    2.89625   2.89696   2.90245   2.90605   2.90816
 Alpha virt. eigenvalues --    2.90852   2.91174   2.91772   2.91904   2.92223
 Alpha virt. eigenvalues --    2.92504   2.93070   2.93419   2.93475   2.93762
 Alpha virt. eigenvalues --    2.94022   2.94204   2.95153   2.95411   2.95517
 Alpha virt. eigenvalues --    2.96235   2.96408   2.96644   2.97045   2.97212
 Alpha virt. eigenvalues --    2.97498   2.98405   2.98453   2.98844   2.99265
 Alpha virt. eigenvalues --    2.99318   2.99637   2.99721   2.99808   3.00212
 Alpha virt. eigenvalues --    3.00735   3.01118   3.01329   3.01483   3.02073
 Alpha virt. eigenvalues --    3.02643   3.02677   3.02831   3.03069   3.03541
 Alpha virt. eigenvalues --    3.03866   3.04417   3.04479   3.05126   3.05364
 Alpha virt. eigenvalues --    3.05543   3.06015   3.06691   3.07028   3.08059
 Alpha virt. eigenvalues --    3.08372   3.08935   3.09626   3.10185   3.10726
 Alpha virt. eigenvalues --    3.10779   3.11025   3.11333   3.12062   3.12751
 Alpha virt. eigenvalues --    3.13068   3.13320   3.13558   3.14336   3.14376
 Alpha virt. eigenvalues --    3.14680   3.15326   3.15367   3.15445   3.15870
 Alpha virt. eigenvalues --    3.16006   3.16123   3.16465   3.16783   3.17321
 Alpha virt. eigenvalues --    3.17525   3.17576   3.17805   3.18091   3.18300
 Alpha virt. eigenvalues --    3.18533   3.19325   3.19632   3.19854   3.20115
 Alpha virt. eigenvalues --    3.20445   3.20658   3.21192   3.21249   3.21837
 Alpha virt. eigenvalues --    3.22316   3.22962   3.23664   3.23973   3.25808
 Alpha virt. eigenvalues --    3.26093   3.28086   3.28226   3.28452   3.29576
 Alpha virt. eigenvalues --    3.30404   3.31624   3.32527   3.32701   3.32808
 Alpha virt. eigenvalues --    3.37423   3.37691   3.38482   3.39017   3.39496
 Alpha virt. eigenvalues --    3.42524   3.42592   3.46345   3.46392   3.48733
 Alpha virt. eigenvalues --    3.50760   3.50838   3.52352   3.53718   3.53789
 Alpha virt. eigenvalues --    3.55631   3.55850   3.56196   3.56467   3.56695
 Alpha virt. eigenvalues --    3.57019   3.57457   3.58042   3.60455   3.60760
 Alpha virt. eigenvalues --    3.61606   3.62379   3.63442   3.65001   3.65314
 Alpha virt. eigenvalues --    3.65515   3.66108   3.66276   3.67065   3.67708
 Alpha virt. eigenvalues --    3.68377   3.68527   3.68786   3.69174   3.69611
 Alpha virt. eigenvalues --    3.70070   3.70802   3.71197   3.73063   3.73792
 Alpha virt. eigenvalues --    3.80529   3.81024   3.81053   3.81583
          Condensed to atoms (all electrons):
 Mulliken charges:
               1
     1  C    0.063592
     2  C   -0.005391
     3  O   -0.289689
     4  H    0.063134
     5  H    0.034400
     6  H    0.011057
     7  N   -0.128929
     8  C    0.139386
     9  C    0.064524
    10  O   -0.278484
    11  C    0.063505
    12  C    0.140989
    13  O   -0.398958
    14  O   -0.449037
    15  H    0.112391
    16  H   -0.000005
    17  H    0.003092
    18  H    0.037404
    19  N   -0.135985
    20  C    0.072476
    21  C    0.067085
    22  O   -0.288970
    23  C    0.106114
    24  C   -0.006638
    25  C   -0.046521
    26  C    0.031825
    27  N    0.141565
    28  H    0.118087
    29  H    0.023844
    30  H    0.036078
    31  H   -0.005776
    32  H   -0.010768
    33  H    0.006968
    34  H    0.035817
    35  H    0.030618
    36  H    0.060570
    37  H    0.061965
    38  H    0.126028
    39  H    0.148531
    40  H    0.143750
    41  N   -0.153430
    42  C    0.103582
    43  C    0.077982
    44  O   -0.291829
    45  C    0.109232
    46  C    0.101036
    47  O   -0.403265
    48  O   -0.442628
    49  H    0.142610
    50  H    0.036293
    51  H    0.009013
    52  H    0.030417
    53  N   -0.162416
    54  C    0.204027
    55  C    0.045578
    56  O   -0.296840
    57  H    0.132813
    58  H    0.037661
    59  H    0.022819
    60  N   -0.119508
    61  C    0.069580
    62  C    0.112357
    63  O   -0.361173
    64  C    0.034990
    65  C    0.039848
    66  N   -0.034549
    67  O   -0.290452
    68  H    0.146127
    69  H    0.025758
    70  H    0.030182
    71  H    0.068383
    72  H    0.131996
    73  H    0.137593
    74  N   -0.148504
    75  C    0.219956
    76  C    0.036042
    77  O   -0.258861
    78  H    0.155902
    79  H    0.032055
    80  H    0.020820
    81  N   -0.109369
    82  C    0.120947
    83  C    0.080620
    84  O   -0.245971
    85  C    0.089742
    86  C   -0.036156
    87  C    0.001130
    88  C   -0.012587
    89  C   -0.013578
    90  C   -0.023343
    91  C    0.132949
    92  O   -0.200629
    93  H    0.113519
    94  H   -0.017096
    95  H   -0.004511
    96  H    0.003963
    97  H    0.008995
    98  H   -0.026904
    99  H   -0.013783
   100  H   -0.036891
   101  H    0.170366
   102  N   -0.130213
   103  C    0.122182
   104  C    0.104065
   105  O   -0.248268
   106  C   -0.107567
   107  C   -0.016793
   108  C    0.080946
   109  C    0.053799
   110  H    0.118632
   111  H   -0.038072
   112  H   -0.006788
   113  H    0.008577
   114  H    0.005724
   115  H    0.020728
   116  H    0.002104
   117  H    0.002935
   118  H    0.022787
   119  H   -0.028787
   120  H    0.024597
   121  N   -0.114303
   122  C    0.104816
   123  C    0.067092
   124  O   -0.260338
   125  C    0.194738
   126  O   -0.308708
   127  H    0.116065
   128  H    0.033637
   129  H    0.014909
   130  H    0.011044
   131  H    0.182955
   132  N   -0.136174
   133  C   -0.024027
   134  C    0.079669
   135  O   -0.262075
   136  C    0.098339
   137  H    0.126196
   138  H    0.031892
   139  H    0.030821
   140  H    0.033718
   141  H   -0.021176
   142  N   -0.093537
   143  C    0.044048
   144  C    0.077237
   145  O   -0.274095
   146  C    0.022579
   147  H    0.126445
   148  H    0.024639
   149  H    0.013740
   150  H    0.002821
   151  H    0.005918
   152  N   -0.079913
   153  C    0.098508
   154  C    0.067505
   155  O   -0.291205
   156  C    0.015859
   157  C    0.077576
   158  C    0.053532
   159  O   -0.332040
   160  O   -0.341109
   161  H    0.109954
   162  H   -0.002133
   163  H    0.000284
   164  H   -0.020046
   165  H   -0.016899
   166  H   -0.038844
   167  N   -0.142172
   168  C    0.116881
   169  H    0.022619
   170  H    0.044043
   171  H    0.022557
   172  H    0.116538
   173  Ca   1.338930
   174  O   -0.341290
   175  H    0.174554
   176  H    0.174581
 Sum of Mulliken charges =  -0.00000
 Mulliken charges with hydrogens summed into heavy atoms:
               1
     1  C    0.172184
     2  C   -0.005391
     3  O   -0.289689
     7  N   -0.016537
     8  C    0.139382
     9  C    0.064524
    10  O   -0.278484
    11  C    0.104001
    12  C    0.140989
    13  O   -0.398958
    14  O   -0.449037
    19  N   -0.017898
    20  C    0.096319
    21  C    0.067085
    22  O   -0.288970
    23  C    0.136417
    24  C   -0.010438
    25  C    0.019915
    26  C    0.154359
    27  N    0.559874
    41  N   -0.010821
    42  C    0.139875
    43  C    0.077982
    44  O   -0.291829
    45  C    0.148662
    46  C    0.101036
    47  O   -0.403265
    48  O   -0.442628
    53  N   -0.029603
    54  C    0.264507
    55  C    0.045578
    56  O   -0.296840
    60  N    0.026618
    61  C    0.095338
    62  C    0.112357
    63  O   -0.361173
    64  C    0.133556
    65  C    0.039848
    66  N    0.235040
    67  O   -0.290452
    74  N    0.007398
    75  C    0.272830
    76  C    0.036042
    77  O   -0.258861
    81  N    0.004150
    82  C    0.103851
    83  C    0.080620
    84  O   -0.245971
    85  C    0.089194
    86  C   -0.036156
    87  C    0.010125
    88  C   -0.039491
    89  C   -0.027361
    90  C   -0.060234
    91  C    0.132949
    92  O   -0.030263
   102  N   -0.011581
   103  C    0.084110
   104  C    0.104065
   105  O   -0.248268
   106  C   -0.114354
   107  C   -0.002492
   108  C    0.106714
   109  C    0.072396
   121  N    0.001763
   122  C    0.138453
   123  C    0.067092
   124  O   -0.260338
   125  C    0.220691
   126  O   -0.125753
   132  N   -0.009978
   133  C    0.007865
   134  C    0.079669
   135  O   -0.262075
   136  C    0.141701
   142  N    0.032909
   143  C    0.068687
   144  C    0.077237
   145  O   -0.274095
   146  C    0.045058
   152  N    0.030041
   153  C    0.096375
   154  C    0.067505
   155  O   -0.291205
   156  C   -0.003903
   157  C    0.021833
   158  C    0.053532
   159  O   -0.332040
   160  O   -0.341109
   167  N   -0.025634
   168  C    0.206100
   173  Ca   1.338930
   174  O    0.007845
 DipInt: DoE/N= T F RetVal/Mat= T F Init=T NMatP=  1 IDeriv=0 Min/MaxMlt=  0  4
 Entering OneElI...
 OneElI was handed  1333951383 working-precision words.
 Multipole integrals L=0 to 4 MinM= 0 MaxM= 0.
 Requested accuracy = 0.1000D-12
 PrtBox:  NBox=     1 Levels=  1 BoxLen=   98.75 SMaxX=       59.36
          Shift=           31.808003           13.391260            7.259842
 Box      1 Number                   0 centers from      1 to    809:
 ShPair: Thresh= 1.00D-13 NBox=     1 BxSize= 9.87D+01 RnKept= 3.75D+01
         NSMCal=               327645 NSMKep=              113843
 PrmmSu-InSpLW:  IPartL=    0 NPrtUS=    1 NPrtUL=    1 DoSpLW=F IThBeg=    0 IThEnd=    0 NThAct=    1.
 PrsmSu:  NPrtUS=   1 ThrOK=F IAlg=1 NPAlg=1 LenDen=           0 ISkipM=0 DoSpLW=F IThBeg=    0 IThEnd=    0.
 Prism:   IPart=     0 DynPar=F LinDyn=F Incr=         512.
 PRISM was handed  1325586821 working-precision words and113843 shell-pairs
 IPart=  0 NShTot=      113843 NBatch=         278 AvBLen=       409.5
 PrsmSu-ThDecC:  IPartSL=    0    0 NPrtUSL=    1    1 IThBeg=    0 IThEnd=    0 CPU=   -1 GPU=   -1 NThAct=    1.
 PrSmSu:  NxtVal=            513.
 Electronic moments (au):
       -716.00000000        -30.52597056          0.01617021          0.14649085
    -200084.63382364     -22677.14088185      -8425.75691870       -236.78512987
         99.92133789        -22.50501742     -20910.88537862     -16342.70750054
      -3990.59449392     -86593.05856003    -401911.08761673     123890.28254270
       1859.92347142      -3218.54400431     -27462.79450570      -6149.30250256
  -91556528.24462321   -2101019.41811539    -244004.75225145     913166.51349166
    -495392.71659178    -264558.80196372      57003.08743710     -49235.97610382
     -33036.63889181   -6209320.14643251   -2472437.57572090    -232748.86286732
    -686369.55077614      -9161.50595577       8846.92657325
 Electronic spatial extent (au):  <R**2>=         231187.5316
 DipInt: DoE/N= F T RetVal/Mat= T F Init=T NMatP=  1 IDeriv=0 Min/MaxMlt=  0  4
 Nuclear    moments (au):
        716.00000000         -0.00000000          0.00000000         -0.00000000
     199937.83871116      22166.38582526       8022.58917296         -0.00000000
          0.00000000         -0.00000000      -2915.81478826      14616.95371906
       3937.63231106      84026.29947458     405372.19423708    -123298.07667957
      -1975.71069702       3522.63806395      27672.05613979       6098.75317667
   91250142.76527160    1999305.52394562     215603.15486367   -1043469.69458395
     544450.93978075     234336.69273077     -57428.75842015      51625.03806256
[...]
 **** Fit      -0.006881
 **** Fit      -0.014034
 **** Fit      -0.013319
 **** Fit      -0.012702
 **** Fit      -0.012230
 **** Fit      -0.011891
 **** Fit      -0.011640
 **** Fit      -0.011422
 **** Fit      -0.011180
 **** Fit      -0.010859
 **** Fit      -0.010416
 **** Fit      -0.009814
 **** Fit      -0.009534
 **** Fit      -0.008174
 **** Fit      -0.015270
 **** Fit      -0.014374
 **** Fit      -0.013718
 **** Fit      -0.013281
 **** Fit      -0.013003
 **** Fit      -0.012807
 **** Fit      -0.012616
 **** Fit      -0.012360
 **** Fit      -0.011975
 **** Fit      -0.011405
 **** Fit      -0.010604
 **** Fit      -0.010167
 **** Fit      -0.008285
 **** Fit      -0.016888
 **** Fit      -0.015766
 **** Fit      -0.015035
 **** Fit      -0.014613
 **** Fit      -0.014390
 **** Fit      -0.014254
 **** Fit      -0.014101
 **** Fit      -0.013837
 **** Fit      -0.013382
 **** Fit      -0.012661
 **** Fit      -0.011609
 **** Fit      -0.010961
 **** Fit      -0.008289
 **** Fit      -0.017963
 **** Fit      -0.016838
 **** Fit      -0.016256
 **** Fit      -0.016023
 **** Fit      -0.015953
 **** Fit      -0.015878
 **** Fit      -0.015657
 **** Fit      -0.015165
 **** Fit      -0.014290
 **** Fit      -0.012924
 **** Fit      -0.019349
 **** Fit      -0.018226
 **** Fit      -0.017817
 **** Fit      -0.017785
 **** Fit      -0.017843
 **** Fit      -0.017749
 **** Fit      -0.017301
 **** Fit      -0.016315
 **** Fit      -0.014612
 **** Fit      -0.020725
 **** Fit      -0.019815
 **** Fit      -0.019701
 **** Fit      -0.019895
 **** Fit      -0.020003
 **** Fit      -0.019703
 **** Fit       0.000154
 **** Fit       0.000205
 **** Fit      -0.000370
 **** Fit      -0.001580
 **** Fit      -0.003355
 **** Fit      -0.001476
 **** Fit      -0.000652
 **** Fit      -0.000414
 **** Fit      -0.000827
 **** Fit      -0.001924
 **** Fit      -0.003700
 **** Fit      -0.006107
 **** Fit      -0.009033
 **** Fit      -0.012264
 **** Fit      -0.002501
 **** Fit      -0.001422
 **** Fit      -0.001017
 **** Fit      -0.001346
 **** Fit      -0.002443
 **** Fit      -0.004319
 **** Fit      -0.006962
 **** Fit      -0.010320
 **** Fit      -0.014268
 **** Fit      -0.018547
 **** Fit      -0.004157
 **** Fit      -0.003436
 **** Fit      -0.002109
 **** Fit      -0.001532
 **** Fit      -0.001752
 **** Fit      -0.002791
 **** Fit      -0.004660
 **** Fit      -0.007360
 **** Fit      -0.010876
 **** Fit      -0.015152
 **** Fit      -0.020038
 **** Fit      -0.005427
 **** Fit      -0.004096
 **** Fit      -0.002518
 **** Fit      -0.001811
 **** Fit      -0.001998
 **** Fit      -0.003079
 **** Fit      -0.005046
 **** Fit      -0.007894
 **** Fit      -0.011608
 **** Fit      -0.006472
 **** Fit      -0.004095
 **** Fit      -0.002260
 **** Fit      -0.001551
 **** Fit      -0.001935
 **** Fit      -0.003360
 **** Fit      -0.005779
 **** Fit      -0.009148
 **** Fit      -0.007009
 **** Fit      -0.000294
 **** Fit      -0.001245
 **** Fit      -0.003379
 **** Fit      -0.006568
 **** Fit       0.032451
 **** Fit       0.029587
 **** Fit       0.041736
 **** Fit       0.039737
 **** Fit       0.036586
 **** Fit       0.031903
 **** Fit       0.050237
 **** Fit       0.048977
 **** Fit       0.047296
 **** Fit       0.044815
 **** Fit       0.041235
 **** Fit       0.036299
 **** Fit       0.055763
 **** Fit       0.054793
 **** Fit       0.053482
 **** Fit       0.051571
 **** Fit       0.048843
 **** Fit       0.045117
 **** Fit       0.040250
 **** Fit       0.060374
 **** Fit       0.059948
 **** Fit       0.059310
 **** Fit       0.058303
 **** Fit       0.056764
 **** Fit       0.054540
 **** Fit       0.051501
 **** Fit       0.047545
 **** Fit       0.042623
 **** Fit       0.036769
 **** Fit       0.052413
 **** Fit       0.053861
 **** Fit       0.054736
 **** Fit       0.055453
 **** Fit       0.060568
 **** Fit       0.061728
 **** Fit       0.062559
 **** Fit       0.063057
 **** Fit       0.063280
 **** Fit       0.063249
 **** Fit       0.062919
 **** Fit       0.062204
 **** Fit       0.061002
 **** Fit       0.059209
 **** Fit       0.056732
 **** Fit       0.053498
 **** Fit       0.049465
 **** Fit       0.044651
 **** Fit       0.039164
 **** Fit       0.044788
 **** Fit       0.049159
 **** Fit       0.052236
 **** Fit       0.054313
 **** Fit       0.055723
 **** Fit       0.056831
 **** Fit       0.057955
 **** Fit       0.059234
 **** Fit       0.061988
 **** Fit       0.063295
 **** Fit       0.064379
 **** Fit       0.065185
 **** Fit       0.065694
 **** Fit       0.065885
 **** Fit       0.065714
 **** Fit       0.065118
 **** Fit       0.064018
 **** Fit       0.062336
 **** Fit       0.060002
 **** Fit       0.056963
 **** Fit       0.053196
 **** Fit       0.048728
 **** Fit       0.033695
 **** Fit       0.041399
 **** Fit       0.047092
 **** Fit       0.051193
 **** Fit       0.054082
 **** Fit       0.056134
 **** Fit       0.057719
 **** Fit       0.059143
 **** Fit       0.060567
 **** Fit       0.063389
 **** Fit       0.064828
 **** Fit       0.066063
 **** Fit       0.067034
 **** Fit       0.067698
 **** Fit       0.068016
 **** Fit       0.067945
 **** Fit       0.067430
 **** Fit       0.066411
 **** Fit       0.064829
 **** Fit       0.062633
 **** Fit       0.059791
 **** Fit       0.056303
 **** Fit       0.037749
 **** Fit       0.044746
 **** Fit       0.049864
 **** Fit       0.053571
 **** Fit       0.056286
 **** Fit       0.058385
 **** Fit       0.060170
 **** Fit       0.061822
 **** Fit       0.064629
 **** Fit       0.066201
 **** Fit       0.067543
 **** Fit       0.068601
 **** Fit       0.069328
 **** Fit       0.069680
 **** Fit       0.069611
 **** Fit       0.069075
 **** Fit       0.068020
 **** Fit       0.066404
 **** Fit       0.064199
 **** Fit       0.061414
 **** Fit       0.058122
 **** Fit       0.032425
 **** Fit       0.041227
 **** Fit       0.047703
 **** Fit       0.052457
 **** Fit       0.055985
 **** Fit       0.058698
 **** Fit       0.060923
 **** Fit       0.062869
 **** Fit       0.065580
 **** Fit       0.067269
 **** Fit       0.068679
 **** Fit       0.069773
 **** Fit       0.070511
 **** Fit       0.070851
 **** Fit       0.070751
 **** Fit       0.070171
 **** Fit       0.069076
 **** Fit       0.067446
 **** Fit       0.065298
 **** Fit       0.062723
 **** Fit       0.037370
 **** Fit       0.045196
 **** Fit       0.051001
 **** Fit       0.055350
 **** Fit       0.058692
 **** Fit       0.061374
 **** Fit       0.063628
 **** Fit       0.066139
 **** Fit       0.068006
 **** Fit       0.069503
 **** Fit       0.070610
 **** Fit       0.071290
 **** Fit       0.071505
 **** Fit       0.071219
 **** Fit       0.070401
 **** Fit       0.069045
 **** Fit       0.067197
 **** Fit       0.065014
 **** Fit       0.040225
 **** Fit       0.047838
 **** Fit       0.053513
 **** Fit       0.057815
 **** Fit       0.061173
 **** Fit       0.063888
 **** Fit       0.066219
 **** Fit       0.068270
 **** Fit       0.069839
 **** Fit       0.070923
 **** Fit       0.071498
 **** Fit       0.071534
 **** Fit       0.071010
 **** Fit       0.069930
 **** Fit       0.068362
 **** Fit       0.066518
 **** Fit       0.034211
 **** Fit       0.043773
 **** Fit       0.050913
 **** Fit       0.056289
 **** Fit       0.060409
 **** Fit       0.063640
 **** Fit       0.065760
 **** Fit       0.067995
 **** Fit       0.069614
 **** Fit       0.070637
 **** Fit       0.071056
 **** Fit       0.070860
 **** Fit       0.070063
 **** Fit       0.068742
 **** Fit       0.067121
 **** Fit       0.039054
 **** Fit       0.047628
 **** Fit       0.054115
 **** Fit       0.059045
 **** Fit       0.062832
 **** Fit       0.064718
 **** Fit       0.067190
 **** Fit       0.068844
 **** Fit       0.069722
 **** Fit       0.069843
 **** Fit       0.069236
 **** Fit       0.068001
 **** Fit       0.066381
 **** Fit       0.042752
 **** Fit       0.050715
 **** Fit       0.056759
 **** Fit       0.061314
 **** Fit       0.063067
 **** Fit       0.065758
 **** Fit       0.067364
 **** Fit       0.067960
 **** Fit       0.067606
 **** Fit       0.066409
 **** Fit       0.064578
 **** Fit       0.037449
 **** Fit       0.046594
 **** Fit       0.053759
 **** Fit       0.059148
 **** Fit       0.060793
 **** Fit       0.063740
 **** Fit       0.065085
 **** Fit       0.064951
 **** Fit       0.063482
 **** Fit       0.027949
 **** Fit       0.040869
 **** Fit       0.049414
 **** Fit       0.056079
 **** Fit       0.057897
 **** Fit       0.060924
 **** Fit       0.061297
 **** Fit       0.059205
 **** Fit       0.054799
 **** Fit       0.040761
 **** Fit       0.034581
 **** Fit       0.032514
 **** Fit       0.036462
 **** Fit       0.044302
 **** Fit       0.052173
 **** Fit       0.054394
 **** Fit       0.056490
 **** Fit       0.052717
 **** Fit       0.045748
 **** Fit       0.042490
 **** Fit       0.047505
 **** Fit       0.050323
 **** Fit       0.025900
 **** Fit       0.030682
 **** Fit       0.032375
 **** Fit       0.028825
 **** Fit       0.028050
 **** Fit       0.029320
 **** Fit       0.032133
 **** Fit       0.036182
 **** Fit       0.041334
 **** Fit       0.047568
 **** Fit       0.038654
 **** Fit       0.034770
 **** Fit       0.033561
 **** Fit       0.034353
 **** Fit       0.036660
 **** Fit       0.040138
 **** Fit       0.044581
 **** Fit       0.062863
 **** Fit       0.050449
 **** Fit       0.043478
 **** Fit       0.039755
 **** Fit       0.038510
 **** Fit       0.039164
 **** Fit       0.052232
 **** Fit       0.046542
 **** Fit       0.043676
 **** Fit       0.043029
 **** Fit       0.059578
 **** Fit       0.052640
 **** Fit       0.048666
 **** Fit       0.047108
 **** Fit       0.057962
 **** Fit       0.053229
 **** Fit       0.050886
 **** Fit       0.056504
 **** Fit       0.048153
 **** Fit       0.039033
 **** Fit       0.029426
 **** Fit       0.019212
 **** Fit       0.060428
 **** Fit       0.055868
 **** Fit       0.047801
 **** Fit       0.039265
 **** Fit       0.030209
 **** Fit       0.020643
 **** Fit       0.066248
 **** Fit       0.060764
 **** Fit       0.056947
 **** Fit       0.043647
 **** Fit       0.035229
 **** Fit       0.026508
 **** Fit       0.017632
 **** Fit       0.062561
 **** Fit       0.059356
 **** Fit       0.056766
 **** Fit       0.040496
 **** Fit       0.032534
 **** Fit       0.024778
 **** Fit       0.017823
 **** Fit       0.055998
 **** Fit       0.055821
 **** Fit       0.055021
 **** Fit       0.034048
 **** Fit       0.027422
 **** Fit       0.022642
 **** Fit       0.021137
 **** Fit       0.024143
 **** Fit       0.031405
 **** Fit       0.040659
 **** Fit       0.048875
 **** Fit       0.054055
 **** Fit       0.050306
 **** Fit       0.051914
 **** Fit       0.032603
 **** Fit       0.029087
 **** Fit       0.029625
 **** Fit       0.034292
 **** Fit       0.040998
 **** Fit       0.046835
 **** Fit       0.047257
 **** Fit       0.037668
 **** Fit       0.035351
 **** Fit       0.037766
 **** Fit       0.042807
 **** Fit       0.041924
 **** Fit       0.066703
 **** Fit       0.043204
 **** Fit       0.047692
 **** Fit       0.053155
 **** Fit       0.059626
 **** Fit       0.041832
 **** Fit       0.044368
 **** Fit       0.047693
 **** Fit       0.051818
 **** Fit       0.056776
 **** Fit       0.062519
 **** Fit       0.068858
 **** Fit       0.043371
 **** Fit       0.044206
 **** Fit       0.045926
 **** Fit       0.048365
 **** Fit       0.051459
 **** Fit       0.055190
 **** Fit       0.059519
 **** Fit       0.064321
 **** Fit       0.069342
 **** Fit       0.074188
 **** Fit       0.046736
 **** Fit       0.046136
 **** Fit       0.046626
 **** Fit       0.047933
 **** Fit       0.049893
 **** Fit       0.052414
 **** Fit       0.055439
 **** Fit       0.058903
 **** Fit       0.062681
 **** Fit       0.066553
 **** Fit       0.070187
 **** Fit       0.073127
 **** Fit       0.074761
 **** Fit       0.050114
 **** Fit       0.048612
 **** Fit       0.048330
 **** Fit       0.048969
 **** Fit       0.050320
 **** Fit       0.052240
 **** Fit       0.054631
 **** Fit       0.057404
 **** Fit       0.060438
 **** Fit       0.063546
 **** Fit       0.066445
 **** Fit       0.068757
 **** Fit       0.070015
 **** Fit       0.069672
 **** Fit       0.067181
 **** Fit       0.052726
 **** Fit       0.050727
 **** Fit       0.049952
 **** Fit       0.050142
 **** Fit       0.051082
 **** Fit       0.052607
 **** Fit       0.054585
 **** Fit       0.056897
 **** Fit       0.059397
 **** Fit       0.061886
 **** Fit       0.064081
 **** Fit       0.065620
 **** Fit       0.066081
 **** Fit       0.065023
 **** Fit       0.062086
 **** Fit       0.057177
 **** Fit       0.054386
 **** Fit       0.052302
 **** Fit       0.051234
 **** Fit       0.051059
 **** Fit       0.051618
 **** Fit       0.052753
 **** Fit       0.054322
 **** Fit       0.056184
 **** Fit       0.058180
 **** Fit       0.060104
 **** Fit       0.061687
 **** Fit       0.062600
 **** Fit       0.062480
 **** Fit       0.060989
 **** Fit       0.057905
 **** Fit       0.053226
 **** Fit       0.047186
 **** Fit       0.054307
 **** Fit       0.052726
 **** Fit       0.051828
 **** Fit       0.051682
 **** Fit       0.052211
 **** Fit       0.053277
 **** Fit       0.054716
 **** Fit       0.056341
 **** Fit       0.057924
 **** Fit       0.059176
 **** Fit       0.059754
 **** Fit       0.059292
 **** Fit       0.057482
 **** Fit       0.054173
 **** Fit       0.049462
 **** Fit       0.043700
 **** Fit       0.052890
 **** Fit       0.052301
 **** Fit       0.051833
 **** Fit       0.051829
 **** Fit       0.052360
 **** Fit       0.053338
 **** Fit       0.054583
 **** Fit       0.055852
 **** Fit       0.056838
 **** Fit       0.057178
 **** Fit       0.056501
 **** Fit       0.054528
 **** Fit       0.051191
 **** Fit       0.046726
 **** Fit       0.041700
 **** Fit       0.050058
 **** Fit       0.050905
 **** Fit       0.051196
 **** Fit       0.051552
 **** Fit       0.052237
 **** Fit       0.053204
 **** Fit       0.054198
 **** Fit       0.054831
 **** Fit       0.054647
 **** Fit       0.053250
 **** Fit       0.050494
 **** Fit       0.046672
 **** Fit       0.042599
 **** Fit       0.039527
 **** Fit       0.047936
 **** Fit       0.048629
 **** Fit       0.050032
 **** Fit       0.050951
 **** Fit       0.051867
 **** Fit       0.052637
 **** Fit       0.052650
 **** Fit       0.051248
 **** Fit       0.048344
 **** Fit       0.044940
 **** Fit       0.042924
 **** Fit       0.043636
 **** Fit       0.046227
 **** Fit       0.048249
 **** Fit       0.049989
 **** Fit       0.050787
 **** Fit       0.049699
 **** Fit       0.046976
 **** Fit       0.046278
 **** Fit       0.048664
 -----------------------------------------------------------------
 Leave Link  602 at Wed Sep 18 11:50:42 2019, MaxMem=  1342177280 cpu:             172.4 elap:               3.7

 Test job not archived.
 1\1\GINC-C484-042\SP\RB3LYP\SVP\C54H83Ca1N15O23\PENGZHI\18-Sep-2019\0\
 \#b3lyp/svp scf=(tight,noincore) Test #IOP(5/87=12) Density=Current Po
 p=(MK,readradii) iop(6/33=2) iop(6/42=6)\\Ng-295_loop3_32.0\\0,1\C,0,5
 .995,75.995,64.96\C,0,4.665,76.105,64.23\O,0,3.945,77.075,64.02\H,0,6.
 713,76.681,64.511\H,0,5.856,76.252,66.01\H,0,6.37,74.975,64.881\N,0,4.
 275,74.995,63.59\C,0,3.105,74.785,62.77\C,0,2.165,73.675,63.24\O,0,2.5
 25,72.675,63.84\C,0,3.575,74.585,61.33\C,0,2.565,74.665,60.2\O,0,2.915
 ,75.245,59.16\O,0,1.375,74.325,60.39\H,0,4.935,74.235,63.69\H,0,2.485,
 75.675,62.69\H,0,4.055,73.615,61.22\H,0,4.345,75.335,61.14\N,0,0.865,7
 3.865,63.\C,0,-0.125,72.875,63.39\C,0,-0.445,71.845,62.31\O,0,-1.205,7
 0.905,62.55\C,0,-1.395,73.615,63.81\C,0,-1.345,74.105,65.25\C,0,-0.125
 ,74.835,65.8\C,0,-0.095,75.405,67.21\N,0,0.315,74.435,68.23\H,0,0.575,
 74.645,62.43\H,0,0.235,72.255,64.21\H,0,-2.175,72.845,63.76\H,0,-1.545
 ,74.495,63.19\H,0,-1.475,73.165,65.79\H,0,-2.225,74.725,65.45\H,0,0.04
 5,75.705,65.17\H,0,0.715,74.155,65.65\H,0,-1.025,75.875,67.55\H,0,0.69
 5,76.145,67.13\H,0,0.155,74.945,69.08\H,0,-0.255,73.615,68.12\H,0,1.30
 5,74.255,68.14\N,0,0.005,71.985,61.07\C,0,0.215,70.835,60.22\C,0,1.665
 ,70.445,59.98\O,0,1.835,69.395,59.36\C,0,-0.565,71.085,58.93\C,0,-0.04
 5,72.245,58.09\O,0,-0.745,73.005,57.38\O,0,1.185,72.435,58.01\H,0,0.32
 5,72.895,60.76\H,0,-0.255,69.965,60.69\H,0,-1.605,71.215,59.24\H,0,-0.
 535,70.155,58.36\N,0,2.665,71.155,60.5\C,0,4.035,70.725,60.3\C,0,4.565
 ,70.765,58.88\O,0,5.645,70.215,58.63\H,0,2.495,72.095,60.84\H,0,4.205,
 69.705,60.65\H,0,4.605,71.375,60.97\N,0,3.845,71.405,57.96\C,0,4.155,7
 1.365,56.54\C,0,4.215,72.715,55.85\O,0,3.645,73.685,56.34\C,0,3.195,70
 .415,55.82\C,0,3.705,69.895,54.49\N,0,2.825,69.125,53.84\O,0,4.835,70.
 135,54.07\H,0,2.945,71.815,58.14\H,0,5.165,70.975,56.39\H,0,2.255,70.9
 65,55.79\H,0,3.145,69.545,56.48\H,0,2.005,68.785,54.31\H,0,3.135,68.69
 5,52.98\N,0,5.015,72.765,54.78\C,0,5.305,73.945,54.\C,0,5.635,73.685,5
 2.54\O,0,6.575,74.275,52.02\H,0,5.525,71.945,54.48\H,0,6.175,74.355,54
 .51\H,0,4.555,74.725,54.15\N,0,4.975,72.725,51.88\C,0,5.315,72.265,50.
 55\C,0,4.945,73.225,49.43\O,0,3.835,73.715,49.28\C,0,4.745,70.865,50.3
 8\C,0,4.965,70.225,49.03\C,0,3.985,70.355,48.04\C,0,6.075,69.385,48.88
 \C,0,4.065,69.595,46.87\C,0,6.205,68.635,47.7\C,0,5.215,68.805,46.71\O
 ,0,5.485,68.225,45.5\H,0,4.285,72.165,52.36\H,0,6.405,72.165,50.51\H,0
 ,3.675,70.825,50.61\H,0,5.185,70.255,51.17\H,0,3.155,71.045,48.05\H,0,
 6.875,69.395,49.6\H,0,3.355,69.625,46.06\H,0,7.125,68.155,47.4\H,0,6.3
 25,67.755,45.52\N,0,5.955,73.605,48.64\C,0,6.065,74.515,47.51\C,0,5.02
 5,74.485,46.4\O,0,3.815,74.385,46.59\C,0,6.515,75.925,47.88\C,0,7.805,
 76.055,48.7\C,0,5.425,76.645,48.66\C,0,9.065,75.365,48.19\H,0,6.815,73
 .085,48.76\H,0,7.005,74.095,47.16\H,0,6.745,76.485,46.97\H,0,7.565,75.
 665,49.69\H,0,7.895,77.135,48.78\H,0,5.285,76.185,49.64\H,0,5.635,77.7
 15,48.66\H,0,4.515,76.565,48.07\H,0,9.855,75.585,48.91\H,0,8.845,74.29
 5,48.16\H,0,9.295,75.615,47.15\N,0,5.445,74.785,45.17\C,0,4.625,75.255
 ,44.07\C,0,5.025,74.925,42.65\O,0,4.185,74.715,41.78\C,0,4.465,76.775,
 44.06\O,0,5.715,77.425,43.98\H,0,6.445,74.685,45.09\H,0,3.585,74.935,4
 4.21\H,0,3.935,76.935,45.\H,0,3.905,77.145,43.2\H,0,5.505,78.355,43.88
 \N,0,6.345,74.835,42.44\C,0,7.035,74.495,41.21\C,0,6.545,75.125,39.92\
 O,0,6.285,74.505,38.89\C,0,7.065,72.975,41.06\H,0,6.905,75.125,43.23\H
 ,0,8.075,74.815,41.29\H,0,6.055,72.615,41.28\H,0,7.395,72.745,40.04\H,
 0,7.775,72.655,41.82\N,0,6.565,76.455,39.83\C,0,7.135,77.455,40.71\C,0
 ,8.345,78.195,40.15\O,0,8.545,78.245,38.93\C,0,6.015,78.475,40.9\H,0,6
 .025,76.725,39.02\H,0,7.265,77.025,41.7\H,0,5.095,78.155,41.38\H,0,6.2
 65,79.375,41.47\H,0,5.795,78.985,39.96\N,0,9.165,78.855,40.96\C,0,9.32
 5,78.825,42.4\C,0,10.445,77.925,42.91\O,0,10.065,77.045,43.68\C,0,9.56
 5,80.215,42.98\C,0,9.195,80.325,44.46\C,0,9.345,81.745,45.\O,0,8.305,8
 2.415,45.11\O,0,10.475,82.165,45.32\H,0,9.875,79.385,40.47\H,0,8.395,7
 8.395,42.77\H,0,8.925,80.925,42.45\H,0,10.605,80.475,42.77\H,0,9.845,7
 9.665,45.04\H,0,8.175,79.985,44.63\N,0,11.675,77.975,42.4\C,0,12.765,7
 7.195,42.95\H,0,13.605,77.853,43.173\H,0,12.435,76.704,43.866\H,0,13.0
 76,76.442,42.225\H,0,11.965,78.785,41.87\Ca,0,1.28,74.93,57.07\O,0,0.1
 4,76.07,59.\H,0,0.38,75.51,59.74\H,0,-0.39,76.76,59.39\\Version=ES64L-
 G16RevA.03\State=1-A\HF=-5333.348972\RMSD=1.906e-09\Dipole=-8.8988342,
 -4.8042425,28.8025451\Quadrupole=-39.5076035,-198.2901732,237.7977768,
 -107.1306059,-113.6536379,168.5570655\PG=C01 [X(C54H83Ca1N15O23)]\\@


 THE REASON MAN'S BEST FRIEND IS A DOG IS BECAUSE
 HE WAGS HIS TAIL INSTEAD OF HIS TONGUE.
 Job cpu time:       1 days 11 hours 47 minutes  6.4 seconds.
 Elapsed time:       0 days  0 hours 45 minutes 20.6 seconds.
 File lengths (MBytes):  RWF=   1517 Int=      0 D2E=      0 Chk=    171 Scr=      1
 Normal termination of Gaussian 16 at Wed Sep 18 11:50:44 2019.
