 Entering Gaussian System, Link 0=g16
 Initial command:
 /home1/apps/gaussian/16rA.03/g16/l1.exe "/scratch/01990/pengzhi/4345063/Gau-290013.inp" -scrdir="/scratch/01990/pengzhi/4345063/"
 Entering Link 1 = /home1/apps/gaussian/16rA.03/g16/l1.exe PID=    290014.
  
 Copyright (c) 1988,1990,1992,1993,1995,1998,2003,2009,2016,
            Gaussian, Inc.  All Rights Reserved.
  
 This is part of the Gaussian(R) 16 program.  It is based on
 the Gaussian(R) 09 system (copyright 2009, Gaussian, Inc.),
 the Gaussian(R) 03 system (copyright 2003, Gaussian, Inc.),
 the Gaussian(R) 98 system (copyright 1998, Gaussian, Inc.),
 the Gaussian(R) 94 system (copyright 1995, Gaussian, Inc.),
 the Gaussian 92(TM) system (copyright 1992, Gaussian, Inc.),
 the Gaussian 90(TM) system (copyright 1990, Gaussian, Inc.),
 the Gaussian 88(TM) system (copyright 1988, Gaussian, Inc.),
 the Gaussian 86(TM) system (copyright 1986, Carnegie Mellon
 University), and the Gaussian 82(TM) system (copyright 1983,
 Carnegie Mellon University). Gaussian is a federally registered
 trademark of Gaussian, Inc.
  
 This software contains proprietary and confidential information,
 including trade secrets, belonging to Gaussian, Inc.
  
 This software is provided under written license and may be
 used, copied, transmitted, or stored only in accord with that
 written license.
  
 The following legend is applicable only to US Government
 contracts under FAR:
  
                    RESTRICTED RIGHTS LEGEND
  
 Use, reproduction and disclosure by the US Government is
 subject to restrictions as set forth in subparagraphs (a)
 and (c) of the Commercial Computer Software - Restricted
 Rights clause in FAR 52.227-19.
  
 Gaussian, Inc.
 340 Quinnipiac St., Bldg. 40, Wallingford CT 06492
  
  
 ---------------------------------------------------------------
 Warning -- This program may not be used in any manner that
 competes with the business of Gaussian, Inc. or will provide
 assistance to any competitor of Gaussian, Inc.  The licensee
 of this program is prohibited from giving any competitor of
 Gaussian, Inc. access to this program.  By using this program,
 the user acknowledges that Gaussian, Inc. is engaged in the
 business of creating and licensing software in the field of
 computational chemistry and represents and warrants to the
 licensee that it is not a competitor of Gaussian, Inc. and that
 it will not use this program in any manner prohibited above.
 ---------------------------------------------------------------
  

 Cite this work as:
 Gaussian 16, Revision A.03,
 M. J. Frisch, G. W. Trucks, H. B. Schlegel, G. E. Scuseria, 
 M. A. Robb, J. R. Cheeseman, G. Scalmani, V. Barone, 
 G. A. Petersson, H. Nakatsuji, X. Li, M. Caricato, A. V. Marenich, 
 J. Bloino, B. G. Janesko, R. Gomperts, B. Mennucci, H. P. Hratchian, 
 J. V. Ortiz, A. F. Izmaylov, J. L. Sonnenberg, D. Williams-Young, 
 F. Ding, F. Lipparini, F. Egidi, J. Goings, B. Peng, A. Petrone, 
 T. Henderson, D. Ranasinghe, V. G. Zakrzewski, J. Gao, N. Rega, 
 G. Zheng, W. Liang, M. Hada, M. Ehara, K. Toyota, R. Fukuda, 
 J. Hasegawa, M. Ishida, T. Nakajima, Y. Honda, O. Kitao, H. Nakai, 
 T. Vreven, K. Throssell, J. A. Montgomery, Jr., J. E. Peralta, 
 F. Ogliaro, M. J. Bearpark, J. J. Heyd, E. N. Brothers, K. N. Kudin, 
 V. N. Staroverov, T. A. Keith, R. Kobayashi, J. Normand, 
 K. Raghavachari, A. P. Rendell, J. C. Burant, S. S. Iyengar, 
 J. Tomasi, M. Cossi, J. M. Millam, M. Klene, C. Adamo, R. Cammi, 
 J. W. Ochterski, R. L. Martin, K. Morokuma, O. Farkas, 
 J. B. Foresman, and D. J. Fox, Gaussian, Inc., Wallingford CT, 2016.
 
 ******************************************
 Gaussian 16:  ES64L-G16RevA.03 25-Dec-2016
                17-Sep-2019 
 ******************************************
 %chk=Ng-293_loop3_45.0.chk
 %nprocshared=48
 Will use up to   48 processors via shared memory.
 %mem=10GB
 %nosave
 ----------------------------------------------------------------------
 #b3lyp/svp scf=(tight,noincore) Test #IOP(5/87=12) Density=Current Pop
 =(MK,readradii) iop(6/33=2) iop(6/42=6)
 ----------------------------------------------------------------------
 1/30=1,38=1,172=1/1;
 2/12=2,17=6,18=5,40=1/2;
 3/5=18,7=101,11=2,25=1,30=1,74=-5/1,2,3;
 4//1;
 5/5=4,32=2,38=5,87=12/2;
 6/7=2,8=2,9=2,10=2,15=8,20=101,22=-1,28=1,33=2,42=6/1,2;
 99/5=1,9=1/99;
 -----------------
 Ng-293_loop3_45.0
 -----------------
 Symbolic Z-matrix:
 Charge =  0 Multiplicity = 1
 C                     38.65     77.28     69.36 
 C                     39.35     77.21     68.02 
 O                     40.4      77.82     67.84 
 H                     37.643    76.873    69.265 
 H                     39.209    76.699    70.093 
 H                     38.592    78.318    69.687 
 N                     38.76     76.5      67.05 
 C                     39.14     76.26     65.67 
 C                     38.78     74.84     65.25 
 O                     38.1      74.19     66.04 
 C                     38.41     77.38     64.93 
 C                     38.66     77.54     63.44 
 O                     39.78     77.17     63.03 
 O                     37.71     77.99     62.77 
 H                     37.88     76.07     67.29 
 H                     40.22     76.35     65.52 
 H                     38.8      78.26     65.44 
 H                     37.35     77.14     65.06 
 N                     39.21     74.49     64.03 
 C                     38.93     73.27     63.3 
 C                     37.47     72.98     62.95 
 O                     36.59     73.72     63.38 
 C                     39.66     72.09     63.94 
 C                     41.18     72.16     63.99 
 C                     41.87     71.94     62.65 
 C                     43.38     71.68     62.69 
 N                     44.15     72.76     63.32 
 H                     39.8      75.2      63.62 
 H                     39.43     73.34     62.34 
 H                     39.35     71.13     63.54 
 H                     39.32     71.96     64.97 
 H                     41.39     71.3      64.63 
 H                     41.48     73.14     64.36 
 H                     41.68     72.83     62.05 
 H                     41.46     71.06     62.16 
 H                     43.59     71.53     61.63 
 H                     43.56     70.73     63.19 
 H                     44.02     73.61     62.79 
 H                     43.94     72.91     64.29 
 H                     45.14     72.52     63.32 
 N                     37.27     71.97     62.11 
 C                     35.93     71.75     61.59 
 C                     35.01     71.24     62.68 
 O                     35.27     70.3      63.43 
 C                     35.98     70.76     60.43 
 C                     36.78     69.47     60.59 
 O                     37.75     69.36     61.37 
 O                     36.44     68.6      59.77 
 H                     38.03     71.34     61.89 
 H                     35.6      72.7      61.16 
 H                     36.34     71.31     59.56 
 H                     34.92     70.6      60.22 
 N                     33.87     71.92     62.8 
 C                     32.78     71.38     63.6 
 C                     31.81     70.54     62.78 
 O                     30.74     70.2      63.28 
 H                     33.82     72.77     62.26 
 H                     32.35     72.29     64.02 
 H                     33.15     70.71     64.37 
 N                     32.19     70.28     61.52 
 C                     31.4      69.43     60.66 
 C                     31.09     68.13     61.4 
 O                     32.03     67.56     61.94 
 C                     32.21     69.23     59.38 
 C                     32.18     70.45     58.47 
 N                     30.97     70.88     58.09 
 O                     33.16     71.       57.98 
 H                     33.01     70.78     61.22 
 H                     30.39     69.81     60.51 
 H                     31.74     68.38     58.9 
 H                     33.24     68.98     59.63 
 H                     30.16     70.35     58.34 
 H                     30.9      71.78     57.63 
 N                     29.84     67.67     61.37 
 C                     29.53     66.27     61.6 
 C                     29.56     65.92     63.08 
 O                     29.56     66.82     63.92 
 H                     29.11     68.22     60.96 
 H                     30.26     65.64     61.08 
 H                     28.55     65.95     61.25 
 N                     29.52     64.64     63.46 
 C                     29.22     64.2      64.8 
 C                     30.29     64.49     65.84 
 O                     30.11     64.46     67.06 
 C                     27.81     64.68     65.13 
 C                     27.11     64.       66.28 
 C                     27.17     64.57     67.56 
 C                     26.36     62.85     66.03 
 C                     26.57     63.93     68.65 
 C                     25.76     62.19     67.12 
 C                     25.92     62.7      68.42 
 O                     25.5      61.98     69.51 
 H                     29.54     63.91     62.76 
 H                     29.14     63.11     64.7 
 H                     27.18     64.52     64.25 
 H                     27.7      65.76     65.27 
 H                     27.63     65.54     67.63 
 H                     26.19     62.53     65.01 
 H                     26.82     64.25     69.65 
 H                     25.21     61.29     66.9 
 H                     24.79     61.36     69.34 
 N                     31.49     64.72     65.3 
 C                     32.83     64.56     65.8 
 C                     33.34     63.14     66.02 
 O                     34.54     62.9      65.86 
 C                     32.99     65.41     67.06 
 C                     32.39     66.81     67.03 
 C                     34.45     65.46     67.5 
 C                     33.07     67.73     66.02 
 H                     31.39     64.7      64.29 
 H                     33.51     64.96     65.04 
 H                     32.4      65.01     67.88 
 H                     32.42     67.28     68.01 
 H                     31.31     66.78     66.84 
 H                     34.84     64.47     67.74 
 H                     35.15     66.       66.86 
 H                     34.51     65.82     68.52 
 H                     33.04     67.21     65.06 
 H                     32.53     68.67     66.1 
 H                     34.1      67.9      66.34 
 N                     32.58     62.15     66.49 
 C                     33.07     60.81     66.67 
 C                     34.29     60.56     67.55 
 O                     34.9      59.51     67.34 
 C                     31.99     59.89     67.23 
 O                     31.65     60.29     68.54 
 H                     31.57     62.19     66.43 
 H                     33.36     60.5      65.66 
 H                     32.26     58.84     67.31 
 H                     31.13     59.99     66.57 
 H                     31.21     59.56     68.99 
 N                     34.72     61.5      68.39 
 C                     35.94     61.58     69.17 
 C                     37.22     61.6      68.34 
 O                     38.31     61.2      68.76 
 C                     35.89     60.61     70.35 
 H                     34.16     62.35     68.38 
 H                     35.87     62.56     69.64 
 H                     36.67     60.95     71.03 
 H                     34.86     60.79     70.65 
 H                     36.07     59.57     70.06 
 N                     37.07     62.14     67.13 
 C                     38.11     62.21     66.13 
 C                     38.97     63.46     66.32 
 O                     38.42     64.52     66.59 
 C                     37.5      62.       64.74 
 H                     36.14     62.41     66.84 
 H                     38.77     61.36     66.31 
 H                     36.97     62.85     64.32 
 H                     38.33     61.82     64.06 
 H                     36.79     61.19     64.62 
 N                     40.29     63.37     66.11 
 C                     41.22     64.47     66.01 
 C                     41.52     65.2      67.31 
 O                     42.17     66.24     67.22 
 C                     40.92     65.39     64.83 
 C                     40.88     64.68     63.48 
 C                     40.33     65.44     62.29 
 O                     40.45     66.68     62.13 
 O                     39.6      64.93     61.41 
 H                     40.72     62.47     65.98 
 H                     42.17     64.       65.78 
 H                     41.66     66.19     64.85 
 H                     39.9      65.74     64.98 
 H                     40.16     63.86     63.52 
 H                     41.9      64.29     63.37 
 N                     41.08     64.71     68.48 
 C                     41.09     65.42     69.74 
 H                     40.721    66.434    69.588 
 H                     40.448    64.904    70.454 
 H                     42.108    65.458    70.128 
 H                     40.67     63.8      68.37 
 Ca                    38.83     67.19     60.22 
 O                     40.65     69.05     59.81 
 H                     40.41     69.97     59.89 
 H                     41.61     69.04     59.83 
 
 Stoichiometry    C54H83CaN15O23
 Framework group  C1[X(C54H83CaN15O23)]
 Deg. of freedom   522
 Full point group                 C1      NOp   1
 Largest Abelian subgroup         C1      NOp   1
 Largest concise Abelian subgroup C1      NOp   1
                         Standard orientation:                         
 ---------------------------------------------------------------------
 Center     Atomic      Atomic             Coordinates (Angstroms)
 Number     Number       Type             X           Y           Z
 ---------------------------------------------------------------------
      1          6           0       -8.336974   -0.552870    7.442987
      2          6           0       -8.987213   -0.440424    6.080987
      3          8           0      -10.119554    0.021559    5.974335
      4          1           0       -7.447940   -1.179774    7.369957
      5          1           0       -8.054107    0.439205    7.793849
      6          1           0       -9.039170   -1.000314    8.146160
      7          7           0       -8.298953   -0.897268    5.027093
      8          6           0       -8.637176   -0.967238    3.617444
      9          6           0       -7.411847   -0.692777    2.753939
     10          8           0       -6.333155   -0.625632    3.337818
     11          6           0       -9.240286   -2.365834    3.494609
     12          6           0       -9.837216   -2.777160    2.159436
     13          8           0      -10.298391   -1.852724    1.457912
     14          8           0       -9.774121   -3.990658    1.881330
     15          1           0       -7.393704   -1.293314    5.228515
     16          1           0       -9.375999   -0.211521    3.334544
     17          1           0      -10.043439   -2.315277    4.228768
     18          1           0       -8.400884   -3.038025    3.698722
     19          7           0       -7.659001   -0.611526    1.439362
     20          6           0       -6.704074   -0.483666    0.357019
     21          6           0       -5.694949   -1.617645    0.172742
     22          8           0       -5.658670   -2.529771    0.993479
     23          6           0       -6.076100    0.909340    0.366054
     24          6           0       -7.014842    2.093940    0.183609
     25          6           0       -7.542469    2.273296   -1.233974
     26          6           0       -8.220714    3.611032   -1.549799
     27          7           0       -9.377103    3.904892   -0.693872
     28          1           0       -8.648443   -0.644795    1.238873
     29          1           0       -7.262532   -0.464214   -0.572630
     30          1           0       -5.233803    1.001002   -0.312057
     31          1           0       -5.549905    1.071176    1.309626
     32          1           0       -6.329629    2.916213    0.401898
     33          1           0       -7.873360    1.973742    0.843760
     34          1           0       -8.254075    1.466079   -1.407802
     35          1           0       -6.723173    2.214030   -1.946604
     36          1           0       -8.459012    3.475415   -2.605745
     37          1           0       -7.478354    4.404753   -1.488096
     38          1           0      -10.077643    3.189925   -0.829392
     39          1           0       -9.158448    4.008545    0.280266
     40          1           0       -9.773395    4.807320   -0.951318
     41          7           0       -4.974557   -1.570344   -0.942828
     42          6           0       -4.127678   -2.704737   -1.275011
     43          6           0       -2.951107   -2.790625   -0.324798
     44          8           0       -2.209081   -1.849852   -0.045435
     45          6           0       -3.639922   -2.583404   -2.715696
     46          6           0       -3.072336   -1.250663   -3.196683
     47          8           0       -3.387774   -0.151868   -2.692156
     48          8           0       -2.374069   -1.376774   -4.217182
     49          1           0       -4.979928   -0.733375   -1.510591
     50          1           0       -4.766420   -3.592193   -1.247960
     51          1           0       -4.469800   -2.882085   -3.356861
     52          1           0       -2.936977   -3.416250   -2.790096
     53          7           0       -2.782672   -3.988486    0.234806
     54          6           0       -1.545929   -4.296813    0.938442
     55          6           0       -0.499977   -4.935983    0.034924
     56          8           0        0.503882   -5.434797    0.538861
     57          1           0       -3.532509   -4.643756    0.076796
     58          1           0       -1.909140   -4.941498    1.739602
     59          1           0       -1.074423   -3.396635    1.320622
     60          7           0       -0.796447   -4.953359   -1.273282
     61          6           0        0.142549   -5.459435   -2.247127
     62          6           0        1.498221   -4.793315   -2.018792
     63          8           0        1.506021   -3.574041   -1.902984
     64          6           0       -0.458218   -5.173869   -3.622639
     65          6           0       -1.588502   -6.129278   -3.979084
     66          7           0       -1.293428   -7.435369   -3.957670
     67          8           0       -2.700586   -5.802811   -4.378694
     68          1           0       -1.733926   -4.660974   -1.492472
     69          1           0        0.408940   -6.500776   -2.069237
     70          1           0        0.375252   -5.291985   -4.304677
     71          1           0       -0.815723   -4.146041   -3.663359
     72          1           0       -0.349406   -7.722642   -3.797055
     73          1           0       -2.052934   -8.102976   -4.020526
     74          7           0        2.585795   -5.562821   -2.012266
     75          6           0        3.907975   -5.027953   -2.285679
     76          6           0        4.485669   -4.304036   -1.079025
     77          8           0        3.968661   -4.454599    0.028059
     78          1           0        2.498253   -6.559917   -2.052719
     79          1           0        3.854798   -4.321250   -3.121109
     80          1           0        4.657755   -5.767468   -2.561811
     81          7           0        5.588195   -3.562277   -1.215513
     82          6           0        6.399717   -3.104100   -0.115192
     83          6           0        5.770869   -2.033410    0.761604
     84          8           0        6.166485   -1.727471    1.889252
     85          6           0        6.928627   -4.341095    0.604181
     86          6           0        8.121013   -4.146944    1.507188
     87          6           0        7.921488   -3.929207    2.878202
     88          6           0        9.403028   -4.255120    0.966601
     89          6           0        9.010759   -3.697253    3.725189
     90          6           0       10.507862   -4.013190    1.805953
     91          6           0       10.300498   -3.679361    3.155493
     92          8           0       11.346012   -3.265192    3.941791
     93          1           0        5.991693   -3.430971   -2.133799
     94          1           0        7.273193   -2.659207   -0.608761
     95          1           0        7.232103   -5.071924   -0.151260
     96          1           0        6.183561   -4.917014    1.162118
     97          1           0        6.911047   -4.024463    3.235043
     98          1           0        9.529542   -4.592178   -0.054225
     99          1           0        8.832765   -3.304048    4.714435
    100          1           0       11.484099   -4.077278    1.354563
    101          1           0       12.209509   -3.577678    3.669532
    102          7           0        4.767315   -1.391155    0.157543
    103          6           0        4.211768   -0.074332    0.326494
    104          6           0        5.064401    1.115275   -0.101000
    105          8           0        4.509513    2.126910   -0.539059
    106          6           0        3.731102    0.075709    1.769459
    107          6           0        2.988504   -1.107600    2.377099
    108          6           0        2.928376    1.361357    1.943931
    109          6           0        1.651696   -1.387547    1.696311
    110          1           0        4.621340   -1.818949   -0.751403
    111          1           0        3.334161   -0.006130   -0.325545
    112          1           0        4.568800    0.099973    2.460960
    113          1           0        2.818988   -0.970251    3.442275
    114          1           0        3.606434   -2.013996    2.373852
    115          1           0        3.521441    2.248721    1.718855
    116          1           0        1.956239    1.418163    1.451059
    117          1           0        2.835519    1.591495    2.998451
    118          1           0        1.864484   -1.492854    0.630228
    119          1           0        1.255719   -2.254917    2.218298
    120          1           0        0.982644   -0.544340    1.879540
    121          7           0        6.384940    1.175102    0.075623
    122          6           0        7.178370    2.294789   -0.354342
    123          6           0        6.846463    3.696585    0.145764
    124          8           0        7.258439    4.627994   -0.548104
    125          6           0        8.652541    2.098665   -0.015588
    126          8           0        8.827425    2.095596    1.384807
    127          1           0        6.935546    0.335307    0.205537
    128          1           0        7.028374    2.319984   -1.439315
    129          1           0        9.328047    2.864255   -0.388901
    130          1           0        8.937167    1.134445   -0.433282
    131          1           0        9.752820    2.271640    1.588895
    132          7           0        6.045086    3.866042    1.196088
    133          6           0        5.434565    5.067728    1.731264
    134          6           0        4.484016    5.774980    0.770040
    135          8           0        4.245000    6.985438    0.816537
    136          6           0        6.476353    5.931086    2.441962
    137          1           0        5.711280    2.995784    1.605263
    138          1           0        4.815779    4.690513    2.544290
    139          1           0        5.900820    6.619700    3.059191
    140          1           0        7.008366    5.133506    2.955897
    141          1           0        7.116330    6.489125    1.751222
    142          7           0        3.888074    4.957312   -0.098564
    143          6           0        3.002860    5.389498   -1.155026
    144          6           0        1.565151    5.513456   -0.649232
    145          8           0        1.123152    4.645806    0.092941
    146          6           0        3.222157    4.518291   -2.396480
    147          1           0        4.162392    3.984365   -0.103320
    148          1           0        3.314875    6.399195   -1.426427
    149          1           0        2.781200    3.526138   -2.365009
    150          1           0        2.724998    5.022786   -3.222323
    151          1           0        4.244416    4.318329   -2.695817
    152          7           0        0.811955    6.527393   -1.095582
    153          6           0       -0.613548    6.678516   -0.922373
    154          6           0       -1.074557    7.013304    0.487694
    155          8           0       -2.286286    6.976528    0.693992
    156          6           0       -1.410300    5.563377   -1.593529
    157          6           0       -1.128891    5.406419   -3.084962
    158          6           0       -1.656087    4.169874   -3.784405
    159          8           0       -2.726588    3.589450   -3.476612
    160          8           0       -1.021364    3.534551   -4.656696
    161          1           0        1.230677    7.270086   -1.629323
    162          1           0       -0.857504    7.582349   -1.469977
    163          1           0       -2.464271    5.756529   -1.393932
    164          1           0       -1.049201    4.635639   -1.152723
    165          1           0       -0.058042    5.260363   -3.241005
    166          1           0       -1.450135    6.368313   -3.504678
    167          7           0       -0.178779    7.325355    1.437855
    168          6           0       -0.462163    7.426630    2.852506
    169          1           0       -1.067065    6.575152    3.163214
    170          1           0        0.473291    7.429992    3.412087
    171          1           0       -1.006590    8.350337    3.049169
    172          1           0        0.746796    7.416011    1.059183
    173         20           0       -2.586223    1.375914   -4.746711
    174          8           0       -5.194933    1.741533   -4.714261
    175          1           0       -5.752028    1.121327   -4.250161
    176          1           0       -5.748166    2.512628   -4.860707
 ---------------------------------------------------------------------
 Rotational constants (GHZ):           0.0170601           0.0095658           0.0078203
 Standard basis: SVP (5D, 7F)
 There are  1809 symmetry adapted cartesian basis functions of A   symmetry.
 There are  1717 symmetry adapted basis functions of A   symmetry.
  1717 basis functions,  2922 primitive gaussians,  1809 cartesian basis functions
   358 alpha electrons      358 beta electrons
       nuclear repulsion energy     18893.2609500575 Hartrees.
 NAtoms=  176 NActive=  176 NUniq=  176 SFac= 1.00D+00 NAtFMM=   60 NAOKFM=T Big=T
 Integral buffers will be    131072 words long.
 Raffenetti 2 integral format.
 Two-electron integral symmetry is turned on.
 One-electron integrals computed using PRISM.
 NBasis=  1717 RedAO= T EigKep=  2.93D-04  NBF=  1717
 NBsUse=  1717 1.00D-06 EigRej= -1.00D+00 NBFU=  1717
 ExpMin= 1.98D-02 ExpMax= 3.51D+04 ExpMxC= 5.28D+03 IAcc=3 IRadAn=         5 AccDes= 0.00D+00
 Harris functional with IExCor=  402 and IRadAn=       5 diagonalized for initial guess.
 HarFok:  IExCor=  402 AccDes= 0.00D+00 IRadAn=         5 IDoV= 1 UseB2=F ITyADJ=14
 ICtDFT=  3500011 ScaDFX=  1.000000  1.000000  1.000000  1.000000
 FoFCou: FMM=F IPFlag=           0 FMFlag=      100000 FMFlg1=        2001
         NFxFlg=           0 DoJE=T BraDBF=F KetDBF=T FulRan=T
         wScrn=  0.000000 ICntrl=       500 IOpCl=  0 I1Cent=   200000004 NGrid=           0
         NMat0=    1 NMatS0=      1 NMatT0=    0 NMatD0=    1 NMtDS0=    0 NMtDT0=    0
 Petite list used in FoFCou.
 Requested convergence on RMS density matrix=1.00D-08 within 128 cycles.
 Requested convergence on MAX density matrix=1.00D-06.
 Requested convergence on             energy=1.00D-06.
 No special actions if energy rises.
 EnCoef did     2 forward-backward iterations
 EnCoef did     3 forward-backward iterations
 EnCoef did     3 forward-backward iterations
 Rare condition: small coef for last iteration:  0.000D+00
 Restarting incremental Fock formation.
 SCF Done:  E(RB3LYP) =  -5333.36827418     A.U. after   28 cycles
            NFock= 28  Conv=0.55D-09     -V/T= 2.0081
 SCF density gives NOpUse=  1 NOpAll=  1.
 Hyperfine terms turned off by default for NAtoms > 100.

 **********************************************************************

            Population analysis using the SCF density.

 **********************************************************************

 Orbital symmetries:
 BldTbl:  Degeneracy threshold= 1.00D-02
       Occupied  (A) (A) (A) (A) (A) (A) (A) (A) (A) (A) (A) (A)
                 (A) (A) (A) (A) (A) (A) (A) (A) (A) (A) (A) (A)
                 (A) (A) (A) (A) (A) (A) (A) (A) (A) (A) (A) (A)
                 (A) (A) (A) (A) (A) (A) (A) (A) (A) (A) (A) (A)
                 (A) (A) (A) (A) (A) (A) (A) (A) (A) (A) (A) (A)
                 (A) (A) (A) (A) (A) (A) (A) (A) (A) (A) (A) (A)
                 (A) (A) (A) (A) (A) (A) (A) (A) (A) (A) (A) (A)
                 (A) (A) (A) (A) (A) (A) (A) (A) (A) (A) (A) (A)
                 (A) (A) (A) (A) (A) (A) (A) (A) (A) (A) (A) (A)
                 (A) (A) (A) (A) (A) (A) (A) (A) (A) (A) (A) (A)
                 (A) (A) (A) (A) (A) (A) (A) (A) (A) (A) (A) (A)
                 (A) (A) (A) (A) (A) (A) (A) (A) (A) (A) (A) (A)
                 (A) (A) (A) (A) (A) (A) (A) (A) (A) (A) (A) (A)
                 (A) (A) (A) (A) (A) (A) (A) (A) (A) (A) (A) (A)
                 (A) (A) (A) (A) (A) (A) (A) (A) (A) (A) (A) (A)
                 (A) (A) (A) (A) (A) (A) (A) (A) (A) (A) (A) (A)
                 (A) (A) (A) (A) (A) (A) (A) (A) (A) (A) (A) (A)
                 (A) (A) (A) (A) (A) (A) (A) (A) (A) (A) (A) (A)
                 (A) (A) (A) (A) (A) (A) (A) (A) (A) (A) (A) (A)
                 (A) (A) (A) (A) (A) (A) (A) (A) (A) (A) (A) (A)
                 (A) (A) (A) (A) (A) (A) (A) (A) (A) (A) (A) (A)
                 (A) (A) (A) (A) (A) (A) (A) (A) (A) (A) (A) (A)
                 (A) (A) (A) (A) (A) (A) (A) (A) (A) (A) (A) (A)
                 (A) (A) (A) (A) (A) (A) (A) (A) (A) (A) (A) (A)
                 (A) (A) (A) (A) (A) (A) (A) (A) (A) (A) (A) (A)
                 (A) (A) (A) (A) (A) (A) (A) (A) (A) (A) (A) (A)
                 (A) (A) (A) (A) (A) (A) (A) (A) (A) (A) (A) (A)
                 (A) (A) (A) (A) (A) (A) (A) (A) (A) (A) (A) (A)
                 (A) (A) (A) (A) (A) (A) (A) (A) (A) (A) (A) (A)
                 (A) (A) (A) (A) (A) (A) (A) (A) (A) (A)
       Virtual   (A) (A) (A) (A) (A) (A) (A) (A) (A) (A) (A) (A)
                 (A) (A) (A) (A) (A) (A) (A) (A) (A) (A) (A) (A)
                 (A) (A) (A) (A) (A) (A) (A) (A) (A) (A) (A) (A)
                 (A) (A) (A) (A) (A) (A) (A) (A) (A) (A) (A) (A)
                 (A) (A) (A) (A) (A) (A) (A) (A) (A) (A) (A) (A)
                 (A) (A) (A) (A) (A) (A) (A) (A) (A) (A) (A) (A)
                 (A) (A) (A) (A) (A) (A) (A) (A) (A) (A) (A) (A)
                 (A) (A) (A) (A) (A) (A) (A) (A) (A) (A) (A) (A)
                 (A) (A) (A) (A) (A) (A) (A) (A) (A) (A) (A) (A)
                 (A) (A) (A) (A) (A) (A) (A) (A) (A) (A) (A) (A)
                 (A) (A) (A) (A) (A) (A) (A) (A) (A) (A) (A) (A)
                 (A) (A) (A) (A) (A) (A) (A) (A) (A) (A) (A) (A)
                 (A) (A) (A) (A) (A) (A) (A) (A) (A) (A) (A) (A)
                 (A) (A) (A) (A) (A) (A) (A) (A) (A) (A) (A) (A)
                 (A) (A) (A) (A) (A) (A) (A) (A) (A) (A) (A) (A)
                 (A) (A) (A) (A) (A) (A) (A) (A) (A) (A) (A) (A)
                 (A) (A) (A) (A) (A) (A) (A) (A) (A) (A) (A) (A)
                 (A) (A) (A) (A) (A) (A) (A) (A) (A) (A) (A) (A)
                 (A) (A) (A) (A) (A) (A) (A) (A) (A) (A) (A) (A)
                 (A) (A) (A) (A) (A) (A) (A) (A) (A) (A) (A) (A)
                 (A) (A) (A) (A) (A) (A) (A) (A) (A) (A) (A) (A)
                 (A) (A) (A) (A) (A) (A) (A) (A) (A) (A) (A) (A)
                 (A) (A) (A) (A) (A) (A) (A) (A) (A) (A) (A) (A)
                 (A) (A) (A) (A) (A) (A) (A) (A) (A) (A) (A) (A)
                 (A) (A) (A) (A) (A) (A) (A) (A) (A) (A) (A) (A)
                 (A) (A) (A) (A) (A) (A) (A) (A) (A) (A) (A) (A)
                 (A) (A) (A) (A) (A) (A) (A) (A) (A) (A) (A) (A)
                 (A) (A) (A) (A) (A) (A) (A) (A) (A) (A) (A) (A)
                 (A) (A) (A) (A) (A) (A) (A) (A) (A) (A) (A) (A)
                 (A) (A) (A) (A) (A) (A) (A) (A) (A) (A) (A) (A)
                 (A) (A) (A) (A) (A) (A) (A) (A) (A) (A) (A) (A)
                 (A) (A) (A) (A) (A) (A) (A) (A) (A) (A) (A) (A)
                 (A) (A) (A) (A) (A) (A) (A) (A) (A) (A) (A) (A)
                 (A) (A) (A) (A) (A) (A) (A) (A) (A) (A) (A) (A)
                 (A) (A) (A) (A) (A) (A) (A) (A) (A) (A) (A) (A)
                 (A) (A) (A) (A) (A) (A) (A) (A) (A) (A) (A) (A)
                 (A) (A) (A) (A) (A) (A) (A) (A) (A) (A) (A) (A)
                 (A) (A) (A) (A) (A) (A) (A) (A) (A) (A) (A) (A)
                 (A) (A) (A) (A) (A) (A) (A) (A) (A) (A) (A) (A)
                 (A) (A) (A) (A) (A) (A) (A) (A) (A) (A) (A) (A)
                 (A) (A) (A) (A) (A) (A) (A) (A) (A) (A) (A) (A)
                 (A) (A) (A) (A) (A) (A) (A) (A) (A) (A) (A) (A)
                 (A) (A) (A) (A) (A) (A) (A) (A) (A) (A) (A) (A)
                 (A) (A) (A) (A) (A) (A) (A) (A) (A) (A) (A) (A)
                 (A) (A) (A) (A) (A) (A) (A) (A) (A) (A) (A) (A)
                 (A) (A) (A) (A) (A) (A) (A) (A) (A) (A) (A) (A)
                 (A) (A) (A) (A) (A) (A) (A) (A) (A) (A) (A) (A)
                 (A) (A) (A) (A) (A) (A) (A) (A) (A) (A) (A) (A)
                 (A) (A) (A) (A) (A) (A) (A) (A) (A) (A) (A) (A)
                 (A) (A) (A) (A) (A) (A) (A) (A) (A) (A) (A) (A)
                 (A) (A) (A) (A) (A) (A) (A) (A) (A) (A) (A) (A)
                 (A) (A) (A) (A) (A) (A) (A) (A) (A) (A) (A) (A)
                 (A) (A) (A) (A) (A) (A) (A) (A) (A) (A) (A) (A)
                 (A) (A) (A) (A) (A) (A) (A) (A) (A) (A) (A) (A)
                 (A) (A) (A) (A) (A) (A) (A) (A) (A) (A) (A) (A)
                 (A) (A) (A) (A) (A) (A) (A) (A) (A) (A) (A) (A)
                 (A) (A) (A) (A) (A) (A) (A) (A) (A) (A) (A) (A)
                 (A) (A) (A) (A) (A) (A) (A) (A) (A) (A) (A) (A)
                 (A) (A) (A) (A) (A) (A) (A) (A) (A) (A) (A) (A)
                 (A) (A) (A) (A) (A) (A) (A) (A) (A) (A) (A) (A)
                 (A) (A) (A) (A) (A) (A) (A) (A) (A) (A) (A) (A)
                 (A) (A) (A) (A) (A) (A) (A) (A) (A) (A) (A) (A)
                 (A) (A) (A) (A) (A) (A) (A) (A) (A) (A) (A) (A)
                 (A) (A) (A) (A) (A) (A) (A) (A) (A) (A) (A) (A)
                 (A) (A) (A) (A) (A) (A) (A) (A) (A) (A) (A) (A)
                 (A) (A) (A) (A) (A) (A) (A) (A) (A) (A) (A) (A)
                 (A) (A) (A) (A) (A) (A) (A) (A) (A) (A) (A) (A)
                 (A) (A) (A) (A) (A) (A) (A) (A) (A) (A) (A) (A)
                 (A) (A) (A) (A) (A) (A) (A) (A) (A) (A) (A) (A)
                 (A) (A) (A) (A) (A) (A) (A) (A) (A) (A) (A) (A)
                 (A) (A) (A) (A) (A) (A) (A) (A) (A) (A) (A) (A)
                 (A) (A) (A) (A) (A) (A) (A) (A) (A) (A) (A) (A)
                 (A) (A) (A) (A) (A) (A) (A) (A) (A) (A) (A) (A)
                 (A) (A) (A) (A) (A) (A) (A) (A) (A) (A) (A) (A)
                 (A) (A) (A) (A) (A) (A) (A) (A) (A) (A) (A) (A)
                 (A) (A) (A) (A) (A) (A) (A) (A) (A) (A) (A) (A)
                 (A) (A) (A) (A) (A) (A) (A) (A) (A) (A) (A) (A)
                 (A) (A) (A) (A) (A) (A) (A) (A) (A) (A) (A) (A)
                 (A) (A) (A) (A) (A) (A) (A) (A) (A) (A) (A) (A)
                 (A) (A) (A) (A) (A) (A) (A) (A) (A) (A) (A) (A)
                 (A) (A) (A) (A) (A) (A) (A) (A) (A) (A) (A) (A)
                 (A) (A) (A) (A) (A) (A) (A) (A) (A) (A) (A) (A)
                 (A) (A) (A) (A) (A) (A) (A) (A) (A) (A) (A) (A)
                 (A) (A) (A) (A) (A) (A) (A) (A) (A) (A) (A) (A)
                 (A) (A) (A) (A) (A) (A) (A) (A) (A) (A) (A) (A)
                 (A) (A) (A) (A) (A) (A) (A) (A) (A) (A) (A) (A)
                 (A) (A) (A) (A) (A) (A) (A) (A) (A) (A) (A) (A)
                 (A) (A) (A) (A) (A) (A) (A) (A) (A) (A) (A) (A)
                 (A) (A) (A) (A) (A) (A) (A) (A) (A) (A) (A) (A)
                 (A) (A) (A) (A) (A) (A) (A) (A) (A) (A) (A) (A)
                 (A) (A) (A) (A) (A) (A) (A) (A) (A) (A) (A) (A)
                 (A) (A) (A) (A) (A) (A) (A) (A) (A) (A) (A) (A)
                 (A) (A) (A) (A) (A) (A) (A) (A) (A) (A) (A) (A)
                 (A) (A) (A) (A) (A) (A) (A) (A) (A) (A) (A) (A)
                 (A) (A) (A) (A) (A) (A) (A) (A) (A) (A) (A) (A)
                 (A) (A) (A) (A) (A) (A) (A) (A) (A) (A) (A) (A)
                 (A) (A) (A) (A) (A) (A) (A) (A) (A) (A) (A) (A)
                 (A) (A) (A) (A) (A) (A) (A) (A) (A) (A) (A) (A)
                 (A) (A) (A) (A) (A) (A) (A) (A) (A) (A) (A) (A)
                 (A) (A) (A) (A) (A) (A) (A) (A) (A) (A) (A) (A)
                 (A) (A) (A) (A) (A) (A) (A) (A) (A) (A) (A) (A)
                 (A) (A) (A) (A) (A) (A) (A) (A) (A) (A) (A) (A)
                 (A) (A) (A) (A) (A) (A) (A) (A) (A) (A) (A) (A)
                 (A) (A) (A) (A) (A) (A) (A) (A) (A) (A) (A) (A)
                 (A) (A) (A) (A) (A) (A) (A) (A) (A) (A) (A) (A)
                 (A) (A) (A) (A) (A) (A) (A) (A) (A) (A) (A) (A)
                 (A) (A) (A) (A) (A) (A) (A) (A) (A) (A) (A) (A)
                 (A) (A) (A) (A) (A) (A) (A) (A) (A) (A) (A) (A)
                 (A) (A) (A) (A) (A) (A) (A) (A) (A) (A) (A) (A)
                 (A) (A) (A) (A) (A) (A) (A) (A) (A) (A) (A) (A)
                 (A) (A) (A) (A) (A) (A) (A) (A) (A) (A) (A) (A)
                 (A) (A) (A) (A) (A) (A) (A) (A) (A) (A) (A) (A)
                 (A) (A) (A) (A) (A) (A) (A) (A) (A) (A) (A) (A)
                 (A) (A) (A)
 The electronic state is 1-A.
 Alpha  occ. eigenvalues -- -145.46637 -19.23931 -19.15301 -19.14158 -19.11366
 Alpha  occ. eigenvalues --  -19.10773 -19.10513 -19.10469 -19.10286 -19.10086
 Alpha  occ. eigenvalues --  -19.09904 -19.09002 -19.08775 -19.08582 -19.08059
 Alpha  occ. eigenvalues --  -19.07997 -19.07988 -19.07603 -19.07469 -19.06927
 Alpha  occ. eigenvalues --  -19.05031 -19.02467 -18.96210 -18.95160 -15.52576
 Alpha  occ. eigenvalues --  -14.57986 -14.38390 -14.37531 -14.37527 -14.36237
 Alpha  occ. eigenvalues --  -14.36016 -14.35573 -14.35121 -14.35013 -14.34277
 Alpha  occ. eigenvalues --  -14.34258 -14.33130 -14.32614 -14.31118 -14.28584
 Alpha  occ. eigenvalues --  -12.66188 -12.66149 -12.66076 -10.34770 -10.29991
 Alpha  occ. eigenvalues --  -10.29949 -10.29801 -10.29293 -10.28851 -10.28828
 Alpha  occ. eigenvalues --  -10.28026 -10.27713 -10.27527 -10.27058 -10.27004
 Alpha  occ. eigenvalues --  -10.26833 -10.26480 -10.26172 -10.26085 -10.25741
 Alpha  occ. eigenvalues --  -10.25652 -10.25235 -10.24958 -10.24736 -10.24280
 Alpha  occ. eigenvalues --  -10.23982 -10.23393 -10.23272 -10.22985 -10.22658
 Alpha  occ. eigenvalues --  -10.22349 -10.22248 -10.22225 -10.22122 -10.21583
 Alpha  occ. eigenvalues --  -10.21528 -10.21179 -10.19330 -10.19272 -10.19085
 Alpha  occ. eigenvalues --  -10.19070 -10.18798 -10.18697 -10.18291 -10.18205
 Alpha  occ. eigenvalues --  -10.18072 -10.17729 -10.17618 -10.17539 -10.16916
 Alpha  occ. eigenvalues --  -10.16261 -10.15577 -10.15114 -10.14990 -10.14538
 Alpha  occ. eigenvalues --  -10.13913 -10.09216  -1.89242  -1.16833  -1.16558
 Alpha  occ. eigenvalues --   -1.16073  -1.13157  -1.09719  -1.05233  -1.04840
 Alpha  occ. eigenvalues --   -1.04818  -1.03696  -1.03662  -1.03624  -1.03370
 Alpha  occ. eigenvalues --   -1.02780  -1.02653  -1.02572  -1.01537  -1.01533
 Alpha  occ. eigenvalues --   -1.00924  -1.00763  -1.00152  -0.99745  -0.97674
 Alpha  occ. eigenvalues --   -0.95498  -0.95257  -0.95007  -0.93885  -0.93675
 Alpha  occ. eigenvalues --   -0.92794  -0.92724  -0.92690  -0.92100  -0.91053
 Alpha  occ. eigenvalues --   -0.91012  -0.90324  -0.90310  -0.90213  -0.90087
 Alpha  occ. eigenvalues --   -0.89708  -0.89133  -0.88067  -0.85415  -0.84548
 Alpha  occ. eigenvalues --   -0.81217  -0.81191  -0.80853  -0.80119  -0.79316
 Alpha  occ. eigenvalues --   -0.79235  -0.78252  -0.78062  -0.76476  -0.75992
 Alpha  occ. eigenvalues --   -0.74964  -0.74794  -0.73912  -0.73710  -0.72947
 Alpha  occ. eigenvalues --   -0.72944  -0.72472  -0.71926  -0.71644  -0.70511
 Alpha  occ. eigenvalues --   -0.69504  -0.69132  -0.69110  -0.68477  -0.66533
 Alpha  occ. eigenvalues --   -0.66442  -0.66150  -0.65388  -0.64920  -0.63964
 Alpha  occ. eigenvalues --   -0.63237  -0.63032  -0.62998  -0.62294  -0.61948
 Alpha  occ. eigenvalues --   -0.61673  -0.61619  -0.61078  -0.60394  -0.60310
 Alpha  occ. eigenvalues --   -0.59736  -0.59324  -0.59053  -0.58924  -0.58369
 Alpha  occ. eigenvalues --   -0.57970  -0.57807  -0.57082  -0.56538  -0.56166
 Alpha  occ. eigenvalues --   -0.56100  -0.55806  -0.55428  -0.55188  -0.55037
 Alpha  occ. eigenvalues --   -0.54570  -0.54482  -0.54270  -0.54167  -0.53861
 Alpha  occ. eigenvalues --   -0.53466  -0.52774  -0.52605  -0.52210  -0.51928
 Alpha  occ. eigenvalues --   -0.51551  -0.51427  -0.51163  -0.51025  -0.50781
 Alpha  occ. eigenvalues --   -0.50475  -0.50393  -0.49814  -0.49485  -0.49464
 Alpha  occ. eigenvalues --   -0.49140  -0.48650  -0.48359  -0.48199  -0.47446
 Alpha  occ. eigenvalues --   -0.47227  -0.46986  -0.46789  -0.46525  -0.46453
 Alpha  occ. eigenvalues --   -0.46178  -0.45947  -0.45842  -0.45636  -0.45414
 Alpha  occ. eigenvalues --   -0.45343  -0.45168  -0.45061  -0.44737  -0.44433
 Alpha  occ. eigenvalues --   -0.44279  -0.44159  -0.44102  -0.43628  -0.43489
 Alpha  occ. eigenvalues --   -0.43431  -0.43285  -0.43250  -0.42902  -0.42851
 Alpha  occ. eigenvalues --   -0.42610  -0.42547  -0.42441  -0.42304  -0.42192
 Alpha  occ. eigenvalues --   -0.42061  -0.41735  -0.41423  -0.41280  -0.41188
 Alpha  occ. eigenvalues --   -0.40990  -0.40912  -0.40837  -0.40790  -0.40623
 Alpha  occ. eigenvalues --   -0.40525  -0.40293  -0.40179  -0.40130  -0.40072
 Alpha  occ. eigenvalues --   -0.39934  -0.39750  -0.39703  -0.39286  -0.39160
 Alpha  occ. eigenvalues --   -0.39082  -0.39041  -0.38800  -0.38766  -0.38698
 Alpha  occ. eigenvalues --   -0.38448  -0.38393  -0.38288  -0.38139  -0.38001
 Alpha  occ. eigenvalues --   -0.37867  -0.37740  -0.37725  -0.37370  -0.37049
 Alpha  occ. eigenvalues --   -0.36953  -0.36518  -0.36400  -0.36354  -0.36018
 Alpha  occ. eigenvalues --   -0.35972  -0.35343  -0.35222  -0.35194  -0.35072
 Alpha  occ. eigenvalues --   -0.34910  -0.34762  -0.34708  -0.34510  -0.34503
 Alpha  occ. eigenvalues --   -0.34413  -0.34270  -0.34112  -0.33838  -0.33789
 Alpha  occ. eigenvalues --   -0.33608  -0.32840  -0.32820  -0.32743  -0.32281
 Alpha  occ. eigenvalues --   -0.32226  -0.32005  -0.30197  -0.29909  -0.29806
 Alpha  occ. eigenvalues --   -0.29370  -0.29369  -0.28970  -0.28838  -0.28685
 Alpha  occ. eigenvalues --   -0.28325  -0.27996  -0.27804  -0.27722  -0.27666
 Alpha  occ. eigenvalues --   -0.27497  -0.26956  -0.26764  -0.26555  -0.26466
 Alpha  occ. eigenvalues --   -0.26261  -0.26218  -0.26134  -0.25873  -0.25777
 Alpha  occ. eigenvalues --   -0.25292  -0.25208  -0.25162  -0.24878  -0.24747
 Alpha  occ. eigenvalues --   -0.24647  -0.24558  -0.24492  -0.23618  -0.23456
 Alpha  occ. eigenvalues --   -0.23355  -0.23064  -0.23023  -0.22508  -0.22214
 Alpha  occ. eigenvalues --   -0.21808  -0.21680  -0.20108  -0.19482  -0.18666
 Alpha  occ. eigenvalues --   -0.13664  -0.12589  -0.11232
 Alpha virt. eigenvalues --   -0.09727  -0.09013  -0.05408  -0.03677  -0.02636
 Alpha virt. eigenvalues --   -0.01607  -0.01000  -0.00486  -0.00288  -0.00100
 Alpha virt. eigenvalues --    0.00044   0.00224   0.00752   0.01278   0.01413
 Alpha virt. eigenvalues --    0.01602   0.01672   0.01896   0.02193   0.02370
 Alpha virt. eigenvalues --    0.02659   0.02847   0.03017   0.03313   0.03417
 Alpha virt. eigenvalues --    0.03957   0.04123   0.04456   0.04718   0.04773
 Alpha virt. eigenvalues --    0.05180   0.05290   0.05404   0.05736   0.06036
 Alpha virt. eigenvalues --    0.06290   0.06340   0.06547   0.06612   0.07204
 Alpha virt. eigenvalues --    0.07350   0.07517   0.07599   0.07789   0.08032
 Alpha virt. eigenvalues --    0.08163   0.08503   0.08669   0.08990   0.09157
 Alpha virt. eigenvalues --    0.09249   0.09420   0.09586   0.09631   0.10076
 Alpha virt. eigenvalues --    0.10263   0.10456   0.10492   0.10633   0.10731
 Alpha virt. eigenvalues --    0.11166   0.11219   0.11399   0.11697   0.11771
 Alpha virt. eigenvalues --    0.11995   0.12381   0.12608   0.12954   0.13056
 Alpha virt. eigenvalues --    0.13272   0.13346   0.13388   0.13869   0.14067
 Alpha virt. eigenvalues --    0.14176   0.14192   0.14366   0.14492   0.14576
 Alpha virt. eigenvalues --    0.14924   0.15052   0.15087   0.15224   0.15388
 Alpha virt. eigenvalues --    0.15488   0.15664   0.15752   0.15897   0.16052
 Alpha virt. eigenvalues --    0.16145   0.16258   0.16454   0.16534   0.16948
 Alpha virt. eigenvalues --    0.17399   0.17541   0.17600   0.17656   0.17748
 Alpha virt. eigenvalues --    0.17898   0.18067   0.18087   0.18341   0.18368
 Alpha virt. eigenvalues --    0.18521   0.18869   0.18940   0.19230   0.19434
 Alpha virt. eigenvalues --    0.19485   0.19861   0.20158   0.20301   0.20608
 Alpha virt. eigenvalues --    0.20750   0.21054   0.21239   0.21464   0.21671
 Alpha virt. eigenvalues --    0.21863   0.22206   0.22504   0.22694   0.22925
 Alpha virt. eigenvalues --    0.23077   0.23169   0.23795   0.23854   0.24311
 Alpha virt. eigenvalues --    0.24338   0.24463   0.24650   0.24718   0.24834
 Alpha virt. eigenvalues --    0.24978   0.25177   0.25337   0.25899   0.26213
 Alpha virt. eigenvalues --    0.26334   0.26418   0.26743   0.26916   0.27284
 Alpha virt. eigenvalues --    0.27638   0.27804   0.27972   0.28163   0.28425
 Alpha virt. eigenvalues --    0.28644   0.28801   0.29112   0.29314   0.29550
 Alpha virt. eigenvalues --    0.29639   0.29720   0.30082   0.30247   0.30496
 Alpha virt. eigenvalues --    0.30717   0.30779   0.31051   0.31088   0.31505
 Alpha virt. eigenvalues --    0.31625   0.31877   0.32127   0.32279   0.32906
 Alpha virt. eigenvalues --    0.32993   0.33297   0.33726   0.34212   0.34304
 Alpha virt. eigenvalues --    0.34618   0.35081   0.35430   0.35549   0.35869
 Alpha virt. eigenvalues --    0.36210   0.36433   0.36598   0.37140   0.37364
 Alpha virt. eigenvalues --    0.37866   0.37976   0.38637   0.39061   0.39256
 Alpha virt. eigenvalues --    0.39480   0.39815   0.40007   0.40442   0.40522
 Alpha virt. eigenvalues --    0.40644   0.41059   0.41340   0.41538   0.41771
 Alpha virt. eigenvalues --    0.41833   0.42177   0.42582   0.42701   0.42945
 Alpha virt. eigenvalues --    0.43274   0.43326   0.43369   0.43711   0.44071
 Alpha virt. eigenvalues --    0.44255   0.44523   0.44594   0.44888   0.44941
 Alpha virt. eigenvalues --    0.45104   0.45396   0.45535   0.45790   0.46059
 Alpha virt. eigenvalues --    0.46282   0.46710   0.46790   0.46965   0.47032
 Alpha virt. eigenvalues --    0.47117   0.47264   0.47393   0.47594   0.47668
 Alpha virt. eigenvalues --    0.47790   0.48039   0.48207   0.48254   0.48504
 Alpha virt. eigenvalues --    0.48911   0.49143   0.49180   0.49369   0.49671
 Alpha virt. eigenvalues --    0.49831   0.49893   0.49944   0.49998   0.50180
 Alpha virt. eigenvalues --    0.50409   0.50664   0.50930   0.51392   0.51570
 Alpha virt. eigenvalues --    0.51714   0.51772   0.51866   0.52006   0.52077
 Alpha virt. eigenvalues --    0.52543   0.52670   0.52779   0.52948   0.53314
 Alpha virt. eigenvalues --    0.53403   0.53620   0.53948   0.54005   0.54208
 Alpha virt. eigenvalues --    0.54363   0.54541   0.54751   0.54953   0.55063
 Alpha virt. eigenvalues --    0.55410   0.55530   0.55718   0.55765   0.55917
 Alpha virt. eigenvalues --    0.56072   0.56257   0.56470   0.56704   0.56786
 Alpha virt. eigenvalues --    0.56994   0.57078   0.57127   0.57386   0.57745
 Alpha virt. eigenvalues --    0.57839   0.58176   0.58236   0.58354   0.58411
 Alpha virt. eigenvalues --    0.58617   0.59125   0.59250   0.59306   0.59509
 Alpha virt. eigenvalues --    0.59730   0.59798   0.60023   0.60374   0.60578
 Alpha virt. eigenvalues --    0.60827   0.61018   0.61188   0.61258   0.61367
 Alpha virt. eigenvalues --    0.61465   0.61517   0.61778   0.61845   0.61887
 Alpha virt. eigenvalues --    0.61981   0.62186   0.62337   0.62491   0.62584
 Alpha virt. eigenvalues --    0.62710   0.62753   0.62883   0.62981   0.63225
 Alpha virt. eigenvalues --    0.63354   0.63430   0.63660   0.63775   0.63897
 Alpha virt. eigenvalues --    0.64046   0.64177   0.64179   0.64268   0.64487
 Alpha virt. eigenvalues --    0.64518   0.64645   0.64874   0.64992   0.65046
 Alpha virt. eigenvalues --    0.65254   0.65319   0.65353   0.65507   0.65614
 Alpha virt. eigenvalues --    0.65744   0.65864   0.66056   0.66117   0.66204
 Alpha virt. eigenvalues --    0.66290   0.66405   0.66504   0.66640   0.66768
 Alpha virt. eigenvalues --    0.66846   0.66961   0.67014   0.67161   0.67239
 Alpha virt. eigenvalues --    0.67352   0.67474   0.67612   0.67820   0.67891
 Alpha virt. eigenvalues --    0.67995   0.68051   0.68188   0.68355   0.68481
 Alpha virt. eigenvalues --    0.68562   0.68622   0.68733   0.68899   0.68965
 Alpha virt. eigenvalues --    0.69015   0.69206   0.69272   0.69410   0.69444
 Alpha virt. eigenvalues --    0.69576   0.69738   0.69908   0.69990   0.70111
 Alpha virt. eigenvalues --    0.70237   0.70412   0.70458   0.70570   0.70645
 Alpha virt. eigenvalues --    0.70764   0.70879   0.71141   0.71181   0.71214
 Alpha virt. eigenvalues --    0.71237   0.71372   0.71491   0.71827   0.71956
 Alpha virt. eigenvalues --    0.72145   0.72363   0.72434   0.72571   0.72631
 Alpha virt. eigenvalues --    0.72862   0.72975   0.73147   0.73264   0.73521
 Alpha virt. eigenvalues --    0.73751   0.73914   0.74006   0.74209   0.74549
 Alpha virt. eigenvalues --    0.74687   0.75063   0.75352   0.75422   0.75687
 Alpha virt. eigenvalues --    0.75970   0.76014   0.76130   0.76260   0.76365
 Alpha virt. eigenvalues --    0.77064   0.77126   0.77179   0.77598   0.77786
 Alpha virt. eigenvalues --    0.77909   0.78161   0.78284   0.78429   0.78539
 Alpha virt. eigenvalues --    0.78814   0.79231   0.79387   0.79626   0.79800
 Alpha virt. eigenvalues --    0.79910   0.80202   0.80451   0.80842   0.80970
 Alpha virt. eigenvalues --    0.81133   0.81267   0.81502   0.82096   0.82335
 Alpha virt. eigenvalues --    0.82582   0.82802   0.82902   0.83091   0.83445
 Alpha virt. eigenvalues --    0.83590   0.84285   0.84489   0.84802   0.84942
 Alpha virt. eigenvalues --    0.85412   0.85752   0.86055   0.86125   0.86179
 Alpha virt. eigenvalues --    0.86324   0.86960   0.87382   0.87445   0.88167
 Alpha virt. eigenvalues --    0.88339   0.88504   0.88926   0.89181   0.89744
 Alpha virt. eigenvalues --    0.89951   0.90123   0.90164   0.90479   0.90790
 Alpha virt. eigenvalues --    0.91036   0.91108   0.91271   0.91675   0.91828
 Alpha virt. eigenvalues --    0.92380   0.92585   0.92752   0.92972   0.93087
 Alpha virt. eigenvalues --    0.93380   0.93758   0.93809   0.94237   0.94380
 Alpha virt. eigenvalues --    0.94916   0.95511   0.95883   0.96045   0.96346
 Alpha virt. eigenvalues --    0.96538   0.96658   0.96813   0.97000   0.97304
 Alpha virt. eigenvalues --    0.97981   0.98313   0.98653   0.98884   0.99004
 Alpha virt. eigenvalues --    0.99169   0.99412   0.99581   0.99931   0.99943
 Alpha virt. eigenvalues --    1.00209   1.00739   1.01115   1.01201   1.01798
 Alpha virt. eigenvalues --    1.02201   1.02467   1.02766   1.03009   1.03246
 Alpha virt. eigenvalues --    1.03323   1.03577   1.03910   1.04080   1.04502
 Alpha virt. eigenvalues --    1.04630   1.05074   1.05312   1.05529   1.05569
 Alpha virt. eigenvalues --    1.05893   1.06171   1.06455   1.06764   1.07242
 Alpha virt. eigenvalues --    1.07412   1.07567   1.08052   1.08293   1.08520
 Alpha virt. eigenvalues --    1.08640   1.09086   1.09405   1.09648   1.09968
 Alpha virt. eigenvalues --    1.10229   1.10434   1.10685   1.10851   1.11122
 Alpha virt. eigenvalues --    1.11672   1.11725   1.12112   1.12376   1.12644
 Alpha virt. eigenvalues --    1.12771   1.12971   1.13235   1.13489   1.14109
 Alpha virt. eigenvalues --    1.14713   1.14759   1.15189   1.15402   1.15627
 Alpha virt. eigenvalues --    1.15842   1.16135   1.16579   1.16745   1.16847
 Alpha virt. eigenvalues --    1.16965   1.17209   1.17653   1.17738   1.18028
 Alpha virt. eigenvalues --    1.18304   1.18545   1.18626   1.19052   1.19510
 Alpha virt. eigenvalues --    1.19636   1.19656   1.19902   1.19969   1.20398
 Alpha virt. eigenvalues --    1.20875   1.20937   1.21446   1.21742   1.21972
 Alpha virt. eigenvalues --    1.22294   1.22419   1.22687   1.23213   1.23381
 Alpha virt. eigenvalues --    1.23769   1.23866   1.24068   1.24238   1.24367
 Alpha virt. eigenvalues --    1.24803   1.25026   1.25322   1.25462   1.25803
 Alpha virt. eigenvalues --    1.25968   1.26087   1.26103   1.26250   1.26489
 Alpha virt. eigenvalues --    1.26621   1.26989   1.27181   1.27598   1.27973
 Alpha virt. eigenvalues --    1.28416   1.28590   1.28770   1.29210   1.29483
 Alpha virt. eigenvalues --    1.29783   1.30289   1.30378   1.30890   1.31254
 Alpha virt. eigenvalues --    1.31422   1.31910   1.32133   1.32358   1.32611
 Alpha virt. eigenvalues --    1.33500   1.33574   1.33808   1.34032   1.34148
 Alpha virt. eigenvalues --    1.34740   1.35170   1.35412   1.35592   1.35729
 Alpha virt. eigenvalues --    1.36237   1.36384   1.36525   1.37146   1.37287
 Alpha virt. eigenvalues --    1.37748   1.37789   1.38163   1.38508   1.39071
 Alpha virt. eigenvalues --    1.39106   1.39269   1.39747   1.40081   1.40361
 Alpha virt. eigenvalues --    1.40639   1.40988   1.41106   1.41426   1.41546
 Alpha virt. eigenvalues --    1.41887   1.42325   1.42426   1.42731   1.42959
 Alpha virt. eigenvalues --    1.43456   1.43960   1.44153   1.44547   1.44708
 Alpha virt. eigenvalues --    1.45019   1.45313   1.45612   1.46297   1.46318
 Alpha virt. eigenvalues --    1.46462   1.46938   1.47050   1.47225   1.47459
 Alpha virt. eigenvalues --    1.47848   1.47973   1.49348   1.49410   1.49844
 Alpha virt. eigenvalues --    1.49850   1.50098   1.50309   1.50492   1.50825
 Alpha virt. eigenvalues --    1.50916   1.51674   1.51810   1.52346   1.52716
 Alpha virt. eigenvalues --    1.52871   1.52940   1.53021   1.53427   1.53809
 Alpha virt. eigenvalues --    1.54067   1.54992   1.55201   1.55549   1.55749
 Alpha virt. eigenvalues --    1.55853   1.56286   1.56573   1.57124   1.57288
 Alpha virt. eigenvalues --    1.58106   1.58419   1.58697   1.59076   1.59371
 Alpha virt. eigenvalues --    1.59610   1.59666   1.59694   1.60057   1.60813
 Alpha virt. eigenvalues --    1.61541   1.61746   1.62059   1.62572   1.62874
 Alpha virt. eigenvalues --    1.63013   1.63111   1.63309   1.63774   1.63976
 Alpha virt. eigenvalues --    1.64680   1.64872   1.65077   1.65353   1.66198
 Alpha virt. eigenvalues --    1.66404   1.66431   1.67325   1.67807   1.67886
 Alpha virt. eigenvalues --    1.67998   1.68192   1.68512   1.68852   1.68882
 Alpha virt. eigenvalues --    1.69107   1.69299   1.69444   1.69566   1.70212
 Alpha virt. eigenvalues --    1.70300   1.70842   1.71149   1.71300   1.71410
 Alpha virt. eigenvalues --    1.71488   1.71747   1.71873   1.72111   1.72313
 Alpha virt. eigenvalues --    1.72393   1.72601   1.72809   1.73110   1.73171
 Alpha virt. eigenvalues --    1.73314   1.73776   1.74180   1.74524   1.74788
 Alpha virt. eigenvalues --    1.74888   1.75029   1.75259   1.75376   1.75699
 Alpha virt. eigenvalues --    1.75712   1.75860   1.76077   1.76243   1.76607
 Alpha virt. eigenvalues --    1.76843   1.77011   1.77141   1.77350   1.77435
 Alpha virt. eigenvalues --    1.77798   1.77905   1.78105   1.78150   1.78486
 Alpha virt. eigenvalues --    1.78798   1.78965   1.79116   1.79189   1.79378
 Alpha virt. eigenvalues --    1.79599   1.79718   1.79926   1.80061   1.80101
 Alpha virt. eigenvalues --    1.80199   1.80398   1.80531   1.80696   1.80765
 Alpha virt. eigenvalues --    1.80897   1.80995   1.81081   1.81562   1.81655
 Alpha virt. eigenvalues --    1.81824   1.81901   1.82069   1.82329   1.82368
 Alpha virt. eigenvalues --    1.82541   1.82753   1.83067   1.83195   1.83356
 Alpha virt. eigenvalues --    1.83542   1.83741   1.83774   1.84114   1.84136
 Alpha virt. eigenvalues --    1.84365   1.84470   1.84734   1.84902   1.85110
 Alpha virt. eigenvalues --    1.85257   1.85274   1.85396   1.85580   1.85678
 Alpha virt. eigenvalues --    1.86005   1.86150   1.86425   1.86785   1.87098
 Alpha virt. eigenvalues --    1.87203   1.87714   1.87895   1.88215   1.88266
 Alpha virt. eigenvalues --    1.88344   1.88489   1.88707   1.88751   1.89035
 Alpha virt. eigenvalues --    1.89210   1.89441   1.89572   1.89740   1.90044
 Alpha virt. eigenvalues --    1.90065   1.90320   1.90383   1.90607   1.90701
 Alpha virt. eigenvalues --    1.90887   1.91511   1.91626   1.91855   1.91947
 Alpha virt. eigenvalues --    1.92111   1.92172   1.92453   1.92813   1.92882
 Alpha virt. eigenvalues --    1.92997   1.93346   1.93521   1.93878   1.94106
 Alpha virt. eigenvalues --    1.94220   1.94361   1.94795   1.94854   1.95304
 Alpha virt. eigenvalues --    1.95388   1.95652   1.95911   1.96184   1.96454
 Alpha virt. eigenvalues --    1.96558   1.97141   1.97319   1.97434   1.97594
 Alpha virt. eigenvalues --    1.97918   1.97934   1.98234   1.98454   1.98586
 Alpha virt. eigenvalues --    1.98825   1.99159   1.99189   1.99923   2.00150
 Alpha virt. eigenvalues --    2.00366   2.00746   2.00833   2.00949   2.01323
 Alpha virt. eigenvalues --    2.01424   2.01555   2.01836   2.02295   2.02648
 Alpha virt. eigenvalues --    2.02780   2.02922   2.03330   2.03484   2.03672
 Alpha virt. eigenvalues --    2.03722   2.04011   2.04384   2.04492   2.04798
 Alpha virt. eigenvalues --    2.05067   2.05696   2.05939   2.06138   2.06315
 Alpha virt. eigenvalues --    2.06637   2.06885   2.07116   2.07239   2.07422
 Alpha virt. eigenvalues --    2.07710   2.07861   2.08068   2.08158   2.08313
 Alpha virt. eigenvalues --    2.09016   2.09868   2.09988   2.10355   2.10808
 Alpha virt. eigenvalues --    2.11075   2.11717   2.12145   2.12304   2.12484
 Alpha virt. eigenvalues --    2.12647   2.12975   2.13157   2.13256   2.13553
 Alpha virt. eigenvalues --    2.13983   2.14187   2.14232   2.14297   2.14558
 Alpha virt. eigenvalues --    2.14935   2.15225   2.15752   2.15896   2.16433
 Alpha virt. eigenvalues --    2.16490   2.16615   2.16928   2.17126   2.17255
 Alpha virt. eigenvalues --    2.17715   2.18091   2.18144   2.18384   2.18497
 Alpha virt. eigenvalues --    2.18736   2.19306   2.19433   2.19588   2.20059
 Alpha virt. eigenvalues --    2.20253   2.20491   2.20787   2.21164   2.21373
 Alpha virt. eigenvalues --    2.21580   2.21723   2.21972   2.22195   2.22387
 Alpha virt. eigenvalues --    2.22964   2.23029   2.23428   2.23676   2.23787
 Alpha virt. eigenvalues --    2.24104   2.24513   2.24833   2.25124   2.25203
 Alpha virt. eigenvalues --    2.26132   2.26439   2.27037   2.27343   2.27911
 Alpha virt. eigenvalues --    2.28452   2.28606   2.29057   2.29642   2.29974
 Alpha virt. eigenvalues --    2.29986   2.30154   2.31019   2.31035   2.31132
 Alpha virt. eigenvalues --    2.31501   2.31539   2.31768   2.32165   2.32223
 Alpha virt. eigenvalues --    2.32828   2.33361   2.33450   2.33954   2.34769
 Alpha virt. eigenvalues --    2.35017   2.35211   2.35291   2.36174   2.36194
 Alpha virt. eigenvalues --    2.36294   2.36432   2.36682   2.36868   2.37208
 Alpha virt. eigenvalues --    2.37369   2.37593   2.37990   2.38577   2.38868
 Alpha virt. eigenvalues --    2.39004   2.39030   2.39396   2.40480   2.40885
 Alpha virt. eigenvalues --    2.41099   2.41446   2.41635   2.41893   2.42661
 Alpha virt. eigenvalues --    2.42792   2.43367   2.43737   2.43811   2.44117
 Alpha virt. eigenvalues --    2.44251   2.44647   2.44790   2.45047   2.45171
 Alpha virt. eigenvalues --    2.45681   2.46322   2.46617   2.47160   2.47567
 Alpha virt. eigenvalues --    2.47675   2.48174   2.48528   2.48964   2.49555
 Alpha virt. eigenvalues --    2.50049   2.50418   2.50840   2.50973   2.51062
 Alpha virt. eigenvalues --    2.51874   2.52161   2.52583   2.52632   2.53044
 Alpha virt. eigenvalues --    2.54332   2.54472   2.54716   2.55201   2.55604
 Alpha virt. eigenvalues --    2.56417   2.56738   2.56961   2.57130   2.57172
 Alpha virt. eigenvalues --    2.57517   2.57821   2.57870   2.57939   2.57966
 Alpha virt. eigenvalues --    2.58266   2.58465   2.58773   2.58875   2.59861
 Alpha virt. eigenvalues --    2.59952   2.60109   2.60523   2.61174   2.61244
 Alpha virt. eigenvalues --    2.61305   2.61814   2.62361   2.62447   2.62765
 Alpha virt. eigenvalues --    2.63284   2.63520   2.64412   2.64701   2.64909
 Alpha virt. eigenvalues --    2.65025   2.65330   2.65564   2.65748   2.66372
 Alpha virt. eigenvalues --    2.66413   2.66730   2.66906   2.66965   2.67030
 Alpha virt. eigenvalues --    2.67476   2.67854   2.67937   2.68016   2.68120
 Alpha virt. eigenvalues --    2.68286   2.68838   2.69091   2.69397   2.69531
 Alpha virt. eigenvalues --    2.70346   2.70487   2.70948   2.71252   2.72230
 Alpha virt. eigenvalues --    2.72346   2.72499   2.72640   2.72897   2.72925
 Alpha virt. eigenvalues --    2.73021   2.73157   2.74370   2.74479   2.74691
 Alpha virt. eigenvalues --    2.74858   2.75458   2.75605   2.75923   2.75941
 Alpha virt. eigenvalues --    2.76108   2.76416   2.76588   2.76705   2.77186
 Alpha virt. eigenvalues --    2.77386   2.77708   2.77964   2.78304   2.78874
 Alpha virt. eigenvalues --    2.79167   2.79579   2.79679   2.79737   2.79987
 Alpha virt. eigenvalues --    2.80316   2.80803   2.80960   2.81323   2.81739
 Alpha virt. eigenvalues --    2.81821   2.82058   2.82185   2.82304   2.82869
 Alpha virt. eigenvalues --    2.83247   2.83639   2.83696   2.83928   2.83981
 Alpha virt. eigenvalues --    2.84819   2.84851   2.85540   2.85945   2.86274
 Alpha virt. eigenvalues --    2.86383   2.86495   2.87299   2.87396   2.88030
 Alpha virt. eigenvalues --    2.88167   2.88606   2.88696   2.89207   2.89306
 Alpha virt. eigenvalues --    2.89751   2.89819   2.89879   2.89960   2.90158
 Alpha virt. eigenvalues --    2.90311   2.91039   2.91368   2.91462   2.92136
 Alpha virt. eigenvalues --    2.92590   2.93036   2.93286   2.93577   2.93604
 Alpha virt. eigenvalues --    2.93865   2.93929   2.94142   2.94375   2.94655
 Alpha virt. eigenvalues --    2.95658   2.95906   2.96229   2.96323   2.96743
 Alpha virt. eigenvalues --    2.96959   2.97208   2.97541   2.97763   2.98206
 Alpha virt. eigenvalues --    2.98403   2.98506   2.98706   2.98909   2.99131
 Alpha virt. eigenvalues --    2.99495   2.99774   3.00223   3.00281   3.00801
 Alpha virt. eigenvalues --    3.01295   3.01648   3.02026   3.02413   3.02605
 Alpha virt. eigenvalues --    3.02636   3.03116   3.03508   3.04193   3.04343
 Alpha virt. eigenvalues --    3.04562   3.05108   3.05235   3.05754   3.06502
 Alpha virt. eigenvalues --    3.06855   3.07113   3.07575   3.07613   3.07713
 Alpha virt. eigenvalues --    3.08424   3.09024   3.09186   3.10418   3.11151
 Alpha virt. eigenvalues --    3.12382   3.12665   3.12782   3.13423   3.14088
 Alpha virt. eigenvalues --    3.14337   3.14702   3.14852   3.14914   3.15031
 Alpha virt. eigenvalues --    3.15353   3.15960   3.16190   3.16662   3.17185
 Alpha virt. eigenvalues --    3.17715   3.17804   3.18166   3.18306   3.18369
 Alpha virt. eigenvalues --    3.18473   3.18947   3.19379   3.19393   3.20105
 Alpha virt. eigenvalues --    3.20373   3.20564   3.20877   3.21334   3.21781
 Alpha virt. eigenvalues --    3.22675   3.23024   3.24137   3.24171   3.24727
 Alpha virt. eigenvalues --    3.24956   3.25530   3.25920   3.26587   3.26865
 Alpha virt. eigenvalues --    3.26906   3.27382   3.27433   3.27898   3.30683
 Alpha virt. eigenvalues --    3.30781   3.31351   3.31562   3.31805   3.32314
 Alpha virt. eigenvalues --    3.34205   3.35197   3.35455   3.36154   3.37872
 Alpha virt. eigenvalues --    3.40131   3.41084   3.41622   3.42206   3.46900
 Alpha virt. eigenvalues --    3.51383   3.52869   3.54907   3.55256   3.55300
 Alpha virt. eigenvalues --    3.55348   3.56214   3.57865   3.58298   3.58666
 Alpha virt. eigenvalues --    3.58741   3.59061   3.60049   3.60232   3.62245
 Alpha virt. eigenvalues --    3.63296   3.63790   3.64585   3.64758   3.66456
 Alpha virt. eigenvalues --    3.67031   3.68144   3.68317   3.68471   3.68639
 Alpha virt. eigenvalues --    3.69419   3.69670   3.70022   3.70786   3.71064
 Alpha virt. eigenvalues --    3.71170   3.71933   3.72150   3.73324   3.74342
 Alpha virt. eigenvalues --    3.75720   3.76112   3.78579   3.84404
          Condensed to atoms (all electrons):
 Mulliken charges:
               1
     1  C    0.069371
     2  C   -0.000756
     3  O   -0.315354
     4  H   -0.010905
     5  H    0.023488
     6  H    0.026770
     7  N   -0.115315
     8  C    0.074933
     9  C    0.076901
    10  O   -0.284673
    11  C    0.087350
    12  C    0.063277
    13  O   -0.431544
    14  O   -0.360535
    15  H    0.111532
    16  H   -0.022427
    17  H    0.010481
    18  H   -0.019930
    19  N   -0.115469
    20  C    0.118833
    21  C    0.115918
    22  O   -0.240773
    23  C    0.008906
    24  C    0.022860
    25  C   -0.067618
    26  C    0.033079
    27  N    0.094444
    28  H    0.103200
    29  H   -0.029711
    30  H    0.009176
    31  H    0.035270
    32  H    0.023583
    33  H   -0.003153
    34  H    0.038534
    35  H    0.010147
    36  H    0.058269
    37  H    0.078229
    38  H    0.188747
    39  H    0.190292
    40  H    0.176437
    41  N   -0.136922
    42  C    0.099346
    43  C    0.057481
    44  O   -0.252083
    45  C    0.075602
    46  C    0.141429
    47  O   -0.418437
    48  O   -0.404840
    49  H    0.107914
    50  H    0.002253
    51  H    0.025923
    52  H   -0.007892
    53  N   -0.187326
    54  C    0.248783
    55  C    0.021102
    56  O   -0.273512
    57  H    0.129391
    58  H    0.036007
    59  H    0.071914
    60  N   -0.120561
    61  C    0.120839
    62  C    0.061135
    63  O   -0.265056
    64  C    0.074283
    65  C    0.008202
    66  N   -0.052302
    67  O   -0.240875
    68  H    0.113212
    69  H   -0.042375
    70  H    0.011385
    71  H    0.054543
    72  H    0.102579
    73  H    0.136772
    74  N   -0.085729
    75  C    0.177816
    76  C    0.049751
    77  O   -0.229964
    78  H    0.117722
    79  H    0.010890
    80  H    0.027013
    81  N   -0.162125
    82  C    0.123475
    83  C    0.071821
    84  O   -0.258875
    85  C    0.122269
    86  C   -0.056713
    87  C    0.065103
    88  C   -0.025288
    89  C   -0.016261
    90  C   -0.040213
    91  C    0.184382
    92  O   -0.225060
    93  H    0.111685
    94  H   -0.004966
    95  H   -0.033599
    96  H    0.029216
    97  H   -0.017885
    98  H   -0.045911
    99  H   -0.011815
   100  H   -0.051133
   101  H    0.173267
   102  N   -0.103027
   103  C    0.212229
   104  C    0.040896
   105  O   -0.293872
   106  C   -0.129267
   107  C    0.028979
   108  C    0.097632
   109  C    0.011750
   110  H    0.115182
   111  H    0.015767
   112  H    0.000994
   113  H   -0.017687
   114  H    0.007906
   115  H   -0.047253
   116  H    0.043063
   117  H   -0.019466
   118  H    0.021927
   119  H    0.021193
   120  H    0.013156
   121  N   -0.104844
   122  C    0.095964
   123  C    0.054614
   124  O   -0.286255
   125  C    0.216231
   126  O   -0.314960
   127  H    0.135020
   128  H    0.022308
   129  H    0.021832
   130  H   -0.020474
   131  H    0.173084
   132  N   -0.135874
   133  C    0.041791
   134  C    0.082527
   135  O   -0.296143
   136  C    0.076964
   137  H    0.132331
   138  H    0.021845
   139  H    0.020990
   140  H    0.007336
   141  H    0.035982
   142  N   -0.134056
   143  C    0.106104
   144  C    0.072027
   145  O   -0.258929
   146  C    0.067571
   147  H    0.157348
   148  H   -0.020753
   149  H    0.019881
   150  H   -0.000754
   151  H    0.026950
   152  N   -0.149811
   153  C    0.096569
   154  C    0.058223
   155  O   -0.296515
   156  C    0.042906
   157  C    0.054691
   158  C    0.127009
   159  O   -0.470767
   160  O   -0.444330
   161  H    0.121735
   162  H   -0.007585
   163  H    0.013365
   164  H    0.027466
   165  H    0.004074
   166  H   -0.003783
   167  N   -0.132911
   168  C    0.147630
   169  H    0.037328
   170  H    0.023863
   171  H    0.020543
   172  H    0.119464
   173  Ca   1.365685
   174  O   -0.305103
   175  H    0.195084
   176  H    0.190760
 Sum of Mulliken charges =  -0.00000
 Mulliken charges with hydrogens summed into heavy atoms:
               1
     1  C    0.108724
     2  C   -0.000756
     3  O   -0.315354
     7  N   -0.003783
     8  C    0.052506
     9  C    0.076901
    10  O   -0.284673
    11  C    0.077901
    12  C    0.063277
    13  O   -0.431544
    14  O   -0.360535
    19  N   -0.012269
    20  C    0.089122
    21  C    0.115918
    22  O   -0.240773
    23  C    0.053353
    24  C    0.043290
    25  C   -0.018938
    26  C    0.169577
    27  N    0.649920
    41  N   -0.029008
    42  C    0.101599
    43  C    0.057481
    44  O   -0.252083
    45  C    0.093632
    46  C    0.141429
    47  O   -0.418437
    48  O   -0.404840
    53  N   -0.057936
    54  C    0.356703
    55  C    0.021102
    56  O   -0.273512
    60  N   -0.007349
    61  C    0.078463
    62  C    0.061135
    63  O   -0.265056
    64  C    0.140210
    65  C    0.008202
    66  N    0.187050
    67  O   -0.240875
    74  N    0.031993
    75  C    0.215719
    76  C    0.049751
    77  O   -0.229964
    81  N   -0.050439
    82  C    0.118509
    83  C    0.071821
    84  O   -0.258875
    85  C    0.117886
    86  C   -0.056713
    87  C    0.047218
    88  C   -0.071200
    89  C   -0.028075
    90  C   -0.091346
    91  C    0.184382
    92  O   -0.051794
   102  N    0.012156
   103  C    0.227996
   104  C    0.040896
   105  O   -0.293872
   106  C   -0.128273
   107  C    0.019198
   108  C    0.073976
   109  C    0.068026
   121  N    0.030176
   122  C    0.118272
   123  C    0.054614
   124  O   -0.286255
   125  C    0.217590
   126  O   -0.141876
   132  N   -0.003543
   133  C    0.063636
   134  C    0.082527
   135  O   -0.296143
   136  C    0.141272
   142  N    0.023291
   143  C    0.085351
   144  C    0.072027
   145  O   -0.258929
   146  C    0.113647
   152  N   -0.028076
   153  C    0.088984
   154  C    0.058223
   155  O   -0.296515
   156  C    0.083737
   157  C    0.054983
   158  C    0.127009
   159  O   -0.470767
   160  O   -0.444330
   167  N   -0.013447
   168  C    0.229363
   173  Ca   1.365685
   174  O    0.080741
 DipInt: DoE/N= T F RetVal/Mat= T F Init=T NMatP=  1 IDeriv=0 Min/MaxMlt=  0  4
 Entering OneElI...
 OneElI was handed  1333951383 working-precision words.
 Multipole integrals L=0 to 4 MinM= 0 MaxM= 0.
 Requested accuracy = 0.1000D-12
 ShPair: Thresh= 1.00D-13 NBox=     0 BxSize= 0.00D+00 RnKept= 3.35D+01
         NSMCal=               327645 NSMKep=              122960
 PrmmSu-InSpLW:  IPartL=    0 NPrtUS=    1 NPrtUL=    1 DoSpLW=F IThBeg=    0 IThEnd=    0 NThAct=    1.
 PrsmSu:  NPrtUS=   1 ThrOK=F IAlg=1 NPAlg=1 LenDen=           0 ISkipM=0 DoSpLW=F IThBeg=    0 IThEnd=    0.
 Prism:   IPart=     0 DynPar=F LinDyn=F Incr=         512.
 PRISM was handed  1325349443 working-precision words and122960 shell-pairs
 IPart=  0 NShTot=      122960 NBatch=         286 AvBLen=       429.9
 PrsmSu-ThDecC:  IPartSL=    0    0 NPrtUSL=    1    1 IThBeg=    0 IThEnd=    0 CPU=   -1 GPU=   -1 NThAct=    1.
 PrSmSu:  NxtVal=            513.
 Electronic moments (au):
       -716.00000000          3.53592021          5.14396586        -11.74788001
     -84045.29263446     -39934.75083277     -17475.83191954       -213.94486854
        112.26728075         21.96695786      34637.79922107     -74084.34069304
     -19482.70394453     -81938.56129922      94633.06076622    -244634.27935353
      91550.39972099      17820.97602469      33579.81657581      -5704.24232325
  -20272319.46184837   -4425627.46375798   -1333492.17641896     879786.96492599
     813098.28195773    -120762.34764973    -510615.84333483     584029.35156561
      54339.76676767   -2930769.19339178   -2568388.65810720    -728278.98551539
     879556.06085630    -351751.42023139      32902.86302647
 Electronic spatial extent (au):  <R**2>=         141455.8754
 DipInt: DoE/N= F T RetVal/Mat= T F Init=T NMatP=  1 IDeriv=0 Min/MaxMlt=  0  4
 Nuclear    moments (au):
        716.00000000         -0.00000000         -0.00000000          0.00000000
      83631.93288434      39555.87645730      17085.86371421         -0.00000000
         -0.00000000         -0.00000000     -31770.70976250      73599.24408032
      18776.98692109      81553.37493296     -91866.75755409     242077.02651319
     -91360.56641523     -17673.57930888     -34149.73319297       6101.09411994
   19975641.85086311    4298282.31094090    1277116.07042020    -950127.45714100
    -769458.99943445     107575.18212541     515889.92486884    -576624.54355074
     -55628.33716164    2862199.33855270    2501571.65315672     697368.73136041
    -878578.17161196     353202.58687764     -34963.89955631
 Total      moments (au):
         -0.00000000          3.53592021          5.14396586        -11.74788001
       -413.35975012       -378.87437547       -389.96820533       -213.94486854
        112.26728075         21.96695786       2867.08945857       -485.09661273
       -705.71702344       -385.18636626       2766.30321213      -2557.25284034
        189.83330576        147.39671582       -569.91661716        396.85179669
    -296677.61098526    -127345.15281707     -56376.10599876     -70340.49221501
      43639.28252329     -13187.16552432       5274.08153402       7404.80801487
      -1288.57039397     -68569.85483908     -66817.00495048     -30910.25415498
        977.88924435       1451.16664625      -2061.03652984
 Traceless Quadrup. (au):
        -19.29230648         15.19306817          4.09923831       -213.94486854
        112.26728075         21.96695786
 Charge=             -0.0000 electrons
 Dipole moment (field-independent basis, Debye):
    X=              8.9874    Y=             13.0747    Z=            -29.8601  Tot=             33.8134
 Quadrupole moment (field-independent basis, Debye-Ang):
   XX=           -555.9830   YY=           -509.5990   ZZ=           -524.5206
   XY=           -287.7632   XZ=            151.0033   YZ=             29.5463
 Traceless Quadrupole moment (field-independent basis, Debye-Ang):
   XX=            -25.9488   YY=             20.4352   ZZ=              5.5136
   XY=           -287.7632   XZ=            151.0033   YZ=             29.5463
 Octapole moment (field-independent basis, Debye-Ang**2):
  XXX=           2040.6838  YYY=           -345.2731  ZZZ=           -502.3022  XYY=           -274.1608
  XXY=           1968.9481  XXZ=          -1820.1541  XZZ=            135.1160  YZZ=            104.9113
  YYZ=           -405.6447  XYZ=            282.4638
 Hexadecapole moment (field-independent basis, Debye-Ang**3):
 XXXX=        -111743.0145 YYYY=         -47964.2910 ZZZZ=         -21233.9448 XXXY=         -26493.6023
 XXXZ=          16436.6464 YYYX=          -4966.9189 YYYZ=           1986.4720 ZZZX=           2789.0058
 ZZZY=           -485.3374 XXYY=         -25826.6954 XXZZ=         -25166.4880 YYZZ=         -11642.2839
 XXYZ=            368.3200 YYXZ=            546.5789 ZZXY=           -776.2852
 N-N= 1.889326095006D+04 E-N=-5.026680401159D+04  KE= 5.290390318481D+03
 Leave Link  601 at Tue Sep 17 10:18:22 2019, MaxMem=  1342177280 cpu:              53.5 elap:               1.3
 FitSet:  NAtFit=   176 NAtPot=   176 NAtFrz=     0 MDM=   180 TotChg=   0.00000
 Merz-Kollman atomic radii used.
 Read replacement radii for each type of atom:
 Rad(20) =   1.700000000000D+00
 Atom Element Radius
    1     6    1.50
    2     6    1.50
    3     8    1.40
    4     1    1.20
    5     1    1.20
    6     1    1.20
    7     7    1.50
    8     6    1.50
    9     6    1.50
   10     8    1.40
   11     6    1.50
   12     6    1.50
   13     8    1.40
   14     8    1.40
   15     1    1.20
   16     1    1.20
   17     1    1.20
   18     1    1.20
   19     7    1.50
   20     6    1.50
   21     6    1.50
   22     8    1.40
   23     6    1.50
   24     6    1.50
   25     6    1.50
   26     6    1.50
   27     7    1.50
   28     1    1.20
   29     1    1.20
   30     1    1.20
   31     1    1.20
   32     1    1.20
   33     1    1.20
   34     1    1.20
   35     1    1.20
   36     1    1.20
   37     1    1.20
   38     1    1.20
   39     1    1.20
   40     1    1.20
   41     7    1.50
   42     6    1.50
   43     6    1.50
   44     8    1.40
   45     6    1.50
   46     6    1.50
   47     8    1.40
   48     8    1.40
   49     1    1.20
   50     1    1.20
   51     1    1.20
   52     1    1.20
   53     7    1.50
   54     6    1.50
   55     6    1.50
   56     8    1.40
   57     1    1.20
   58     1    1.20
   59     1    1.20
   60     7    1.50
   61     6    1.50
   62     6    1.50
   63     8    1.40
   64     6    1.50
   65     6    1.50
   66     7    1.50
   67     8    1.40
   68     1    1.20
   69     1    1.20
   70     1    1.20
   71     1    1.20
   72     1    1.20
   73     1    1.20
   74     7    1.50
   75     6    1.50
   76     6    1.50
   77     8    1.40
   78     1    1.20
   79     1    1.20
   80     1    1.20
   81     7    1.50
   82     6    1.50
   83     6    1.50
   84     8    1.40
   85     6    1.50
   86     6    1.50
   87     6    1.50
   88     6    1.50
   89     6    1.50
   90     6    1.50
   91     6    1.50
   92     8    1.40
   93     1    1.20
   94     1    1.20
   95     1    1.20
   96     1    1.20
   97     1    1.20
   98     1    1.20
   99     1    1.20
  100     1    1.20
  101     1    1.20
  102     7    1.50
  103     6    1.50
  104     6    1.50
  105     8    1.40
  106     6    1.50
  107     6    1.50
  108     6    1.50
  109     6    1.50
  110     1    1.20
  111     1    1.20
  112     1    1.20
  113     1    1.20
  114     1    1.20
  115     1    1.20
  116     1    1.20
  117     1    1.20
  118     1    1.20
  119     1    1.20
  120     1    1.20
  121     7    1.50
  122     6    1.50
  123     6    1.50
  124     8    1.40
  125     6    1.50
  126     8    1.40
  127     1    1.20
  128     1    1.20
  129     1    1.20
  130     1    1.20
  131     1    1.20
  132     7    1.50
  133     6    1.50
  134     6    1.50
  135     8    1.40
  136     6    1.50
  137     1    1.20
  138     1    1.20
  139     1    1.20
  140     1    1.20
  141     1    1.20
  142     7    1.50
  143     6    1.50
  144     6    1.50
  145     8    1.40
  146     6    1.50
  147     1    1.20
  148     1    1.20
  149     1    1.20
  150     1    1.20
  151     1    1.20
  152     7    1.50
  153     6    1.50
  154     6    1.50
  155     8    1.40
  156     6    1.50
  157     6    1.50
  158     6    1.50
  159     8    1.40
  160     8    1.40
  161     1    1.20
  162     1    1.20
  163     1    1.20
  164     1    1.20
[...]
 **** Fit      -0.007277
 **** Fit      -0.004995
 **** Fit      -0.002961
 **** Fit      -0.001326
 **** Fit      -0.013295
 **** Fit      -0.010687
 **** Fit      -0.008771
 **** Fit      -0.008205
 **** Fit      -0.009028
 **** Fit      -0.010460
 **** Fit      -0.012343
 **** Fit      -0.008880
 **** Fit      -0.005601
 **** Fit      -0.002917
 **** Fit      -0.014492
 **** Fit      -0.011880
 **** Fit      -0.011217
 **** Fit      -0.008780
 **** Fit      -0.004615
 **** Fit      -0.000132
 **** Fit      -0.000601
 **** Fit      -0.001267
 **** Fit       0.000422
 **** Fit       0.000228
 **** Fit      -0.000017
 **** Fit      -0.000445
 **** Fit      -0.001098
 **** Fit      -0.001913
 **** Fit      -0.002707
 **** Fit       0.000538
 **** Fit       0.000463
 **** Fit       0.000342
 **** Fit       0.000060
 **** Fit      -0.000447
 **** Fit      -0.001193
 **** Fit      -0.002135
 **** Fit      -0.003158
 **** Fit       0.000666
 **** Fit       0.000632
 **** Fit       0.000651
 **** Fit       0.000591
 **** Fit       0.000362
 **** Fit      -0.000094
 **** Fit      -0.000806
 **** Fit      -0.001771
 **** Fit      -0.002943
 **** Fit      -0.004215
 **** Fit      -0.005400
 **** Fit       0.000656
 **** Fit       0.000732
 **** Fit       0.000804
 **** Fit       0.000775
 **** Fit       0.000575
 **** Fit       0.000155
 **** Fit      -0.000519
 **** Fit      -0.001464
 **** Fit      -0.002675
 **** Fit      -0.004111
 **** Fit      -0.005677
 **** Fit      -0.007199
 **** Fit       0.000629
 **** Fit       0.000734
 **** Fit       0.000859
 **** Fit       0.000900
 **** Fit       0.000783
 **** Fit       0.000448
 **** Fit      -0.000148
 **** Fit      -0.001043
 **** Fit      -0.002259
 **** Fit      -0.003804
 **** Fit      -0.005649
 **** Fit      -0.007705
 **** Fit      -0.009790
 **** Fit       0.000695
 **** Fit       0.000832
 **** Fit       0.000906
 **** Fit       0.000840
 **** Fit       0.000571
 **** Fit       0.000044
 **** Fit      -0.000787
 **** Fit      -0.001967
 **** Fit      -0.003537
 **** Fit      -0.005520
 **** Fit      -0.007913
 **** Fit      -0.010646
 **** Fit      -0.013536
 **** Fit       0.000682
 **** Fit       0.000781
 **** Fit       0.000826
 **** Fit       0.000730
 **** Fit       0.000425
 **** Fit      -0.000154
 **** Fit      -0.001066
 **** Fit      -0.002376
 **** Fit      -0.004152
 **** Fit      -0.006464
 **** Fit      -0.009368
 **** Fit      -0.012880
 **** Fit      -0.016917
 **** Fit       0.000691
 **** Fit       0.000697
 **** Fit       0.000615
 **** Fit       0.000345
 **** Fit      -0.000203
 **** Fit      -0.001116
 **** Fit      -0.002487
 **** Fit      -0.004425
 **** Fit      -0.007062
 **** Fit      -0.010550
 **** Fit      -0.015041
 **** Fit       0.000582
 **** Fit       0.000416
 **** Fit       0.000084
 **** Fit      -0.000546
 **** Fit      -0.001603
 **** Fit      -0.003230
 **** Fit      -0.005603
 **** Fit      -0.008954
 **** Fit      -0.013592
 **** Fit       0.000185
 **** Fit      -0.000238
 **** Fit      -0.000957
 **** Fit      -0.002156
 **** Fit      -0.004034
 **** Fit      -0.006853
 **** Fit      -0.010977
 **** Fit      -0.002053
 **** Fit      -0.003873
 **** Fit      -0.006810
 **** Fit      -0.011406
 **** Fit      -0.012322
 **** Fit      -0.011035
 **** Fit      -0.007622
 **** Fit      -0.008458
 **** Fit      -0.002606
 **** Fit      -0.005612
 **** Fit       0.000018
 **** Fit      -0.000036
 **** Fit       0.004644
 **** Fit       0.007009
 **** Fit       0.010487
 **** Fit      -0.026382
 **** Fit      -0.021781
 **** Fit      -0.020478
 **** Fit      -0.015350
 **** Fit      -0.014943
 **** Fit      -0.018196
 **** Fit      -0.009593
 **** Fit      -0.010174
 **** Fit      -0.015116
 **** Fit      -0.011058
 **** Fit      -0.004640
 **** Fit      -0.006414
 **** Fit      -0.013161
 **** Fit      -0.007748
 **** Fit      -0.004902
 **** Fit      -0.000484
 **** Fit      -0.003652
 **** Fit      -0.005738
 **** Fit      -0.001273
 **** Fit       0.000454
 **** Fit       0.002996
 **** Fit      -0.005140
 **** Fit       0.001044
 **** Fit       0.004506
 **** Fit       0.005132
 **** Fit       0.006032
 **** Fit       0.001098
 **** Fit       0.006897
 **** Fit       0.009662
 **** Fit       0.009373
 **** Fit       0.008938
 **** Fit       0.007624
 **** Fit       0.012652
 **** Fit       0.014565
 **** Fit       0.013363
 **** Fit       0.012046
 **** Fit       0.013823
 **** Fit       0.018114
 **** Fit       0.019295
 **** Fit       0.017341
 **** Fit       0.015610
 **** Fit       0.020082
 **** Fit       0.023471
 **** Fit       0.023930
 **** Fit       0.021396
 **** Fit       0.019750
 **** Fit       0.019721
 **** Fit       0.025570
 **** Fit       0.028502
 **** Fit       0.028598
 **** Fit       0.025773
 **** Fit       0.024450
 **** Fit       0.025998
 **** Fit       0.031036
 **** Fit       0.033445
 **** Fit       0.033242
 **** Fit       0.030325
 **** Fit       0.029586
 **** Fit       0.052710
 **** Fit       0.049205
 **** Fit       0.031725
 **** Fit       0.036135
 **** Fit       0.038209
 **** Fit       0.037895
 **** Fit       0.035085
 **** Fit       0.034981
 **** Fit       0.027633
 **** Fit       0.045601
 **** Fit       0.054334
 **** Fit       0.050540
 **** Fit       0.043301
 **** Fit       0.032056
 **** Fit       0.037491
 **** Fit       0.041147
 **** Fit       0.042842
 **** Fit       0.042457
 **** Fit       0.039879
 **** Fit       0.040446
 **** Fit       0.034047
 **** Fit       0.044869
 **** Fit       0.052978
 **** Fit       0.060651
 **** Fit       0.067803
 **** Fit       0.056769
 **** Fit       0.051590
 **** Fit       0.045080
 **** Fit       0.037729
 **** Fit       0.042305
 **** Fit       0.045593
 **** Fit       0.047230
 **** Fit       0.046999
 **** Fit       0.044764
 **** Fit       0.045806
 **** Fit       0.040464
 **** Fit       0.033825
 **** Fit       0.044272
 **** Fit       0.051967
 **** Fit       0.059030
 **** Fit       0.065353
 **** Fit       0.070582
 **** Fit       0.064249
 **** Fit       0.062069
 **** Fit       0.058480
 **** Fit       0.053745
 **** Fit       0.048414
 **** Fit       0.043311
 **** Fit       0.039425
 **** Fit       0.038066
 **** Fit       0.040434
 **** Fit       0.043813
 **** Fit       0.047251
 **** Fit       0.049972
 **** Fit       0.051442
 **** Fit       0.051333
 **** Fit       0.049469
 **** Fit       0.050917
 **** Fit       0.046650
 **** Fit       0.041626
 **** Fit       0.036742
 **** Fit       0.038811
 **** Fit       0.044964
 **** Fit       0.051602
 **** Fit       0.058045
 **** Fit       0.063901
 **** Fit       0.068822
 **** Fit       0.072365
 **** Fit       0.068215
 **** Fit       0.066620
 **** Fit       0.064106
 **** Fit       0.060684
 **** Fit       0.056732
 **** Fit       0.052896
 **** Fit       0.049938
 **** Fit       0.048471
 **** Fit       0.048671
 **** Fit       0.050186
 **** Fit       0.052315
 **** Fit       0.054288
 **** Fit       0.055466
 **** Fit       0.055416
 **** Fit       0.053909
 **** Fit       0.055669
 **** Fit       0.052311
 **** Fit       0.048657
 **** Fit       0.045688
 **** Fit       0.044454
 **** Fit       0.045601
 **** Fit       0.049002
 **** Fit       0.053887
 **** Fit       0.059333
 **** Fit       0.064592
 **** Fit       0.069103
 **** Fit       0.072389
 **** Fit       0.074111
 **** Fit       0.074307
 **** Fit       0.073516
 **** Fit       0.072388
 **** Fit       0.071119
 **** Fit       0.069451
 **** Fit       0.067127
 **** Fit       0.064211
 **** Fit       0.061120
 **** Fit       0.058481
 **** Fit       0.056877
 **** Fit       0.056547
 **** Fit       0.057251
 **** Fit       0.058384
 **** Fit       0.059243
 **** Fit       0.059253
 **** Fit       0.058077
 **** Fit       0.059983
 **** Fit       0.057496
 **** Fit       0.055144
 **** Fit       0.053896
 **** Fit       0.054501
 **** Fit       0.057056
 **** Fit       0.060980
 **** Fit       0.065393
 **** Fit       0.069473
 **** Fit       0.072582
 **** Fit       0.074345
 **** Fit       0.074790
 **** Fit       0.074305
 **** Fit       0.073257
 **** Fit       0.071717
 **** Fit       0.069648
 **** Fit       0.067222
 **** Fit       0.064900
 **** Fit       0.063224
 **** Fit       0.062493
 **** Fit       0.062550
 **** Fit       0.062858
 **** Fit       0.062779
 **** Fit       0.061855
 **** Fit       0.063804
 **** Fit       0.062056
 **** Fit       0.060973
 **** Fit       0.061496
 **** Fit       0.063845
 **** Fit       0.067336
 **** Fit       0.070875
 **** Fit       0.073512
 **** Fit       0.074781
 **** Fit       0.074778
 **** Fit       0.073838
 **** Fit       0.072207
 **** Fit       0.070177
 **** Fit       0.068271
 **** Fit       0.066999
 **** Fit       0.066421
 **** Fit       0.066054
 **** Fit       0.065269
 **** Fit       0.067096
 **** Fit       0.066140
 **** Fit       0.066588
 **** Fit       0.068850
 **** Fit       0.071828
 **** Fit       0.073963
 **** Fit       0.074507
 **** Fit       0.073650
 **** Fit       0.071994
 **** Fit       0.070341
 **** Fit       0.069200
 **** Fit       0.068270
 **** Fit       0.069834
 **** Fit       0.070029
 **** Fit       0.072234
 **** Fit       0.073565
 **** Fit       0.072623
 **** Fit       0.071021
 **** Fit       0.071998
 **** Fit       0.079725
 **** Fit       0.072277
 **** Fit       0.068051
 **** Fit       0.048868
 **** Fit       0.048968
 **** Fit       0.058869
 **** Fit       0.069609
 **** Fit       0.065449
 **** Fit       0.061621
 **** Fit       0.058187
 **** Fit       0.055177
 **** Fit       0.052641
 **** Fit       0.050703
 **** Fit       0.049607
 **** Fit       0.049769
 **** Fit       0.051905
 **** Fit       0.065241
 **** Fit       0.061326
 **** Fit       0.057776
 **** Fit       0.054722
 **** Fit       0.052282
 **** Fit       0.050631
 **** Fit       0.050072
 **** Fit       0.051118
 **** Fit       0.054620
 **** Fit       0.067054
 **** Fit       0.061629
 **** Fit       0.058103
 **** Fit       0.055023
 **** Fit       0.052619
 **** Fit       0.051144
 **** Fit       0.050963
 **** Fit       0.052647
 **** Fit       0.057073
 **** Fit       0.068166
 **** Fit       0.063779
 **** Fit       0.060550
 **** Fit       0.057309
 **** Fit       0.054532
 **** Fit       0.052638
 **** Fit       0.052080
 **** Fit       0.053455
 **** Fit       0.057588
 **** Fit       0.071600
 **** Fit       0.067361
 **** Fit       0.065795
 **** Fit       0.063865
 **** Fit       0.061620
 **** Fit       0.058731
 **** Fit       0.055956
 **** Fit       0.054113
 **** Fit       0.054033
 **** Fit       0.056640
 **** Fit       0.062878
 **** Fit       0.069482
 **** Fit       0.065355
 **** Fit       0.063078
 **** Fit       0.060885
 **** Fit       0.058299
 **** Fit       0.056349
 **** Fit       0.056652
 **** Fit       0.060695
 **** Fit       0.068677
 **** Fit       0.069640
 **** Fit       0.066515
 **** Fit       0.062414
 **** Fit       0.059610
 **** Fit       0.059767
 **** Fit       0.065278
 **** Fit       0.063153
 **** Fit       0.058112
 **** Fit       0.052576
 **** Fit       0.064522
 **** Fit       0.058071
 **** Fit       0.052679
 **** Fit       0.048292
 **** Fit       0.071554
 **** Fit       0.064549
 **** Fit       0.058506
 **** Fit       0.053453
 **** Fit       0.049360
 **** Fit       0.046147
 **** Fit       0.043698
 **** Fit       0.089802
 **** Fit       0.081585
 **** Fit       0.074021
 **** Fit       0.067222
 **** Fit       0.061262
 **** Fit       0.056183
 **** Fit       0.051987
 **** Fit       0.048633
 **** Fit       0.046047
 **** Fit       0.044112
 **** Fit       0.090573
 **** Fit       0.082711
 **** Fit       0.075415
 **** Fit       0.068800
 **** Fit       0.062946
 **** Fit       0.057907
 **** Fit       0.053698
 **** Fit       0.050300
 **** Fit       0.047657
 **** Fit       0.045688
 **** Fit       0.044275
 **** Fit       0.079740
 **** Fit       0.072931
 **** Fit       0.066835
 **** Fit       0.061491
 **** Fit       0.056934
 **** Fit       0.053174
 **** Fit       0.050194
 **** Fit       0.047957
 **** Fit       0.046428
 **** Fit       0.045629
 **** Fit       0.070460
 **** Fit       0.064945
 **** Fit       0.060168
 **** Fit       0.056145
 **** Fit       0.052891
 **** Fit       0.050415
 **** Fit       0.048748
 **** Fit       0.048010
 **** Fit       0.062642
 **** Fit       0.058296
 **** Fit       0.054793
 **** Fit       0.052189
 **** Fit       0.050599
 **** Fit       0.046601
 **** Fit       0.064850
 **** Fit       0.047803
 **** Fit       0.063106
 **** Fit       0.076603
 **** Fit       0.056110
 **** Fit       0.068136
 **** Fit       0.078915
 **** Fit       0.051889
 **** Fit       0.062110
 **** Fit       0.071254
 **** Fit       0.079555
 **** Fit       0.087079
 **** Fit       0.095164
 **** Fit       0.043291
 **** Fit       0.052302
 **** Fit       0.060455
 **** Fit       0.067895
 **** Fit       0.074694
 **** Fit       0.080833
 **** Fit       0.086214
 **** Fit       0.090640
 **** Fit       0.092815
 **** Fit       0.090177
 **** Fit       0.087747
 **** Fit       0.043696
 **** Fit       0.050160
 **** Fit       0.056679
 **** Fit       0.062938
 **** Fit       0.068803
 **** Fit       0.074173
 **** Fit       0.078924
 **** Fit       0.082888
 **** Fit       0.085846
 **** Fit       0.087563
 **** Fit       0.087892
 **** Fit       0.086927
 **** Fit       0.085058
 **** Fit       0.082859
 **** Fit       0.049376
 **** Fit       0.052179
 **** Fit       0.056437
 **** Fit       0.061184
 **** Fit       0.065943
 **** Fit       0.070437
 **** Fit       0.074454
 **** Fit       0.077795
 **** Fit       0.080259
 **** Fit       0.081666
 **** Fit       0.081925
 **** Fit       0.081112
 **** Fit       0.079497
 **** Fit       0.077480
 **** Fit       0.056600
 **** Fit       0.057953
 **** Fit       0.060774
 **** Fit       0.064190
 **** Fit       0.067691
 **** Fit       0.070941
 **** Fit       0.073683
 **** Fit       0.075706
 **** Fit       0.076844
 **** Fit       0.077021
 **** Fit       0.076285
 **** Fit       0.074820
 **** Fit       0.072897
 **** Fit       0.062041
 **** Fit       0.061155
 **** Fit       0.062447
 **** Fit       0.064761
 **** Fit       0.067368
 **** Fit       0.069790
 **** Fit       0.071683
 **** Fit       0.072806
 **** Fit       0.073026
 **** Fit       0.072344
 **** Fit       0.070897
 **** Fit       0.068906
 **** Fit       0.064050
 **** Fit       0.063932
 **** Fit       0.065185
 **** Fit       0.066917
 **** Fit       0.068511
 **** Fit       0.069553
 **** Fit       0.069795
 **** Fit       0.069162
 **** Fit       0.067742
 **** Fit       0.065954
 **** Fit       0.065086
 **** Fit       0.065644
 **** Fit       0.066612
 **** Fit       0.067252
 **** Fit       0.067133
 **** Fit       0.066131
 **** Fit       0.064385
 **** Fit       0.066411
 **** Fit       0.065436
 **** Fit       0.065557
 **** Fit       0.065490
 **** Fit       0.064544
 **** Fit       0.064884
 -----------------------------------------------------------------
 Leave Link  602 at Tue Sep 17 10:18:25 2019, MaxMem=  1342177280 cpu:             126.1 elap:               2.7

 Test job not archived.
 1\1\GINC-C490-113\SP\RB3LYP\SVP\C54H83Ca1N15O23\PENGZHI\17-Sep-2019\0\
 \#b3lyp/svp scf=(tight,noincore) Test #IOP(5/87=12) Density=Current Po
 p=(MK,readradii) iop(6/33=2) iop(6/42=6)\\Ng-293_loop3_45.0\\0,1\C,0,3
 8.65,77.28,69.36\C,0,39.35,77.21,68.02\O,0,40.4,77.82,67.84\H,0,37.643
 ,76.873,69.265\H,0,39.209,76.699,70.093\H,0,38.592,78.318,69.687\N,0,3
 8.76,76.5,67.05\C,0,39.14,76.26,65.67\C,0,38.78,74.84,65.25\O,0,38.1,7
 4.19,66.04\C,0,38.41,77.38,64.93\C,0,38.66,77.54,63.44\O,0,39.78,77.17
 ,63.03\O,0,37.71,77.99,62.77\H,0,37.88,76.07,67.29\H,0,40.22,76.35,65.
 52\H,0,38.8,78.26,65.44\H,0,37.35,77.14,65.06\N,0,39.21,74.49,64.03\C,
 0,38.93,73.27,63.3\C,0,37.47,72.98,62.95\O,0,36.59,73.72,63.38\C,0,39.
 66,72.09,63.94\C,0,41.18,72.16,63.99\C,0,41.87,71.94,62.65\C,0,43.38,7
 1.68,62.69\N,0,44.15,72.76,63.32\H,0,39.8,75.2,63.62\H,0,39.43,73.34,6
 2.34\H,0,39.35,71.13,63.54\H,0,39.32,71.96,64.97\H,0,41.39,71.3,64.63\
 H,0,41.48,73.14,64.36\H,0,41.68,72.83,62.05\H,0,41.46,71.06,62.16\H,0,
 43.59,71.53,61.63\H,0,43.56,70.73,63.19\H,0,44.02,73.61,62.79\H,0,43.9
 4,72.91,64.29\H,0,45.14,72.52,63.32\N,0,37.27,71.97,62.11\C,0,35.93,71
 .75,61.59\C,0,35.01,71.24,62.68\O,0,35.27,70.3,63.43\C,0,35.98,70.76,6
 0.43\C,0,36.78,69.47,60.59\O,0,37.75,69.36,61.37\O,0,36.44,68.6,59.77\
 H,0,38.03,71.34,61.89\H,0,35.6,72.7,61.16\H,0,36.34,71.31,59.56\H,0,34
 .92,70.6,60.22\N,0,33.87,71.92,62.8\C,0,32.78,71.38,63.6\C,0,31.81,70.
 54,62.78\O,0,30.74,70.2,63.28\H,0,33.82,72.77,62.26\H,0,32.35,72.29,64
 .02\H,0,33.15,70.71,64.37\N,0,32.19,70.28,61.52\C,0,31.4,69.43,60.66\C
 ,0,31.09,68.13,61.4\O,0,32.03,67.56,61.94\C,0,32.21,69.23,59.38\C,0,32
 .18,70.45,58.47\N,0,30.97,70.88,58.09\O,0,33.16,71.,57.98\H,0,33.01,70
 .78,61.22\H,0,30.39,69.81,60.51\H,0,31.74,68.38,58.9\H,0,33.24,68.98,5
 9.63\H,0,30.16,70.35,58.34\H,0,30.9,71.78,57.63\N,0,29.84,67.67,61.37\
 C,0,29.53,66.27,61.6\C,0,29.56,65.92,63.08\O,0,29.56,66.82,63.92\H,0,2
 9.11,68.22,60.96\H,0,30.26,65.64,61.08\H,0,28.55,65.95,61.25\N,0,29.52
 ,64.64,63.46\C,0,29.22,64.2,64.8\C,0,30.29,64.49,65.84\O,0,30.11,64.46
 ,67.06\C,0,27.81,64.68,65.13\C,0,27.11,64.,66.28\C,0,27.17,64.57,67.56
 \C,0,26.36,62.85,66.03\C,0,26.57,63.93,68.65\C,0,25.76,62.19,67.12\C,0
 ,25.92,62.7,68.42\O,0,25.5,61.98,69.51\H,0,29.54,63.91,62.76\H,0,29.14
 ,63.11,64.7\H,0,27.18,64.52,64.25\H,0,27.7,65.76,65.27\H,0,27.63,65.54
 ,67.63\H,0,26.19,62.53,65.01\H,0,26.82,64.25,69.65\H,0,25.21,61.29,66.
 9\H,0,24.79,61.36,69.34\N,0,31.49,64.72,65.3\C,0,32.83,64.56,65.8\C,0,
 33.34,63.14,66.02\O,0,34.54,62.9,65.86\C,0,32.99,65.41,67.06\C,0,32.39
 ,66.81,67.03\C,0,34.45,65.46,67.5\C,0,33.07,67.73,66.02\H,0,31.39,64.7
 ,64.29\H,0,33.51,64.96,65.04\H,0,32.4,65.01,67.88\H,0,32.42,67.28,68.0
 1\H,0,31.31,66.78,66.84\H,0,34.84,64.47,67.74\H,0,35.15,66.,66.86\H,0,
 34.51,65.82,68.52\H,0,33.04,67.21,65.06\H,0,32.53,68.67,66.1\H,0,34.1,
 67.9,66.34\N,0,32.58,62.15,66.49\C,0,33.07,60.81,66.67\C,0,34.29,60.56
 ,67.55\O,0,34.9,59.51,67.34\C,0,31.99,59.89,67.23\O,0,31.65,60.29,68.5
 4\H,0,31.57,62.19,66.43\H,0,33.36,60.5,65.66\H,0,32.26,58.84,67.31\H,0
 ,31.13,59.99,66.57\H,0,31.21,59.56,68.99\N,0,34.72,61.5,68.39\C,0,35.9
 4,61.58,69.17\C,0,37.22,61.6,68.34\O,0,38.31,61.2,68.76\C,0,35.89,60.6
 1,70.35\H,0,34.16,62.35,68.38\H,0,35.87,62.56,69.64\H,0,36.67,60.95,71
 .03\H,0,34.86,60.79,70.65\H,0,36.07,59.57,70.06\N,0,37.07,62.14,67.13\
 C,0,38.11,62.21,66.13\C,0,38.97,63.46,66.32\O,0,38.42,64.52,66.59\C,0,
 37.5,62.,64.74\H,0,36.14,62.41,66.84\H,0,38.77,61.36,66.31\H,0,36.97,6
 2.85,64.32\H,0,38.33,61.82,64.06\H,0,36.79,61.19,64.62\N,0,40.29,63.37
 ,66.11\C,0,41.22,64.47,66.01\C,0,41.52,65.2,67.31\O,0,42.17,66.24,67.2
 2\C,0,40.92,65.39,64.83\C,0,40.88,64.68,63.48\C,0,40.33,65.44,62.29\O,
 0,40.45,66.68,62.13\O,0,39.6,64.93,61.41\H,0,40.72,62.47,65.98\H,0,42.
 17,64.,65.78\H,0,41.66,66.19,64.85\H,0,39.9,65.74,64.98\H,0,40.16,63.8
 6,63.52\H,0,41.9,64.29,63.37\N,0,41.08,64.71,68.48\C,0,41.09,65.42,69.
 74\H,0,40.721,66.434,69.588\H,0,40.448,64.904,70.454\H,0,42.108,65.458
 ,70.128\H,0,40.67,63.8,68.37\Ca,0,38.83,67.19,60.22\O,0,40.65,69.05,59
 .81\H,0,40.41,69.97,59.89\H,0,41.61,69.04,59.83\\Version=ES64L-G16RevA
 .03\State=1-A\HF=-5333.3682742\RMSD=5.457e-10\Dipole=3.9524036,-9.8015
 095,-8.0798959\Quadrupole=218.4915185,-248.4359588,29.9444403,51.54552
 72,-35.7699708,7.3863288\PG=C01 [X(C54H83Ca1N15O23)]\\@


 The cat could very well be man's best friend
 but would never stoop to admitting it.
                               -- Doug Larson
 Job cpu time:       0 days  8 hours 13 minutes 58.4 seconds.
 Elapsed time:       0 days  0 hours 10 minutes 26.6 seconds.
 File lengths (MBytes):  RWF=   1517 Int=      0 D2E=      0 Chk=    171 Scr=      1
 Normal termination of Gaussian 16 at Tue Sep 17 10:18:27 2019.
