 Entering Gaussian System, Link 0=g16
 Initial command:
 /home1/apps/gaussian/16rA.03/g16/l1.exe "/scratch/01990/pengzhi/4345550/Gau-116493.inp" -scrdir="/scratch/01990/pengzhi/4345550/"
 Entering Link 1 = /home1/apps/gaussian/16rA.03/g16/l1.exe PID=    116494.
  
 Copyright (c) 1988,1990,1992,1993,1995,1998,2003,2009,2016,
            Gaussian, Inc.  All Rights Reserved.
  
 This is part of the Gaussian(R) 16 program.  It is based on
 the Gaussian(R) 09 system (copyright 2009, Gaussian, Inc.),
 the Gaussian(R) 03 system (copyright 2003, Gaussian, Inc.),
 the Gaussian(R) 98 system (copyright 1998, Gaussian, Inc.),
 the Gaussian(R) 94 system (copyright 1995, Gaussian, Inc.),
 the Gaussian 92(TM) system (copyright 1992, Gaussian, Inc.),
 the Gaussian 90(TM) system (copyright 1990, Gaussian, Inc.),
 the Gaussian 88(TM) system (copyright 1988, Gaussian, Inc.),
 the Gaussian 86(TM) system (copyright 1986, Carnegie Mellon
 University), and the Gaussian 82(TM) system (copyright 1983,
 Carnegie Mellon University). Gaussian is a federally registered
 trademark of Gaussian, Inc.
  
 This software contains proprietary and confidential information,
 including trade secrets, belonging to Gaussian, Inc.
  
 This software is provided under written license and may be
 used, copied, transmitted, or stored only in accord with that
 written license.
  
 The following legend is applicable only to US Government
 contracts under FAR:
  
                    RESTRICTED RIGHTS LEGEND
  
 Use, reproduction and disclosure by the US Government is
 subject to restrictions as set forth in subparagraphs (a)
 and (c) of the Commercial Computer Software - Restricted
 Rights clause in FAR 52.227-19.
  
 Gaussian, Inc.
 340 Quinnipiac St., Bldg. 40, Wallingford CT 06492
  
  
 ---------------------------------------------------------------
 Warning -- This program may not be used in any manner that
 competes with the business of Gaussian, Inc. or will provide
 assistance to any competitor of Gaussian, Inc.  The licensee
 of this program is prohibited from giving any competitor of
 Gaussian, Inc. access to this program.  By using this program,
 the user acknowledges that Gaussian, Inc. is engaged in the
 business of creating and licensing software in the field of
 computational chemistry and represents and warrants to the
 licensee that it is not a competitor of Gaussian, Inc. and that
 it will not use this program in any manner prohibited above.
 ---------------------------------------------------------------
  

 Cite this work as:
 Gaussian 16, Revision A.03,
 M. J. Frisch, G. W. Trucks, H. B. Schlegel, G. E. Scuseria, 
 M. A. Robb, J. R. Cheeseman, G. Scalmani, V. Barone, 
 G. A. Petersson, H. Nakatsuji, X. Li, M. Caricato, A. V. Marenich, 
 J. Bloino, B. G. Janesko, R. Gomperts, B. Mennucci, H. P. Hratchian, 
 J. V. Ortiz, A. F. Izmaylov, J. L. Sonnenberg, D. Williams-Young, 
 F. Ding, F. Lipparini, F. Egidi, J. Goings, B. Peng, A. Petrone, 
 T. Henderson, D. Ranasinghe, V. G. Zakrzewski, J. Gao, N. Rega, 
 G. Zheng, W. Liang, M. Hada, M. Ehara, K. Toyota, R. Fukuda, 
 J. Hasegawa, M. Ishida, T. Nakajima, Y. Honda, O. Kitao, H. Nakai, 
 T. Vreven, K. Throssell, J. A. Montgomery, Jr., J. E. Peralta, 
 F. Ogliaro, M. J. Bearpark, J. J. Heyd, E. N. Brothers, K. N. Kudin, 
 V. N. Staroverov, T. A. Keith, R. Kobayashi, J. Normand, 
 K. Raghavachari, A. P. Rendell, J. C. Burant, S. S. Iyengar, 
 J. Tomasi, M. Cossi, J. M. Millam, M. Klene, C. Adamo, R. Cammi, 
 J. W. Ochterski, R. L. Martin, K. Morokuma, O. Farkas, 
 J. B. Foresman, and D. J. Fox, Gaussian, Inc., Wallingford CT, 2016.
 
 ******************************************
 Gaussian 16:  ES64L-G16RevA.03 25-Dec-2016
                17-Sep-2019 
 ******************************************
 %chk=Ng-293_loop3_72.0.chk
 %nprocshared=48
 Will use up to   48 processors via shared memory.
 %mem=10GB
 %nosave
 ----------------------------------------------------------------------
 #b3lyp/svp scf=(tight,noincore) Test #IOP(5/87=12) Density=Current Pop
 =(MK,readradii) iop(6/33=2) iop(6/42=6)
 ----------------------------------------------------------------------
 1/30=1,38=1,172=1/1;
 2/12=2,17=6,18=5,40=1/2;
 3/5=18,7=101,11=2,25=1,30=1,74=-5/1,2,3;
 4//1;
 5/5=4,32=2,38=5,87=12/2;
 6/7=2,8=2,9=2,10=2,15=8,20=101,22=-1,28=1,33=2,42=6/1,2;
 99/5=1,9=1/99;
 -----------------
 Ng-293_loop3_72.0
 -----------------
 Symbolic Z-matrix:
 Charge =  0 Multiplicity = 1
 C                     41.18     77.55     71.53 
 C                     41.42     77.5      70.03 
 O                     42.3      78.23     69.58 
 H                     40.131    77.34     71.737 
 H                     41.803    76.804    72.023 
 H                     41.433    78.541    71.906 
 N                     40.62     76.77     69.25 
 C                     40.76     76.7      67.81 
 C                     40.35     75.3      67.36 
 O                     39.39     74.73     67.87 
 C                     39.89     77.82     67.24 
 C                     40.14     78.06     65.76 
 O                     41.26     77.76     65.28 
 O                     39.24     78.68     65.16 
 H                     39.85     76.31     69.71 
 H                     41.81     76.72     67.51 
 H                     40.09     78.72     67.83 
 H                     38.85     77.52     67.39 
 N                     41.03     74.81     66.32 
 C                     40.65     73.63     65.56 
 C                     39.24     73.71     64.98 
 O                     38.67     74.79     64.85 
 C                     40.93     72.42     66.44 
 C                     42.41     72.23     66.8 
 C                     43.4      72.35     65.64 
 C                     44.63     71.55     66.07 
 N                     45.4      72.28     67.09 
 H                     41.72     75.42     65.92 
 H                     41.33     73.59     64.71 
 H                     40.64     71.49     65.96 
 H                     40.32     72.48     67.34 
 H                     42.48     71.25     67.27 
 H                     42.72     72.95     67.56 
 H                     43.77     73.37     65.53 
 H                     42.98     71.92     64.74 
 H                     45.3      71.51     65.21 
 H                     44.28     70.6      66.49 
 H                     45.98     73.02     66.72 
 H                     44.87     72.71     67.83 
 H                     46.04     71.65     67.54 
 N                     38.62     72.57     64.67 
 C                     37.3      72.53     64.09 
 C                     36.18     72.52     65.13 
 O                     35.15     73.16     64.94 
 C                     37.12     71.31     63.19 
 C                     37.51     69.93     63.71 
 O                     38.72     69.59     63.66 
 O                     36.65     69.04     63.91 
 H                     39.11     71.71     64.85 
 H                     37.08     73.37     63.42 
 H                     37.73     71.47     62.3 
 H                     36.09     71.25     62.86 
 N                     36.34     71.72     66.19 
 C                     35.49     71.67     67.37 
 C                     33.98     71.62     67.24 
 O                     33.21     72.15     68.04 
 H                     37.27     71.39     66.37 
 H                     35.74     72.51     68.02 
 H                     35.76     70.74     67.85 
 N                     33.52     70.93     66.19 
 C                     32.17     70.59     65.78 
 C                     32.11     69.07     65.73 
 O                     33.15     68.42     65.66 
 C                     31.85     71.22     64.43 
 C                     31.43     72.68     64.52 
 N                     32.41     73.54     64.78 
 O                     30.27     73.05     64.31 
 H                     34.21     70.31     65.78 
 H                     31.37     70.83     66.48 
 H                     31.07     70.69     63.88 
 H                     32.8      71.24     63.9 
 H                     33.34     73.25     65.06 
 H                     32.26     74.51     64.52 
 N                     30.89     68.54     65.67 
 C                     30.67     67.12     65.49 
 C                     30.95     66.35     66.77 
 O                     31.48     66.88     67.74 
 H                     30.05     69.09     65.58 
 H                     31.44     66.7      64.85 
 H                     29.7      66.78     65.14 
 N                     30.54     65.08     66.84 
 C                     30.42     64.29     68.05 
 C                     31.71     63.98     68.8 
 O                     31.62     63.53     69.94 
 C                     29.31     64.88     68.92 
 C                     28.63     63.97     69.91 
 C                     29.       64.05     71.25 
 C                     27.62     63.11     69.47 
 C                     28.32     63.22     72.16 
 C                     26.98     62.28     70.4 
 C                     27.31     62.32     71.77 
 O                     26.95     61.28     72.58 
 H                     30.06     64.75     66.01 
 H                     30.02     63.38     67.61 
 H                     28.52     65.26     68.27 
 H                     29.79     65.7      69.46 
 H                     29.74     64.76     71.58 
 H                     27.39     63.01     68.42 
 H                     28.67     63.19     73.18 
 H                     26.19     61.59     70.14 
 H                     26.3      60.68     72.21 
 N                     32.9      64.25     68.26 
 C                     34.24     63.95     68.71 
 C                     34.65     62.49     68.66 
 O                     35.6      62.13     67.95 
 C                     34.51     64.77     69.97 
 C                     34.05     66.22     70.07 
 C                     36.       64.75     70.27 
 C                     34.56     67.28     69.1 
 H                     32.99     64.79     67.42 
 H                     34.93     64.32     67.94 
 H                     34.04     64.22     70.78 
 H                     34.16     66.57     71.1 
 H                     32.98     66.23     69.87 
 H                     36.37     63.75     70.49 
 H                     36.64     65.25     69.54 
 H                     36.29     65.26     71.2 
 H                     34.43     66.9      68.09 
 H                     33.88     68.13     69.05 
 H                     35.62     67.46     69.31 
 N                     33.99     61.61     69.41 
 C                     34.13     60.16     69.39 
 C                     35.49     59.63     69.82 
 O                     35.96     58.67     69.22 
 C                     33.01     59.56     70.22 
 O                     32.93     60.04     71.55 
 H                     33.25     61.91     70.03 
 H                     34.01     59.78     68.37 
 H                     33.03     58.47     70.2 
 H                     32.1      59.88     69.71 
 H                     31.99     60.24     71.58 
 N                     36.17     60.34     70.73 
 C                     37.45     60.03     71.34 
 C                     38.52     59.87     70.27 
 O                     39.36     58.98     70.34 
 C                     37.33     58.82     72.27 
 H                     35.68     61.05     71.23 
 H                     37.75     60.87     71.97 
 H                     36.84     59.17     73.17 
 H                     36.81     58.03     71.72 
 H                     38.29     58.36     72.51 
 N                     38.44     60.67     69.2 
 C                     39.54     60.91     68.29 
 C                     39.99     62.36     68.29 
 O                     39.22     63.21     68.75 
 C                     39.15     60.45     66.89 
 H                     37.75     61.41     69.26 
 H                     40.43     60.36     68.59 
 H                     38.26     60.98     66.57 
 H                     40.       60.6      66.22 
 H                     39.1      59.36     66.9 
 N                     41.22     62.67     67.89 
 C                     41.85     63.97     67.74 
 C                     42.25     64.66     69.04 
 O                     42.53     65.86     68.99 
 C                     41.01     64.83     66.81 
 C                     40.94     64.32     65.38 
 C                     40.11     65.19     64.44 
 O                     39.19     64.76     63.71 
 O                     40.46     66.38     64.33 
 H                     41.7      61.88     67.5 
 H                     42.72     63.86     67.09 
 H                     41.44     65.83     66.79 
 H                     39.99     65.       67.17 
 H                     40.62     63.27     65.38 
 H                     41.96     64.32     64.98 
 N                     42.41     63.95     70.16 
 C                     42.42     64.54     71.48 
 H                     42.045    65.562    71.423 
 H                     41.783    63.956    72.144 
 H                     43.439    64.548    71.867 
 H                     42.26     62.96     70.09 
 Ca                    38.3      67.14     63.05 
 O                     36.97     66.08     65.07 
 H                     36.04     65.89     65.23 
 H                     37.44     65.39     65.54 
 
 Stoichiometry    C54H83CaN15O23
 Framework group  C1[X(C54H83CaN15O23)]
 Deg. of freedom   522
 Full point group                 C1      NOp   1
 Largest Abelian subgroup         C1      NOp   1
 Largest concise Abelian subgroup C1      NOp   1
                         Standard orientation:                         
 ---------------------------------------------------------------------
 Center     Atomic      Atomic             Coordinates (Angstroms)
 Number     Number       Type             X           Y           Z
 ---------------------------------------------------------------------
      1          6           0       -9.761474    0.206955    6.379587
      2          6           0      -10.164712    0.291499    4.916593
      3          8           0      -11.293233    0.710985    4.671089
      4          1           0       -9.060809   -0.616332    6.516034
      5          1           0       -9.286538    1.140570    6.680408
      6          1           0      -10.646691    0.035611    6.991550
      7          7           0       -9.349645   -0.180933    3.971197
      8          6           0       -9.677025   -0.170809    2.560233
      9          6           0       -8.384468    0.032518    1.773751
     10          8           0       -7.344585   -0.522583    2.115959
     11          6           0      -10.381121   -1.496953    2.274245
     12          6           0      -11.034861   -1.528818    0.902345
     13          8           0      -11.388537   -0.445778    0.376287
     14          8           0      -11.300299   -2.665194    0.463492
     15          1           0       -8.501655   -0.619785    4.294340
     16          1           0      -10.234990    0.727409    2.286775
     17          1           0      -11.115588   -1.654009    3.070480
     18          1           0       -9.619623   -2.278444    2.333346
     19          7           0       -8.502100    0.749592    0.653007
     20          6           0       -7.483015    0.851740   -0.379191
     21          6           0       -7.047725   -0.500741   -0.937956
     22          8           0       -7.753182   -1.497022   -0.803958
     23          6           0       -6.365462    1.722061    0.178050
     24          6           0       -6.786885    3.163095    0.497303
     25          6           0       -7.598166    3.876882   -0.585486
     26          6           0       -7.364248    5.369710   -0.351934
     27          7           0       -8.111671    5.839627    0.825664
     28          1           0       -9.430090    1.057220    0.424099
     29          1           0       -7.946512    1.390400   -1.204730
     30          1           0       -5.539725    1.823071   -0.520059
     31          1           0       -5.939499    1.242162    1.057796
     32          1           0       -5.865876    3.703487    0.711591
     33          1           0       -7.377079    3.200474    1.415113
     34          1           0       -8.670755    3.748110   -0.435914
     35          1           0       -7.240499    3.599793   -1.568642
     36          1           0       -7.825495    5.898432   -1.187280
     37          1           0       -6.291219    5.516938   -0.183607
     38          1           0       -9.095636    5.995000    0.656633
     39          1           0       -8.077447    5.252475    1.642660
     40          1           0       -7.754294    6.733127    1.113658
     41          7           0       -5.853580   -0.584909   -1.527050
     42          6           0       -5.355177   -1.804347   -2.114388
     43          6           0       -4.607416   -2.694625   -1.122241
     44          8           0       -4.739094   -3.914381   -1.160399
     45          6           0       -4.423215   -1.520247   -3.289775
     46          6           0       -3.289563   -0.513470   -3.122047
     47          8           0       -3.552250    0.710956   -3.240268
     48          8           0       -2.088226   -0.870112   -3.158054
     49          1           0       -5.290846    0.248396   -1.559221
     50          1           0       -6.132784   -2.437382   -2.558791
     51          1           0       -5.036962   -1.135954   -4.105516
     52          1           0       -3.981797   -2.446743   -3.636412
     53          7           0       -3.749371   -2.093287   -0.290766
     54          6           0       -3.057117   -2.710815    0.830325
     55          6           0       -2.362988   -4.049976    0.674331
     56          8           0       -2.293493   -4.889225    1.571343
     57          1           0       -3.842681   -1.099953   -0.186933
     58          1           0       -3.748748   -2.790820    1.670471
     59          1           0       -2.267144   -2.012831    1.068988
     60          7           0       -1.796540   -4.263756   -0.518831
     61          6           0       -0.987135   -5.361037   -1.015861
     62          6           0        0.341620   -4.752123   -1.440282
     63          8           0        0.418791   -3.545336   -1.656408
     64          6           0       -1.691658   -6.059871   -2.172183
     65          6           0       -2.743321   -7.066886   -1.729437
     66          7           0       -3.869056   -6.543436   -1.253704
     67          8           0       -2.587715   -8.286140   -1.855157
     68          1           0       -1.664291   -3.416966   -1.061100
     69          1           0       -0.676172   -6.109820   -0.287695
     70          1           0       -1.006490   -6.579027   -2.845103
     71          1           0       -2.256447   -5.274177   -2.669676
     72          1           0       -3.974365   -5.557558   -1.043098
     73          1           0       -4.698023   -7.129619   -1.267912
     74          7           0        1.335523   -5.614524   -1.643557
     75          6           0        2.620656   -5.205502   -2.171130
     76          6           0        3.448345   -4.487971   -1.117669
     77          8           0        2.970530   -4.149524   -0.040707
     78          1           0        1.218547   -6.615032   -1.604813
     79          1           0        2.492228   -4.398384   -2.885948
     80          1           0        3.272402   -5.957491   -2.605571
     81          7           0        4.745887   -4.289160   -1.368190
     82          6           0        5.755265   -3.927002   -0.392179
     83          6           0        5.611055   -2.563449    0.273123
     84          8           0        6.297433   -2.330904    1.265599
     85          6           0        5.941889   -5.089042    0.583493
     86          6           0        7.257588   -5.196339    1.310146
     87          6           0        7.324020   -4.765690    2.632654
     88          6           0        8.356241   -5.764770    0.659646
     89          6           0        8.552570   -4.916209    3.301540
     90          6           0        9.571282   -5.877560    1.348380
     91          6           0        9.697052   -5.462018    2.689613
     92          8           0       10.940290   -5.244760    3.213502
     93          1           0        5.059990   -4.656650   -2.259531
     94          1           0        6.622302   -3.928929   -1.047879
     95          1           0        5.822935   -6.026877    0.038227
     96          1           0        5.139110   -4.966064    1.314808
     97          1           0        6.451766   -4.383535    3.136371
     98          1           0        8.309421   -6.032337   -0.385158
     99          1           0        8.650859   -4.487460    4.286584
    100          1           0       10.464572   -6.306055    0.916843
    101          1           0       11.667957   -5.598925    2.699238
    102          7           0        4.719936   -1.674310   -0.169528
    103          6           0        4.476901   -0.300846    0.208136
    104          6           0        5.542092    0.701287   -0.195968
    105          8           0        5.264956    1.635663   -0.961694
    106          6           0        3.931115   -0.292537    1.634652
    107          6           0        2.908365   -1.329858    2.084150
    108          6           0        3.344806    1.076699    1.937855
    109          6           0        1.544190   -1.438172    1.411920
    110          1           0        4.023477   -1.916048   -0.849092
    111          1           0        3.672777    0.074772   -0.438545
    112          1           0        4.800638   -0.388667    2.278228
    113          1           0        2.788780   -1.281228    3.169892
    114          1           0        3.336657   -2.309659    1.880294
    115          1           0        4.091556    1.868407    1.908474
    116          1           0        2.459932    1.354635    1.361443
    117          1           0        2.983365    1.205638    2.968309
    118          1           0        1.703211   -1.489459    0.337917
    119          1           0        1.105010   -2.423553    1.565363
    120          1           0        0.958534   -0.549728    1.672257
    121          7           0        6.768736    0.574402    0.305772
    122          6           0        7.953690    1.334148   -0.069956
    123          6           0        7.895812    2.824452    0.231779
    124          8           0        8.378017    3.604954   -0.581114
    125          6           0        9.163740    0.681744    0.573044
    126          8           0        9.085116    0.534002    1.979348
    127          1           0        6.982797   -0.155258    0.971936
    128          1           0        8.105951    1.290777   -1.153531
    129          1           0       10.091780    1.176266    0.284791
    130          1           0        9.182251   -0.322710    0.147215
    131          1           0        9.342590   -0.389935    2.046786
    132          7           0        7.181402    3.211688    1.296798
    133          6           0        7.010122    4.552159    1.826326
    134          6           0        6.424968    5.469428    0.762552
    135          8           0        6.831131    6.617229    0.620487
    136          6           0        8.319152    5.070456    2.427331
    137          1           0        6.901607    2.513012    1.950837
    138          1           0        6.291454    4.514767    2.647678
    139          1           0        8.440548    4.570322    3.380080
    140          1           0        9.111782    4.897584    1.693265
    141          1           0        8.338156    6.153728    2.557558
    142          7           0        5.528628    4.938494   -0.077676
    143          6           0        4.620518    5.723055   -0.887307
    144          6           0        3.165258    5.487979   -0.524049
    145          8           0        2.881648    4.473820    0.122516
    146          6           0        4.877815    5.435367   -2.362005
    147          1           0        5.213782    4.003616    0.155080
    148          1           0        4.762333    6.789430   -0.721981
    149          1           0        4.748766    4.375753   -2.551648
    150          1           0        4.214204    6.060544   -2.964230
    151          1           0        5.844156    5.870434   -2.622008
    152          7           0        2.253141    6.409414   -0.820700
    153          6           0        0.812532    6.385733   -0.637714
    154          6           0        0.329499    6.571228    0.796988
    155          8           0       -0.844500    6.289130    1.048084
    156          6           0        0.238319    5.164153   -1.336372
    157          6           0        0.387880    5.181054   -2.848736
    158          6           0       -0.201731    3.962999   -3.554499
    159          8           0        0.419528    3.256749   -4.378784
    160          8           0       -1.412159    3.741715   -3.363190
    161          1           0        2.631356    7.145418   -1.388020
    162          1           0        0.369015    7.144969   -1.284516
    163          1           0       -0.823724    5.106826   -1.103828
    164          1           0        0.632177    4.215341   -0.957515
    165          1           0        1.439048    5.356515   -3.111716
    166          1           0       -0.161848    6.051164   -3.224381
    167          7           0        1.123332    7.139108    1.708822
    168          6           0        0.906887    7.022390    3.133647
    169          1           0        0.180149    6.233037    3.326344
    170          1           0        1.848084    6.777349    3.625404
    171          1           0        0.528199    7.967665    3.522548
    172          1           0        2.030299    7.432899    1.394818
    173         20           0       -1.384266    1.350302   -4.441136
    174          8           0        0.586137    0.832766   -2.761086
    175          1           0        1.205316    0.102175   -2.663850
    176          1           0        1.076439    1.602879   -2.470517
 ---------------------------------------------------------------------
 Rotational constants (GHZ):           0.0182912           0.0089913           0.0070703
 Standard basis: SVP (5D, 7F)
 There are  1809 symmetry adapted cartesian basis functions of A   symmetry.
 There are  1717 symmetry adapted basis functions of A   symmetry.
  1717 basis functions,  2922 primitive gaussians,  1809 cartesian basis functions
   358 alpha electrons      358 beta electrons
       nuclear repulsion energy     18777.4206429681 Hartrees.
 NAtoms=  176 NActive=  176 NUniq=  176 SFac= 1.00D+00 NAtFMM=   60 NAOKFM=T Big=T
 Integral buffers will be    131072 words long.
 Raffenetti 2 integral format.
 Two-electron integral symmetry is turned on.
 One-electron integrals computed using PRISM.
 NBasis=  1717 RedAO= T EigKep=  2.85D-04  NBF=  1717
 NBsUse=  1717 1.00D-06 EigRej= -1.00D+00 NBFU=  1717
 ExpMin= 1.98D-02 ExpMax= 3.51D+04 ExpMxC= 5.28D+03 IAcc=3 IRadAn=         5 AccDes= 0.00D+00
 Harris functional with IExCor=  402 and IRadAn=       5 diagonalized for initial guess.
 HarFok:  IExCor=  402 AccDes= 0.00D+00 IRadAn=         5 IDoV= 1 UseB2=F ITyADJ=14
 ICtDFT=  3500011 ScaDFX=  1.000000  1.000000  1.000000  1.000000
 FoFCou: FMM=F IPFlag=           0 FMFlag=      100000 FMFlg1=        2001
         NFxFlg=           0 DoJE=T BraDBF=F KetDBF=T FulRan=T
         wScrn=  0.000000 ICntrl=       500 IOpCl=  0 I1Cent=   200000004 NGrid=           0
         NMat0=    1 NMatS0=      1 NMatT0=    0 NMatD0=    1 NMtDS0=    0 NMtDT0=    0
 Petite list used in FoFCou.
 Requested convergence on RMS density matrix=1.00D-08 within 128 cycles.
 Requested convergence on MAX density matrix=1.00D-06.
 Requested convergence on             energy=1.00D-06.
 No special actions if energy rises.
 EnCoef did     2 forward-backward iterations
 EnCoef did     3 forward-backward iterations
 EnCoef did     3 forward-backward iterations
 EnCoef did     1 forward-backward iterations
 Rare condition: small coef for last iteration:  0.000D+00
 EnCoef did   100 forward-backward iterations
 Rare condition: small coef for last iteration:  0.000D+00
 EnCoef did   100 forward-backward iterations
 Restarting incremental Fock formation.
 SCF Done:  E(RB3LYP) =  -5333.39405695     A.U. after   29 cycles
            NFock= 29  Conv=0.27D-08     -V/T= 2.0081
 SCF density gives NOpUse=  1 NOpAll=  1.
 Hyperfine terms turned off by default for NAtoms > 100.

 **********************************************************************

            Population analysis using the SCF density.

 **********************************************************************

 Orbital symmetries:
 BldTbl:  Degeneracy threshold= 1.00D-02
       Occupied  (A) (A) (A) (A) (A) (A) (A) (A) (A) (A) (A) (A)
                 (A) (A) (A) (A) (A) (A) (A) (A) (A) (A) (A) (A)
                 (A) (A) (A) (A) (A) (A) (A) (A) (A) (A) (A) (A)
                 (A) (A) (A) (A) (A) (A) (A) (A) (A) (A) (A) (A)
                 (A) (A) (A) (A) (A) (A) (A) (A) (A) (A) (A) (A)
                 (A) (A) (A) (A) (A) (A) (A) (A) (A) (A) (A) (A)
                 (A) (A) (A) (A) (A) (A) (A) (A) (A) (A) (A) (A)
                 (A) (A) (A) (A) (A) (A) (A) (A) (A) (A) (A) (A)
                 (A) (A) (A) (A) (A) (A) (A) (A) (A) (A) (A) (A)
                 (A) (A) (A) (A) (A) (A) (A) (A) (A) (A) (A) (A)
                 (A) (A) (A) (A) (A) (A) (A) (A) (A) (A) (A) (A)
                 (A) (A) (A) (A) (A) (A) (A) (A) (A) (A) (A) (A)
                 (A) (A) (A) (A) (A) (A) (A) (A) (A) (A) (A) (A)
                 (A) (A) (A) (A) (A) (A) (A) (A) (A) (A) (A) (A)
                 (A) (A) (A) (A) (A) (A) (A) (A) (A) (A) (A) (A)
                 (A) (A) (A) (A) (A) (A) (A) (A) (A) (A) (A) (A)
                 (A) (A) (A) (A) (A) (A) (A) (A) (A) (A) (A) (A)
                 (A) (A) (A) (A) (A) (A) (A) (A) (A) (A) (A) (A)
                 (A) (A) (A) (A) (A) (A) (A) (A) (A) (A) (A) (A)
                 (A) (A) (A) (A) (A) (A) (A) (A) (A) (A) (A) (A)
                 (A) (A) (A) (A) (A) (A) (A) (A) (A) (A) (A) (A)
                 (A) (A) (A) (A) (A) (A) (A) (A) (A) (A) (A) (A)
                 (A) (A) (A) (A) (A) (A) (A) (A) (A) (A) (A) (A)
                 (A) (A) (A) (A) (A) (A) (A) (A) (A) (A) (A) (A)
                 (A) (A) (A) (A) (A) (A) (A) (A) (A) (A) (A) (A)
                 (A) (A) (A) (A) (A) (A) (A) (A) (A) (A) (A) (A)
                 (A) (A) (A) (A) (A) (A) (A) (A) (A) (A) (A) (A)
                 (A) (A) (A) (A) (A) (A) (A) (A) (A) (A) (A) (A)
                 (A) (A) (A) (A) (A) (A) (A) (A) (A) (A) (A) (A)
                 (A) (A) (A) (A) (A) (A) (A) (A) (A) (A)
       Virtual   (A) (A) (A) (A) (A) (A) (A) (A) (A) (A) (A) (A)
                 (A) (A) (A) (A) (A) (A) (A) (A) (A) (A) (A) (A)
                 (A) (A) (A) (A) (A) (A) (A) (A) (A) (A) (A) (A)
                 (A) (A) (A) (A) (A) (A) (A) (A) (A) (A) (A) (A)
                 (A) (A) (A) (A) (A) (A) (A) (A) (A) (A) (A) (A)
                 (A) (A) (A) (A) (A) (A) (A) (A) (A) (A) (A) (A)
                 (A) (A) (A) (A) (A) (A) (A) (A) (A) (A) (A) (A)
                 (A) (A) (A) (A) (A) (A) (A) (A) (A) (A) (A) (A)
                 (A) (A) (A) (A) (A) (A) (A) (A) (A) (A) (A) (A)
                 (A) (A) (A) (A) (A) (A) (A) (A) (A) (A) (A) (A)
                 (A) (A) (A) (A) (A) (A) (A) (A) (A) (A) (A) (A)
                 (A) (A) (A) (A) (A) (A) (A) (A) (A) (A) (A) (A)
                 (A) (A) (A) (A) (A) (A) (A) (A) (A) (A) (A) (A)
                 (A) (A) (A) (A) (A) (A) (A) (A) (A) (A) (A) (A)
                 (A) (A) (A) (A) (A) (A) (A) (A) (A) (A) (A) (A)
                 (A) (A) (A) (A) (A) (A) (A) (A) (A) (A) (A) (A)
                 (A) (A) (A) (A) (A) (A) (A) (A) (A) (A) (A) (A)
                 (A) (A) (A) (A) (A) (A) (A) (A) (A) (A) (A) (A)
                 (A) (A) (A) (A) (A) (A) (A) (A) (A) (A) (A) (A)
                 (A) (A) (A) (A) (A) (A) (A) (A) (A) (A) (A) (A)
                 (A) (A) (A) (A) (A) (A) (A) (A) (A) (A) (A) (A)
                 (A) (A) (A) (A) (A) (A) (A) (A) (A) (A) (A) (A)
                 (A) (A) (A) (A) (A) (A) (A) (A) (A) (A) (A) (A)
                 (A) (A) (A) (A) (A) (A) (A) (A) (A) (A) (A) (A)
                 (A) (A) (A) (A) (A) (A) (A) (A) (A) (A) (A) (A)
                 (A) (A) (A) (A) (A) (A) (A) (A) (A) (A) (A) (A)
                 (A) (A) (A) (A) (A) (A) (A) (A) (A) (A) (A) (A)
                 (A) (A) (A) (A) (A) (A) (A) (A) (A) (A) (A) (A)
                 (A) (A) (A) (A) (A) (A) (A) (A) (A) (A) (A) (A)
                 (A) (A) (A) (A) (A) (A) (A) (A) (A) (A) (A) (A)
                 (A) (A) (A) (A) (A) (A) (A) (A) (A) (A) (A) (A)
                 (A) (A) (A) (A) (A) (A) (A) (A) (A) (A) (A) (A)
                 (A) (A) (A) (A) (A) (A) (A) (A) (A) (A) (A) (A)
                 (A) (A) (A) (A) (A) (A) (A) (A) (A) (A) (A) (A)
                 (A) (A) (A) (A) (A) (A) (A) (A) (A) (A) (A) (A)
                 (A) (A) (A) (A) (A) (A) (A) (A) (A) (A) (A) (A)
                 (A) (A) (A) (A) (A) (A) (A) (A) (A) (A) (A) (A)
                 (A) (A) (A) (A) (A) (A) (A) (A) (A) (A) (A) (A)
                 (A) (A) (A) (A) (A) (A) (A) (A) (A) (A) (A) (A)
                 (A) (A) (A) (A) (A) (A) (A) (A) (A) (A) (A) (A)
                 (A) (A) (A) (A) (A) (A) (A) (A) (A) (A) (A) (A)
                 (A) (A) (A) (A) (A) (A) (A) (A) (A) (A) (A) (A)
                 (A) (A) (A) (A) (A) (A) (A) (A) (A) (A) (A) (A)
                 (A) (A) (A) (A) (A) (A) (A) (A) (A) (A) (A) (A)
                 (A) (A) (A) (A) (A) (A) (A) (A) (A) (A) (A) (A)
                 (A) (A) (A) (A) (A) (A) (A) (A) (A) (A) (A) (A)
                 (A) (A) (A) (A) (A) (A) (A) (A) (A) (A) (A) (A)
                 (A) (A) (A) (A) (A) (A) (A) (A) (A) (A) (A) (A)
                 (A) (A) (A) (A) (A) (A) (A) (A) (A) (A) (A) (A)
                 (A) (A) (A) (A) (A) (A) (A) (A) (A) (A) (A) (A)
                 (A) (A) (A) (A) (A) (A) (A) (A) (A) (A) (A) (A)
                 (A) (A) (A) (A) (A) (A) (A) (A) (A) (A) (A) (A)
                 (A) (A) (A) (A) (A) (A) (A) (A) (A) (A) (A) (A)
                 (A) (A) (A) (A) (A) (A) (A) (A) (A) (A) (A) (A)
                 (A) (A) (A) (A) (A) (A) (A) (A) (A) (A) (A) (A)
                 (A) (A) (A) (A) (A) (A) (A) (A) (A) (A) (A) (A)
                 (A) (A) (A) (A) (A) (A) (A) (A) (A) (A) (A) (A)
                 (A) (A) (A) (A) (A) (A) (A) (A) (A) (A) (A) (A)
                 (A) (A) (A) (A) (A) (A) (A) (A) (A) (A) (A) (A)
                 (A) (A) (A) (A) (A) (A) (A) (A) (A) (A) (A) (A)
                 (A) (A) (A) (A) (A) (A) (A) (A) (A) (A) (A) (A)
                 (A) (A) (A) (A) (A) (A) (A) (A) (A) (A) (A) (A)
                 (A) (A) (A) (A) (A) (A) (A) (A) (A) (A) (A) (A)
                 (A) (A) (A) (A) (A) (A) (A) (A) (A) (A) (A) (A)
                 (A) (A) (A) (A) (A) (A) (A) (A) (A) (A) (A) (A)
                 (A) (A) (A) (A) (A) (A) (A) (A) (A) (A) (A) (A)
                 (A) (A) (A) (A) (A) (A) (A) (A) (A) (A) (A) (A)
                 (A) (A) (A) (A) (A) (A) (A) (A) (A) (A) (A) (A)
                 (A) (A) (A) (A) (A) (A) (A) (A) (A) (A) (A) (A)
                 (A) (A) (A) (A) (A) (A) (A) (A) (A) (A) (A) (A)
                 (A) (A) (A) (A) (A) (A) (A) (A) (A) (A) (A) (A)
                 (A) (A) (A) (A) (A) (A) (A) (A) (A) (A) (A) (A)
                 (A) (A) (A) (A) (A) (A) (A) (A) (A) (A) (A) (A)
                 (A) (A) (A) (A) (A) (A) (A) (A) (A) (A) (A) (A)
                 (A) (A) (A) (A) (A) (A) (A) (A) (A) (A) (A) (A)
                 (A) (A) (A) (A) (A) (A) (A) (A) (A) (A) (A) (A)
                 (A) (A) (A) (A) (A) (A) (A) (A) (A) (A) (A) (A)
                 (A) (A) (A) (A) (A) (A) (A) (A) (A) (A) (A) (A)
                 (A) (A) (A) (A) (A) (A) (A) (A) (A) (A) (A) (A)
                 (A) (A) (A) (A) (A) (A) (A) (A) (A) (A) (A) (A)
                 (A) (A) (A) (A) (A) (A) (A) (A) (A) (A) (A) (A)
                 (A) (A) (A) (A) (A) (A) (A) (A) (A) (A) (A) (A)
                 (A) (A) (A) (A) (A) (A) (A) (A) (A) (A) (A) (A)
                 (A) (A) (A) (A) (A) (A) (A) (A) (A) (A) (A) (A)
                 (A) (A) (A) (A) (A) (A) (A) (A) (A) (A) (A) (A)
                 (A) (A) (A) (A) (A) (A) (A) (A) (A) (A) (A) (A)
                 (A) (A) (A) (A) (A) (A) (A) (A) (A) (A) (A) (A)
                 (A) (A) (A) (A) (A) (A) (A) (A) (A) (A) (A) (A)
                 (A) (A) (A) (A) (A) (A) (A) (A) (A) (A) (A) (A)
                 (A) (A) (A) (A) (A) (A) (A) (A) (A) (A) (A) (A)
                 (A) (A) (A) (A) (A) (A) (A) (A) (A) (A) (A) (A)
                 (A) (A) (A) (A) (A) (A) (A) (A) (A) (A) (A) (A)
                 (A) (A) (A) (A) (A) (A) (A) (A) (A) (A) (A) (A)
                 (A) (A) (A) (A) (A) (A) (A) (A) (A) (A) (A) (A)
                 (A) (A) (A) (A) (A) (A) (A) (A) (A) (A) (A) (A)
                 (A) (A) (A) (A) (A) (A) (A) (A) (A) (A) (A) (A)
                 (A) (A) (A) (A) (A) (A) (A) (A) (A) (A) (A) (A)
                 (A) (A) (A) (A) (A) (A) (A) (A) (A) (A) (A) (A)
                 (A) (A) (A) (A) (A) (A) (A) (A) (A) (A) (A) (A)
                 (A) (A) (A) (A) (A) (A) (A) (A) (A) (A) (A) (A)
                 (A) (A) (A) (A) (A) (A) (A) (A) (A) (A) (A) (A)
                 (A) (A) (A) (A) (A) (A) (A) (A) (A) (A) (A) (A)
                 (A) (A) (A) (A) (A) (A) (A) (A) (A) (A) (A) (A)
                 (A) (A) (A) (A) (A) (A) (A) (A) (A) (A) (A) (A)
                 (A) (A) (A) (A) (A) (A) (A) (A) (A) (A) (A) (A)
                 (A) (A) (A) (A) (A) (A) (A) (A) (A) (A) (A) (A)
                 (A) (A) (A) (A) (A) (A) (A) (A) (A) (A) (A) (A)
                 (A) (A) (A) (A) (A) (A) (A) (A) (A) (A) (A) (A)
                 (A) (A) (A) (A) (A) (A) (A) (A) (A) (A) (A) (A)
                 (A) (A) (A) (A) (A) (A) (A) (A) (A) (A) (A) (A)
                 (A) (A) (A) (A) (A) (A) (A) (A) (A) (A) (A) (A)
                 (A) (A) (A) (A) (A) (A) (A) (A) (A) (A) (A) (A)
                 (A) (A) (A) (A) (A) (A) (A) (A) (A) (A) (A) (A)
                 (A) (A) (A)
 The electronic state is 1-A.
 Alpha  occ. eigenvalues -- -145.46094 -19.18557 -19.16951 -19.15996 -19.12347
 Alpha  occ. eigenvalues --  -19.12170 -19.11616 -19.11482 -19.11015 -19.10563
 Alpha  occ. eigenvalues --  -19.10176 -19.10116 -19.09949 -19.09841 -19.09750
 Alpha  occ. eigenvalues --  -19.09110 -19.08828 -19.07994 -19.07881 -19.07414
 Alpha  occ. eigenvalues --  -19.05886 -19.04014 -18.96155 -18.95421 -15.52064
 Alpha  occ. eigenvalues --  -14.57131 -14.38923 -14.38431 -14.38161 -14.37712
 Alpha  occ. eigenvalues --  -14.37154 -14.37016 -14.36232 -14.36164 -14.35605
 Alpha  occ. eigenvalues --  -14.34197 -14.33669 -14.33484 -14.30737 -14.30150
 Alpha  occ. eigenvalues --  -12.65667 -12.65632 -12.65562 -10.34449 -10.31381
 Alpha  occ. eigenvalues --  -10.30991 -10.30273 -10.29872 -10.29742 -10.29730
 Alpha  occ. eigenvalues --  -10.29162 -10.28772 -10.28548 -10.28531 -10.27565
 Alpha  occ. eigenvalues --  -10.27421 -10.27390 -10.27176 -10.26732 -10.26670
 Alpha  occ. eigenvalues --  -10.25901 -10.25826 -10.25744 -10.25290 -10.25135
 Alpha  occ. eigenvalues --  -10.24959 -10.24607 -10.24469 -10.24308 -10.23948
 Alpha  occ. eigenvalues --  -10.23945 -10.23878 -10.23788 -10.23738 -10.23556
 Alpha  occ. eigenvalues --  -10.22859 -10.21562 -10.20546 -10.20288 -10.20131
 Alpha  occ. eigenvalues --  -10.19906 -10.19717 -10.19653 -10.19558 -10.19530
 Alpha  occ. eigenvalues --  -10.19226 -10.18999 -10.18983 -10.18701 -10.17738
 Alpha  occ. eigenvalues --  -10.17685 -10.17562 -10.17531 -10.17024 -10.16086
 Alpha  occ. eigenvalues --  -10.15241 -10.10302  -1.88835  -1.16354  -1.16115
 Alpha  occ. eigenvalues --   -1.15791  -1.12922  -1.06378  -1.05392  -1.05365
 Alpha  occ. eigenvalues --   -1.05037  -1.04794  -1.04772  -1.04499  -1.04387
 Alpha  occ. eigenvalues --   -1.04287  -1.03819  -1.03374  -1.03303  -1.02941
 Alpha  occ. eigenvalues --   -1.01772  -1.01644  -1.00577  -1.00099  -0.98199
 Alpha  occ. eigenvalues --   -0.97336  -0.95866  -0.94910  -0.94724  -0.94673
 Alpha  occ. eigenvalues --   -0.94011  -0.93892  -0.93801  -0.93172  -0.93018
 Alpha  occ. eigenvalues --   -0.92930  -0.91719  -0.91144  -0.91125  -0.90739
 Alpha  occ. eigenvalues --   -0.89899  -0.88900  -0.87338  -0.85819  -0.85707
 Alpha  occ. eigenvalues --   -0.82398  -0.81873  -0.81463  -0.81123  -0.80535
 Alpha  occ. eigenvalues --   -0.79568  -0.79300  -0.78882  -0.77796  -0.76544
 Alpha  occ. eigenvalues --   -0.76030  -0.75980  -0.74895  -0.74876  -0.74641
 Alpha  occ. eigenvalues --   -0.73544  -0.73001  -0.72965  -0.71938  -0.71304
 Alpha  occ. eigenvalues --   -0.71190  -0.70989  -0.69256  -0.68202  -0.67959
 Alpha  occ. eigenvalues --   -0.67275  -0.67106  -0.66537  -0.66070  -0.64994
 Alpha  occ. eigenvalues --   -0.64213  -0.63919  -0.63733  -0.63339  -0.63079
 Alpha  occ. eigenvalues --   -0.62565  -0.61869  -0.61305  -0.61130  -0.60926
 Alpha  occ. eigenvalues --   -0.60745  -0.60116  -0.60053  -0.59999  -0.59163
 Alpha  occ. eigenvalues --   -0.59057  -0.57568  -0.57554  -0.57333  -0.57224
 Alpha  occ. eigenvalues --   -0.56734  -0.56548  -0.56394  -0.55980  -0.55947
 Alpha  occ. eigenvalues --   -0.55789  -0.55329  -0.55123  -0.54792  -0.54262
 Alpha  occ. eigenvalues --   -0.54246  -0.54096  -0.53675  -0.53477  -0.52539
 Alpha  occ. eigenvalues --   -0.52427  -0.51749  -0.51212  -0.51198  -0.51134
 Alpha  occ. eigenvalues --   -0.50945  -0.50869  -0.50420  -0.49981  -0.49389
 Alpha  occ. eigenvalues --   -0.49361  -0.48938  -0.48480  -0.48114  -0.48033
 Alpha  occ. eigenvalues --   -0.47941  -0.47846  -0.47612  -0.47254  -0.47168
 Alpha  occ. eigenvalues --   -0.47012  -0.46867  -0.46847  -0.46734  -0.46440
 Alpha  occ. eigenvalues --   -0.46302  -0.46168  -0.45774  -0.45691  -0.45536
 Alpha  occ. eigenvalues --   -0.45451  -0.45402  -0.45131  -0.45034  -0.44949
 Alpha  occ. eigenvalues --   -0.44703  -0.44524  -0.44277  -0.44162  -0.43904
 Alpha  occ. eigenvalues --   -0.43746  -0.43611  -0.43264  -0.43213  -0.43100
 Alpha  occ. eigenvalues --   -0.42986  -0.42901  -0.42568  -0.42440  -0.42401
 Alpha  occ. eigenvalues --   -0.42252  -0.42067  -0.42036  -0.41966  -0.41806
 Alpha  occ. eigenvalues --   -0.41718  -0.41672  -0.41354  -0.41316  -0.41170
 Alpha  occ. eigenvalues --   -0.40737  -0.40665  -0.40379  -0.40344  -0.40304
 Alpha  occ. eigenvalues --   -0.40161  -0.40006  -0.39835  -0.39684  -0.39621
 Alpha  occ. eigenvalues --   -0.39322  -0.39165  -0.39055  -0.38968  -0.38716
 Alpha  occ. eigenvalues --   -0.38572  -0.38384  -0.38119  -0.37975  -0.37898
 Alpha  occ. eigenvalues --   -0.37796  -0.37515  -0.37465  -0.37450  -0.37167
 Alpha  occ. eigenvalues --   -0.37119  -0.37045  -0.36791  -0.36511  -0.36428
 Alpha  occ. eigenvalues --   -0.36071  -0.36048  -0.35992  -0.35899  -0.35733
 Alpha  occ. eigenvalues --   -0.35620  -0.35546  -0.35483  -0.34932  -0.34593
 Alpha  occ. eigenvalues --   -0.34533  -0.34521  -0.34005  -0.33866  -0.33817
 Alpha  occ. eigenvalues --   -0.33517  -0.33445  -0.33263  -0.31220  -0.31177
 Alpha  occ. eigenvalues --   -0.30691  -0.30384  -0.30249  -0.29746  -0.29597
 Alpha  occ. eigenvalues --   -0.29145  -0.29012  -0.28787  -0.28193  -0.28136
 Alpha  occ. eigenvalues --   -0.28017  -0.27924  -0.27652  -0.27532  -0.27237
 Alpha  occ. eigenvalues --   -0.27218  -0.27065  -0.27010  -0.26664  -0.26495
 Alpha  occ. eigenvalues --   -0.26185  -0.26117  -0.25953  -0.25944  -0.25456
 Alpha  occ. eigenvalues --   -0.25155  -0.24999  -0.24985  -0.24866  -0.24805
 Alpha  occ. eigenvalues --   -0.24275  -0.24126  -0.23796  -0.23688  -0.22957
 Alpha  occ. eigenvalues --   -0.22784  -0.22715  -0.21639  -0.21118  -0.19961
 Alpha  occ. eigenvalues --   -0.13237  -0.12874  -0.10913
 Alpha virt. eigenvalues --   -0.09993  -0.09566  -0.04153  -0.03345  -0.02737
 Alpha virt. eigenvalues --   -0.01919  -0.01849  -0.01279  -0.00755  -0.00667
 Alpha virt. eigenvalues --   -0.00617  -0.00287   0.00074   0.00276   0.00383
 Alpha virt. eigenvalues --    0.00593   0.01377   0.01458   0.01588   0.01591
 Alpha virt. eigenvalues --    0.01955   0.02290   0.02626   0.02716   0.02747
 Alpha virt. eigenvalues --    0.02990   0.03102   0.03426   0.03700   0.03825
 Alpha virt. eigenvalues --    0.03986   0.04257   0.04702   0.04750   0.04970
 Alpha virt. eigenvalues --    0.05340   0.05551   0.05789   0.06598   0.06703
 Alpha virt. eigenvalues --    0.06970   0.07142   0.07175   0.07386   0.07513
 Alpha virt. eigenvalues --    0.07726   0.08104   0.08215   0.08425   0.08445
 Alpha virt. eigenvalues --    0.08605   0.08683   0.08758   0.09014   0.09193
 Alpha virt. eigenvalues --    0.09321   0.09507   0.09819   0.10156   0.10663
 Alpha virt. eigenvalues --    0.10836   0.11075   0.11126   0.11330   0.11402
 Alpha virt. eigenvalues --    0.11616   0.11676   0.11693   0.11851   0.12216
 Alpha virt. eigenvalues --    0.12344   0.12440   0.12494   0.12684   0.12859
 Alpha virt. eigenvalues --    0.12912   0.13063   0.13119   0.13273   0.13572
 Alpha virt. eigenvalues --    0.13692   0.13998   0.14134   0.14317   0.14370
 Alpha virt. eigenvalues --    0.14488   0.14701   0.14843   0.14934   0.14951
 Alpha virt. eigenvalues --    0.14979   0.15265   0.15440   0.15535   0.15738
 Alpha virt. eigenvalues --    0.15820   0.15831   0.15951   0.16304   0.16506
 Alpha virt. eigenvalues --    0.16593   0.16684   0.16984   0.17256   0.17362
 Alpha virt. eigenvalues --    0.17383   0.17712   0.17921   0.18156   0.18402
 Alpha virt. eigenvalues --    0.18482   0.18609   0.18757   0.18800   0.19186
 Alpha virt. eigenvalues --    0.19547   0.19629   0.19886   0.20250   0.20472
 Alpha virt. eigenvalues --    0.20717   0.20763   0.20924   0.21093   0.21483
 Alpha virt. eigenvalues --    0.21857   0.21979   0.22164   0.22338   0.22656
 Alpha virt. eigenvalues --    0.22870   0.23237   0.23439   0.23533   0.23702
 Alpha virt. eigenvalues --    0.24106   0.24141   0.24193   0.24382   0.24459
 Alpha virt. eigenvalues --    0.24593   0.24755   0.24992   0.25192   0.25856
 Alpha virt. eigenvalues --    0.26030   0.26501   0.26937   0.27065   0.27132
 Alpha virt. eigenvalues --    0.27792   0.28020   0.28295   0.28407   0.28512
 Alpha virt. eigenvalues --    0.28704   0.28854   0.29135   0.29309   0.29700
 Alpha virt. eigenvalues --    0.29823   0.30441   0.30513   0.30602   0.30742
 Alpha virt. eigenvalues --    0.30985   0.31353   0.31594   0.32005   0.32110
 Alpha virt. eigenvalues --    0.32340   0.32602   0.33267   0.33441   0.33588
 Alpha virt. eigenvalues --    0.33788   0.34048   0.34219   0.34559   0.34858
 Alpha virt. eigenvalues --    0.35145   0.35311   0.35459   0.35941   0.36169
 Alpha virt. eigenvalues --    0.36574   0.36748   0.36957   0.37118   0.37650
 Alpha virt. eigenvalues --    0.37966   0.38229   0.38475   0.38666   0.38939
 Alpha virt. eigenvalues --    0.39171   0.39546   0.40166   0.40250   0.40393
 Alpha virt. eigenvalues --    0.40418   0.40696   0.40979   0.41100   0.41478
 Alpha virt. eigenvalues --    0.41645   0.41874   0.42382   0.42411   0.42480
 Alpha virt. eigenvalues --    0.42598   0.43019   0.43151   0.43325   0.43704
 Alpha virt. eigenvalues --    0.43843   0.44047   0.44327   0.44370   0.44713
 Alpha virt. eigenvalues --    0.44883   0.45154   0.45376   0.45690   0.45802
 Alpha virt. eigenvalues --    0.46021   0.46174   0.46238   0.46411   0.46639
 Alpha virt. eigenvalues --    0.46863   0.47320   0.47718   0.47787   0.47861
 Alpha virt. eigenvalues --    0.47924   0.48042   0.48134   0.48165   0.48502
 Alpha virt. eigenvalues --    0.48594   0.48734   0.49036   0.49309   0.49847
 Alpha virt. eigenvalues --    0.50000   0.50485   0.50737   0.50793   0.51147
 Alpha virt. eigenvalues --    0.51367   0.51521   0.51729   0.51959   0.52134
 Alpha virt. eigenvalues --    0.52473   0.52555   0.52778   0.52907   0.53006
 Alpha virt. eigenvalues --    0.53178   0.53225   0.53404   0.53575   0.53677
 Alpha virt. eigenvalues --    0.53929   0.54012   0.54139   0.54371   0.54490
 Alpha virt. eigenvalues --    0.54541   0.54682   0.55103   0.55237   0.55330
 Alpha virt. eigenvalues --    0.55410   0.55618   0.55635   0.55653   0.55844
 Alpha virt. eigenvalues --    0.56109   0.56585   0.56612   0.56974   0.57164
 Alpha virt. eigenvalues --    0.57275   0.57380   0.57470   0.57606   0.57630
 Alpha virt. eigenvalues --    0.57901   0.58050   0.58334   0.58410   0.58649
 Alpha virt. eigenvalues --    0.58672   0.58750   0.58902   0.59103   0.59322
 Alpha virt. eigenvalues --    0.59514   0.59712   0.59779   0.59885   0.60133
 Alpha virt. eigenvalues --    0.60253   0.60386   0.60467   0.60552   0.60593
 Alpha virt. eigenvalues --    0.60683   0.60895   0.61005   0.61143   0.61446
 Alpha virt. eigenvalues --    0.61541   0.61620   0.61712   0.61755   0.61841
 Alpha virt. eigenvalues --    0.62055   0.62223   0.62501   0.62611   0.62698
 Alpha virt. eigenvalues --    0.62806   0.62890   0.62982   0.63257   0.63329
 Alpha virt. eigenvalues --    0.63523   0.63576   0.63636   0.63770   0.63882
 Alpha virt. eigenvalues --    0.63990   0.64032   0.64272   0.64401   0.64406
 Alpha virt. eigenvalues --    0.64639   0.64798   0.64915   0.65002   0.65159
 Alpha virt. eigenvalues --    0.65190   0.65263   0.65402   0.65592   0.65741
 Alpha virt. eigenvalues --    0.65870   0.65949   0.66114   0.66163   0.66258
 Alpha virt. eigenvalues --    0.66342   0.66474   0.66493   0.66737   0.66840
 Alpha virt. eigenvalues --    0.66974   0.66983   0.67148   0.67206   0.67362
 Alpha virt. eigenvalues --    0.67451   0.67470   0.67591   0.67650   0.67771
 Alpha virt. eigenvalues --    0.67816   0.67933   0.68031   0.68195   0.68301
 Alpha virt. eigenvalues --    0.68405   0.68452   0.68503   0.68699   0.68867
 Alpha virt. eigenvalues --    0.68923   0.69013   0.69113   0.69206   0.69336
 Alpha virt. eigenvalues --    0.69402   0.69517   0.69682   0.69720   0.69828
 Alpha virt. eigenvalues --    0.69840   0.70080   0.70244   0.70463   0.70475
 Alpha virt. eigenvalues --    0.70703   0.70780   0.70978   0.71243   0.71393
 Alpha virt. eigenvalues --    0.71692   0.72074   0.72279   0.72326   0.72463
 Alpha virt. eigenvalues --    0.72747   0.73087   0.73334   0.73624   0.73850
 Alpha virt. eigenvalues --    0.74050   0.74183   0.74254   0.74470   0.74544
 Alpha virt. eigenvalues --    0.74719   0.74868   0.75023   0.75136   0.75392
 Alpha virt. eigenvalues --    0.75778   0.76085   0.76257   0.76447   0.76507
 Alpha virt. eigenvalues --    0.76631   0.76720   0.76941   0.77227   0.77373
 Alpha virt. eigenvalues --    0.77481   0.77578   0.77786   0.78041   0.78472
 Alpha virt. eigenvalues --    0.78535   0.78815   0.79034   0.79274   0.79478
 Alpha virt. eigenvalues --    0.79689   0.80329   0.80414   0.80646   0.80737
 Alpha virt. eigenvalues --    0.81306   0.81544   0.81930   0.82017   0.82699
 Alpha virt. eigenvalues --    0.82976   0.83140   0.83452   0.83734   0.83796
 Alpha virt. eigenvalues --    0.84073   0.84535   0.84810   0.84896   0.85358
 Alpha virt. eigenvalues --    0.85542   0.85600   0.85917   0.86382   0.86623
 Alpha virt. eigenvalues --    0.86844   0.87111   0.87402   0.87857   0.88134
 Alpha virt. eigenvalues --    0.88468   0.88878   0.89141   0.89275   0.89679
 Alpha virt. eigenvalues --    0.89970   0.90090   0.90310   0.90522   0.90812
 Alpha virt. eigenvalues --    0.91285   0.91429   0.91635   0.92109   0.92334
 Alpha virt. eigenvalues --    0.92442   0.93021   0.93470   0.93695   0.93895
 Alpha virt. eigenvalues --    0.94387   0.94667   0.94968   0.95153   0.95562
 Alpha virt. eigenvalues --    0.95637   0.95771   0.96249   0.96608   0.96885
 Alpha virt. eigenvalues --    0.97317   0.97594   0.98101   0.98471   0.98646
 Alpha virt. eigenvalues --    0.98799   0.98908   0.99118   0.99607   0.99787
 Alpha virt. eigenvalues --    0.99868   1.00164   1.00294   1.00636   1.00868
 Alpha virt. eigenvalues --    1.01147   1.01472   1.01781   1.01925   1.03095
 Alpha virt. eigenvalues --    1.03141   1.03424   1.03452   1.04219   1.04317
 Alpha virt. eigenvalues --    1.04588   1.04715   1.05027   1.05334   1.05477
 Alpha virt. eigenvalues --    1.05561   1.06198   1.06569   1.06713   1.06998
 Alpha virt. eigenvalues --    1.07057   1.07283   1.07785   1.08115   1.08283
 Alpha virt. eigenvalues --    1.08753   1.08958   1.09054   1.09250   1.09869
 Alpha virt. eigenvalues --    1.09917   1.10092   1.10396   1.10659   1.11011
 Alpha virt. eigenvalues --    1.11261   1.11404   1.11632   1.11875   1.12077
 Alpha virt. eigenvalues --    1.12418   1.12572   1.12910   1.13133   1.13363
 Alpha virt. eigenvalues --    1.13558   1.13781   1.13917   1.14100   1.14345
 Alpha virt. eigenvalues --    1.14403   1.14846   1.14989   1.15309   1.15576
 Alpha virt. eigenvalues --    1.15710   1.15789   1.16471   1.16826   1.16932
 Alpha virt. eigenvalues --    1.17250   1.17413   1.17983   1.18111   1.18416
 Alpha virt. eigenvalues --    1.18507   1.18623   1.18829   1.19383   1.19421
 Alpha virt. eigenvalues --    1.19684   1.19966   1.20367   1.20493   1.20685
 Alpha virt. eigenvalues --    1.21093   1.21384   1.21839   1.22163   1.22437
 Alpha virt. eigenvalues --    1.22793   1.22867   1.23220   1.23407   1.23897
 Alpha virt. eigenvalues --    1.24022   1.24301   1.24396   1.24761   1.24930
 Alpha virt. eigenvalues --    1.25132   1.25541   1.26013   1.26060   1.26569
 Alpha virt. eigenvalues --    1.26892   1.27019   1.27119   1.27588   1.27709
 Alpha virt. eigenvalues --    1.28116   1.28519   1.28759   1.29009   1.29150
 Alpha virt. eigenvalues --    1.29497   1.29741   1.30106   1.30307   1.30633
 Alpha virt. eigenvalues --    1.31117   1.31431   1.31590   1.31797   1.32017
 Alpha virt. eigenvalues --    1.32410   1.32472   1.33017   1.33488   1.33818
 Alpha virt. eigenvalues --    1.34332   1.34591   1.34642   1.34870   1.35200
 Alpha virt. eigenvalues --    1.35538   1.35648   1.35948   1.36366   1.36613
 Alpha virt. eigenvalues --    1.36687   1.37038   1.37233   1.37371   1.37570
 Alpha virt. eigenvalues --    1.37975   1.38617   1.39034   1.39285   1.39538
 Alpha virt. eigenvalues --    1.39642   1.39668   1.39744   1.40344   1.40431
 Alpha virt. eigenvalues --    1.41031   1.41265   1.41643   1.41784   1.42150
 Alpha virt. eigenvalues --    1.42343   1.42527   1.42829   1.42885   1.43279
 Alpha virt. eigenvalues --    1.43662   1.43758   1.44322   1.44596   1.44965
 Alpha virt. eigenvalues --    1.45594   1.45717   1.45829   1.45918   1.46389
 Alpha virt. eigenvalues --    1.46489   1.46923   1.47137   1.47535   1.47738
 Alpha virt. eigenvalues --    1.48186   1.48639   1.48852   1.49277   1.49510
 Alpha virt. eigenvalues --    1.49653   1.49982   1.50064   1.50815   1.50937
 Alpha virt. eigenvalues --    1.51217   1.51433   1.52092   1.52329   1.52562
 Alpha virt. eigenvalues --    1.53023   1.53139   1.53547   1.53845   1.53918
 Alpha virt. eigenvalues --    1.54658   1.54943   1.55415   1.55684   1.55689
 Alpha virt. eigenvalues --    1.56866   1.57125   1.57134   1.57576   1.57713
 Alpha virt. eigenvalues --    1.58935   1.59046   1.59752   1.59959   1.60162
 Alpha virt. eigenvalues --    1.60450   1.60524   1.60777   1.61686   1.61777
 Alpha virt. eigenvalues --    1.61785   1.61943   1.62195   1.62516   1.62909
 Alpha virt. eigenvalues --    1.62998   1.63591   1.64038   1.64162   1.64649
 Alpha virt. eigenvalues --    1.65100   1.65128   1.65721   1.66127   1.66237
 Alpha virt. eigenvalues --    1.66449   1.66946   1.67025   1.67759   1.67843
 Alpha virt. eigenvalues --    1.68117   1.68296   1.68841   1.69213   1.69270
 Alpha virt. eigenvalues --    1.69846   1.70091   1.70323   1.70509   1.70990
 Alpha virt. eigenvalues --    1.71006   1.71143   1.71193   1.71452   1.71476
 Alpha virt. eigenvalues --    1.71879   1.71903   1.72072   1.72223   1.72247
 Alpha virt. eigenvalues --    1.73069   1.73125   1.73380   1.73809   1.73869
 Alpha virt. eigenvalues --    1.74175   1.74375   1.74616   1.74812   1.74935
 Alpha virt. eigenvalues --    1.75170   1.75449   1.75590   1.75668   1.75744
 Alpha virt. eigenvalues --    1.75875   1.76102   1.76315   1.76437   1.76697
 Alpha virt. eigenvalues --    1.76973   1.77229   1.77271   1.77352   1.77508
 Alpha virt. eigenvalues --    1.77665   1.77761   1.77894   1.77964   1.78141
 Alpha virt. eigenvalues --    1.78248   1.78430   1.78730   1.78923   1.78935
 Alpha virt. eigenvalues --    1.79064   1.79319   1.79368   1.79819   1.79872
 Alpha virt. eigenvalues --    1.80172   1.80458   1.80718   1.80749   1.80878
 Alpha virt. eigenvalues --    1.81065   1.81144   1.81213   1.81413   1.81473
 Alpha virt. eigenvalues --    1.81526   1.81876   1.81908   1.82027   1.82458
 Alpha virt. eigenvalues --    1.82522   1.82628   1.82676   1.82793   1.83301
 Alpha virt. eigenvalues --    1.83418   1.83682   1.83798   1.84067   1.84127
 Alpha virt. eigenvalues --    1.84514   1.84647   1.84766   1.84826   1.85247
 Alpha virt. eigenvalues --    1.85383   1.85482   1.85662   1.85701   1.85923
 Alpha virt. eigenvalues --    1.86202   1.86248   1.86604   1.86929   1.86984
 Alpha virt. eigenvalues --    1.87066   1.87120   1.87326   1.87941   1.88244
 Alpha virt. eigenvalues --    1.88264   1.88439   1.88770   1.89206   1.89347
 Alpha virt. eigenvalues --    1.89469   1.89616   1.89790   1.89917   1.90000
 Alpha virt. eigenvalues --    1.90217   1.90497   1.90612   1.90625   1.90793
 Alpha virt. eigenvalues --    1.91189   1.91305   1.91492   1.91599   1.91867
 Alpha virt. eigenvalues --    1.92040   1.92116   1.92170   1.92602   1.92754
 Alpha virt. eigenvalues --    1.92974   1.93186   1.93229   1.93554   1.93832
 Alpha virt. eigenvalues --    1.94109   1.94230   1.94792   1.94855   1.95138
 Alpha virt. eigenvalues --    1.95249   1.95588   1.95705   1.95874   1.96133
 Alpha virt. eigenvalues --    1.96453   1.96761   1.97029   1.97072   1.97320
 Alpha virt. eigenvalues --    1.97493   1.97586   1.97816   1.97903   1.98357
 Alpha virt. eigenvalues --    1.98730   1.98969   1.99017   1.99514   1.99790
 Alpha virt. eigenvalues --    1.99991   2.00377   2.00549   2.00632   2.01248
 Alpha virt. eigenvalues --    2.01302   2.01450   2.01588   2.01835   2.01852
 Alpha virt. eigenvalues --    2.02212   2.02500   2.02756   2.02926   2.03940
 Alpha virt. eigenvalues --    2.04011   2.04036   2.04268   2.04682   2.04984
 Alpha virt. eigenvalues --    2.05253   2.05807   2.06042   2.06089   2.06178
 Alpha virt. eigenvalues --    2.06325   2.07317   2.07350   2.07446   2.07760
 Alpha virt. eigenvalues --    2.07982   2.08288   2.08402   2.08475   2.08593
 Alpha virt. eigenvalues --    2.09184   2.09662   2.09806   2.10159   2.10605
 Alpha virt. eigenvalues --    2.10823   2.11001   2.11360   2.11729   2.11839
 Alpha virt. eigenvalues --    2.11990   2.12092   2.12194   2.12753   2.13201
 Alpha virt. eigenvalues --    2.13353   2.13424   2.13930   2.14072   2.14799
 Alpha virt. eigenvalues --    2.15153   2.15239   2.15429   2.15849   2.16323
 Alpha virt. eigenvalues --    2.16518   2.16579   2.17025   2.17358   2.17513
 Alpha virt. eigenvalues --    2.18031   2.18090   2.18341   2.18457   2.18710
 Alpha virt. eigenvalues --    2.18855   2.19169   2.19455   2.19709   2.19787
 Alpha virt. eigenvalues --    2.19965   2.20397   2.20669   2.21866   2.21971
 Alpha virt. eigenvalues --    2.22502   2.23014   2.23223   2.23550   2.24242
 Alpha virt. eigenvalues --    2.24613   2.24777   2.24811   2.25430   2.25538
 Alpha virt. eigenvalues --    2.25740   2.26062   2.26278   2.26573   2.26965
 Alpha virt. eigenvalues --    2.27004   2.27050   2.27565   2.28057   2.28691
 Alpha virt. eigenvalues --    2.28947   2.29081   2.29156   2.29280   2.29683
 Alpha virt. eigenvalues --    2.30029   2.30108   2.30621   2.30998   2.31385
 Alpha virt. eigenvalues --    2.31484   2.32202   2.32360   2.32500   2.32505
 Alpha virt. eigenvalues --    2.33180   2.33487   2.33954   2.34169   2.34525
 Alpha virt. eigenvalues --    2.34696   2.34716   2.35123   2.35336   2.35581
 Alpha virt. eigenvalues --    2.35872   2.36179   2.36316   2.36772   2.36876
 Alpha virt. eigenvalues --    2.37050   2.37760   2.37863   2.38170   2.38269
 Alpha virt. eigenvalues --    2.38722   2.39179   2.39688   2.40035   2.40521
 Alpha virt. eigenvalues --    2.40734   2.40878   2.41004   2.41692   2.42677
 Alpha virt. eigenvalues --    2.43217   2.43251   2.43533   2.43860   2.44083
 Alpha virt. eigenvalues --    2.44595   2.44852   2.46327   2.46458   2.47468
 Alpha virt. eigenvalues --    2.47729   2.47844   2.48406   2.48904   2.49030
 Alpha virt. eigenvalues --    2.49280   2.49701   2.49799   2.50146   2.50860
 Alpha virt. eigenvalues --    2.51003   2.51433   2.51775   2.52000   2.52940
 Alpha virt. eigenvalues --    2.53176   2.53587   2.53892   2.54613   2.54984
 Alpha virt. eigenvalues --    2.55104   2.55700   2.56229   2.56544   2.56865
 Alpha virt. eigenvalues --    2.57001   2.57069   2.57685   2.57866   2.58200
 Alpha virt. eigenvalues --    2.58293   2.58501   2.58853   2.59155   2.59308
 Alpha virt. eigenvalues --    2.59513   2.59918   2.60188   2.60764   2.60774
 Alpha virt. eigenvalues --    2.61034   2.61307   2.61378   2.61543   2.61602
 Alpha virt. eigenvalues --    2.61795   2.62482   2.62799   2.63545   2.63614
 Alpha virt. eigenvalues --    2.63972   2.64010   2.64176   2.64286   2.64372
 Alpha virt. eigenvalues --    2.64535   2.64669   2.65213   2.65423   2.65456
 Alpha virt. eigenvalues --    2.65695   2.65794   2.65983   2.66066   2.66691
 Alpha virt. eigenvalues --    2.66837   2.66919   2.67346   2.68078   2.68133
 Alpha virt. eigenvalues --    2.68215   2.68670   2.68967   2.69116   2.69754
 Alpha virt. eigenvalues --    2.70151   2.70832   2.71201   2.71962   2.71993
 Alpha virt. eigenvalues --    2.72167   2.72529   2.72976   2.73414   2.73635
 Alpha virt. eigenvalues --    2.74050   2.74361   2.74457   2.74652   2.74735
 Alpha virt. eigenvalues --    2.75102   2.75141   2.75527   2.75952   2.76516
 Alpha virt. eigenvalues --    2.76610   2.77100   2.77342   2.77423   2.77953
 Alpha virt. eigenvalues --    2.78633   2.78731   2.79230   2.79315   2.79405
 Alpha virt. eigenvalues --    2.79756   2.79813   2.80046   2.80186   2.80386
 Alpha virt. eigenvalues --    2.81099   2.81562   2.81632   2.82227   2.82812
 Alpha virt. eigenvalues --    2.82924   2.83058   2.83173   2.83615   2.83676
 Alpha virt. eigenvalues --    2.83739   2.83944   2.84222   2.84390   2.84654
 Alpha virt. eigenvalues --    2.85331   2.85769   2.86028   2.86336   2.86499
 Alpha virt. eigenvalues --    2.86727   2.87292   2.87973   2.88086   2.88310
 Alpha virt. eigenvalues --    2.88623   2.88808   2.88851   2.89276   2.89428
 Alpha virt. eigenvalues --    2.89465   2.89639   2.90447   2.90722   2.91211
 Alpha virt. eigenvalues --    2.91443   2.91515   2.92013   2.92063   2.92356
 Alpha virt. eigenvalues --    2.92771   2.93691   2.93759   2.93972   2.94084
 Alpha virt. eigenvalues --    2.94430   2.94503   2.94625   2.94752   2.95136
 Alpha virt. eigenvalues --    2.95197   2.95601   2.95730   2.95921   2.96372
 Alpha virt. eigenvalues --    2.96484   2.96855   2.97147   2.97400   2.97862
 Alpha virt. eigenvalues --    2.98086   2.98298   2.99363   2.99496   3.00546
 Alpha virt. eigenvalues --    3.00620   3.00960   3.01033   3.01286   3.01522
 Alpha virt. eigenvalues --    3.01975   3.02538   3.02604   3.02893   3.03968
 Alpha virt. eigenvalues --    3.04238   3.04647   3.04795   3.05306   3.05368
 Alpha virt. eigenvalues --    3.05466   3.05998   3.06517   3.06783   3.07116
 Alpha virt. eigenvalues --    3.07642   3.07976   3.08030   3.09059   3.10309
 Alpha virt. eigenvalues --    3.10382   3.10886   3.12203   3.12600   3.13153
 Alpha virt. eigenvalues --    3.13184   3.13638   3.14407   3.14561   3.14948
 Alpha virt. eigenvalues --    3.15057   3.15440   3.15468   3.15663   3.15882
 Alpha virt. eigenvalues --    3.16471   3.16483   3.16566   3.17069   3.17542
 Alpha virt. eigenvalues --    3.17782   3.17906   3.18947   3.19318   3.19349
 Alpha virt. eigenvalues --    3.19845   3.20118   3.20463   3.20563   3.20838
 Alpha virt. eigenvalues --    3.21042   3.21276   3.21728   3.21935   3.22292
 Alpha virt. eigenvalues --    3.22552   3.22731   3.23735   3.25034   3.25479
 Alpha virt. eigenvalues --    3.25601   3.26483   3.27397   3.27851   3.27955
 Alpha virt. eigenvalues --    3.28846   3.29194   3.29279   3.30250   3.30854
 Alpha virt. eigenvalues --    3.31992   3.32397   3.32493   3.32753   3.37973
 Alpha virt. eigenvalues --    3.39407   3.39870   3.42262   3.44480   3.48424
 Alpha virt. eigenvalues --    3.51505   3.52279   3.52384   3.54289   3.54845
 Alpha virt. eigenvalues --    3.55482   3.55605   3.56601   3.56671   3.57310
 Alpha virt. eigenvalues --    3.58033   3.59737   3.59941   3.60455   3.61001
 Alpha virt. eigenvalues --    3.61973   3.62615   3.63597   3.65182   3.65830
 Alpha virt. eigenvalues --    3.66031   3.66538   3.66933   3.67329   3.67435
 Alpha virt. eigenvalues --    3.68138   3.68684   3.68964   3.69125   3.69541
 Alpha virt. eigenvalues --    3.70401   3.71364   3.72949   3.73253   3.74720
 Alpha virt. eigenvalues --    3.76283   3.78124   3.79221   3.82496
          Condensed to atoms (all electrons):
 Mulliken charges:
               1
     1  C    0.070232
     2  C   -0.010836
     3  O   -0.303484
     4  H   -0.003455
     5  H    0.011821
     6  H    0.030879
     7  N   -0.131003
     8  C    0.128138
     9  C    0.054578
    10  O   -0.301390
    11  C    0.094053
    12  C    0.084352
    13  O   -0.410962
    14  O   -0.346853
    15  H    0.108751
    16  H   -0.031931
    17  H    0.016824
    18  H   -0.012277
    19  N   -0.113795
    20  C    0.104566
    21  C    0.085716
    22  O   -0.208229
    23  C    0.030480
    24  C   -0.021906
    25  C   -0.028575
    26  C    0.050584
    27  N    0.099724
    28  H    0.113279
    29  H    0.008543
    30  H    0.000300
    31  H    0.035945
    32  H    0.008009
    33  H   -0.003491
    34  H    0.030072
    35  H    0.061954
    36  H    0.057964
    37  H    0.084731
    38  H    0.159502
    39  H    0.159349
    40  H    0.156542
    41  N   -0.143604
    42  C    0.106970
    43  C    0.108177
    44  O   -0.272158
    45  C    0.135936
    46  C    0.046430
    47  O   -0.469904
    48  O   -0.406001
    49  H    0.122179
    50  H    0.035122
    51  H    0.014129
    52  H    0.011317
    53  N   -0.143083
    54  C    0.194461
    55  C    0.018712
    56  O   -0.259679
    57  H    0.115606
    58  H    0.051226
    59  H    0.026300
    60  N   -0.139051
    61  C    0.085971
    62  C    0.097837
    63  O   -0.283946
    64  C    0.101763
    65  C   -0.006263
    66  N   -0.048048
    67  O   -0.277048
    68  H    0.130922
    69  H    0.026210
    70  H   -0.009836
    71  H    0.006957
    72  H    0.127588
    73  H    0.126881
    74  N   -0.116876
    75  C    0.225479
    76  C   -0.006368
    77  O   -0.251465
    78  H    0.134875
    79  H    0.015627
    80  H    0.022305
    81  N   -0.150057
    82  C    0.123016
    83  C    0.101168
    84  O   -0.286984
    85  C    0.131001
    86  C   -0.032208
    87  C    0.064874
    88  C    0.012102
    89  C   -0.058120
    90  C   -0.058918
    91  C    0.186076
    92  O   -0.208014
    93  H    0.109686
    94  H   -0.002521
    95  H   -0.013328
    96  H    0.025100
    97  H   -0.022101
    98  H   -0.045879
    99  H   -0.021693
   100  H   -0.046156
   101  H    0.175275
   102  N   -0.081945
   103  C    0.140413
   104  C    0.054512
   105  O   -0.274600
   106  C   -0.057538
   107  C    0.014394
   108  C    0.048839
   109  C    0.027797
   110  H    0.125055
   111  H   -0.016963
   112  H   -0.008441
   113  H   -0.001253
   114  H    0.001683
   115  H   -0.011767
   116  H    0.016304
   117  H   -0.009991
   118  H   -0.025093
   119  H    0.032880
   120  H    0.008153
   121  N   -0.123582
   122  C    0.104487
   123  C    0.083922
   124  O   -0.257018
   125  C    0.184972
   126  O   -0.305284
   127  H    0.122095
   128  H    0.019888
   129  H    0.024830
   130  H    0.001273
   131  H    0.179455
   132  N   -0.133443
   133  C    0.045340
   134  C    0.049900
   135  O   -0.267951
   136  C    0.078320
   137  H    0.115138
   138  H    0.017201
   139  H   -0.002079
   140  H    0.030507
   141  H    0.023214
   142  N   -0.107750
   143  C    0.076088
   144  C    0.031715
   145  O   -0.283363
   146  C    0.091362
   147  H    0.139814
   148  H   -0.003986
   149  H    0.038893
   150  H   -0.022322
   151  H    0.035373
   152  N   -0.124343
   153  C    0.126533
   154  C    0.086387
   155  O   -0.289819
   156  C   -0.015658
   157  C    0.101928
   158  C    0.069010
   159  O   -0.423669
   160  O   -0.424549
   161  H    0.114896
   162  H    0.010000
   163  H    0.021900
   164  H    0.007634
   165  H   -0.016150
   166  H   -0.005669
   167  N   -0.131054
   168  C    0.129135
   169  H    0.042155
   170  H    0.024655
   171  H    0.023675
   172  H    0.111090
   173  Ca   1.363222
   174  O   -0.308552
   175  H    0.189705
   176  H    0.191417
 Sum of Mulliken charges =  -0.00000
 Mulliken charges with hydrogens summed into heavy atoms:
               1
     1  C    0.109478
     2  C   -0.010836
     3  O   -0.303484
     7  N   -0.022252
     8  C    0.096207
     9  C    0.054578
    10  O   -0.301390
    11  C    0.098601
    12  C    0.084352
    13  O   -0.410962
    14  O   -0.346853
    19  N   -0.000516
    20  C    0.113109
    21  C    0.085716
    22  O   -0.208229
    23  C    0.066725
    24  C   -0.017388
    25  C    0.063451
    26  C    0.193279
    27  N    0.575118
    41  N   -0.021425
    42  C    0.142092
    43  C    0.108177
    44  O   -0.272158
    45  C    0.161382
    46  C    0.046430
    47  O   -0.469904
    48  O   -0.406001
    53  N   -0.027477
    54  C    0.271988
    55  C    0.018712
    56  O   -0.259679
    60  N   -0.008129
    61  C    0.112181
    62  C    0.097837
    63  O   -0.283946
    64  C    0.098884
    65  C   -0.006263
    66  N    0.206420
    67  O   -0.277048
    74  N    0.017999
    75  C    0.263412
    76  C   -0.006368
    77  O   -0.251465
    81  N   -0.040370
    82  C    0.120495
    83  C    0.101168
    84  O   -0.286984
    85  C    0.142774
    86  C   -0.032208
    87  C    0.042773
    88  C   -0.033777
    89  C   -0.079813
    90  C   -0.105074
    91  C    0.186076
    92  O   -0.032739
   102  N    0.043110
   103  C    0.123449
   104  C    0.054512
   105  O   -0.274600
   106  C   -0.065979
   107  C    0.014824
   108  C    0.043385
   109  C    0.043737
   121  N   -0.001487
   122  C    0.124375
   123  C    0.083922
   124  O   -0.257018
   125  C    0.211075
   126  O   -0.125828
   132  N   -0.018306
   133  C    0.062541
   134  C    0.049900
   135  O   -0.267951
   136  C    0.129962
   142  N    0.032064
   143  C    0.072102
   144  C    0.031715
   145  O   -0.283363
   146  C    0.143306
   152  N   -0.009448
   153  C    0.136532
   154  C    0.086387
   155  O   -0.289819
   156  C    0.013876
   157  C    0.080109
   158  C    0.069010
   159  O   -0.423669
   160  O   -0.424549
   167  N   -0.019964
   168  C    0.219620
   173  Ca   1.363222
   174  O    0.072570
 DipInt: DoE/N= T F RetVal/Mat= T F Init=T NMatP=  1 IDeriv=0 Min/MaxMlt=  0  4
 Entering OneElI...
 OneElI was handed  1333951383 working-precision words.
 Multipole integrals L=0 to 4 MinM= 0 MaxM= 0.
 Requested accuracy = 0.1000D-12
 ShPair: Thresh= 1.00D-13 NBox=     0 BxSize= 0.00D+00 RnKept= 3.10D+01
         NSMCal=               327645 NSMKep=              122646
 PrmmSu-InSpLW:  IPartL=    0 NPrtUS=    1 NPrtUL=    1 DoSpLW=F IThBeg=    0 IThEnd=    0 NThAct=    1.
 PrsmSu:  NPrtUS=   1 ThrOK=F IAlg=1 NPAlg=1 LenDen=           0 ISkipM=0 DoSpLW=F IThBeg=    0 IThEnd=    0.
 Prism:   IPart=     0 DynPar=F LinDyn=F Incr=         512.
 PRISM was handed  1325347779 working-precision words and122646 shell-pairs
 IPart=  0 NShTot=      122646 NBatch=         286 AvBLen=       428.8
 PrsmSu-ThDecC:  IPartSL=    0    0 NPrtUSL=    1    1 IThBeg=    0 IThEnd=    0 CPU=   -1 GPU=   -1 NThAct=    1.
 PrSmSu:  NxtVal=            513.
 Electronic moments (au):
       -716.00000000          8.41090317         10.36236210         -4.46652230
     -95507.51323810     -41376.32803994     -12280.76626915       -253.93476761
         18.94196837         32.15593318     203430.98093627     -18406.49727919
     -10636.99519557    -124671.86703276      52924.66213782    -227342.64647168
      49007.47110512      -5426.30705153       5998.19149994      33145.53715474
  -25282369.34294299   -4843206.06845858    -677147.64986543    1221856.99726358
    1219335.54327777     -11195.73407014    -258770.67643985     399659.51712332
      72626.09692476   -4019658.09071681   -1953133.89755912    -499103.77748934
     384968.98029534    -459668.75507932     106245.95408217
 Electronic spatial extent (au):  <R**2>=         149164.6075
 DipInt: DoE/N= F T RetVal/Mat= T F Init=T NMatP=  1 IDeriv=0 Min/MaxMlt=  0  4
 Nuclear    moments (au):
        716.00000000         -0.00000000          0.00000000          0.00000000
      94889.49018120      41006.93736902      11906.66917178         -0.00000000
         -0.00000000         -0.00000000    -197090.58233698      20308.53422580
      10116.59259538     123843.55467832     -50966.89071707     226660.55964178
     -49025.88027407       5542.20848454      -5949.12661911     -32952.60164787
   24816365.87747754    4702517.80324601     640201.20127754   -1293545.90292309
   -1204441.55934587     -17183.67236835     260172.23655556    -397350.13431547
     -71918.94119128    3956769.56370429    1886583.42410537     468534.15027315
    -381845.34169721     455627.35769778    -105541.10998404
 Total      moments (au):
         -0.00000000          8.41090317         10.36236210         -4.46652230
       -618.02305691       -369.39067092       -374.09709736       -253.93476761
         18.94196837         32.15593318       6340.39859929       1902.03694661
       -520.40260018       -828.31235444       1957.77142075       -682.08682989
        -18.40916896        115.90143301         49.06488083        192.93550687
    -466003.46546545    -140688.26521256     -36946.44858789     -71688.90565951
      14893.98393190     -28379.40643849       1401.56011571       2309.38280785
        707.15573348     -62888.52701252     -66550.47345375     -30569.62721619
       3123.63859813      -4041.39738155        704.84409813
 Traceless Quadrup. (au):
       -164.18611518         84.44627081         79.73984437       -253.93476761
         18.94196837         32.15593318
 Charge=             -0.0000 electrons
 Dipole moment (field-independent basis, Debye):
    X=             21.3784    Y=             26.3385    Z=            -11.3528  Tot=             35.7720
 Quadrupole moment (field-independent basis, Debye-Ang):
   XX=           -831.2622   YY=           -496.8431   ZZ=           -503.1734
   XY=           -341.5510   XZ=             25.4776   YZ=             43.2508
 Traceless Quadrupole moment (field-independent basis, Debye-Ang):
   XX=           -220.8359   YY=            113.5831   ZZ=            107.2528
   XY=           -341.5510   XZ=             25.4776   YZ=             43.2508
 Octapole moment (field-independent basis, Debye-Ang**2):
  XXX=           4512.8515  YYY=           1353.7966  ZZZ=           -370.4025  XYY=           -589.5608
  XXY=           1393.4663  XXZ=           -485.4831  XZZ=            -13.1029  YZZ=             82.4942
  YYZ=             34.9225  XYZ=            137.3241
 Hexadecapole moment (field-independent basis, Debye-Ang**3):
 XXXX=        -175519.2507 YYYY=         -52989.9469 ZZZZ=         -13915.8042 XXXY=         -27001.4795
 XXXZ=           5609.7885 YYYX=         -10689.0453 YYYZ=            527.8947 ZZZX=            869.8243
 ZZZY=            266.3488 XXYY=         -23686.8349 XXZZ=         -25066.0995 YYZZ=         -11513.9875
 XXYZ=           1176.5121 YYXZ=          -1522.1840 ZZXY=            265.4781
 N-N= 1.877742064297D+04 E-N=-5.002906539704D+04  KE= 5.290524032332D+03
 Leave Link  601 at Tue Sep 17 18:41:20 2019, MaxMem=  1342177280 cpu:              40.4 elap:               1.0
 FitSet:  NAtFit=   176 NAtPot=   176 NAtFrz=     0 MDM=   180 TotChg=   0.00000
 Merz-Kollman atomic radii used.
 Read replacement radii for each type of atom:
 Rad(20) =   1.700000000000D+00
 Atom Element Radius
    1     6    1.50
    2     6    1.50
    3     8    1.40
    4     1    1.20
    5     1    1.20
    6     1    1.20
    7     7    1.50
    8     6    1.50
    9     6    1.50
   10     8    1.40
   11     6    1.50
   12     6    1.50
   13     8    1.40
   14     8    1.40
   15     1    1.20
   16     1    1.20
   17     1    1.20
   18     1    1.20
   19     7    1.50
   20     6    1.50
   21     6    1.50
   22     8    1.40
   23     6    1.50
   24     6    1.50
   25     6    1.50
   26     6    1.50
   27     7    1.50
   28     1    1.20
   29     1    1.20
   30     1    1.20
   31     1    1.20
   32     1    1.20
   33     1    1.20
   34     1    1.20
   35     1    1.20
   36     1    1.20
   37     1    1.20
   38     1    1.20
   39     1    1.20
   40     1    1.20
   41     7    1.50
   42     6    1.50
   43     6    1.50
   44     8    1.40
   45     6    1.50
   46     6    1.50
   47     8    1.40
   48     8    1.40
   49     1    1.20
   50     1    1.20
   51     1    1.20
   52     1    1.20
   53     7    1.50
   54     6    1.50
   55     6    1.50
   56     8    1.40
   57     1    1.20
   58     1    1.20
   59     1    1.20
   60     7    1.50
   61     6    1.50
   62     6    1.50
   63     8    1.40
   64     6    1.50
   65     6    1.50
   66     7    1.50
   67     8    1.40
   68     1    1.20
   69     1    1.20
   70     1    1.20
   71     1    1.20
   72     1    1.20
   73     1    1.20
   74     7    1.50
   75     6    1.50
   76     6    1.50
   77     8    1.40
   78     1    1.20
   79     1    1.20
   80     1    1.20
   81     7    1.50
   82     6    1.50
   83     6    1.50
   84     8    1.40
   85     6    1.50
   86     6    1.50
   87     6    1.50
   88     6    1.50
   89     6    1.50
   90     6    1.50
   91     6    1.50
   92     8    1.40
   93     1    1.20
   94     1    1.20
   95     1    1.20
   96     1    1.20
   97     1    1.20
   98     1    1.20
   99     1    1.20
  100     1    1.20
  101     1    1.20
  102     7    1.50
  103     6    1.50
  104     6    1.50
  105     8    1.40
  106     6    1.50
  107     6    1.50
  108     6    1.50
  109     6    1.50
  110     1    1.20
  111     1    1.20
  112     1    1.20
  113     1    1.20
  114     1    1.20
  115     1    1.20
  116     1    1.20
  117     1    1.20
  118     1    1.20
  119     1    1.20
  120     1    1.20
  121     7    1.50
  122     6    1.50
  123     6    1.50
  124     8    1.40
  125     6    1.50
  126     8    1.40
  127     1    1.20
  128     1    1.20
  129     1    1.20
  130     1    1.20
  131     1    1.20
  132     7    1.50
  133     6    1.50
  134     6    1.50
  135     8    1.40
  136     6    1.50
  137     1    1.20
  138     1    1.20
  139     1    1.20
  140     1    1.20
  141     1    1.20
  142     7    1.50
  143     6    1.50
  144     6    1.50
  145     8    1.40
  146     6    1.50
  147     1    1.20
  148     1    1.20
  149     1    1.20
  150     1    1.20
  151     1    1.20
  152     7    1.50
  153     6    1.50
  154     6    1.50
[...]
 **** Fit       0.018081
 **** Fit       0.018429
 **** Fit       0.018876
 **** Fit       0.018914
 **** Fit       0.019035
 **** Fit       0.019275
 **** Fit       0.019618
 **** Fit       0.020046
 **** Fit       0.015355
 **** Fit       0.015645
 **** Fit       0.016312
 **** Fit       0.017159
 **** Fit       0.017957
 **** Fit       0.018523
 **** Fit       0.018799
 **** Fit       0.019169
 **** Fit       0.019126
 **** Fit       0.019223
 **** Fit       0.019490
 **** Fit       0.019883
 **** Fit       0.020349
 **** Fit       0.014687
 **** Fit       0.015469
 **** Fit       0.016521
 **** Fit       0.017618
 **** Fit       0.018518
 **** Fit       0.019050
 **** Fit       0.019214
 **** Fit       0.019469
 **** Fit       0.019359
 **** Fit       0.019491
 **** Fit       0.019878
 **** Fit       0.020430
 **** Fit       0.021040
 **** Fit       0.013122
 **** Fit       0.013792
 **** Fit       0.014952
 **** Fit       0.016404
 **** Fit       0.017857
 **** Fit       0.018982
 **** Fit       0.019565
 **** Fit       0.019640
 **** Fit       0.019780
 **** Fit       0.019663
 **** Fit       0.019904
 **** Fit       0.020493
 **** Fit       0.021284
 **** Fit       0.022112
 **** Fit       0.011519
 **** Fit       0.012530
 **** Fit       0.014119
 **** Fit       0.016047
 **** Fit       0.017932
 **** Fit       0.019342
 **** Fit       0.020015
 **** Fit       0.020034
 **** Fit       0.020175
 **** Fit       0.020197
 **** Fit       0.020705
 **** Fit       0.021653
 **** Fit       0.022818
 **** Fit       0.010244
 **** Fit       0.012273
 **** Fit       0.014801
 **** Fit       0.017316
 **** Fit       0.019243
 **** Fit       0.020223
 **** Fit       0.020365
 **** Fit       0.020902
 **** Fit       0.021367
 **** Fit       0.022452
 **** Fit       0.024044
 **** Fit       0.025787
 **** Fit       0.006059
 **** Fit       0.008325
 **** Fit       0.011582
 **** Fit       0.015136
 **** Fit       0.018138
 **** Fit       0.019982
 **** Fit       0.020691
 **** Fit       0.022503
 **** Fit       0.023934
 **** Fit       0.010971
 **** Fit       0.015731
 **** Fit       0.019241
 **** Fit       0.021269
 **** Fit       0.018924
 **** Fit       0.018813
 **** Fit       0.018732
 **** Fit       0.019010
 **** Fit       0.018971
 **** Fit       0.018948
 **** Fit       0.018828
 **** Fit       0.018655
 **** Fit       0.019308
 **** Fit       0.019154
 **** Fit       0.019159
 **** Fit       0.019213
 **** Fit       0.019222
 **** Fit       0.019121
 **** Fit       0.018895
 **** Fit       0.018614
 **** Fit       0.019456
 **** Fit       0.019359
 **** Fit       0.019396
 **** Fit       0.019485
 **** Fit       0.019555
 **** Fit       0.019547
 **** Fit       0.019416
 **** Fit       0.019139
 **** Fit       0.018747
 **** Fit       0.018355
 **** Fit       0.019938
 **** Fit       0.019693
 **** Fit       0.019637
 **** Fit       0.019692
 **** Fit       0.019791
 **** Fit       0.019878
 **** Fit       0.019903
 **** Fit       0.019819
 **** Fit       0.019585
 **** Fit       0.019179
 **** Fit       0.018627
 **** Fit       0.018044
 **** Fit       0.020259
 **** Fit       0.020042
 **** Fit       0.019981
 **** Fit       0.020015
 **** Fit       0.020092
 **** Fit       0.020166
 **** Fit       0.020196
 **** Fit       0.020137
 **** Fit       0.019945
 **** Fit       0.019577
 **** Fit       0.019002
 **** Fit       0.018241
 **** Fit       0.017403
 **** Fit       0.021057
 **** Fit       0.020641
 **** Fit       0.020427
 **** Fit       0.020349
 **** Fit       0.020351
 **** Fit       0.020385
 **** Fit       0.020404
 **** Fit       0.020364
 **** Fit       0.020214
 **** Fit       0.019896
 **** Fit       0.019348
 **** Fit       0.018521
 **** Fit       0.017414
 **** Fit       0.021548
 **** Fit       0.021085
 **** Fit       0.020813
 **** Fit       0.020669
 **** Fit       0.020599
 **** Fit       0.020550
 **** Fit       0.020473
 **** Fit       0.020317
 **** Fit       0.020017
 **** Fit       0.019500
 **** Fit       0.018679
 **** Fit       0.017475
 **** Fit       0.015857
 **** Fit       0.022762
 **** Fit       0.021947
 **** Fit       0.021403
 **** Fit       0.021049
 **** Fit       0.020815
 **** Fit       0.020635
 **** Fit       0.020450
 **** Fit       0.020193
 **** Fit       0.019791
 **** Fit       0.019150
 **** Fit       0.018154
 **** Fit       0.016670
 **** Fit       0.014579
 **** Fit       0.023993
 **** Fit       0.022733
 **** Fit       0.021869
 **** Fit       0.021274
 **** Fit       0.020840
 **** Fit       0.020472
 **** Fit       0.020079
 **** Fit       0.019559
 **** Fit       0.018793
 **** Fit       0.017623
 **** Fit       0.015846
 **** Fit       0.013221
 **** Fit       0.023179
 **** Fit       0.021970
 **** Fit       0.021112
 **** Fit       0.020434
 **** Fit       0.019786
 **** Fit       0.019016
 **** Fit       0.017944
 **** Fit       0.016334
 **** Fit       0.013863
 **** Fit       0.010098
 **** Fit       0.020421
 **** Fit       0.019425
 **** Fit       0.018347
 **** Fit       0.016930
 **** Fit       0.014846
 **** Fit       0.011620
 **** Fit       0.027444
 **** Fit       0.023745
 **** Fit       0.024025
 **** Fit       0.024974
 **** Fit       0.026215
 **** Fit       0.027354
 **** Fit       0.028145
 **** Fit       0.024067
 **** Fit       0.020621
 **** Fit       0.021114
 **** Fit       0.022630
 **** Fit       0.024513
 **** Fit       0.026214
 **** Fit       0.027440
 **** Fit       0.028077
 **** Fit       0.021256
 **** Fit       0.017938
 **** Fit       0.018608
 **** Fit       0.020677
 **** Fit       0.023172
 **** Fit       0.025402
 **** Fit       0.027054
 **** Fit       0.028032
 **** Fit       0.028328
 **** Fit       0.020066
 **** Fit       0.022956
 **** Fit       0.025511
 **** Fit       0.027410
 **** Fit       0.028579
 **** Fit       0.029033
 **** Fit       0.024798
 **** Fit       0.027251
 **** Fit       0.029033
 **** Fit       0.030070
 **** Fit       0.030381
 **** Fit       0.028708
 **** Fit       0.030509
 **** Fit       0.031793
 **** Fit       0.032418
 **** Fit       0.032379
 **** Fit       0.035484
 **** Fit       0.035558
 **** Fit       0.035130
 **** Fit      -0.002867
 **** Fit      -0.003361
 **** Fit      -0.004964
 **** Fit       0.020739
 **** Fit       0.038496
 **** Fit       0.027691
 **** Fit       0.028898
 **** Fit       0.037328
 **** Fit       0.044135
 **** Fit       0.049689
 **** Fit       0.029221
 **** Fit       0.033541
 **** Fit       0.035980
 **** Fit       0.036435
 **** Fit       0.035045
 **** Fit       0.039563
 **** Fit       0.044968
 **** Fit       0.049811
 **** Fit       0.053597
 **** Fit       0.055846
 **** Fit       0.056143
 **** Fit       0.054218
 **** Fit       0.050014
 **** Fit       0.035017
 **** Fit       0.036110
 **** Fit       0.039974
 **** Fit       0.042473
 **** Fit       0.043476
 **** Fit       0.043079
 **** Fit       0.041620
 **** Fit       0.039677
 **** Fit       0.043561
 **** Fit       0.047227
 **** Fit       0.051083
 **** Fit       0.054603
 **** Fit       0.057317
 **** Fit       0.058803
 **** Fit       0.058709
 **** Fit       0.056793
 **** Fit       0.052938
 **** Fit       0.047101
 **** Fit       0.039210
 **** Fit       0.033542
 **** Fit       0.038058
 **** Fit       0.042237
 **** Fit       0.045706
 **** Fit       0.048181
 **** Fit       0.049534
 **** Fit       0.049825
 **** Fit       0.049299
 **** Fit       0.048376
 **** Fit       0.047580
 **** Fit       0.047402
 **** Fit       0.048086
 **** Fit       0.049460
 **** Fit       0.050540
 **** Fit       0.049599
 **** Fit       0.049322
 **** Fit       0.050027
 **** Fit       0.051698
 **** Fit       0.054053
 **** Fit       0.056682
 **** Fit       0.059143
 **** Fit       0.061017
 **** Fit       0.061928
 **** Fit       0.061562
 **** Fit       0.059691
 **** Fit       0.056175
 **** Fit       0.050934
 **** Fit       0.043898
 **** Fit       0.041150
 **** Fit       0.032970
 **** Fit       0.037835
 **** Fit       0.042277
 **** Fit       0.046343
 **** Fit       0.049861
 **** Fit       0.052607
 **** Fit       0.054440
 **** Fit       0.055361
 **** Fit       0.055542
 **** Fit       0.055300
 **** Fit       0.055029
 **** Fit       0.055077
 **** Fit       0.055592
 **** Fit       0.056436
 **** Fit       0.057268
 **** Fit       0.057762
 **** Fit       0.057794
 **** Fit       0.057496
 **** Fit       0.057189
 **** Fit       0.057245
 **** Fit       0.057908
 **** Fit       0.059193
 **** Fit       0.060895
 **** Fit       0.062673
 **** Fit       0.064134
 **** Fit       0.064892
 **** Fit       0.064610
 **** Fit       0.063025
 **** Fit       0.059958
 **** Fit       0.055311
 **** Fit       0.049039
 **** Fit       0.047202
 **** Fit       0.039379
 **** Fit       0.035582
 **** Fit       0.040832
 **** Fit       0.045460
 **** Fit       0.049581
 **** Fit       0.053180
 **** Fit       0.056139
 **** Fit       0.058337
 **** Fit       0.059743
 **** Fit       0.060465
 **** Fit       0.060735
 **** Fit       0.060855
 **** Fit       0.061082
 **** Fit       0.061525
 **** Fit       0.062100
 **** Fit       0.062616
 **** Fit       0.062923
 **** Fit       0.063024
 **** Fit       0.063080
 **** Fit       0.063323
 **** Fit       0.063920
 **** Fit       0.064881
 **** Fit       0.066034
 **** Fit       0.067080
 **** Fit       0.067665
 **** Fit       0.067443
 **** Fit       0.066124
 **** Fit       0.063500
 **** Fit       0.059462
 **** Fit       0.053994
 **** Fit       0.052859
 **** Fit       0.046505
 **** Fit       0.040231
 **** Fit       0.038722
 **** Fit       0.043383
 **** Fit       0.047912
 **** Fit       0.052056
 **** Fit       0.055732
 **** Fit       0.058856
 **** Fit       0.061334
 **** Fit       0.063119
 **** Fit       0.064266
 **** Fit       0.064941
 **** Fit       0.065372
 **** Fit       0.065762
 **** Fit       0.066206
 **** Fit       0.066671
 **** Fit       0.067071
 **** Fit       0.067364
 **** Fit       0.067609
 **** Fit       0.067931
 **** Fit       0.068431
 **** Fit       0.069094
 **** Fit       0.069759
 **** Fit       0.070154
 **** Fit       0.069960
 **** Fit       0.068876
 **** Fit       0.066675
 **** Fit       0.063237
 **** Fit       0.058573
 **** Fit       0.057954
 **** Fit       0.052761
 **** Fit       0.048032
 **** Fit       0.044740
 **** Fit       0.043636
 **** Fit       0.044819
 **** Fit       0.047684
 **** Fit       0.051364
 **** Fit       0.055182
 **** Fit       0.058755
 **** Fit       0.061875
 **** Fit       0.064408
 **** Fit       0.066298
 **** Fit       0.067597
 **** Fit       0.068459
 **** Fit       0.069080
 **** Fit       0.069607
 **** Fit       0.070089
 **** Fit       0.070510
 **** Fit       0.070865
 **** Fit       0.071202
 **** Fit       0.071577
 **** Fit       0.071978
 **** Fit       0.072260
 **** Fit       0.072163
 **** Fit       0.071378
 **** Fit       0.069633
 **** Fit       0.066768
 **** Fit       0.062795
 **** Fit       0.062387
 **** Fit       0.058247
 **** Fit       0.054873
 **** Fit       0.053109
 **** Fit       0.053332
 **** Fit       0.055245
 **** Fit       0.058136
 **** Fit       0.061319
 **** Fit       0.064324
 **** Fit       0.066872
 **** Fit       0.068841
 **** Fit       0.070253
 **** Fit       0.071242
 **** Fit       0.071972
 **** Fit       0.072552
 **** Fit       0.073023
 **** Fit       0.073404
 **** Fit       0.073712
 **** Fit       0.073921
 **** Fit       0.073888
 **** Fit       0.073360
 **** Fit       0.072044
 **** Fit       0.069733
 **** Fit       0.066420
 **** Fit       0.066106
 **** Fit       0.062776
 **** Fit       0.060630
 **** Fit       0.060376
 **** Fit       0.061894
 **** Fit       0.064437
 **** Fit       0.067199
 **** Fit       0.069633
 **** Fit       0.071502
 **** Fit       0.072825
 **** Fit       0.073746
 **** Fit       0.074392
 **** Fit       0.074816
 **** Fit       0.075005
 **** Fit       0.074833
 **** Fit       0.074034
 **** Fit       0.072309
 **** Fit       0.069557
 **** Fit       0.069091
 **** Fit       0.066571
 **** Fit       0.065859
 **** Fit       0.067188
 **** Fit       0.069564
 **** Fit       0.071879
 **** Fit       0.073597
 **** Fit       0.074679
 **** Fit       0.075209
 **** Fit       0.075124
 **** Fit       0.074152
 **** Fit       0.072031
 **** Fit       0.071335
 **** Fit       0.069968
 **** Fit       0.071441
 **** Fit       0.073593
 **** Fit       0.074562
 **** Fit       0.073745
 **** Fit       0.072836
 **** Fit       0.005507
 **** Fit       0.004927
 **** Fit       0.002518
 **** Fit       0.000602
 **** Fit       0.004595
 **** Fit       0.002287
 **** Fit       0.000486
 **** Fit      -0.001091
 **** Fit      -0.002701
 **** Fit       0.002001
 **** Fit       0.000288
 **** Fit      -0.001044
 **** Fit      -0.002485
 **** Fit      -0.004255
 **** Fit      -0.006210
 **** Fit      -0.007920
 **** Fit       0.000562
 **** Fit      -0.000770
 **** Fit      -0.001748
 **** Fit      -0.003072
 **** Fit      -0.005050
 **** Fit      -0.007681
 **** Fit      -0.013784
 **** Fit      -0.002085
 **** Fit      -0.002328
 **** Fit      -0.002979
 **** Fit      -0.004697
 **** Fit       0.021240
 **** Fit       0.021848
 **** Fit       0.027926
 **** Fit       0.021380
 **** Fit       0.014447
 **** Fit       0.027946
 **** Fit       0.020743
 **** Fit       0.042738
 **** Fit       0.034402
 **** Fit       0.029020
 **** Fit       0.021182
 **** Fit       0.051900
 **** Fit       0.041211
 **** Fit       0.035636
 **** Fit       0.032258
 **** Fit       0.055113
 **** Fit       0.050404
 **** Fit       0.045276
 **** Fit       0.039285
 **** Fit       0.034514
 **** Fit       0.028156
 **** Fit       0.023508
 **** Fit       0.038334
 **** Fit       0.045805
 **** Fit       0.049346
 **** Fit       0.049303
 **** Fit       0.046234
 **** Fit       0.040973
 **** Fit       0.035163
 **** Fit       0.030002
 **** Fit       0.025877
 **** Fit       0.037431
 **** Fit       0.043621
 **** Fit       0.046648
 **** Fit       0.046782
 **** Fit       0.044466
 **** Fit       0.040322
 **** Fit       0.035867
 **** Fit       0.031418
 **** Fit       0.031057
 **** Fit       0.037587
 **** Fit       0.042413
 **** Fit       0.044941
 **** Fit       0.045173
 **** Fit       0.043400
 **** Fit       0.040093
 **** Fit       0.036634
 **** Fit       0.032320
 **** Fit       0.030377
 **** Fit       0.033396
 **** Fit       0.037477
 **** Fit       0.041317
 **** Fit       0.043808
 **** Fit       0.044433
 **** Fit       0.043199
 **** Fit       0.040432
 **** Fit       0.037800
 **** Fit       0.041770
 **** Fit       0.042852
 **** Fit       0.044212
 **** Fit       0.044664
 **** Fit       0.043685
 **** Fit       0.041290
 **** Fit       0.048026
 **** Fit       0.046910
 **** Fit       0.045600
 **** Fit       0.043297
 **** Fit       0.004378
 **** Fit       0.014512
 **** Fit       0.009211
 **** Fit       0.005891
 **** Fit       0.003012
 **** Fit       0.016463
 **** Fit       0.010046
 -----------------------------------------------------------------
 Leave Link  602 at Tue Sep 17 18:41:23 2019, MaxMem=  1342177280 cpu:             126.3 elap:               2.7

 Test job not archived.
 1\1\GINC-C477-124\SP\RB3LYP\SVP\C54H83Ca1N15O23\PENGZHI\17-Sep-2019\0\
 \#b3lyp/svp scf=(tight,noincore) Test #IOP(5/87=12) Density=Current Po
 p=(MK,readradii) iop(6/33=2) iop(6/42=6)\\Ng-293_loop3_72.0\\0,1\C,0,4
 1.18,77.55,71.53\C,0,41.42,77.5,70.03\O,0,42.3,78.23,69.58\H,0,40.131,
 77.34,71.737\H,0,41.803,76.804,72.023\H,0,41.433,78.541,71.906\N,0,40.
 62,76.77,69.25\C,0,40.76,76.7,67.81\C,0,40.35,75.3,67.36\O,0,39.39,74.
 73,67.87\C,0,39.89,77.82,67.24\C,0,40.14,78.06,65.76\O,0,41.26,77.76,6
 5.28\O,0,39.24,78.68,65.16\H,0,39.85,76.31,69.71\H,0,41.81,76.72,67.51
 \H,0,40.09,78.72,67.83\H,0,38.85,77.52,67.39\N,0,41.03,74.81,66.32\C,0
 ,40.65,73.63,65.56\C,0,39.24,73.71,64.98\O,0,38.67,74.79,64.85\C,0,40.
 93,72.42,66.44\C,0,42.41,72.23,66.8\C,0,43.4,72.35,65.64\C,0,44.63,71.
 55,66.07\N,0,45.4,72.28,67.09\H,0,41.72,75.42,65.92\H,0,41.33,73.59,64
 .71\H,0,40.64,71.49,65.96\H,0,40.32,72.48,67.34\H,0,42.48,71.25,67.27\
 H,0,42.72,72.95,67.56\H,0,43.77,73.37,65.53\H,0,42.98,71.92,64.74\H,0,
 45.3,71.51,65.21\H,0,44.28,70.6,66.49\H,0,45.98,73.02,66.72\H,0,44.87,
 72.71,67.83\H,0,46.04,71.65,67.54\N,0,38.62,72.57,64.67\C,0,37.3,72.53
 ,64.09\C,0,36.18,72.52,65.13\O,0,35.15,73.16,64.94\C,0,37.12,71.31,63.
 19\C,0,37.51,69.93,63.71\O,0,38.72,69.59,63.66\O,0,36.65,69.04,63.91\H
 ,0,39.11,71.71,64.85\H,0,37.08,73.37,63.42\H,0,37.73,71.47,62.3\H,0,36
 .09,71.25,62.86\N,0,36.34,71.72,66.19\C,0,35.49,71.67,67.37\C,0,33.98,
 71.62,67.24\O,0,33.21,72.15,68.04\H,0,37.27,71.39,66.37\H,0,35.74,72.5
 1,68.02\H,0,35.76,70.74,67.85\N,0,33.52,70.93,66.19\C,0,32.17,70.59,65
 .78\C,0,32.11,69.07,65.73\O,0,33.15,68.42,65.66\C,0,31.85,71.22,64.43\
 C,0,31.43,72.68,64.52\N,0,32.41,73.54,64.78\O,0,30.27,73.05,64.31\H,0,
 34.21,70.31,65.78\H,0,31.37,70.83,66.48\H,0,31.07,70.69,63.88\H,0,32.8
 ,71.24,63.9\H,0,33.34,73.25,65.06\H,0,32.26,74.51,64.52\N,0,30.89,68.5
 4,65.67\C,0,30.67,67.12,65.49\C,0,30.95,66.35,66.77\O,0,31.48,66.88,67
 .74\H,0,30.05,69.09,65.58\H,0,31.44,66.7,64.85\H,0,29.7,66.78,65.14\N,
 0,30.54,65.08,66.84\C,0,30.42,64.29,68.05\C,0,31.71,63.98,68.8\O,0,31.
 62,63.53,69.94\C,0,29.31,64.88,68.92\C,0,28.63,63.97,69.91\C,0,29.,64.
 05,71.25\C,0,27.62,63.11,69.47\C,0,28.32,63.22,72.16\C,0,26.98,62.28,7
 0.4\C,0,27.31,62.32,71.77\O,0,26.95,61.28,72.58\H,0,30.06,64.75,66.01\
 H,0,30.02,63.38,67.61\H,0,28.52,65.26,68.27\H,0,29.79,65.7,69.46\H,0,2
 9.74,64.76,71.58\H,0,27.39,63.01,68.42\H,0,28.67,63.19,73.18\H,0,26.19
 ,61.59,70.14\H,0,26.3,60.68,72.21\N,0,32.9,64.25,68.26\C,0,34.24,63.95
 ,68.71\C,0,34.65,62.49,68.66\O,0,35.6,62.13,67.95\C,0,34.51,64.77,69.9
 7\C,0,34.05,66.22,70.07\C,0,36.,64.75,70.27\C,0,34.56,67.28,69.1\H,0,3
 2.99,64.79,67.42\H,0,34.93,64.32,67.94\H,0,34.04,64.22,70.78\H,0,34.16
 ,66.57,71.1\H,0,32.98,66.23,69.87\H,0,36.37,63.75,70.49\H,0,36.64,65.2
 5,69.54\H,0,36.29,65.26,71.2\H,0,34.43,66.9,68.09\H,0,33.88,68.13,69.0
 5\H,0,35.62,67.46,69.31\N,0,33.99,61.61,69.41\C,0,34.13,60.16,69.39\C,
 0,35.49,59.63,69.82\O,0,35.96,58.67,69.22\C,0,33.01,59.56,70.22\O,0,32
 .93,60.04,71.55\H,0,33.25,61.91,70.03\H,0,34.01,59.78,68.37\H,0,33.03,
 58.47,70.2\H,0,32.1,59.88,69.71\H,0,31.99,60.24,71.58\N,0,36.17,60.34,
 70.73\C,0,37.45,60.03,71.34\C,0,38.52,59.87,70.27\O,0,39.36,58.98,70.3
 4\C,0,37.33,58.82,72.27\H,0,35.68,61.05,71.23\H,0,37.75,60.87,71.97\H,
 0,36.84,59.17,73.17\H,0,36.81,58.03,71.72\H,0,38.29,58.36,72.51\N,0,38
 .44,60.67,69.2\C,0,39.54,60.91,68.29\C,0,39.99,62.36,68.29\O,0,39.22,6
 3.21,68.75\C,0,39.15,60.45,66.89\H,0,37.75,61.41,69.26\H,0,40.43,60.36
 ,68.59\H,0,38.26,60.98,66.57\H,0,40.,60.6,66.22\H,0,39.1,59.36,66.9\N,
 0,41.22,62.67,67.89\C,0,41.85,63.97,67.74\C,0,42.25,64.66,69.04\O,0,42
 .53,65.86,68.99\C,0,41.01,64.83,66.81\C,0,40.94,64.32,65.38\C,0,40.11,
 65.19,64.44\O,0,39.19,64.76,63.71\O,0,40.46,66.38,64.33\H,0,41.7,61.88
 ,67.5\H,0,42.72,63.86,67.09\H,0,41.44,65.83,66.79\H,0,39.99,65.,67.17\
 H,0,40.62,63.27,65.38\H,0,41.96,64.32,64.98\N,0,42.41,63.95,70.16\C,0,
 42.42,64.54,71.48\H,0,42.045,65.562,71.423\H,0,41.783,63.956,72.144\H,
 0,43.439,64.548,71.867\H,0,42.26,62.96,70.09\Ca,0,38.3,67.14,63.05\O,0
 ,36.97,66.08,65.07\H,0,36.04,65.89,65.23\H,0,37.44,65.39,65.54\\Versio
 n=ES64L-G16RevA.03\State=1-A\HF=-5333.394057\RMSD=2.675e-09\Dipole=5.4
 09033,-12.9190047,-1.3832357\Quadrupole=238.7037065,-309.0821891,70.37
 84826,53.4306458,5.2831596,66.9632414\PG=C01 [X(C54H83Ca1N15O23)]\\@


 Just remember, when you're over the hill, you begin to pick up speed.
 -- Charles Schulz
 Job cpu time:       0 days  8 hours 45 minutes 53.2 seconds.
 Elapsed time:       0 days  0 hours 11 minutes  6.3 seconds.
 File lengths (MBytes):  RWF=   1517 Int=      0 D2E=      0 Chk=    171 Scr=      1
 Normal termination of Gaussian 16 at Tue Sep 17 18:41:25 2019.
