 Entering Gaussian System, Link 0=g16
 Initial command:
 /home1/apps/gaussian/16rA.03/g16/l1.exe "/scratch/01990/pengzhi/4350476/Gau-166258.inp" -scrdir="/scratch/01990/pengzhi/4350476/"
 Entering Link 1 = /home1/apps/gaussian/16rA.03/g16/l1.exe PID=    166259.
  
 Copyright (c) 1988,1990,1992,1993,1995,1998,2003,2009,2016,
            Gaussian, Inc.  All Rights Reserved.
  
 This is part of the Gaussian(R) 16 program.  It is based on
 the Gaussian(R) 09 system (copyright 2009, Gaussian, Inc.),
 the Gaussian(R) 03 system (copyright 2003, Gaussian, Inc.),
 the Gaussian(R) 98 system (copyright 1998, Gaussian, Inc.),
 the Gaussian(R) 94 system (copyright 1995, Gaussian, Inc.),
 the Gaussian 92(TM) system (copyright 1992, Gaussian, Inc.),
 the Gaussian 90(TM) system (copyright 1990, Gaussian, Inc.),
 the Gaussian 88(TM) system (copyright 1988, Gaussian, Inc.),
 the Gaussian 86(TM) system (copyright 1986, Carnegie Mellon
 University), and the Gaussian 82(TM) system (copyright 1983,
 Carnegie Mellon University). Gaussian is a federally registered
 trademark of Gaussian, Inc.
  
 This software contains proprietary and confidential information,
 including trade secrets, belonging to Gaussian, Inc.
  
 This software is provided under written license and may be
 used, copied, transmitted, or stored only in accord with that
 written license.
  
 The following legend is applicable only to US Government
 contracts under FAR:
  
                    RESTRICTED RIGHTS LEGEND
  
 Use, reproduction and disclosure by the US Government is
 subject to restrictions as set forth in subparagraphs (a)
 and (c) of the Commercial Computer Software - Restricted
 Rights clause in FAR 52.227-19.
  
 Gaussian, Inc.
 340 Quinnipiac St., Bldg. 40, Wallingford CT 06492
  
  
 ---------------------------------------------------------------
 Warning -- This program may not be used in any manner that
 competes with the business of Gaussian, Inc. or will provide
 assistance to any competitor of Gaussian, Inc.  The licensee
 of this program is prohibited from giving any competitor of
 Gaussian, Inc. access to this program.  By using this program,
 the user acknowledges that Gaussian, Inc. is engaged in the
 business of creating and licensing software in the field of
 computational chemistry and represents and warrants to the
 licensee that it is not a competitor of Gaussian, Inc. and that
 it will not use this program in any manner prohibited above.
 ---------------------------------------------------------------
  

 Cite this work as:
 Gaussian 16, Revision A.03,
 M. J. Frisch, G. W. Trucks, H. B. Schlegel, G. E. Scuseria, 
 M. A. Robb, J. R. Cheeseman, G. Scalmani, V. Barone, 
 G. A. Petersson, H. Nakatsuji, X. Li, M. Caricato, A. V. Marenich, 
 J. Bloino, B. G. Janesko, R. Gomperts, B. Mennucci, H. P. Hratchian, 
 J. V. Ortiz, A. F. Izmaylov, J. L. Sonnenberg, D. Williams-Young, 
 F. Ding, F. Lipparini, F. Egidi, J. Goings, B. Peng, A. Petrone, 
 T. Henderson, D. Ranasinghe, V. G. Zakrzewski, J. Gao, N. Rega, 
 G. Zheng, W. Liang, M. Hada, M. Ehara, K. Toyota, R. Fukuda, 
 J. Hasegawa, M. Ishida, T. Nakajima, Y. Honda, O. Kitao, H. Nakai, 
 T. Vreven, K. Throssell, J. A. Montgomery, Jr., J. E. Peralta, 
 F. Ogliaro, M. J. Bearpark, J. J. Heyd, E. N. Brothers, K. N. Kudin, 
 V. N. Staroverov, T. A. Keith, R. Kobayashi, J. Normand, 
 K. Raghavachari, A. P. Rendell, J. C. Burant, S. S. Iyengar, 
 J. Tomasi, M. Cossi, J. M. Millam, M. Klene, C. Adamo, R. Cammi, 
 J. W. Ochterski, R. L. Martin, K. Morokuma, O. Farkas, 
 J. B. Foresman, and D. J. Fox, Gaussian, Inc., Wallingford CT, 2016.
 
 ******************************************
 Gaussian 16:  ES64L-G16RevA.03 25-Dec-2016
                17-Sep-2019 
 ******************************************
 %chk=Ng-295_loop3_16.0.chk
 %nprocshared=48
 Will use up to   48 processors via shared memory.
 %mem=10GB
 %nosave
 ----------------------------------------------------------------------
 #b3lyp/svp scf=(tight,noincore) Test #IOP(5/87=12) Density=Current Pop
 =(MK,readradii) iop(6/33=2) iop(6/42=6)
 ----------------------------------------------------------------------
 1/30=1,38=1,172=1/1;
 2/12=2,17=6,18=5,40=1/2;
 3/5=18,7=101,11=2,25=1,30=1,74=-5/1,2,3;
 4//1;
 5/5=4,32=2,38=5,87=12/2;
 6/7=2,8=2,9=2,10=2,15=8,20=101,22=-1,28=1,33=2,42=6/1,2;
 99/5=1,9=1/99;
 -----------------
 Ng-295_loop3_16.0
 -----------------
 Symbolic Z-matrix:
 Charge =  0 Multiplicity = 1
 C                     13.39     77.82     34.08 
 C                     14.32     76.63     33.95 
 O                     14.81     76.04     34.92 
 H                     12.459    77.503    34.551 
 H                     13.864    78.587    34.692 
 H                     13.176    78.225    33.091 
 N                     14.73     76.38     32.71 
 C                     15.8      75.46     32.34 
 C                     17.18     76.08     32.46 
 O                     17.46     77.18     31.98 
 C                     15.53     74.88     30.96 
 C                     16.48     73.78     30.5 
 O                     17.71     73.97     30.46 
 O                     15.99     72.68     30.16 
 H                     14.25     76.88     31.98 
 H                     15.76     74.56     32.95 
 H                     15.6      75.74     30.3 
 H                     14.52     74.46     30.95 
 N                     18.05     75.47     33.27 
 C                     19.32     76.09     33.56 
 C                     20.22     76.22     32.34 
 O                     21.19     76.95     32.5 
 C                     19.99     75.32     34.7 
 C                     20.35     73.87     34.42 
 C                     21.11     73.11     35.5 
 C                     22.37     73.85     35.92 
 N                     23.22     73.02     36.79 
 H                     17.7      74.62     33.7 
 H                     19.07     77.07     33.94 
 H                     19.39     75.39     35.61 
 H                     20.92     75.85     34.9 
 H                     20.97     73.85     33.52 
 H                     19.38     73.38     34.3 
 H                     21.42     72.14     35.1 
 H                     20.54     73.       36.43 
 H                     21.98     74.69     36.5 
 H                     22.86     74.14     34.99 
 H                     23.54     72.14     36.43 
 H                     24.01     73.59     37.06 
 H                     22.73     72.72     37.62 
 N                     20.07     75.51     31.22 
 C                     20.97     75.62     30.09 
 C                     20.38     75.74     28.69 
 O                     21.06     75.8      27.67 
 C                     21.85     74.37     30.14 
 C                     21.       73.11     30.12 
 O                     20.44     72.74     29.07 
 O                     20.79     72.4      31.13 
 H                     19.21     75.02     31. 
 H                     21.7      76.41     30.27 
 H                     22.48     74.37     31.04 
 H                     22.58     74.41     29.34 
 N                     19.05     75.79     28.62 
 C                     18.25     75.96     27.42 
 C                     18.12     74.77     26.49 
 O                     17.37     74.83     25.51 
 H                     18.59     75.59     29.49 
 H                     18.59     76.86     26.9 
 H                     17.26     76.14     27.84 
 N                     18.9      73.72     26.72 
 C                     18.68     72.46     26.03 
 C                     17.61     71.68     26.77 
 O                     17.72     71.59     27.99 
 C                     20.02     71.73     26.01 
 C                     19.95     70.67     24.92 
 N                     19.98     71.04     23.64 
 O                     19.93     69.49     25.26 
 H                     19.43     73.7      27.58 
 H                     18.28     72.58     25.02 
 H                     20.09     71.2      26.96 
 H                     20.85     72.41     25.8 
 H                     20.       72.03     23.46 
 H                     19.92     70.3      22.95 
 N                     16.61     71.13     26.09 
 C                     15.49     70.46     26.73 
 C                     15.92     69.19     27.45 
 O                     15.18     68.7      28.31 
 H                     16.57     71.21     25.08 
 H                     14.65     70.4      26.03 
 H                     15.19     71.12     27.54 
 N                     17.1      68.64     27.2 
 C                     17.63     67.53     27.96 
 C                     17.59     67.63     29.48 
 O                     17.8      68.69     30.05 
 C                     19.09     67.35     27.54 
 C                     19.74     66.07     28. 
 C                     20.84     66.19     28.86 
 C                     19.44     64.86     27.36 
 C                     21.44     65.02     29.33 
 C                     20.03     63.69     27.85 
 C                     21.02     63.76     28.85 
 O                     21.56     62.67     29.45 
 H                     17.7      69.13     26.54 
 H                     17.09     66.65     27.61 
 H                     19.67     68.23     27.83 
 H                     19.07     67.18     26.47 
 H                     21.16     67.17     29.17 
 H                     18.67     64.83     26.6 
 H                     22.09     65.12     30.19 
 H                     19.66     62.74     27.5 
 H                     21.34     61.86     28.99 
 N                     17.41     66.47     30.12 
 C                     17.51     66.26     31.55 
 C                     18.95     66.26     32.04 
 O                     19.71     67.21     31.85 
 C                     16.5      67.01     32.41 
 C                     16.55     66.58     33.87 
 C                     15.08     66.92     31.87 
 C                     15.62     67.33     34.82 
 H                     17.46     65.62     29.58 
 H                     17.24     65.2      31.65 
 H                     16.75     68.07     32.31 
 H                     17.58     66.76     34.2 
 H                     16.35     65.53     34.11 
 H                     15.14     67.34     30.87 
 H                     14.77     65.88     31.78 
 H                     14.51     67.61     32.49 
 H                     15.75     68.41     34.82 
 H                     14.62     67.1      34.47 
 H                     15.73     67.05     35.87 
 N                     19.33     65.23     32.8 
 C                     20.59     65.03     33.48 
 C                     21.05     63.66     33.95 
 O                     22.27     63.57     34.09 
 C                     20.6      65.93     34.72 
 O                     19.67     65.4      35.64 
 H                     18.69     64.45     32.83 
 H                     21.35     65.38     32.78 
 H                     20.55     67.       34.55 
 H                     21.56     65.78     35.21 
 H                     19.49     66.1      36.27 
 N                     20.15     62.7      34.18 
 C                     20.31     61.34     34.65 
 C                     21.47     61.19     35.62 
 O                     22.56     60.72     35.28 
 C                     20.47     60.36     33.49 
 H                     19.2      62.85     33.87 
 H                     19.35     61.09     35.1 
 H                     20.39     59.3      33.71 
 H                     19.72     60.62     32.74 
 H                     21.41     60.61     32.98 
 N                     21.12     61.33     36.9 
 C                     19.95     62.01     37.43 
 C                     18.82     61.1      37.87 
 O                     18.99     60.       38.4 
 C                     20.43     62.78     38.66 
 H                     21.7      60.88     37.59 
 H                     19.55     62.77     36.76 
 H                     21.02     62.06     39.22 
 H                     21.05     63.63     38.35 
 H                     19.61     63.14     39.28 
 N                     17.56     61.46     37.61 
 C                     16.95     62.66     37.08 
 C                     15.51     62.28     36.76 
 O                     15.02     62.6      35.68 
 C                     16.97     63.8      38.09 
 C                     16.11     64.96     37.58 
 C                     16.23     66.16     38.5 
 O                     17.21     66.93     38.36 
 O                     15.42     66.31     39.45 
 H                     16.98     60.73     37.99 
 H                     17.51     63.03     36.23 
 H                     17.98     64.18     38.26 
 H                     16.57     63.45     39.04 
 H                     15.05     64.72     37.51 
 H                     16.52     65.29     36.63 
 N                     14.8      61.55     37.62 
 C                     13.39     61.33     37.37 
 H                     12.852    62.272    37.476 
 H                     13.255    60.947    36.359 
 H                     13.002    60.607    38.088 
 H                     15.24     61.18     38.45 
 Ca                    18.58     71.37     30.42 
 O                     17.06     71.58     32.66 
 H                     16.23     71.13     32.5 
 H                     16.86     72.2      33.36 
 
 Stoichiometry    C54H83CaN15O23
 Framework group  C1[X(C54H83CaN15O23)]
 Deg. of freedom   522
 Full point group                 C1      NOp   1
 Largest Abelian subgroup         C1      NOp   1
 Largest concise Abelian subgroup C1      NOp   1
                         Standard orientation:                         
 ---------------------------------------------------------------------
 Center     Atomic      Atomic             Coordinates (Angstroms)
 Number     Number       Type             X           Y           Z
 ---------------------------------------------------------------------
      1          6           0       -6.842375   -6.711567   -3.778197
      2          6           0       -5.829977   -5.883786   -3.011562
      3          8           0       -4.852912   -6.370497   -2.430567
      4          1           0       -6.359547   -7.163158   -4.645396
      5          1           0       -7.235352   -7.495875   -3.131716
      6          1           0       -7.659391   -6.071487   -4.110950
      7          7           0       -6.170293   -4.609520   -2.842352
      8          6           0       -5.505637   -3.665625   -1.950447
      9          6           0       -5.979274   -3.777394   -0.512958
     10          8           0       -7.172247   -3.795616   -0.204276
     11          6           0       -5.627915   -2.254754   -2.505598
     12          6           0       -4.846570   -1.175311   -1.765055
     13          8           0       -5.014025   -0.984510   -0.545976
     14          8           0       -4.033215   -0.482586   -2.416426
     15          1           0       -6.957121   -4.290051   -3.382853
     16          1           0       -4.426847   -3.803304   -1.981357
     17          1           0       -6.693633   -2.049675   -2.457766
     18          1           0       -5.275556   -2.255974   -3.541185
     19          7           0       -5.051775   -4.041111    0.411865
     20          6           0       -5.449168   -4.322784    1.769856
     21          6           0       -6.110044   -3.139966    2.462304
     22          8           0       -6.669612   -3.416128    3.515878
     23          6           0       -4.231311   -4.842106    2.537011
     24          6           0       -3.065888   -3.878758    2.692741
     25          6           0       -1.883005   -4.332565    3.539173
     26          6           0       -2.327513   -4.783316    4.921503
     27          7           0       -1.177361   -5.004922    5.813882
     28          1           0       -4.104958   -4.104770    0.052163
     29          1           0       -6.149411   -5.141662    1.689864
     30          1           0       -3.885550   -5.785080    2.107770
     31          1           0       -4.595491   -5.071563    3.537273
     32          1           0       -3.451160   -2.962956    3.148453
     33          1           0       -2.701176   -3.744840    1.670758
     34          1           0       -1.199862   -3.488955    3.675696
     35          1           0       -1.367680   -5.206617    3.123994
     36          1           0       -2.813855   -5.741541    4.723066
     37          1           0       -3.004026   -4.005433    5.276929
     38          1           0       -0.555658   -4.234514    5.976227
     39          1           0       -1.547197   -5.340775    6.692702
     40          1           0       -0.537850   -5.691062    5.440736
     41          7           0       -5.995612   -1.874362    2.054687
     42          6           0       -6.597424   -0.761143    2.760072
     43          6           0       -7.355861    0.291453    1.960500
     44          8           0       -7.866303    1.287952    2.463331
     45          6           0       -5.449932   -0.073409    3.501477
     46          6           0       -4.353369    0.341107    2.533890
     47          8           0       -4.515427    1.313272    1.771242
     48          8           0       -3.262551   -0.263924    2.422743
     49          1           0       -5.675024   -1.631631    1.123878
     50          1           0       -7.204959   -1.128593    3.587890
     51          1           0       -5.026884   -0.735482    4.269325
     52          1           0       -5.840860    0.749829    4.087955
     53          7           0       -7.453689    0.069731    0.649940
     54          6           0       -8.168136    0.884299   -0.316986
     55          6           0       -7.539785    2.202676   -0.723135
     56          8           0       -8.054764    2.884233   -1.615758
     57          1           0       -6.884181   -0.690166    0.323264
     58          1           0       -9.200828    1.002182    0.023089
     59          1           0       -8.151174    0.243387   -1.198941
     60          7           0       -6.488975    2.624292   -0.028990
     61          6           0       -5.689755    3.746899   -0.490619
     62          6           0       -4.674407    3.240396   -1.497308
     63          8           0       -4.032898    2.237474   -1.195291
     64          6           0       -5.028971    4.353242    0.744133
     65          6           0       -4.588563    5.764863    0.383622
     66          7           0       -5.504106    6.722338    0.237938
     67          8           0       -3.384598    5.991959    0.298212
     68          1           0       -6.068114    1.986489    0.632057
     69          1           0       -6.266199    4.496343   -1.038839
     70          1           0       -4.121108    3.774904    0.916208
     71          1           0       -5.716135    4.394930    1.593526
     72          1           0       -6.465865    6.440582    0.330310
     73          1           0       -5.164277    7.643716   -0.012821
     74          7           0       -4.513827    3.883994   -2.648349
     75          6           0       -3.642885    3.405776   -3.709324
     76          6           0       -2.177401    3.429613   -3.299462
     77          8           0       -1.359335    2.753310   -3.932457
     78          1           0       -5.048974    4.721826   -2.847740
     79          1           0       -3.924223    3.879017   -4.655945
     80          1           0       -3.862345    2.344953   -3.799837
     81          7           0       -1.784620    4.124847   -2.241268
     82          6           0       -0.441320    4.061801   -1.710071
     83          6           0        0.166652    2.682716   -1.485361
     84          8           0       -0.510115    1.752324   -1.074319
     85          6           0       -0.450758    4.794752   -0.367278
     86          6           0        0.907832    5.093050    0.213887
     87          6           0        1.213445    4.504256    1.448360
     88          6           0        1.684295    6.133993   -0.312650
     89          6           0        2.478102    4.734839    1.993589
     90          6           0        2.957968    6.345164    0.226109
     91          6           0        3.370478    5.635010    1.370888
     92          8           0        4.622755    5.704612    1.887277
     93          1           0       -2.513156    4.599192   -1.712183
     94          1           0        0.171205    4.655071   -2.389294
     95          1           0       -1.090173    4.261678    0.341157
     96          1           0       -0.791022    5.800671   -0.583023
     97          1           0        0.490207    3.858089    1.915582
     98          1           0        1.349895    6.659887   -1.197530
     99          1           0        2.794279    4.066868    2.784756
    100          1           0        3.635401    7.003030   -0.293695
    101          1           0        5.127744    6.425239    1.510735
    102          7           0        1.487943    2.607720   -1.675532
    103          6           0        2.332255    1.473238   -1.360750
    104          6           0        2.580142    1.327598    0.132917
    105          8           0        1.661174    1.217371    0.945044
    106          6           0        2.044418    0.189491   -2.129739
    107          6           0        3.097136   -0.882573   -1.881818
    108          6           0        1.853863    0.422934   -3.621480
    109          6           0        2.851877   -2.229198   -2.557354
    110          1           0        1.996081    3.468927   -1.804835
    111          1           0        3.315490    1.807161   -1.718861
    112          1           0        1.060863   -0.148349   -1.791238
    113          1           0        3.105138   -1.049369   -0.798160
    114          1           0        4.136847   -0.661594   -2.146903
    115          1           0        1.022859    1.119562   -3.685851
    116          1           0        2.731509    0.905895   -4.048429
    117          1           0        1.516248   -0.538363   -4.005309
    118          1           0        1.894518   -2.686753   -2.317757
    119          1           0        2.879598   -2.016711   -3.620124
    120          1           0        3.584172   -2.998783   -2.303421
    121          7           0        3.849971    1.199399    0.525344
    122          6           0        4.359831    0.942142    1.853449
    123          6           0        5.799921    1.234756    2.240641
    124          8           0        5.963643    1.391736    3.450870
    125          6           0        4.129430   -0.540579    2.163538
    126          8           0        5.007519   -1.288563    1.350102
    127          1           0        4.546420    1.396731   -0.178160
    128          1           0        3.739874    1.545340    2.518208
    129          1           0        3.100069   -0.880549    2.197249
    130          1           0        4.502888   -0.713130    3.170988
    131          1           0        4.671853   -2.186687    1.351377
    132          7           0        6.743885    1.287131    1.296878
    133          6           0        8.170289    1.516525    1.390957
    134          6           0        8.767196    0.964235    2.674575
    135          8           0        9.046170    1.684610    3.637816
    136          6           0        8.511189    2.998497    1.252592
    137          1           0        6.453179    1.304552    0.329259
    138          1           0        8.583495    1.047617    0.498776
    139          1           0        9.552528    3.264902    1.100794
    140          1           0        7.924071    3.389883    0.419100
    141          1           0        8.070131    3.515852    2.115153
    142          7           0        9.224547   -0.283994    2.559448
    143          6           0        8.844915   -1.279770    1.571263
    144          6           0        9.837137   -1.478067    0.442204
    145          8           0       11.060255   -1.415359    0.583090
    146          6           0        8.732937   -2.603584    2.327026
    147          1           0        9.950203   -0.571333    3.196518
    148          1           0        7.855922   -1.113279    1.146206
    149          1           0        9.638963   -2.654759    2.924184
    150          1           0        7.845504   -2.591778    2.971482
    151          1           0        8.684483   -3.466251    1.663808
    152          7           0        9.377853   -1.658908   -0.799229
    153          6           0        8.058854   -1.852504   -1.361157
    154          6           0        8.226553   -1.685277   -2.865920
    155          8           0        7.438874   -0.981814   -3.493297
    156          6           0        7.509869   -3.239877   -1.054710
    157          6           0        6.231580   -3.481995   -1.862581
    158          6           0        5.589596   -4.798075   -1.466867
    159          8           0        4.857000   -4.828354   -0.449377
    160          8           0        5.879280   -5.852861   -2.087036
    161          1           0       10.191441   -1.777639   -1.380329
    162          1           0        7.349101   -1.166508   -0.915444
    163          1           0        7.266460   -3.360402    0.003414
    164          1           0        8.250301   -3.990757   -1.324784
    165          1           0        6.395701   -3.521145   -2.938514
    166          1           0        5.509075   -2.720212   -1.584778
    167          7           0        9.258307   -2.248369   -3.494418
    168          6           0        9.316465   -2.207915   -4.941478
    169          1           0        8.519646   -2.827073   -5.353506
    170          1           0        9.190655   -1.180746   -5.282254
    171          1           0       10.281999   -2.587157   -5.277212
    172          1           0        9.974891   -2.721083   -2.962959
    173         20           0       -2.708689    0.383577    0.030448
    174          8           0       -1.891758   -1.962884   -1.064471
    175          1           0       -1.578694   -1.784531   -1.951703
    176          1           0       -2.124556   -2.890236   -1.079435
 ---------------------------------------------------------------------
 Rotational constants (GHZ):           0.0230707           0.0101666           0.0087290
 Standard basis: SVP (5D, 7F)
 There are  1809 symmetry adapted cartesian basis functions of A   symmetry.
 There are  1717 symmetry adapted basis functions of A   symmetry.
  1717 basis functions,  2922 primitive gaussians,  1809 cartesian basis functions
   358 alpha electrons      358 beta electrons
       nuclear repulsion energy     20108.0857103241 Hartrees.
 NAtoms=  176 NActive=  176 NUniq=  176 SFac= 1.00D+00 NAtFMM=   60 NAOKFM=T Big=T
 Integral buffers will be    131072 words long.
 Raffenetti 2 integral format.
 Two-electron integral symmetry is turned on.
 One-electron integrals computed using PRISM.
 NBasis=  1717 RedAO= T EigKep=  3.00D-04  NBF=  1717
 NBsUse=  1717 1.00D-06 EigRej= -1.00D+00 NBFU=  1717
 ExpMin= 1.98D-02 ExpMax= 3.51D+04 ExpMxC= 5.28D+03 IAcc=3 IRadAn=         5 AccDes= 0.00D+00
 Harris functional with IExCor=  402 and IRadAn=       5 diagonalized for initial guess.
 HarFok:  IExCor=  402 AccDes= 0.00D+00 IRadAn=         5 IDoV= 1 UseB2=F ITyADJ=14
 ICtDFT=  3500011 ScaDFX=  1.000000  1.000000  1.000000  1.000000
 FoFCou: FMM=F IPFlag=           0 FMFlag=      100000 FMFlg1=        2001
         NFxFlg=           0 DoJE=T BraDBF=F KetDBF=T FulRan=T
         wScrn=  0.000000 ICntrl=       500 IOpCl=  0 I1Cent=   200000004 NGrid=           0
         NMat0=    1 NMatS0=      1 NMatT0=    0 NMatD0=    1 NMtDS0=    0 NMtDT0=    0
 Petite list used in FoFCou.
 Requested convergence on RMS density matrix=1.00D-08 within 128 cycles.
 Requested convergence on MAX density matrix=1.00D-06.
 Requested convergence on             energy=1.00D-06.
 No special actions if energy rises.
 EnCoef did     2 forward-backward iterations
 EnCoef did     3 forward-backward iterations
 EnCoef did     5 forward-backward iterations
 EnCoef did     2 forward-backward iterations
 EnCoef did     7 forward-backward iterations
 EnCoef did   100 forward-backward iterations
 Rare condition: small coef for last iteration:  0.000D+00
 EnCoef did    70 forward-backward iterations
 Restarting incremental Fock formation.
 SCF Done:  E(RB3LYP) =  -5333.45242893     A.U. after   37 cycles
            NFock= 37  Conv=0.84D-09     -V/T= 2.0081
 SCF density gives NOpUse=  1 NOpAll=  1.
 Hyperfine terms turned off by default for NAtoms > 100.

 **********************************************************************

            Population analysis using the SCF density.

 **********************************************************************

 Orbital symmetries:
 BldTbl:  Degeneracy threshold= 1.00D-02
       Occupied  (A) (A) (A) (A) (A) (A) (A) (A) (A) (A) (A) (A)
                 (A) (A) (A) (A) (A) (A) (A) (A) (A) (A) (A) (A)
                 (A) (A) (A) (A) (A) (A) (A) (A) (A) (A) (A) (A)
                 (A) (A) (A) (A) (A) (A) (A) (A) (A) (A) (A) (A)
                 (A) (A) (A) (A) (A) (A) (A) (A) (A) (A) (A) (A)
                 (A) (A) (A) (A) (A) (A) (A) (A) (A) (A) (A) (A)
                 (A) (A) (A) (A) (A) (A) (A) (A) (A) (A) (A) (A)
                 (A) (A) (A) (A) (A) (A) (A) (A) (A) (A) (A) (A)
                 (A) (A) (A) (A) (A) (A) (A) (A) (A) (A) (A) (A)
                 (A) (A) (A) (A) (A) (A) (A) (A) (A) (A) (A) (A)
                 (A) (A) (A) (A) (A) (A) (A) (A) (A) (A) (A) (A)
                 (A) (A) (A) (A) (A) (A) (A) (A) (A) (A) (A) (A)
                 (A) (A) (A) (A) (A) (A) (A) (A) (A) (A) (A) (A)
                 (A) (A) (A) (A) (A) (A) (A) (A) (A) (A) (A) (A)
                 (A) (A) (A) (A) (A) (A) (A) (A) (A) (A) (A) (A)
                 (A) (A) (A) (A) (A) (A) (A) (A) (A) (A) (A) (A)
                 (A) (A) (A) (A) (A) (A) (A) (A) (A) (A) (A) (A)
                 (A) (A) (A) (A) (A) (A) (A) (A) (A) (A) (A) (A)
                 (A) (A) (A) (A) (A) (A) (A) (A) (A) (A) (A) (A)
                 (A) (A) (A) (A) (A) (A) (A) (A) (A) (A) (A) (A)
                 (A) (A) (A) (A) (A) (A) (A) (A) (A) (A) (A) (A)
                 (A) (A) (A) (A) (A) (A) (A) (A) (A) (A) (A) (A)
                 (A) (A) (A) (A) (A) (A) (A) (A) (A) (A) (A) (A)
                 (A) (A) (A) (A) (A) (A) (A) (A) (A) (A) (A) (A)
                 (A) (A) (A) (A) (A) (A) (A) (A) (A) (A) (A) (A)
                 (A) (A) (A) (A) (A) (A) (A) (A) (A) (A) (A) (A)
                 (A) (A) (A) (A) (A) (A) (A) (A) (A) (A) (A) (A)
                 (A) (A) (A) (A) (A) (A) (A) (A) (A) (A) (A) (A)
                 (A) (A) (A) (A) (A) (A) (A) (A) (A) (A) (A) (A)
                 (A) (A) (A) (A) (A) (A) (A) (A) (A) (A)
       Virtual   (A) (A) (A) (A) (A) (A) (A) (A) (A) (A) (A) (A)
                 (A) (A) (A) (A) (A) (A) (A) (A) (A) (A) (A) (A)
                 (A) (A) (A) (A) (A) (A) (A) (A) (A) (A) (A) (A)
                 (A) (A) (A) (A) (A) (A) (A) (A) (A) (A) (A) (A)
                 (A) (A) (A) (A) (A) (A) (A) (A) (A) (A) (A) (A)
                 (A) (A) (A) (A) (A) (A) (A) (A) (A) (A) (A) (A)
                 (A) (A) (A) (A) (A) (A) (A) (A) (A) (A) (A) (A)
                 (A) (A) (A) (A) (A) (A) (A) (A) (A) (A) (A) (A)
                 (A) (A) (A) (A) (A) (A) (A) (A) (A) (A) (A) (A)
                 (A) (A) (A) (A) (A) (A) (A) (A) (A) (A) (A) (A)
                 (A) (A) (A) (A) (A) (A) (A) (A) (A) (A) (A) (A)
                 (A) (A) (A) (A) (A) (A) (A) (A) (A) (A) (A) (A)
                 (A) (A) (A) (A) (A) (A) (A) (A) (A) (A) (A) (A)
                 (A) (A) (A) (A) (A) (A) (A) (A) (A) (A) (A) (A)
                 (A) (A) (A) (A) (A) (A) (A) (A) (A) (A) (A) (A)
                 (A) (A) (A) (A) (A) (A) (A) (A) (A) (A) (A) (A)
                 (A) (A) (A) (A) (A) (A) (A) (A) (A) (A) (A) (A)
                 (A) (A) (A) (A) (A) (A) (A) (A) (A) (A) (A) (A)
                 (A) (A) (A) (A) (A) (A) (A) (A) (A) (A) (A) (A)
                 (A) (A) (A) (A) (A) (A) (A) (A) (A) (A) (A) (A)
                 (A) (A) (A) (A) (A) (A) (A) (A) (A) (A) (A) (A)
                 (A) (A) (A) (A) (A) (A) (A) (A) (A) (A) (A) (A)
                 (A) (A) (A) (A) (A) (A) (A) (A) (A) (A) (A) (A)
                 (A) (A) (A) (A) (A) (A) (A) (A) (A) (A) (A) (A)
                 (A) (A) (A) (A) (A) (A) (A) (A) (A) (A) (A) (A)
                 (A) (A) (A) (A) (A) (A) (A) (A) (A) (A) (A) (A)
                 (A) (A) (A) (A) (A) (A) (A) (A) (A) (A) (A) (A)
                 (A) (A) (A) (A) (A) (A) (A) (A) (A) (A) (A) (A)
                 (A) (A) (A) (A) (A) (A) (A) (A) (A) (A) (A) (A)
                 (A) (A) (A) (A) (A) (A) (A) (A) (A) (A) (A) (A)
                 (A) (A) (A) (A) (A) (A) (A) (A) (A) (A) (A) (A)
                 (A) (A) (A) (A) (A) (A) (A) (A) (A) (A) (A) (A)
                 (A) (A) (A) (A) (A) (A) (A) (A) (A) (A) (A) (A)
                 (A) (A) (A) (A) (A) (A) (A) (A) (A) (A) (A) (A)
                 (A) (A) (A) (A) (A) (A) (A) (A) (A) (A) (A) (A)
                 (A) (A) (A) (A) (A) (A) (A) (A) (A) (A) (A) (A)
                 (A) (A) (A) (A) (A) (A) (A) (A) (A) (A) (A) (A)
                 (A) (A) (A) (A) (A) (A) (A) (A) (A) (A) (A) (A)
                 (A) (A) (A) (A) (A) (A) (A) (A) (A) (A) (A) (A)
                 (A) (A) (A) (A) (A) (A) (A) (A) (A) (A) (A) (A)
                 (A) (A) (A) (A) (A) (A) (A) (A) (A) (A) (A) (A)
                 (A) (A) (A) (A) (A) (A) (A) (A) (A) (A) (A) (A)
                 (A) (A) (A) (A) (A) (A) (A) (A) (A) (A) (A) (A)
                 (A) (A) (A) (A) (A) (A) (A) (A) (A) (A) (A) (A)
                 (A) (A) (A) (A) (A) (A) (A) (A) (A) (A) (A) (A)
                 (A) (A) (A) (A) (A) (A) (A) (A) (A) (A) (A) (A)
                 (A) (A) (A) (A) (A) (A) (A) (A) (A) (A) (A) (A)
                 (A) (A) (A) (A) (A) (A) (A) (A) (A) (A) (A) (A)
                 (A) (A) (A) (A) (A) (A) (A) (A) (A) (A) (A) (A)
                 (A) (A) (A) (A) (A) (A) (A) (A) (A) (A) (A) (A)
                 (A) (A) (A) (A) (A) (A) (A) (A) (A) (A) (A) (A)
                 (A) (A) (A) (A) (A) (A) (A) (A) (A) (A) (A) (A)
                 (A) (A) (A) (A) (A) (A) (A) (A) (A) (A) (A) (A)
                 (A) (A) (A) (A) (A) (A) (A) (A) (A) (A) (A) (A)
                 (A) (A) (A) (A) (A) (A) (A) (A) (A) (A) (A) (A)
                 (A) (A) (A) (A) (A) (A) (A) (A) (A) (A) (A) (A)
                 (A) (A) (A) (A) (A) (A) (A) (A) (A) (A) (A) (A)
                 (A) (A) (A) (A) (A) (A) (A) (A) (A) (A) (A) (A)
                 (A) (A) (A) (A) (A) (A) (A) (A) (A) (A) (A) (A)
                 (A) (A) (A) (A) (A) (A) (A) (A) (A) (A) (A) (A)
                 (A) (A) (A) (A) (A) (A) (A) (A) (A) (A) (A) (A)
                 (A) (A) (A) (A) (A) (A) (A) (A) (A) (A) (A) (A)
                 (A) (A) (A) (A) (A) (A) (A) (A) (A) (A) (A) (A)
                 (A) (A) (A) (A) (A) (A) (A) (A) (A) (A) (A) (A)
                 (A) (A) (A) (A) (A) (A) (A) (A) (A) (A) (A) (A)
                 (A) (A) (A) (A) (A) (A) (A) (A) (A) (A) (A) (A)
                 (A) (A) (A) (A) (A) (A) (A) (A) (A) (A) (A) (A)
                 (A) (A) (A) (A) (A) (A) (A) (A) (A) (A) (A) (A)
                 (A) (A) (A) (A) (A) (A) (A) (A) (A) (A) (A) (A)
                 (A) (A) (A) (A) (A) (A) (A) (A) (A) (A) (A) (A)
                 (A) (A) (A) (A) (A) (A) (A) (A) (A) (A) (A) (A)
                 (A) (A) (A) (A) (A) (A) (A) (A) (A) (A) (A) (A)
                 (A) (A) (A) (A) (A) (A) (A) (A) (A) (A) (A) (A)
                 (A) (A) (A) (A) (A) (A) (A) (A) (A) (A) (A) (A)
                 (A) (A) (A) (A) (A) (A) (A) (A) (A) (A) (A) (A)
                 (A) (A) (A) (A) (A) (A) (A) (A) (A) (A) (A) (A)
                 (A) (A) (A) (A) (A) (A) (A) (A) (A) (A) (A) (A)
                 (A) (A) (A) (A) (A) (A) (A) (A) (A) (A) (A) (A)
                 (A) (A) (A) (A) (A) (A) (A) (A) (A) (A) (A) (A)
                 (A) (A) (A) (A) (A) (A) (A) (A) (A) (A) (A) (A)
                 (A) (A) (A) (A) (A) (A) (A) (A) (A) (A) (A) (A)
                 (A) (A) (A) (A) (A) (A) (A) (A) (A) (A) (A) (A)
                 (A) (A) (A) (A) (A) (A) (A) (A) (A) (A) (A) (A)
                 (A) (A) (A) (A) (A) (A) (A) (A) (A) (A) (A) (A)
                 (A) (A) (A) (A) (A) (A) (A) (A) (A) (A) (A) (A)
                 (A) (A) (A) (A) (A) (A) (A) (A) (A) (A) (A) (A)
                 (A) (A) (A) (A) (A) (A) (A) (A) (A) (A) (A) (A)
                 (A) (A) (A) (A) (A) (A) (A) (A) (A) (A) (A) (A)
                 (A) (A) (A) (A) (A) (A) (A) (A) (A) (A) (A) (A)
                 (A) (A) (A) (A) (A) (A) (A) (A) (A) (A) (A) (A)
                 (A) (A) (A) (A) (A) (A) (A) (A) (A) (A) (A) (A)
                 (A) (A) (A) (A) (A) (A) (A) (A) (A) (A) (A) (A)
                 (A) (A) (A) (A) (A) (A) (A) (A) (A) (A) (A) (A)
                 (A) (A) (A) (A) (A) (A) (A) (A) (A) (A) (A) (A)
                 (A) (A) (A) (A) (A) (A) (A) (A) (A) (A) (A) (A)
                 (A) (A) (A) (A) (A) (A) (A) (A) (A) (A) (A) (A)
                 (A) (A) (A) (A) (A) (A) (A) (A) (A) (A) (A) (A)
                 (A) (A) (A) (A) (A) (A) (A) (A) (A) (A) (A) (A)
                 (A) (A) (A) (A) (A) (A) (A) (A) (A) (A) (A) (A)
                 (A) (A) (A) (A) (A) (A) (A) (A) (A) (A) (A) (A)
                 (A) (A) (A) (A) (A) (A) (A) (A) (A) (A) (A) (A)
                 (A) (A) (A) (A) (A) (A) (A) (A) (A) (A) (A) (A)
                 (A) (A) (A) (A) (A) (A) (A) (A) (A) (A) (A) (A)
                 (A) (A) (A) (A) (A) (A) (A) (A) (A) (A) (A) (A)
                 (A) (A) (A) (A) (A) (A) (A) (A) (A) (A) (A) (A)
                 (A) (A) (A) (A) (A) (A) (A) (A) (A) (A) (A) (A)
                 (A) (A) (A) (A) (A) (A) (A) (A) (A) (A) (A) (A)
                 (A) (A) (A) (A) (A) (A) (A) (A) (A) (A) (A) (A)
                 (A) (A) (A) (A) (A) (A) (A) (A) (A) (A) (A) (A)
                 (A) (A) (A) (A) (A) (A) (A) (A) (A) (A) (A) (A)
                 (A) (A) (A) (A) (A) (A) (A) (A) (A) (A) (A) (A)
                 (A) (A) (A) (A) (A) (A) (A) (A) (A) (A) (A) (A)
                 (A) (A) (A) (A) (A) (A) (A) (A) (A) (A) (A) (A)
                 (A) (A) (A)
 The electronic state is 1-A.
 Alpha  occ. eigenvalues -- -145.42453 -19.20115 -19.17215 -19.14036 -19.13668
 Alpha  occ. eigenvalues --  -19.13174 -19.11718 -19.10941 -19.10372 -19.10366
 Alpha  occ. eigenvalues --  -19.10209 -19.09835 -19.09557 -19.09453 -19.09211
 Alpha  occ. eigenvalues --  -19.08835 -19.08765 -19.08543 -19.08111 -19.07724
 Alpha  occ. eigenvalues --  -19.07646 -19.07604 -18.96737 -18.95999 -15.48217
 Alpha  occ. eigenvalues --  -14.57663 -14.40094 -14.38156 -14.38034 -14.37440
 Alpha  occ. eigenvalues --  -14.37090 -14.36934 -14.36839 -14.36745 -14.35423
 Alpha  occ. eigenvalues --  -14.34687 -14.34579 -14.34276 -14.33922 -14.33867
 Alpha  occ. eigenvalues --  -12.61819 -12.61807 -12.61772 -10.34355 -10.32058
 Alpha  occ. eigenvalues --  -10.31672 -10.30512 -10.29708 -10.29423 -10.29294
 Alpha  occ. eigenvalues --  -10.29183 -10.29023 -10.28923 -10.28303 -10.28046
 Alpha  occ. eigenvalues --  -10.27725 -10.27628 -10.27537 -10.26898 -10.26654
 Alpha  occ. eigenvalues --  -10.26603 -10.26323 -10.25642 -10.25622 -10.25542
 Alpha  occ. eigenvalues --  -10.25391 -10.25265 -10.24755 -10.24221 -10.23656
 Alpha  occ. eigenvalues --  -10.23367 -10.23358 -10.23342 -10.23123 -10.22835
 Alpha  occ. eigenvalues --  -10.22464 -10.21623 -10.21142 -10.20947 -10.20841
 Alpha  occ. eigenvalues --  -10.20482 -10.20456 -10.20080 -10.20052 -10.20041
 Alpha  occ. eigenvalues --  -10.19897 -10.19489 -10.19129 -10.18859 -10.17693
 Alpha  occ. eigenvalues --  -10.17585 -10.16713 -10.16677 -10.15987 -10.15279
 Alpha  occ. eigenvalues --  -10.14905 -10.11379  -1.84849  -1.13163  -1.12345
 Alpha  occ. eigenvalues --   -1.12190  -1.12110  -1.07214  -1.06330  -1.06113
 Alpha  occ. eigenvalues --   -1.06041  -1.04810  -1.04671  -1.04506  -1.04113
 Alpha  occ. eigenvalues --   -1.03725  -1.03448  -1.03297  -1.02611  -1.02347
 Alpha  occ. eigenvalues --   -1.02199  -1.01718  -1.01364  -1.01197  -1.00897
 Alpha  occ. eigenvalues --   -1.00036  -0.96335  -0.95080  -0.94323  -0.93784
 Alpha  occ. eigenvalues --   -0.93735  -0.93524  -0.93084  -0.93047  -0.92969
 Alpha  occ. eigenvalues --   -0.92815  -0.92815  -0.92098  -0.91457  -0.90870
 Alpha  occ. eigenvalues --   -0.90640  -0.90540  -0.89721  -0.89344  -0.86388
 Alpha  occ. eigenvalues --   -0.82835  -0.82377  -0.80916  -0.80455  -0.80400
 Alpha  occ. eigenvalues --   -0.80119  -0.78432  -0.78375  -0.76966  -0.76899
 Alpha  occ. eigenvalues --   -0.76476  -0.76280  -0.75667  -0.75557  -0.74466
 Alpha  occ. eigenvalues --   -0.73722  -0.73526  -0.73357  -0.72595  -0.71084
 Alpha  occ. eigenvalues --   -0.70455  -0.70310  -0.69662  -0.68666  -0.67101
 Alpha  occ. eigenvalues --   -0.66881  -0.66645  -0.66383  -0.65925  -0.64921
 Alpha  occ. eigenvalues --   -0.64492  -0.64053  -0.63617  -0.63562  -0.63315
 Alpha  occ. eigenvalues --   -0.62574  -0.62377  -0.61746  -0.61299  -0.61023
 Alpha  occ. eigenvalues --   -0.60592  -0.60322  -0.59770  -0.59668  -0.59395
 Alpha  occ. eigenvalues --   -0.59246  -0.59139  -0.58807  -0.58334  -0.58296
 Alpha  occ. eigenvalues --   -0.57953  -0.57048  -0.56998  -0.56862  -0.56702
 Alpha  occ. eigenvalues --   -0.56336  -0.56179  -0.55763  -0.55274  -0.54824
 Alpha  occ. eigenvalues --   -0.54605  -0.53457  -0.53124  -0.52880  -0.52662
 Alpha  occ. eigenvalues --   -0.52512  -0.52136  -0.51875  -0.51791  -0.51643
 Alpha  occ. eigenvalues --   -0.51243  -0.51182  -0.50800  -0.50576  -0.50174
 Alpha  occ. eigenvalues --   -0.50066  -0.49566  -0.49310  -0.48574  -0.48363
 Alpha  occ. eigenvalues --   -0.48193  -0.48094  -0.47695  -0.47517  -0.47384
 Alpha  occ. eigenvalues --   -0.46967  -0.46884  -0.46814  -0.46724  -0.46605
 Alpha  occ. eigenvalues --   -0.46378  -0.46170  -0.46155  -0.46086  -0.45954
 Alpha  occ. eigenvalues --   -0.45802  -0.45638  -0.45479  -0.45351  -0.45236
 Alpha  occ. eigenvalues --   -0.45061  -0.44805  -0.44430  -0.44271  -0.44148
 Alpha  occ. eigenvalues --   -0.44079  -0.43931  -0.43913  -0.43764  -0.43298
 Alpha  occ. eigenvalues --   -0.43229  -0.43203  -0.42930  -0.42467  -0.42317
 Alpha  occ. eigenvalues --   -0.42300  -0.42181  -0.42052  -0.41818  -0.41501
 Alpha  occ. eigenvalues --   -0.41428  -0.41325  -0.41210  -0.41171  -0.41053
 Alpha  occ. eigenvalues --   -0.41037  -0.40957  -0.40842  -0.40637  -0.40307
 Alpha  occ. eigenvalues --   -0.40288  -0.40167  -0.39971  -0.39936  -0.39799
 Alpha  occ. eigenvalues --   -0.39698  -0.39520  -0.39344  -0.39199  -0.39132
 Alpha  occ. eigenvalues --   -0.38710  -0.38598  -0.38301  -0.38222  -0.38156
 Alpha  occ. eigenvalues --   -0.38026  -0.37826  -0.37764  -0.37717  -0.37671
 Alpha  occ. eigenvalues --   -0.37134  -0.36957  -0.36898  -0.36812  -0.36685
 Alpha  occ. eigenvalues --   -0.36518  -0.36321  -0.36310  -0.36108  -0.35983
 Alpha  occ. eigenvalues --   -0.35745  -0.35630  -0.35328  -0.35251  -0.35243
 Alpha  occ. eigenvalues --   -0.35037  -0.34934  -0.34631  -0.34168  -0.34020
 Alpha  occ. eigenvalues --   -0.33485  -0.33008  -0.32144  -0.31645  -0.31516
 Alpha  occ. eigenvalues --   -0.31425  -0.30555  -0.30284  -0.30170  -0.29882
 Alpha  occ. eigenvalues --   -0.29538  -0.29277  -0.28626  -0.28304  -0.27923
 Alpha  occ. eigenvalues --   -0.27793  -0.27764  -0.27466  -0.27438  -0.27271
 Alpha  occ. eigenvalues --   -0.27034  -0.27003  -0.26771  -0.26742  -0.26587
 Alpha  occ. eigenvalues --   -0.26247  -0.26187  -0.26162  -0.26096  -0.25608
 Alpha  occ. eigenvalues --   -0.25398  -0.25318  -0.25166  -0.25151  -0.24850
 Alpha  occ. eigenvalues --   -0.24617  -0.24405  -0.24363  -0.24268  -0.23880
 Alpha  occ. eigenvalues --   -0.23759  -0.23463  -0.23113  -0.23047  -0.22363
 Alpha  occ. eigenvalues --   -0.14027  -0.13730  -0.11159
 Alpha virt. eigenvalues --   -0.10067  -0.04505  -0.04024  -0.03603  -0.03140
 Alpha virt. eigenvalues --   -0.02375  -0.01751  -0.01422  -0.00956  -0.00405
 Alpha virt. eigenvalues --   -0.00330  -0.00122   0.00097   0.00194   0.00826
 Alpha virt. eigenvalues --    0.00838   0.01368   0.01590   0.01862   0.02116
 Alpha virt. eigenvalues --    0.02380   0.02454   0.02660   0.02699   0.02846
 Alpha virt. eigenvalues --    0.03019   0.03380   0.03629   0.03866   0.04029
 Alpha virt. eigenvalues --    0.04108   0.04211   0.04426   0.05168   0.05251
 Alpha virt. eigenvalues --    0.05335   0.05738   0.06010   0.06122   0.06403
 Alpha virt. eigenvalues --    0.07006   0.07460   0.07661   0.08087   0.08366
 Alpha virt. eigenvalues --    0.08462   0.08500   0.08918   0.09127   0.09192
 Alpha virt. eigenvalues --    0.09360   0.09607   0.09948   0.10095   0.10298
 Alpha virt. eigenvalues --    0.10586   0.10794   0.11053   0.11241   0.11358
 Alpha virt. eigenvalues --    0.11435   0.11599   0.11991   0.12141   0.12304
 Alpha virt. eigenvalues --    0.12394   0.12488   0.12737   0.12820   0.12908
 Alpha virt. eigenvalues --    0.13001   0.13256   0.13401   0.13530   0.13591
 Alpha virt. eigenvalues --    0.13750   0.13821   0.14004   0.14107   0.14343
 Alpha virt. eigenvalues --    0.14356   0.14565   0.14786   0.14941   0.15049
 Alpha virt. eigenvalues --    0.15116   0.15290   0.15352   0.15506   0.15613
 Alpha virt. eigenvalues --    0.15721   0.15908   0.16067   0.16221   0.16331
 Alpha virt. eigenvalues --    0.16698   0.16846   0.16897   0.17047   0.17470
 Alpha virt. eigenvalues --    0.17633   0.17856   0.18001   0.18312   0.18396
 Alpha virt. eigenvalues --    0.18487   0.18708   0.18904   0.18973   0.19146
 Alpha virt. eigenvalues --    0.19263   0.19534   0.19713   0.20078   0.20268
 Alpha virt. eigenvalues --    0.20358   0.20522   0.20593   0.20717   0.21112
 Alpha virt. eigenvalues --    0.21233   0.21305   0.21487   0.21659   0.21872
 Alpha virt. eigenvalues --    0.22034   0.22242   0.22486   0.22587   0.22691
 Alpha virt. eigenvalues --    0.22942   0.23058   0.23226   0.23469   0.23587
 Alpha virt. eigenvalues --    0.23625   0.23995   0.24390   0.24742   0.24971
 Alpha virt. eigenvalues --    0.25278   0.25565   0.25649   0.25724   0.25856
 Alpha virt. eigenvalues --    0.26120   0.26479   0.26927   0.27006   0.27347
 Alpha virt. eigenvalues --    0.27721   0.27815   0.27893   0.28091   0.28183
 Alpha virt. eigenvalues --    0.28361   0.28604   0.28710   0.29130   0.29287
 Alpha virt. eigenvalues --    0.29554   0.30024   0.30137   0.30342   0.30831
 Alpha virt. eigenvalues --    0.30916   0.30929   0.31663   0.32168   0.32257
 Alpha virt. eigenvalues --    0.32278   0.32516   0.32810   0.33078   0.33634
 Alpha virt. eigenvalues --    0.33692   0.34344   0.34839   0.34958   0.35669
 Alpha virt. eigenvalues --    0.35913   0.36385   0.36510   0.36721   0.37033
 Alpha virt. eigenvalues --    0.37091   0.37534   0.37852   0.38064   0.38447
 Alpha virt. eigenvalues --    0.38752   0.38850   0.39066   0.39343   0.39874
 Alpha virt. eigenvalues --    0.40039   0.40550   0.40694   0.40939   0.41061
 Alpha virt. eigenvalues --    0.41517   0.41535   0.41686   0.41759   0.42218
 Alpha virt. eigenvalues --    0.42260   0.42363   0.42711   0.42918   0.43099
 Alpha virt. eigenvalues --    0.43237   0.43304   0.43859   0.44267   0.44295
 Alpha virt. eigenvalues --    0.44355   0.44680   0.44907   0.45032   0.45077
 Alpha virt. eigenvalues --    0.45294   0.45483   0.45722   0.45835   0.45949
 Alpha virt. eigenvalues --    0.46142   0.46294   0.46444   0.46600   0.46882
 Alpha virt. eigenvalues --    0.47115   0.47299   0.47586   0.47703   0.47878
 Alpha virt. eigenvalues --    0.48111   0.48469   0.48548   0.48938   0.49320
 Alpha virt. eigenvalues --    0.49507   0.49599   0.49676   0.49856   0.50116
 Alpha virt. eigenvalues --    0.50221   0.50377   0.50465   0.50743   0.51065
 Alpha virt. eigenvalues --    0.51130   0.51283   0.51709   0.51754   0.51901
 Alpha virt. eigenvalues --    0.52127   0.52261   0.52400   0.52617   0.52986
 Alpha virt. eigenvalues --    0.53093   0.53256   0.53335   0.53473   0.53611
 Alpha virt. eigenvalues --    0.53746   0.53968   0.54340   0.54451   0.54621
 Alpha virt. eigenvalues --    0.54778   0.54962   0.55105   0.55395   0.55495
 Alpha virt. eigenvalues --    0.55743   0.55810   0.56013   0.56455   0.56865
 Alpha virt. eigenvalues --    0.56993   0.57064   0.57274   0.57411   0.57592
 Alpha virt. eigenvalues --    0.57659   0.58114   0.58136   0.58572   0.58756
 Alpha virt. eigenvalues --    0.58995   0.59088   0.59113   0.59315   0.59413
 Alpha virt. eigenvalues --    0.59433   0.59531   0.59899   0.59988   0.60115
 Alpha virt. eigenvalues --    0.60193   0.60262   0.60497   0.60573   0.60678
 Alpha virt. eigenvalues --    0.61135   0.61267   0.61486   0.61516   0.61618
 Alpha virt. eigenvalues --    0.61823   0.61853   0.62037   0.62065   0.62177
 Alpha virt. eigenvalues --    0.62296   0.62452   0.62619   0.62718   0.62749
 Alpha virt. eigenvalues --    0.62873   0.63066   0.63175   0.63299   0.63381
 Alpha virt. eigenvalues --    0.63585   0.63678   0.63863   0.63931   0.63993
 Alpha virt. eigenvalues --    0.64011   0.64175   0.64294   0.64446   0.64523
 Alpha virt. eigenvalues --    0.64649   0.64935   0.65097   0.65102   0.65303
 Alpha virt. eigenvalues --    0.65396   0.65430   0.65476   0.65582   0.65656
 Alpha virt. eigenvalues --    0.65801   0.65862   0.66147   0.66208   0.66336
 Alpha virt. eigenvalues --    0.66418   0.66422   0.66555   0.66726   0.66812
 Alpha virt. eigenvalues --    0.66972   0.66986   0.67098   0.67193   0.67251
 Alpha virt. eigenvalues --    0.67472   0.67591   0.67675   0.67773   0.67927
 Alpha virt. eigenvalues --    0.67961   0.68019   0.68118   0.68205   0.68317
 Alpha virt. eigenvalues --    0.68531   0.68797   0.68923   0.69038   0.69144
 Alpha virt. eigenvalues --    0.69256   0.69347   0.69551   0.69666   0.69927
 Alpha virt. eigenvalues --    0.69990   0.70151   0.70236   0.70449   0.70614
 Alpha virt. eigenvalues --    0.70837   0.70893   0.70973   0.71162   0.71286
 Alpha virt. eigenvalues --    0.71423   0.71627   0.71721   0.71804   0.72043
 Alpha virt. eigenvalues --    0.72084   0.72375   0.72520   0.72688   0.72921
 Alpha virt. eigenvalues --    0.73041   0.73249   0.73392   0.73734   0.73850
 Alpha virt. eigenvalues --    0.74098   0.74216   0.74335   0.74707   0.74918
 Alpha virt. eigenvalues --    0.75085   0.75297   0.75485   0.75588   0.75637
 Alpha virt. eigenvalues --    0.75706   0.75970   0.76174   0.76250   0.76415
 Alpha virt. eigenvalues --    0.76620   0.76872   0.76949   0.77409   0.77422
 Alpha virt. eigenvalues --    0.77782   0.78176   0.78387   0.78725   0.78818
 Alpha virt. eigenvalues --    0.79013   0.79139   0.79230   0.79708   0.79877
 Alpha virt. eigenvalues --    0.80088   0.80383   0.80505   0.80775   0.81243
 Alpha virt. eigenvalues --    0.81339   0.81725   0.81981   0.82117   0.82570
 Alpha virt. eigenvalues --    0.82665   0.82905   0.83104   0.83273   0.83790
 Alpha virt. eigenvalues --    0.83830   0.84127   0.84325   0.84625   0.85006
 Alpha virt. eigenvalues --    0.85419   0.85698   0.85933   0.86183   0.86686
 Alpha virt. eigenvalues --    0.86986   0.87080   0.87172   0.87617   0.87886
 Alpha virt. eigenvalues --    0.88213   0.88385   0.88593   0.89093   0.89481
 Alpha virt. eigenvalues --    0.89714   0.89989   0.90260   0.90405   0.90962
 Alpha virt. eigenvalues --    0.91046   0.91530   0.91656   0.91747   0.92081
 Alpha virt. eigenvalues --    0.92113   0.92409   0.92745   0.93434   0.93765
 Alpha virt. eigenvalues --    0.93819   0.94249   0.94516   0.94789   0.95177
 Alpha virt. eigenvalues --    0.95308   0.95589   0.95620   0.96136   0.96368
 Alpha virt. eigenvalues --    0.96813   0.96965   0.97358   0.97807   0.97939
 Alpha virt. eigenvalues --    0.98569   0.98756   0.98832   0.99142   0.99169
 Alpha virt. eigenvalues --    0.99540   0.99630   0.99770   1.00262   1.00508
 Alpha virt. eigenvalues --    1.00772   1.01141   1.01476   1.01837   1.01966
 Alpha virt. eigenvalues --    1.02220   1.02282   1.02354   1.02935   1.03031
 Alpha virt. eigenvalues --    1.03668   1.03945   1.04147   1.04288   1.04419
 Alpha virt. eigenvalues --    1.04673   1.04978   1.05196   1.05735   1.05949
 Alpha virt. eigenvalues --    1.06228   1.06432   1.06489   1.07157   1.07338
 Alpha virt. eigenvalues --    1.07789   1.08340   1.08490   1.08614   1.08991
 Alpha virt. eigenvalues --    1.09244   1.09564   1.09803   1.10272   1.10419
 Alpha virt. eigenvalues --    1.10575   1.11045   1.11103   1.11432   1.11718
 Alpha virt. eigenvalues --    1.11777   1.12538   1.12797   1.13136   1.13467
 Alpha virt. eigenvalues --    1.13604   1.13781   1.13939   1.14144   1.14452
 Alpha virt. eigenvalues --    1.14513   1.14774   1.15025   1.15192   1.15468
 Alpha virt. eigenvalues --    1.15720   1.16219   1.16323   1.16407   1.16461
 Alpha virt. eigenvalues --    1.16643   1.16754   1.17232   1.17622   1.17816
 Alpha virt. eigenvalues --    1.18257   1.18940   1.19217   1.19476   1.19745
 Alpha virt. eigenvalues --    1.20027   1.20176   1.20468   1.20561   1.20944
 Alpha virt. eigenvalues --    1.21099   1.21479   1.21557   1.21866   1.22057
 Alpha virt. eigenvalues --    1.22503   1.22657   1.22992   1.23724   1.24067
 Alpha virt. eigenvalues --    1.24156   1.24470   1.24670   1.24896   1.25264
 Alpha virt. eigenvalues --    1.25381   1.25543   1.26108   1.26210   1.26603
 Alpha virt. eigenvalues --    1.26926   1.27225   1.27368   1.27510   1.27800
 Alpha virt. eigenvalues --    1.27937   1.28116   1.28753   1.28860   1.29144
 Alpha virt. eigenvalues --    1.29405   1.29488   1.29715   1.29971   1.30192
 Alpha virt. eigenvalues --    1.30419   1.30799   1.31051   1.31408   1.31659
 Alpha virt. eigenvalues --    1.32251   1.32292   1.32812   1.33072   1.33313
 Alpha virt. eigenvalues --    1.33423   1.33712   1.33813   1.33980   1.34093
 Alpha virt. eigenvalues --    1.34960   1.35812   1.35931   1.36190   1.36596
 Alpha virt. eigenvalues --    1.36743   1.36782   1.37025   1.37361   1.37657
 Alpha virt. eigenvalues --    1.37870   1.38041   1.38226   1.38487   1.38676
 Alpha virt. eigenvalues --    1.38978   1.39252   1.39579   1.39872   1.40091
 Alpha virt. eigenvalues --    1.40658   1.41233   1.41397   1.41650   1.41914
 Alpha virt. eigenvalues --    1.42154   1.42471   1.42917   1.43076   1.43168
 Alpha virt. eigenvalues --    1.43286   1.43510   1.43853   1.43979   1.44327
 Alpha virt. eigenvalues --    1.44531   1.44857   1.45144   1.45282   1.45543
 Alpha virt. eigenvalues --    1.45885   1.46266   1.46671   1.46849   1.46965
 Alpha virt. eigenvalues --    1.47296   1.47720   1.47830   1.48263   1.48503
 Alpha virt. eigenvalues --    1.48789   1.48983   1.49601   1.50215   1.50629
 Alpha virt. eigenvalues --    1.50812   1.50964   1.51098   1.51392   1.51677
 Alpha virt. eigenvalues --    1.52557   1.52737   1.52948   1.53318   1.53407
 Alpha virt. eigenvalues --    1.53964   1.54008   1.54282   1.54754   1.54982
 Alpha virt. eigenvalues --    1.55015   1.55649   1.56023   1.56066   1.56637
 Alpha virt. eigenvalues --    1.56649   1.57157   1.57510   1.57573   1.57634
 Alpha virt. eigenvalues --    1.58755   1.59003   1.59292   1.59677   1.60182
 Alpha virt. eigenvalues --    1.60533   1.60986   1.61206   1.61724   1.61846
 Alpha virt. eigenvalues --    1.62701   1.62857   1.63069   1.63470   1.63590
 Alpha virt. eigenvalues --    1.63763   1.63940   1.64271   1.64301   1.64593
 Alpha virt. eigenvalues --    1.65116   1.65286   1.65784   1.66381   1.67088
 Alpha virt. eigenvalues --    1.67546   1.67713   1.68788   1.69060   1.69276
 Alpha virt. eigenvalues --    1.69598   1.69791   1.69908   1.70307   1.70816
 Alpha virt. eigenvalues --    1.70905   1.71048   1.71160   1.71225   1.71482
 Alpha virt. eigenvalues --    1.71734   1.71876   1.72189   1.72522   1.72577
 Alpha virt. eigenvalues --    1.72901   1.72943   1.73142   1.73200   1.73348
 Alpha virt. eigenvalues --    1.73485   1.73751   1.74028   1.74333   1.74389
 Alpha virt. eigenvalues --    1.74653   1.74747   1.75130   1.75361   1.75418
 Alpha virt. eigenvalues --    1.75551   1.75679   1.75798   1.75985   1.76224
 Alpha virt. eigenvalues --    1.76460   1.76518   1.76727   1.76910   1.77124
 Alpha virt. eigenvalues --    1.77241   1.77295   1.77460   1.77906   1.78096
 Alpha virt. eigenvalues --    1.78359   1.78508   1.78552   1.78680   1.78701
 Alpha virt. eigenvalues --    1.78990   1.79220   1.79457   1.79586   1.79659
 Alpha virt. eigenvalues --    1.79983   1.80237   1.80461   1.80511   1.80617
 Alpha virt. eigenvalues --    1.80695   1.81058   1.81190   1.81320   1.81429
 Alpha virt. eigenvalues --    1.81906   1.82090   1.82425   1.82463   1.82889
 Alpha virt. eigenvalues --    1.83030   1.83152   1.83274   1.83450   1.83550
 Alpha virt. eigenvalues --    1.83601   1.83969   1.84095   1.84122   1.84296
 Alpha virt. eigenvalues --    1.84799   1.84959   1.85254   1.85399   1.85549
 Alpha virt. eigenvalues --    1.85590   1.85899   1.85928   1.86153   1.86371
 Alpha virt. eigenvalues --    1.86387   1.86577   1.86654   1.86860   1.86973
 Alpha virt. eigenvalues --    1.87090   1.87280   1.87428   1.87786   1.87972
 Alpha virt. eigenvalues --    1.88161   1.88319   1.88545   1.88963   1.89035
 Alpha virt. eigenvalues --    1.89131   1.89158   1.89471   1.89548   1.89740
 Alpha virt. eigenvalues --    1.89923   1.90165   1.90327   1.90544   1.90900
 Alpha virt. eigenvalues --    1.91020   1.91252   1.91493   1.91782   1.91814
 Alpha virt. eigenvalues --    1.91888   1.92087   1.92380   1.92504   1.92606
 Alpha virt. eigenvalues --    1.92771   1.93077   1.93113   1.93300   1.93347
 Alpha virt. eigenvalues --    1.93437   1.93910   1.93919   1.94216   1.94497
 Alpha virt. eigenvalues --    1.94944   1.95123   1.95352   1.95496   1.95600
 Alpha virt. eigenvalues --    1.95723   1.96092   1.96380   1.96729   1.96861
 Alpha virt. eigenvalues --    1.97125   1.97260   1.97480   1.97584   1.97850
 Alpha virt. eigenvalues --    1.98054   1.98159   1.98339   1.98958   1.99581
 Alpha virt. eigenvalues --    1.99675   1.99788   1.99991   2.00453   2.00558
 Alpha virt. eigenvalues --    2.00674   2.00817   2.00961   2.01055   2.01524
 Alpha virt. eigenvalues --    2.01854   2.02296   2.02549   2.02656   2.02753
 Alpha virt. eigenvalues --    2.03058   2.03320   2.03586   2.04409   2.04609
 Alpha virt. eigenvalues --    2.04751   2.04953   2.05226   2.05331   2.05656
 Alpha virt. eigenvalues --    2.05871   2.06165   2.06654   2.06742   2.06813
 Alpha virt. eigenvalues --    2.07305   2.07348   2.07566   2.07816   2.08139
 Alpha virt. eigenvalues --    2.08517   2.08680   2.08917   2.09037   2.09557
 Alpha virt. eigenvalues --    2.09656   2.10235   2.10407   2.10557   2.10824
 Alpha virt. eigenvalues --    2.10922   2.11320   2.11366   2.12011   2.12319
 Alpha virt. eigenvalues --    2.12568   2.13077   2.13205   2.13379   2.13486
 Alpha virt. eigenvalues --    2.13586   2.13933   2.14336   2.14842   2.14916
 Alpha virt. eigenvalues --    2.15228   2.15567   2.15852   2.16077   2.16238
 Alpha virt. eigenvalues --    2.16333   2.16813   2.17148   2.17297   2.17590
 Alpha virt. eigenvalues --    2.18033   2.18496   2.18705   2.19055   2.19452
 Alpha virt. eigenvalues --    2.19678   2.19914   2.20051   2.20295   2.20529
 Alpha virt. eigenvalues --    2.20717   2.21111   2.21418   2.21808   2.22344
 Alpha virt. eigenvalues --    2.22754   2.22863   2.23237   2.23406   2.24072
 Alpha virt. eigenvalues --    2.24447   2.24685   2.25117   2.25153   2.25405
 Alpha virt. eigenvalues --    2.25547   2.25783   2.26442   2.26896   2.27070
 Alpha virt. eigenvalues --    2.27337   2.28238   2.28653   2.29067   2.29134
 Alpha virt. eigenvalues --    2.29256   2.29534   2.29575   2.30297   2.30346
 Alpha virt. eigenvalues --    2.30808   2.31064   2.31205   2.31415   2.31688
 Alpha virt. eigenvalues --    2.31952   2.32498   2.32545   2.33134   2.33484
 Alpha virt. eigenvalues --    2.33689   2.34263   2.34300   2.34735   2.34958
 Alpha virt. eigenvalues --    2.35095   2.35796   2.35925   2.36199   2.36601
 Alpha virt. eigenvalues --    2.36936   2.37839   2.38349   2.38830   2.38982
 Alpha virt. eigenvalues --    2.39168   2.39807   2.40298   2.40581   2.41041
 Alpha virt. eigenvalues --    2.41269   2.41489   2.41718   2.41875   2.42620
 Alpha virt. eigenvalues --    2.42944   2.43100   2.43467   2.43779   2.44333
 Alpha virt. eigenvalues --    2.44351   2.44572   2.44841   2.44992   2.45509
 Alpha virt. eigenvalues --    2.45844   2.47093   2.47163   2.47220   2.47864
 Alpha virt. eigenvalues --    2.48692   2.48729   2.49163   2.49392   2.49805
 Alpha virt. eigenvalues --    2.50492   2.50597   2.50886   2.51008   2.51350
 Alpha virt. eigenvalues --    2.51929   2.52100   2.52751   2.53261   2.53605
 Alpha virt. eigenvalues --    2.53948   2.54017   2.54122   2.55175   2.55231
 Alpha virt. eigenvalues --    2.55319   2.55705   2.56343   2.56509   2.56632
 Alpha virt. eigenvalues --    2.56793   2.57245   2.57275   2.57335   2.57569
 Alpha virt. eigenvalues --    2.58061   2.58232   2.58321   2.59098   2.59113
 Alpha virt. eigenvalues --    2.59402   2.59456   2.59894   2.60153   2.60541
 Alpha virt. eigenvalues --    2.60748   2.60877   2.61140   2.61331   2.62167
 Alpha virt. eigenvalues --    2.62511   2.62719   2.62903   2.63667   2.63838
 Alpha virt. eigenvalues --    2.64017   2.64241   2.64392   2.64752   2.65017
 Alpha virt. eigenvalues --    2.65160   2.65668   2.66299   2.66455   2.66502
 Alpha virt. eigenvalues --    2.66971   2.67115   2.67282   2.67429   2.67510
 Alpha virt. eigenvalues --    2.68123   2.68226   2.68478   2.68751   2.68861
 Alpha virt. eigenvalues --    2.69260   2.69446   2.69710   2.70266   2.70413
 Alpha virt. eigenvalues --    2.70799   2.70875   2.71330   2.71476   2.72011
 Alpha virt. eigenvalues --    2.72267   2.72586   2.72810   2.72907   2.73799
 Alpha virt. eigenvalues --    2.74558   2.74623   2.74750   2.74918   2.75222
 Alpha virt. eigenvalues --    2.75244   2.75460   2.75777   2.75911   2.76275
 Alpha virt. eigenvalues --    2.76811   2.77048   2.77066   2.77461   2.77572
 Alpha virt. eigenvalues --    2.77830   2.77991   2.78435   2.78540   2.78611
 Alpha virt. eigenvalues --    2.78997   2.79490   2.79915   2.80292   2.80343
 Alpha virt. eigenvalues --    2.80463   2.81262   2.81281   2.81331   2.81455
 Alpha virt. eigenvalues --    2.81965   2.82629   2.82691   2.82702   2.83404
 Alpha virt. eigenvalues --    2.83492   2.83754   2.84018   2.84078   2.84568
 Alpha virt. eigenvalues --    2.85014   2.85711   2.86057   2.86516   2.86664
 Alpha virt. eigenvalues --    2.86979   2.87154   2.87745   2.87954   2.88536
 Alpha virt. eigenvalues --    2.88548   2.88765   2.89006   2.89199   2.89807
 Alpha virt. eigenvalues --    2.89875   2.90388   2.90664   2.90985   2.91194
 Alpha virt. eigenvalues --    2.91390   2.91702   2.92032   2.92743   2.92848
 Alpha virt. eigenvalues --    2.92863   2.93005   2.93293   2.93552   2.93616
 Alpha virt. eigenvalues --    2.94114   2.94436   2.94725   2.94957   2.95038
 Alpha virt. eigenvalues --    2.95435   2.95530   2.95647   2.96002   2.96596
 Alpha virt. eigenvalues --    2.96784   2.96813   2.96920   2.97269   2.97422
 Alpha virt. eigenvalues --    2.97618   2.98727   2.98846   2.99825   3.00136
 Alpha virt. eigenvalues --    3.00312   3.00606   3.00926   3.01123   3.01739
 Alpha virt. eigenvalues --    3.02256   3.03102   3.03741   3.03888   3.03890
 Alpha virt. eigenvalues --    3.04003   3.04455   3.05218   3.06447   3.06922
 Alpha virt. eigenvalues --    3.07044   3.07276   3.07776   3.07973   3.08654
 Alpha virt. eigenvalues --    3.09420   3.09584   3.09929   3.10160   3.10501
 Alpha virt. eigenvalues --    3.11011   3.11985   3.12293   3.12333   3.12627
 Alpha virt. eigenvalues --    3.12837   3.12948   3.13161   3.13315   3.14307
 Alpha virt. eigenvalues --    3.15591   3.15625   3.15983   3.16257   3.16299
 Alpha virt. eigenvalues --    3.16977   3.17093   3.17116   3.17356   3.17694
 Alpha virt. eigenvalues --    3.17936   3.18032   3.18555   3.18906   3.19107
 Alpha virt. eigenvalues --    3.19190   3.19864   3.19916   3.20023   3.20493
 Alpha virt. eigenvalues --    3.20774   3.21042   3.21436   3.22162   3.22411
 Alpha virt. eigenvalues --    3.22631   3.22927   3.23928   3.24104   3.24596
 Alpha virt. eigenvalues --    3.24754   3.25840   3.26025   3.26112   3.27324
 Alpha virt. eigenvalues --    3.28798   3.29038   3.30773   3.31521   3.34394
 Alpha virt. eigenvalues --    3.34939   3.36152   3.39462   3.39949   3.40270
 Alpha virt. eigenvalues --    3.41157   3.46155   3.46627   3.47292   3.48315
 Alpha virt. eigenvalues --    3.51159   3.51221   3.52437   3.52973   3.53372
 Alpha virt. eigenvalues --    3.53838   3.54072   3.55329   3.56406   3.57004
 Alpha virt. eigenvalues --    3.57540   3.58239   3.58504   3.58607   3.58962
 Alpha virt. eigenvalues --    3.61075   3.64966   3.66178   3.66489   3.66754
 Alpha virt. eigenvalues --    3.66852   3.67097   3.67314   3.67916   3.68119
 Alpha virt. eigenvalues --    3.68250   3.69141   3.69195   3.69519   3.69872
 Alpha virt. eigenvalues --    3.70151   3.70368   3.70711   3.72102   3.74691
 Alpha virt. eigenvalues --    3.78479   3.79071   3.80192   3.81168
          Condensed to atoms (all electrons):
 Mulliken charges:
               1
     1  C    0.059469
     2  C    0.019518
     3  O   -0.304636
     4  H    0.042400
     5  H    0.053056
     6  H   -0.004758
     7  N   -0.107291
     8  C    0.112525
     9  C    0.086427
    10  O   -0.281567
    11  C    0.084058
    12  C    0.079003
    13  O   -0.433709
    14  O   -0.371366
    15  H    0.122187
    16  H   -0.038672
    17  H    0.012993
    18  H    0.017305
    19  N   -0.149786
    20  C    0.212191
    21  C    0.064587
    22  O   -0.292099
    23  C   -0.034839
    24  C    0.016608
    25  C   -0.017167
    26  C   -0.018714
    27  N    0.128306
    28  H    0.107372
    29  H    0.024226
    30  H    0.014683
    31  H    0.008140
    32  H    0.056283
    33  H   -0.003186
    34  H    0.037300
    35  H    0.020264
    36  H    0.083217
    37  H    0.089992
    38  H    0.154806
    39  H    0.161749
    40  H    0.151658
    41  N   -0.147283
    42  C    0.053808
    43  C    0.070631
    44  O   -0.273694
    45  C    0.139441
    46  C    0.093653
    47  O   -0.405467
    48  O   -0.457063
    49  H    0.169652
    50  H    0.034941
    51  H   -0.024332
    52  H    0.021969
    53  N   -0.172529
    54  C    0.236657
    55  C    0.026695
    56  O   -0.312689
    57  H    0.108426
    58  H    0.046795
    59  H    0.022755
    60  N   -0.109329
    61  C    0.082367
    62  C    0.080458
    63  O   -0.343826
    64  C    0.175523
    65  C   -0.077170
    66  N   -0.023679
    67  O   -0.267354
    68  H    0.166075
    69  H   -0.022033
    70  H    0.019613
    71  H    0.042865
    72  H    0.133916
    73  H    0.137313
    74  N   -0.145179
    75  C    0.218109
    76  C    0.019901
    77  O   -0.289181
    78  H    0.138806
    79  H    0.050434
    80  H    0.064624
    81  N   -0.104830
    82  C    0.086459
    83  C    0.200361
    84  O   -0.355002
    85  C    0.135447
    86  C   -0.103694
    87  C    0.034485
    88  C   -0.006350
    89  C   -0.030090
    90  C   -0.053895
    91  C    0.170919
    92  O   -0.183974
    93  H    0.132775
    94  H   -0.008229
    95  H    0.008044
    96  H    0.026076
    97  H   -0.018069
    98  H   -0.024892
    99  H   -0.002954
   100  H   -0.040507
   101  H    0.174738
   102  N   -0.120272
   103  C    0.127080
   104  C    0.083353
   105  O   -0.294978
   106  C   -0.061225
   107  C   -0.027336
   108  C    0.081284
   109  C    0.024996
   110  H    0.135416
   111  H   -0.039149
   112  H   -0.025084
   113  H   -0.001161
   114  H    0.015738
   115  H    0.013822
   116  H    0.000875
   117  H    0.015676
   118  H   -0.029229
   119  H    0.006722
   120  H    0.054096
   121  N   -0.106353
   122  C    0.085122
   123  C    0.094199
   124  O   -0.258142
   125  C    0.232459
   126  O   -0.317544
   127  H    0.109535
   128  H    0.024748
   129  H    0.005624
   130  H   -0.010057
   131  H    0.176352
   132  N   -0.137273
   133  C    0.007808
   134  C    0.105479
   135  O   -0.249706
   136  C    0.096852
   137  H    0.120001
   138  H    0.013818
   139  H    0.028467
   140  H   -0.038079
   141  H    0.038481
   142  N   -0.104152
   143  C    0.032179
   144  C    0.041175
   145  O   -0.284183
   146  C    0.053969
   147  H    0.126300
   148  H    0.027840
   149  H    0.004829
   150  H    0.027258
   151  H    0.037862
   152  N   -0.117208
   153  C    0.143861
   154  C    0.045450
   155  O   -0.279180
   156  C    0.022172
   157  C    0.066482
   158  C    0.027703
   159  O   -0.414977
   160  O   -0.371735
   161  H    0.101140
   162  H   -0.014474
   163  H    0.007490
   164  H   -0.019379
   165  H   -0.008578
   166  H   -0.031648
   167  N   -0.166972
   168  C    0.147258
   169  H    0.039645
   170  H    0.029734
   171  H    0.008715
   172  H    0.116397
   173  Ca   1.351834
   174  O   -0.298657
   175  H    0.201331
   176  H    0.184133
 Sum of Mulliken charges =  -0.00000
 Mulliken charges with hydrogens summed into heavy atoms:
               1
     1  C    0.150167
     2  C    0.019518
     3  O   -0.304636
     7  N    0.014896
     8  C    0.073852
     9  C    0.086427
    10  O   -0.281567
    11  C    0.114355
    12  C    0.079003
    13  O   -0.433709
    14  O   -0.371366
    19  N   -0.042414
    20  C    0.236417
    21  C    0.064587
    22  O   -0.292099
    23  C   -0.012017
    24  C    0.069705
    25  C    0.040397
    26  C    0.154496
    27  N    0.596518
    41  N    0.022369
    42  C    0.088749
    43  C    0.070631
    44  O   -0.273694
    45  C    0.137078
    46  C    0.093653
    47  O   -0.405467
    48  O   -0.457063
    53  N   -0.064103
    54  C    0.306207
    55  C    0.026695
    56  O   -0.312689
    60  N    0.056746
    61  C    0.060334
    62  C    0.080458
    63  O   -0.343826
    64  C    0.238001
    65  C   -0.077170
    66  N    0.247549
    67  O   -0.267354
    74  N   -0.006373
    75  C    0.333168
    76  C    0.019901
    77  O   -0.289181
    81  N    0.027945
    82  C    0.078230
    83  C    0.200361
    84  O   -0.355002
    85  C    0.169567
    86  C   -0.103694
    87  C    0.016417
    88  C   -0.031242
    89  C   -0.033044
    90  C   -0.094402
    91  C    0.170919
    92  O   -0.009236
   102  N    0.015145
   103  C    0.087930
   104  C    0.083353
   105  O   -0.294978
   106  C   -0.086309
   107  C   -0.012759
   108  C    0.111657
   109  C    0.056586
   121  N    0.003182
   122  C    0.109870
   123  C    0.094199
   124  O   -0.258142
   125  C    0.228026
   126  O   -0.141192
   132  N   -0.017273
   133  C    0.021626
   134  C    0.105479
   135  O   -0.249706
   136  C    0.125721
   142  N    0.022148
   143  C    0.060019
   144  C    0.041175
   145  O   -0.284183
   146  C    0.123919
   152  N   -0.016068
   153  C    0.129387
   154  C    0.045450
   155  O   -0.279180
   156  C    0.010282
   157  C    0.026257
   158  C    0.027703
   159  O   -0.414977
   160  O   -0.371735
   167  N   -0.050575
   168  C    0.225353
   173  Ca   1.351834
   174  O    0.086806
 DipInt: DoE/N= T F RetVal/Mat= T F Init=T NMatP=  1 IDeriv=0 Min/MaxMlt=  0  4
 Entering OneElI...
 OneElI was handed  1333951383 working-precision words.
 Multipole integrals L=0 to 4 MinM= 0 MaxM= 0.
 Requested accuracy = 0.1000D-12
 ShPair: Thresh= 1.00D-13 NBox=     0 BxSize= 0.00D+00 RnKept= 2.71D+01
         NSMCal=               327645 NSMKep=              137742
 PrmmSu-InSpLW:  IPartL=    0 NPrtUS=    1 NPrtUL=    1 DoSpLW=F IThBeg=    0 IThEnd=    0 NThAct=    1.
 PrsmSu:  NPrtUS=   1 ThrOK=F IAlg=1 NPAlg=1 LenDen=           0 ISkipM=0 DoSpLW=F IThBeg=    0 IThEnd=    0.
 Prism:   IPart=     0 DynPar=F LinDyn=F Incr=         512.
 PRISM was handed  1324746571 working-precision words and137742 shell-pairs
 IPart=  0 NShTot=      137742 NBatch=         322 AvBLen=       427.8
 PrsmSu-ThDecC:  IPartSL=    0    0 NPrtUSL=    1    1 IThBeg=    0 IThEnd=    0 CPU=   -1 GPU=   -1 NThAct=    1.
 PrSmSu:  NxtVal=            513.
 Electronic moments (au):
       -716.00000000         -5.54406101          1.61936754          3.97959513
     -81821.99173241     -29276.19662439     -13812.63023290         47.45439200
         -8.76329937       -107.91488219    -290209.36525620      -7820.93115969
      -5400.92163917      64637.75155718     102739.77083274      -7435.18396213
      -6609.77083146      34194.24565195       8240.71482603     -35893.23807661
  -16602258.81691591   -2686234.49435609    -666746.54798795     763234.55355719
     -25527.60263662    -327047.04047177    -138425.16277331     156182.29213283
     130854.17003048   -2565604.77289217   -1595064.79147555    -601068.99406538
    -544872.05946233    -148990.45585623    -136685.19822254
 Electronic spatial extent (au):  <R**2>=         124910.8186
 DipInt: DoE/N= F T RetVal/Mat= T F Init=T NMatP=  1 IDeriv=0 Min/MaxMlt=  0  4
 Nuclear    moments (au):
        716.00000000         -0.00000000         -0.00000000          0.00000000
      81271.92591538      28901.15050978      13457.79906697         -0.00000000
         -0.00000000          0.00000000     289770.53543467       8801.13001996
       6206.54897360     -65650.63831054    -102161.14727710       6288.81887483
       6191.23355692     -35199.71222503      -7531.13481069      35638.94070373
   16278219.89647842    2589832.43112912     630408.94713153    -763436.63978597
      19180.98144138     333347.63332623     126309.55965897    -158730.60659925
    -140846.58353455    2500738.68862784    1537464.25677808     584846.56500006
     544876.94752399     151107.05241099     136959.16945719
 Total      moments (au):
         -0.00000000         -5.54406101          1.61936754          3.97959513
       -550.06581702       -375.04611461       -354.83116593         47.45439200
         -8.76329937       -107.91488219       -438.82982152        980.19886027
        805.62733444      -1012.88675336        578.62355564      -1146.36508730
       -418.53727453      -1005.46657308        709.58001533       -254.29737287
    -324038.92043749     -96402.06322698     -36337.60085641       -202.08622878
      -6346.62119524       6300.59285446     -12115.60311435      -2548.31446642
      -9992.41350408     -64866.08426433     -57600.53469747     -16222.42906532
          4.88806165       2116.59655476        273.97123465
 Traceless Quadrup. (au):
       -123.41811783         51.60158458         71.81653326         47.45439200
         -8.76329937       -107.91488219
 Charge=             -0.0000 electrons
 Dipole moment (field-independent basis, Debye):
    X=            -14.0916    Y=              4.1160    Z=             10.1151  Tot=             17.8278
 Quadrupole moment (field-independent basis, Debye-Ang):
   XX=           -739.8574   YY=           -504.4499   ZZ=           -477.2601
   XY=             63.8278   XZ=            -11.7869   YZ=           -145.1492
 Traceless Quadrupole moment (field-independent basis, Debye-Ang):
   XX=           -166.0016   YY=             69.4059   ZZ=             96.5957
   XY=             63.8278   XZ=            -11.7869   YZ=           -145.1492
 Octapole moment (field-independent basis, Debye-Ang**2):
  XXX=           -312.3422  YYY=            697.6678  ZZZ=            573.4145  XYY=           -720.9338
  XXY=            411.8420  XXZ=           -815.9385  XZZ=           -297.8987  YZZ=           -715.6524
  YYZ=            505.0517  XYZ=           -180.9991
 Hexadecapole moment (field-independent basis, Debye-Ang**3):
 XXXX=        -122048.5956 YYYY=         -36309.6396 ZZZZ=         -13686.4829 XXXY=            -76.1154
 XXXZ=          -2390.4419 YYYX=           2373.1054 YYYZ=          -4563.3171 ZZZX=           -959.8174
 ZZZY=          -3763.6221 XXYY=         -24431.6778 XXZZ=         -21695.1234 YYZZ=          -6110.1447
 XXYZ=              1.8411 YYXZ=            797.2118 ZZXY=            103.1907
 N-N= 2.010808571032D+04 E-N=-5.268931565937D+04  KE= 5.290525125858D+03
 Leave Link  601 at Tue Sep 17 23:56:13 2019, MaxMem=  1342177280 cpu:              39.8 elap:               1.0
 FitSet:  NAtFit=   176 NAtPot=   176 NAtFrz=     0 MDM=   180 TotChg=   0.00000
 Merz-Kollman atomic radii used.
 Read replacement radii for each type of atom:
 Rad(20) =   1.700000000000D+00
 Atom Element Radius
    1     6    1.50
    2     6    1.50
    3     8    1.40
    4     1    1.20
    5     1    1.20
    6     1    1.20
    7     7    1.50
    8     6    1.50
    9     6    1.50
   10     8    1.40
   11     6    1.50
   12     6    1.50
   13     8    1.40
   14     8    1.40
   15     1    1.20
   16     1    1.20
   17     1    1.20
   18     1    1.20
   19     7    1.50
   20     6    1.50
   21     6    1.50
   22     8    1.40
   23     6    1.50
   24     6    1.50
   25     6    1.50
   26     6    1.50
   27     7    1.50
   28     1    1.20
   29     1    1.20
   30     1    1.20
   31     1    1.20
   32     1    1.20
   33     1    1.20
   34     1    1.20
   35     1    1.20
   36     1    1.20
   37     1    1.20
   38     1    1.20
   39     1    1.20
   40     1    1.20
   41     7    1.50
   42     6    1.50
   43     6    1.50
   44     8    1.40
   45     6    1.50
   46     6    1.50
   47     8    1.40
   48     8    1.40
   49     1    1.20
   50     1    1.20
   51     1    1.20
   52     1    1.20
   53     7    1.50
   54     6    1.50
   55     6    1.50
   56     8    1.40
   57     1    1.20
   58     1    1.20
   59     1    1.20
   60     7    1.50
   61     6    1.50
   62     6    1.50
   63     8    1.40
   64     6    1.50
   65     6    1.50
   66     7    1.50
   67     8    1.40
   68     1    1.20
   69     1    1.20
   70     1    1.20
   71     1    1.20
   72     1    1.20
   73     1    1.20
   74     7    1.50
   75     6    1.50
   76     6    1.50
   77     8    1.40
   78     1    1.20
   79     1    1.20
   80     1    1.20
   81     7    1.50
   82     6    1.50
   83     6    1.50
   84     8    1.40
   85     6    1.50
   86     6    1.50
   87     6    1.50
   88     6    1.50
   89     6    1.50
   90     6    1.50
   91     6    1.50
   92     8    1.40
   93     1    1.20
   94     1    1.20
   95     1    1.20
   96     1    1.20
   97     1    1.20
   98     1    1.20
   99     1    1.20
  100     1    1.20
  101     1    1.20
  102     7    1.50
  103     6    1.50
  104     6    1.50
  105     8    1.40
  106     6    1.50
  107     6    1.50
  108     6    1.50
  109     6    1.50
  110     1    1.20
  111     1    1.20
  112     1    1.20
  113     1    1.20
  114     1    1.20
  115     1    1.20
  116     1    1.20
  117     1    1.20
  118     1    1.20
  119     1    1.20
  120     1    1.20
  121     7    1.50
  122     6    1.50
  123     6    1.50
  124     8    1.40
  125     6    1.50
  126     8    1.40
  127     1    1.20
  128     1    1.20
  129     1    1.20
  130     1    1.20
  131     1    1.20
  132     7    1.50
  133     6    1.50
  134     6    1.50
  135     8    1.40
  136     6    1.50
  137     1    1.20
  138     1    1.20
  139     1    1.20
  140     1    1.20
  141     1    1.20
  142     7    1.50
  143     6    1.50
  144     6    1.50
  145     8    1.40
  146     6    1.50
  147     1    1.20
  148     1    1.20
  149     1    1.20
  150     1    1.20
  151     1    1.20
  152     7    1.50
  153     6    1.50
  154     6    1.50
  155     8    1.40
  156     6    1.50
[...]
 **** Fit      -0.009506
 **** Fit      -0.004649
 **** Fit       0.000120
 **** Fit      -0.001362
 **** Fit      -0.002710
 **** Fit      -0.003948
 **** Fit      -0.024936
 **** Fit      -0.019801
 **** Fit      -0.014826
 **** Fit      -0.010161
 **** Fit      -0.001445
 **** Fit      -0.002601
 **** Fit      -0.003632
 **** Fit      -0.022490
 **** Fit      -0.018334
 **** Fit      -0.014191
 **** Fit      -0.010203
 **** Fit      -0.001493
 **** Fit      -0.002496
 **** Fit      -0.003356
 **** Fit      -0.016623
 **** Fit      -0.013239
 **** Fit      -0.009869
 **** Fit      -0.001729
 **** Fit      -0.002608
 **** Fit      -0.013423
 **** Fit      -0.010511
 **** Fit      -0.002062
 **** Fit      -0.002826
 **** Fit      -0.030188
 **** Fit      -0.030053
 **** Fit      -0.011294
 **** Fit      -0.001603
 **** Fit      -0.002423
 **** Fit      -0.024069
 **** Fit      -0.011562
 **** Fit      -0.009456
 **** Fit      -0.002200
 **** Fit      -0.002921
 **** Fit      -0.019218
 **** Fit      -0.019601
 **** Fit      -0.010206
 **** Fit      -0.008339
 **** Fit      -0.002148
 **** Fit      -0.002851
 **** Fit      -0.003523
 **** Fit      -0.015398
 **** Fit      -0.016069
 **** Fit      -0.009073
 **** Fit      -0.007418
 **** Fit      -0.002463
 **** Fit      -0.003065
 **** Fit      -0.003765
 **** Fit      -0.004558
 **** Fit      -0.012129
 **** Fit      -0.013142
 **** Fit      -0.013431
 **** Fit      -0.008839
 **** Fit      -0.007363
 **** Fit      -0.005711
 **** Fit      -0.003200
 **** Fit      -0.003450
 **** Fit      -0.004027
 **** Fit      -0.004829
 **** Fit      -0.005887
 **** Fit      -0.007254
 **** Fit      -0.008812
 **** Fit      -0.010209
 **** Fit      -0.011078
 **** Fit      -0.011276
 **** Fit      -0.008393
 **** Fit      -0.007069
 **** Fit      -0.005613
 **** Fit      -0.004309
 **** Fit      -0.003457
 **** Fit      -0.004292
 **** Fit      -0.004544
 **** Fit      -0.005328
 **** Fit      -0.006520
 **** Fit      -0.007929
 **** Fit      -0.009079
 **** Fit      -0.009516
 **** Fit      -0.009215
 **** Fit      -0.008402
 **** Fit      -0.007219
 **** Fit      -0.005858
 **** Fit      -0.004747
 **** Fit      -0.005420
 **** Fit      -0.005925
 **** Fit      -0.007210
 **** Fit      -0.007986
 **** Fit      -0.007462
 **** Fit      -0.006191
 **** Fit      -0.006635
 **** Fit      -0.044105
 **** Fit      -0.037983
 **** Fit      -0.043984
 **** Fit      -0.041256
 **** Fit      -0.036826
 **** Fit      -0.031418
 **** Fit      -0.038162
 **** Fit      -0.036968
 **** Fit      -0.037065
 **** Fit      -0.037927
 **** Fit      -0.038778
 **** Fit      -0.038807
 **** Fit      -0.037505
 **** Fit      -0.034830
 **** Fit      -0.031100
 **** Fit      -0.026739
 **** Fit      -0.022093
 **** Fit      -0.036002
 **** Fit      -0.033931
 **** Fit      -0.032805
 **** Fit      -0.032548
 **** Fit      -0.032868
 **** Fit      -0.033293
 **** Fit      -0.033284
 **** Fit      -0.032418
 **** Fit      -0.030544
 **** Fit      -0.027781
 **** Fit      -0.024395
 **** Fit      -0.020654
 **** Fit      -0.031569
 **** Fit      -0.030218
 **** Fit      -0.029096
 **** Fit      -0.028461
 **** Fit      -0.028305
 **** Fit      -0.028420
 **** Fit      -0.028461
 **** Fit      -0.028063
 **** Fit      -0.026973
 **** Fit      -0.025131
 **** Fit      -0.022648
 **** Fit      -0.019717
 **** Fit      -0.016517
 **** Fit      -0.025804
 **** Fit      -0.025382
 **** Fit      -0.024892
 **** Fit      -0.024571
 **** Fit      -0.024449
 **** Fit      -0.024392
 **** Fit      -0.024167
 **** Fit      -0.023542
 **** Fit      -0.022371
 **** Fit      -0.020643
 **** Fit      -0.018451
 **** Fit      -0.015929
 **** Fit      -0.013187
 **** Fit      -0.021149
 **** Fit      -0.021373
 **** Fit      -0.021299
 **** Fit      -0.021173
 **** Fit      -0.021052
 **** Fit      -0.020835
 **** Fit      -0.020343
 **** Fit      -0.019418
 **** Fit      -0.018000
 **** Fit      -0.016135
 **** Fit      -0.013930
 **** Fit      -0.011485
 **** Fit      -0.017253
 **** Fit      -0.017972
 **** Fit      -0.018226
 **** Fit      -0.018244
 **** Fit      -0.018098
 **** Fit      -0.017722
 **** Fit      -0.016990
 **** Fit      -0.015820
 **** Fit      -0.014223
 **** Fit      -0.012283
 **** Fit      -0.010105
 **** Fit      -0.014499
 **** Fit      -0.015366
 **** Fit      -0.015698
 **** Fit      -0.015652
 **** Fit      -0.015245
 **** Fit      -0.014406
 **** Fit      -0.013097
 **** Fit      -0.011384
 **** Fit      -0.012852
 **** Fit      -0.013476
 **** Fit      -0.013366
 **** Fit      -0.012569
 **** Fit      -0.011130
 **** Fit      -0.009269
 **** Fit      -0.011504
 **** Fit      -0.011032
 **** Fit      -0.009350
 **** Fit      -0.009555
 **** Fit      -0.012235
 **** Fit      -0.016113
 **** Fit      -0.006246
 **** Fit      -0.007893
 **** Fit      -0.009892
 **** Fit      -0.012622
 **** Fit      -0.016550
 **** Fit      -0.005282
 **** Fit      -0.006586
 **** Fit      -0.008092
 **** Fit      -0.010047
 **** Fit      -0.012727
 **** Fit      -0.016461
 **** Fit      -0.004676
 **** Fit      -0.005748
 **** Fit      -0.006967
 **** Fit      -0.008510
 **** Fit      -0.010566
 **** Fit      -0.013338
 **** Fit      -0.017047
 **** Fit      -0.021906
 **** Fit      -0.003495
 **** Fit      -0.004436
 **** Fit      -0.005388
 **** Fit      -0.006503
 **** Fit      -0.007929
 **** Fit      -0.009818
 **** Fit      -0.012321
 **** Fit      -0.015577
 **** Fit      -0.019685
 **** Fit      -0.024649
 **** Fit      -0.003556
 **** Fit      -0.004400
 **** Fit      -0.005303
 **** Fit      -0.006405
 **** Fit      -0.007836
 **** Fit      -0.009721
 **** Fit      -0.012163
 **** Fit      -0.015228
 **** Fit      -0.018898
 **** Fit      -0.023025
 **** Fit      -0.027268
 **** Fit      -0.003698
 **** Fit      -0.004479
 **** Fit      -0.005362
 **** Fit      -0.006466
 **** Fit      -0.007899
 **** Fit      -0.009747
 **** Fit      -0.012058
 **** Fit      -0.014813
 **** Fit      -0.017892
 **** Fit      -0.021040
 **** Fit      -0.023865
 **** Fit      -0.025885
 **** Fit      -0.003337
 **** Fit      -0.004107
 **** Fit      -0.004934
 **** Fit      -0.005947
 **** Fit      -0.007258
 **** Fit      -0.008944
 **** Fit      -0.011025
 **** Fit      -0.013433
 **** Fit      -0.015979
 **** Fit      -0.018343
 **** Fit      -0.020110
 **** Fit      -0.003896
 **** Fit      -0.004685
 **** Fit      -0.005625
 **** Fit      -0.006830
 **** Fit      -0.008366
 **** Fit      -0.010222
 **** Fit      -0.012274
 **** Fit      -0.014261
 **** Fit      -0.015815
 **** Fit      -0.016546
 **** Fit      -0.004696
 **** Fit      -0.005638
 **** Fit      -0.006854
 **** Fit      -0.008380
 **** Fit      -0.010114
 **** Fit      -0.011777
 **** Fit      -0.012949
 **** Fit      -0.004931
 **** Fit      -0.005945
 **** Fit      -0.007316
 **** Fit      -0.008906
 **** Fit      -0.010230
 **** Fit      -0.006349
 **** Fit      -0.007846
 **** Fit       0.006325
 **** Fit       0.005633
 **** Fit       0.004709
 **** Fit       0.004274
 **** Fit       0.005685
 **** Fit       0.006507
 **** Fit       0.006832
 **** Fit       0.006746
 **** Fit       0.003964
 **** Fit       0.003486
 **** Fit       0.002798
 **** Fit       0.001930
 **** Fit      -0.003045
 **** Fit      -0.000542
 **** Fit       0.001385
 **** Fit       0.002766
 **** Fit       0.003652
 **** Fit       0.004105
 **** Fit       0.004189
 **** Fit       0.002562
 **** Fit       0.002233
 **** Fit       0.001713
 **** Fit       0.001039
 **** Fit      -0.006572
 **** Fit      -0.003990
 **** Fit      -0.001835
 **** Fit      -0.000131
 **** Fit       0.001134
 **** Fit       0.001993
 **** Fit       0.002487
 **** Fit       0.002661
 **** Fit       0.001681
 **** Fit       0.001450
 **** Fit       0.001040
 **** Fit       0.000484
 **** Fit      -0.000184
 **** Fit      -0.006824
 **** Fit      -0.004569
 **** Fit      -0.002647
 **** Fit      -0.001091
 **** Fit       0.000099
 **** Fit       0.000941
 **** Fit       0.001462
 **** Fit       0.001697
 **** Fit       0.001067
 **** Fit       0.000897
 **** Fit       0.000546
 **** Fit       0.000047
 **** Fit      -0.000560
 **** Fit      -0.007490
 **** Fit      -0.005379
 **** Fit      -0.003520
 **** Fit      -0.001971
 **** Fit      -0.000753
 **** Fit       0.000138
 **** Fit       0.000720
 **** Fit       0.001019
 **** Fit       0.000571
 **** Fit       0.000447
 **** Fit       0.000134
 **** Fit      -0.000330
 **** Fit      -0.000900
 **** Fit      -0.008091
 **** Fit      -0.006139
 **** Fit      -0.004331
 **** Fit      -0.002769
 **** Fit      -0.001501
 **** Fit      -0.000545
 **** Fit       0.000105
 **** Fit       0.000468
 **** Fit       0.000104
 **** Fit       0.000023
 **** Fit      -0.000251
 **** Fit      -0.000675
 **** Fit      -0.001196
 **** Fit      -0.008191
 **** Fit      -0.006527
 **** Fit      -0.004875
 **** Fit      -0.003379
 **** Fit      -0.002122
 **** Fit      -0.001143
 **** Fit      -0.000454
 **** Fit      -0.000045
 **** Fit      -0.000387
 **** Fit      -0.000438
 **** Fit      -0.000703
 **** Fit      -0.001126
 **** Fit      -0.007270
 **** Fit      -0.005803
 **** Fit      -0.004319
 **** Fit      -0.002982
 **** Fit      -0.001890
 **** Fit      -0.001091
 **** Fit      -0.000594
 **** Fit      -0.000927
 **** Fit      -0.000948
 **** Fit      -0.001202
 **** Fit      -0.001617
 **** Fit      -0.006367
 **** Fit      -0.005104
 **** Fit      -0.003807
 **** Fit      -0.002660
 **** Fit      -0.001771
 **** Fit      -0.001192
 **** Fit      -0.001528
 **** Fit      -0.001527
 **** Fit      -0.001798
 **** Fit      -0.004731
 **** Fit      -0.003578
 **** Fit      -0.002574
 **** Fit      -0.001871
 **** Fit      -0.002185
 **** Fit      -0.002190
 **** Fit      -0.004613
 **** Fit      -0.003570
 **** Fit      -0.002664
 **** Fit      -0.002889
 **** Fit      -0.003584
 **** Fit      -0.005652
 **** Fit      -0.003764
 **** Fit      -0.002877
 **** Fit      -0.005916
 **** Fit      -0.003258
 **** Fit      -0.001460
 **** Fit      -0.000519
 **** Fit      -0.000338
 **** Fit      -0.007994
 **** Fit      -0.004319
 **** Fit      -0.001514
 **** Fit       0.000435
 **** Fit       0.001600
 **** Fit       0.002097
 **** Fit       0.002093
 **** Fit       0.004223
 **** Fit       0.003992
 **** Fit      -0.010626
 **** Fit      -0.006139
 **** Fit      -0.002535
 **** Fit       0.000212
 **** Fit       0.002174
 **** Fit       0.003440
 **** Fit       0.004115
 **** Fit       0.004324
 **** Fit       0.006027
 **** Fit       0.005723
 **** Fit       0.005236
 **** Fit      -0.014522
 **** Fit      -0.009207
 **** Fit      -0.004775
 **** Fit      -0.001214
 **** Fit       0.001536
 **** Fit       0.003554
 **** Fit       0.004922
 **** Fit       0.005727
 **** Fit       0.006062
 **** Fit       0.007453
 **** Fit       0.007057
 **** Fit      -0.009424
 **** Fit      -0.004718
 **** Fit      -0.000880
 **** Fit       0.002141
 **** Fit       0.004413
 **** Fit       0.006008
 **** Fit       0.006998
 **** Fit       0.007456
 **** Fit       0.008750
 **** Fit      -0.001054
 **** Fit       0.002344
 **** Fit       0.004974
 **** Fit       0.006881
 **** Fit       0.008114
 **** Fit       0.008721
 **** Fit       0.006889
 **** Fit       0.006988
 **** Fit       0.010440
 **** Fit       0.012238
 **** Fit       0.011405
 **** Fit       0.007776
 **** Fit       0.016145
 **** Fit       0.012382
 **** Fit       0.018865
 **** Fit       0.013018
 **** Fit       0.031430
 **** Fit       0.028734
 **** Fit       0.024475
 **** Fit       0.018261
 **** Fit       0.031580
 **** Fit       0.027714
 **** Fit       0.022317
 **** Fit       0.024913
 **** Fit       0.019244
 **** Fit       0.015479
 **** Fit       0.032054
 **** Fit       0.027174
 **** Fit       0.033787
 **** Fit       0.029370
 **** Fit       0.021176
 **** Fit       0.021272
 **** Fit       0.032358
 **** Fit       0.026969
 **** Fit       0.023219
 **** Fit       0.015231
 **** Fit       0.014615
 **** Fit       0.031109
 **** Fit       0.024877
 **** Fit       0.020222
 **** Fit       0.017084
 **** Fit       0.010158
 **** Fit       0.009366
 **** Fit       0.029841
 **** Fit       0.023039
 **** Fit       0.017708
 **** Fit       0.013943
 **** Fit       0.011560
 **** Fit       0.006415
 **** Fit       0.022591
 **** Fit       0.016473
 **** Fit       0.011885
 **** Fit       0.008868
 **** Fit       0.007188
 **** Fit       0.018110
 **** Fit       0.012299
 **** Fit       0.015082
 **** Fit       0.021600
 **** Fit       0.024927
 **** Fit       0.020249
 **** Fit       0.027665
 **** Fit       0.024158
 **** Fit       0.020530
 **** Fit       0.027064
 **** Fit       0.027282
 **** Fit       0.026226
 **** Fit       0.024198
 **** Fit       0.021566
 **** Fit       0.018812
 **** Fit      -0.004990
 **** Fit       0.017218
 **** Fit       0.021397
 **** Fit       0.022946
 **** Fit       0.022809
 **** Fit       0.021551
 **** Fit       0.019672
 **** Fit       0.017714
 **** Fit       0.016222
 **** Fit       0.003701
 **** Fit      -0.001969
 **** Fit       0.014025
 **** Fit       0.018171
 **** Fit       0.019649
 **** Fit       0.019406
 **** Fit       0.018227
 **** Fit       0.016831
 **** Fit       0.015740
 **** Fit       0.013471
 **** Fit       0.010318
 **** Fit       0.005525
 **** Fit       0.000333
 **** Fit       0.009682
 **** Fit       0.014842
 **** Fit       0.016729
 **** Fit       0.016465
 **** Fit       0.015249
 **** Fit       0.011818
 **** Fit       0.007485
 **** Fit       0.003903
 **** Fit       0.006474
 **** Fit       0.012024
 **** Fit       0.013699
 **** Fit       0.009612
 **** Fit       0.043021
 **** Fit       0.037499
 **** Fit       0.032035
 **** Fit       0.044434
 **** Fit       0.040089
 **** Fit       0.035435
 **** Fit       0.030545
 **** Fit       0.025709
 **** Fit       0.039208
 **** Fit       0.036390
 **** Fit       0.033023
 **** Fit       0.029129
 **** Fit       0.024983
 **** Fit       0.020972
 **** Fit       0.033027
 **** Fit       0.032217
 **** Fit       0.030583
 **** Fit       0.028093
 **** Fit       0.024982
 **** Fit       0.021645
 **** Fit       0.018539
 **** Fit       0.026215
 **** Fit       0.027147
 **** Fit       0.026844
 **** Fit       0.025400
 **** Fit       0.023171
 **** Fit       0.020652
 **** Fit       0.018409
 **** Fit       0.023022
 **** Fit       0.024143
 **** Fit       0.023918
 **** Fit       0.022719
 **** Fit       0.021109
 **** Fit       0.019750
 **** Fit       0.020613
 **** Fit       0.022438
 **** Fit       0.023179
 **** Fit       0.022976
 **** Fit       0.022329
 **** Fit       0.021906
 **** Fit       0.021594
 **** Fit       0.022935
 **** Fit       0.023708
 **** Fit       0.023983
 **** Fit       0.024350
 **** Fit       0.023857
 **** Fit       0.024640
 **** Fit       0.025507
 **** Fit       0.026552
 **** Fit       0.026455
 **** Fit       0.026851
 **** Fit       0.028076
 **** Fit       0.029028
 -----------------------------------------------------------------
 Leave Link  602 at Tue Sep 17 23:56:15 2019, MaxMem=  1342177280 cpu:             117.1 elap:               2.5

 Test job not archived.
 1\1\GINC-C501-104\SP\RB3LYP\SVP\C54H83Ca1N15O23\PENGZHI\17-Sep-2019\0\
 \#b3lyp/svp scf=(tight,noincore) Test #IOP(5/87=12) Density=Current Po
 p=(MK,readradii) iop(6/33=2) iop(6/42=6)\\Ng-295_loop3_16.0\\0,1\C,0,1
 3.39,77.82,34.08\C,0,14.32,76.63,33.95\O,0,14.81,76.04,34.92\H,0,12.45
 9,77.503,34.551\H,0,13.864,78.587,34.692\H,0,13.176,78.225,33.091\N,0,
 14.73,76.38,32.71\C,0,15.8,75.46,32.34\C,0,17.18,76.08,32.46\O,0,17.46
 ,77.18,31.98\C,0,15.53,74.88,30.96\C,0,16.48,73.78,30.5\O,0,17.71,73.9
 7,30.46\O,0,15.99,72.68,30.16\H,0,14.25,76.88,31.98\H,0,15.76,74.56,32
 .95\H,0,15.6,75.74,30.3\H,0,14.52,74.46,30.95\N,0,18.05,75.47,33.27\C,
 0,19.32,76.09,33.56\C,0,20.22,76.22,32.34\O,0,21.19,76.95,32.5\C,0,19.
 99,75.32,34.7\C,0,20.35,73.87,34.42\C,0,21.11,73.11,35.5\C,0,22.37,73.
 85,35.92\N,0,23.22,73.02,36.79\H,0,17.7,74.62,33.7\H,0,19.07,77.07,33.
 94\H,0,19.39,75.39,35.61\H,0,20.92,75.85,34.9\H,0,20.97,73.85,33.52\H,
 0,19.38,73.38,34.3\H,0,21.42,72.14,35.1\H,0,20.54,73.,36.43\H,0,21.98,
 74.69,36.5\H,0,22.86,74.14,34.99\H,0,23.54,72.14,36.43\H,0,24.01,73.59
 ,37.06\H,0,22.73,72.72,37.62\N,0,20.07,75.51,31.22\C,0,20.97,75.62,30.
 09\C,0,20.38,75.74,28.69\O,0,21.06,75.8,27.67\C,0,21.85,74.37,30.14\C,
 0,21.,73.11,30.12\O,0,20.44,72.74,29.07\O,0,20.79,72.4,31.13\H,0,19.21
 ,75.02,31.\H,0,21.7,76.41,30.27\H,0,22.48,74.37,31.04\H,0,22.58,74.41,
 29.34\N,0,19.05,75.79,28.62\C,0,18.25,75.96,27.42\C,0,18.12,74.77,26.4
 9\O,0,17.37,74.83,25.51\H,0,18.59,75.59,29.49\H,0,18.59,76.86,26.9\H,0
 ,17.26,76.14,27.84\N,0,18.9,73.72,26.72\C,0,18.68,72.46,26.03\C,0,17.6
 1,71.68,26.77\O,0,17.72,71.59,27.99\C,0,20.02,71.73,26.01\C,0,19.95,70
 .67,24.92\N,0,19.98,71.04,23.64\O,0,19.93,69.49,25.26\H,0,19.43,73.7,2
 7.58\H,0,18.28,72.58,25.02\H,0,20.09,71.2,26.96\H,0,20.85,72.41,25.8\H
 ,0,20.,72.03,23.46\H,0,19.92,70.3,22.95\N,0,16.61,71.13,26.09\C,0,15.4
 9,70.46,26.73\C,0,15.92,69.19,27.45\O,0,15.18,68.7,28.31\H,0,16.57,71.
 21,25.08\H,0,14.65,70.4,26.03\H,0,15.19,71.12,27.54\N,0,17.1,68.64,27.
 2\C,0,17.63,67.53,27.96\C,0,17.59,67.63,29.48\O,0,17.8,68.69,30.05\C,0
 ,19.09,67.35,27.54\C,0,19.74,66.07,28.\C,0,20.84,66.19,28.86\C,0,19.44
 ,64.86,27.36\C,0,21.44,65.02,29.33\C,0,20.03,63.69,27.85\C,0,21.02,63.
 76,28.85\O,0,21.56,62.67,29.45\H,0,17.7,69.13,26.54\H,0,17.09,66.65,27
 .61\H,0,19.67,68.23,27.83\H,0,19.07,67.18,26.47\H,0,21.16,67.17,29.17\
 H,0,18.67,64.83,26.6\H,0,22.09,65.12,30.19\H,0,19.66,62.74,27.5\H,0,21
 .34,61.86,28.99\N,0,17.41,66.47,30.12\C,0,17.51,66.26,31.55\C,0,18.95,
 66.26,32.04\O,0,19.71,67.21,31.85\C,0,16.5,67.01,32.41\C,0,16.55,66.58
 ,33.87\C,0,15.08,66.92,31.87\C,0,15.62,67.33,34.82\H,0,17.46,65.62,29.
 58\H,0,17.24,65.2,31.65\H,0,16.75,68.07,32.31\H,0,17.58,66.76,34.2\H,0
 ,16.35,65.53,34.11\H,0,15.14,67.34,30.87\H,0,14.77,65.88,31.78\H,0,14.
 51,67.61,32.49\H,0,15.75,68.41,34.82\H,0,14.62,67.1,34.47\H,0,15.73,67
 .05,35.87\N,0,19.33,65.23,32.8\C,0,20.59,65.03,33.48\C,0,21.05,63.66,3
 3.95\O,0,22.27,63.57,34.09\C,0,20.6,65.93,34.72\O,0,19.67,65.4,35.64\H
 ,0,18.69,64.45,32.83\H,0,21.35,65.38,32.78\H,0,20.55,67.,34.55\H,0,21.
 56,65.78,35.21\H,0,19.49,66.1,36.27\N,0,20.15,62.7,34.18\C,0,20.31,61.
 34,34.65\C,0,21.47,61.19,35.62\O,0,22.56,60.72,35.28\C,0,20.47,60.36,3
 3.49\H,0,19.2,62.85,33.87\H,0,19.35,61.09,35.1\H,0,20.39,59.3,33.71\H,
 0,19.72,60.62,32.74\H,0,21.41,60.61,32.98\N,0,21.12,61.33,36.9\C,0,19.
 95,62.01,37.43\C,0,18.82,61.1,37.87\O,0,18.99,60.,38.4\C,0,20.43,62.78
 ,38.66\H,0,21.7,60.88,37.59\H,0,19.55,62.77,36.76\H,0,21.02,62.06,39.2
 2\H,0,21.05,63.63,38.35\H,0,19.61,63.14,39.28\N,0,17.56,61.46,37.61\C,
 0,16.95,62.66,37.08\C,0,15.51,62.28,36.76\O,0,15.02,62.6,35.68\C,0,16.
 97,63.8,38.09\C,0,16.11,64.96,37.58\C,0,16.23,66.16,38.5\O,0,17.21,66.
 93,38.36\O,0,15.42,66.31,39.45\H,0,16.98,60.73,37.99\H,0,17.51,63.03,3
 6.23\H,0,17.98,64.18,38.26\H,0,16.57,63.45,39.04\H,0,15.05,64.72,37.51
 \H,0,16.52,65.29,36.63\N,0,14.8,61.55,37.62\C,0,13.39,61.33,37.37\H,0,
 12.852,62.272,37.476\H,0,13.255,60.947,36.359\H,0,13.002,60.607,38.088
 \H,0,15.24,61.18,38.45\Ca,0,18.58,71.37,30.42\O,0,17.06,71.58,32.66\H,
 0,16.23,71.13,32.5\H,0,16.86,72.2,33.36\\Version=ES64L-G16RevA.03\Stat
 e=1-A\HF=-5333.4524289\RMSD=8.435e-10\Dipole=4.130392,4.6141266,-3.293
 302\Quadrupole=29.5722031,-36.9598279,7.3876248,48.6986685,90.4739592,
 117.4557929\PG=C01 [X(C54H83Ca1N15O23)]\\@


      SCIENCE SANS CONSCIENCE N'EST QUE RUINE DE L'AME.

                                                  -- RABELAIS
 Job cpu time:       0 days 13 hours 30 minutes 26.2 seconds.
 Elapsed time:       0 days  0 hours 17 minutes  5.5 seconds.
 File lengths (MBytes):  RWF=   1517 Int=      0 D2E=      0 Chk=    171 Scr=      1
 Normal termination of Gaussian 16 at Tue Sep 17 23:56:17 2019.
