 Entering Gaussian System, Link 0=g16
 Initial command:
 /home1/apps/gaussian/16rA.03/g16/l1.exe "/scratch/01990/pengzhi/4342294/Gau-149369.inp" -scrdir="/scratch/01990/pengzhi/4342294/"
 Entering Link 1 = /home1/apps/gaussian/16rA.03/g16/l1.exe PID=    149370.
  
 Copyright (c) 1988,1990,1992,1993,1995,1998,2003,2009,2016,
            Gaussian, Inc.  All Rights Reserved.
  
 This is part of the Gaussian(R) 16 program.  It is based on
 the Gaussian(R) 09 system (copyright 2009, Gaussian, Inc.),
 the Gaussian(R) 03 system (copyright 2003, Gaussian, Inc.),
 the Gaussian(R) 98 system (copyright 1998, Gaussian, Inc.),
 the Gaussian(R) 94 system (copyright 1995, Gaussian, Inc.),
 the Gaussian 92(TM) system (copyright 1992, Gaussian, Inc.),
 the Gaussian 90(TM) system (copyright 1990, Gaussian, Inc.),
 the Gaussian 88(TM) system (copyright 1988, Gaussian, Inc.),
 the Gaussian 86(TM) system (copyright 1986, Carnegie Mellon
 University), and the Gaussian 82(TM) system (copyright 1983,
 Carnegie Mellon University). Gaussian is a federally registered
 trademark of Gaussian, Inc.
  
 This software contains proprietary and confidential information,
 including trade secrets, belonging to Gaussian, Inc.
  
 This software is provided under written license and may be
 used, copied, transmitted, or stored only in accord with that
 written license.
  
 The following legend is applicable only to US Government
 contracts under FAR:
  
                    RESTRICTED RIGHTS LEGEND
  
 Use, reproduction and disclosure by the US Government is
 subject to restrictions as set forth in subparagraphs (a)
 and (c) of the Commercial Computer Software - Restricted
 Rights clause in FAR 52.227-19.
  
 Gaussian, Inc.
 340 Quinnipiac St., Bldg. 40, Wallingford CT 06492
  
  
 ---------------------------------------------------------------
 Warning -- This program may not be used in any manner that
 competes with the business of Gaussian, Inc. or will provide
 assistance to any competitor of Gaussian, Inc.  The licensee
 of this program is prohibited from giving any competitor of
 Gaussian, Inc. access to this program.  By using this program,
 the user acknowledges that Gaussian, Inc. is engaged in the
 business of creating and licensing software in the field of
 computational chemistry and represents and warrants to the
 licensee that it is not a competitor of Gaussian, Inc. and that
 it will not use this program in any manner prohibited above.
 ---------------------------------------------------------------
  

 Cite this work as:
 Gaussian 16, Revision A.03,
 M. J. Frisch, G. W. Trucks, H. B. Schlegel, G. E. Scuseria, 
 M. A. Robb, J. R. Cheeseman, G. Scalmani, V. Barone, 
 G. A. Petersson, H. Nakatsuji, X. Li, M. Caricato, A. V. Marenich, 
 J. Bloino, B. G. Janesko, R. Gomperts, B. Mennucci, H. P. Hratchian, 
 J. V. Ortiz, A. F. Izmaylov, J. L. Sonnenberg, D. Williams-Young, 
 F. Ding, F. Lipparini, F. Egidi, J. Goings, B. Peng, A. Petrone, 
 T. Henderson, D. Ranasinghe, V. G. Zakrzewski, J. Gao, N. Rega, 
 G. Zheng, W. Liang, M. Hada, M. Ehara, K. Toyota, R. Fukuda, 
 J. Hasegawa, M. Ishida, T. Nakajima, Y. Honda, O. Kitao, H. Nakai, 
 T. Vreven, K. Throssell, J. A. Montgomery, Jr., J. E. Peralta, 
 F. Ogliaro, M. J. Bearpark, J. J. Heyd, E. N. Brothers, K. N. Kudin, 
 V. N. Staroverov, T. A. Keith, R. Kobayashi, J. Normand, 
 K. Raghavachari, A. P. Rendell, J. C. Burant, S. S. Iyengar, 
 J. Tomasi, M. Cossi, J. M. Millam, M. Klene, C. Adamo, R. Cammi, 
 J. W. Ochterski, R. L. Martin, K. Morokuma, O. Farkas, 
 J. B. Foresman, and D. J. Fox, Gaussian, Inc., Wallingford CT, 2016.
 
 ******************************************
 Gaussian 16:  ES64L-G16RevA.03 25-Dec-2016
                17-Sep-2019 
 ******************************************
 %chk=Ng-293_loop3_27.0.chk
 %nprocshared=48
 Will use up to   48 processors via shared memory.
 %mem=10GB
 %nosave
 ----------------------------------------------------------------------
 #b3lyp/svp scf=(tight,noincore) Test #IOP(5/87=12) Density=Current Pop
 =(MK,readradii) iop(6/33=2) iop(6/42=6)
 ----------------------------------------------------------------------
 1/30=1,38=1,172=1/1;
 2/12=2,17=6,18=5,40=1/2;
 3/5=18,7=101,11=2,25=1,30=1,74=-5/1,2,3;
 4//1;
 5/5=4,32=2,38=5,87=12/2;
 6/7=2,8=2,9=2,10=2,15=8,20=101,22=-1,28=1,33=2,42=6/1,2;
 99/5=1,9=1/99;
 -----------------
 Ng-293_loop3_27.0
 -----------------
 Symbolic Z-matrix:
 Charge =  0 Multiplicity = 1
 C                     40.4      77.68     70.71 
 C                     40.73     77.72     69.22 
 O                     41.7      78.38     68.84 
 H                     39.36     77.382    70.843 
 H                     41.05     76.961    71.208 
 H                     40.552    78.669    71.143 
 N                     40.       77.04     68.35 
 C                     40.28     77.01     66.93 
 C                     40.04     75.6      66.39 
 O                     39.42     74.79     67.07 
 C                     39.44     78.09     66.26 
 C                     39.65     78.23     64.76 
 O                     40.81     78.08     64.32 
 O                     38.69     78.6      64.04 
 H                     39.27     76.48     68.77 
 H                     41.35     77.21     66.83 
 H                     39.57     79.07     66.71 
 H                     38.39     77.81     66.38 
 N                     40.55     75.35     65.19 
 C                     40.39     74.1      64.46 
 C                     39.02     73.82     63.87 
 O                     38.14     74.66     64.07 
 C                     41.01     72.96     65.25 
 C                     42.44     73.21     65.71 
 C                     43.42     73.43     64.56 
 C                     44.83     73.04     65.02 
 N                     45.37     74.1      65.88 
 H                     41.04     76.1      64.74 
 H                     40.91     74.28     63.51 
 H                     40.99     72.1      64.58 
 H                     40.33     72.7      66.06 
 H                     42.74     72.26     66.17 
 H                     42.62     74.       66.43 
 H                     43.36     74.4      64.07 
 H                     43.1      72.77     63.75 
 H                     45.43     73.07     64.11 
 H                     44.78     72.05     65.47 
 H                     44.99     74.15     66.81 
 H                     46.35     73.88     66.01 
 H                     45.3      75.04     65.51 
 N                     38.85     72.68     63.21 
 C                     37.62     72.18     62.63 
 C                     36.85     71.48     63.74 
 O                     36.59     70.29     63.86 
 C                     37.82     71.44     61.31 
 C                     38.93     70.39     61.3 
 O                     39.4      69.87     62.33 
 O                     39.32     69.88     60.23 
 H                     39.66     72.11     63.01 
 H                     36.91     72.99     62.42 
 H                     38.02     72.21     60.57 
 H                     36.91     70.98     60.91 
 N                     36.45     72.31     64.7 
 C                     35.53     72.01     65.78 
 C                     34.05     71.9      65.44 
 O                     33.18     72.35     66.18 
 H                     36.79     73.27     64.7 
 H                     35.72     72.73     66.57 
 H                     35.75     71.02     66.17 
 N                     33.75     71.4      64.24 
 C                     32.39     71.14     63.8 
 C                     32.12     69.68     63.48 
 O                     33.02     68.92     63.13 
 C                     32.01     72.       62.6 
 C                     31.78     73.48     62.88 
 N                     32.33     74.39     62.07 
 O                     31.13     73.86     63.85 
 H                     34.45     71.14     63.56 
 H                     31.78     71.38     64.67 
 H                     31.05     71.65     62.22 
 H                     32.72     71.86     61.78 
 H                     32.89     74.15     61.26 
 H                     32.23     75.34     62.4 
 N                     30.84     69.32     63.66 
 C                     30.37     67.96     63.79 
 C                     30.55     67.37     65.18 
 O                     31.14     68.07     66. 
 H                     30.22     70.04     64. 
 H                     30.97     67.4      63.07 
 H                     29.32     67.78     63.54 
 N                     29.96     66.22     65.52 
 C                     29.81     65.39     66.69 
 C                     31.1      65.01     67.42 
 O                     31.06     64.16     68.29 
 C                     28.78     65.97     67.65 
 C                     28.18     64.95     68.6 
 C                     28.48     65.04     69.96 
 C                     27.29     63.95     68.19 
 C                     27.9      64.11     70.84 
 C                     26.82     62.95     69.05 
 C                     27.07     63.06     70.43 
 O                     26.75     62.07     71.31 
 H                     29.54     65.76     64.73 
 H                     29.34     64.48     66.31 
 H                     27.88     66.22     67.08 
 H                     29.23     66.82     68.15 
 H                     29.15     65.8      70.31 
 H                     26.99     63.88     67.15 
 H                     28.27     64.34     71.83 
 H                     26.2      62.12     68.74 
 H                     26.35     61.33     70.84 
 N                     32.23     65.66     67.12 
 C                     33.6      65.42     67.51 
 C                     34.11     64.02     67.17 
 O                     35.04     63.84     66.38 
 C                     33.92     65.87     68.93 
 C                     33.61     67.35     69.2 
 C                     35.37     65.58     69.27 
 C                     33.93     68.47     68.21 
 H                     32.1      66.45     66.51 
 H                     34.2      66.05     66.85 
 H                     33.34     65.29     69.65 
 H                     33.99     67.61     70.19 
 H                     32.54     67.42     69.37 
 H                     35.66     64.53     69.27 
 H                     35.95     66.2      68.58 
 H                     35.43     65.96     70.29 
 H                     33.39     68.23     67.3 
 H                     33.72     69.49     68.54 
 H                     34.98     68.47     67.92 
 N                     33.44     62.97     67.64 
 C                     33.94     61.62     67.46 
 C                     35.36     61.27     67.9 
 O                     36.02     60.42     67.3 
 C                     32.93     60.67     68.08 
 O                     32.84     61.02     69.45 
 H                     32.7      63.09     68.31 
 H                     33.92     61.52     66.37 
 H                     33.15     59.62     67.92 
 H                     31.92     60.86     67.71 
 H                     31.99     60.75     69.79 
 N                     35.81     61.99     68.93 
 C                     37.09     61.79     69.57 
 C                     38.22     62.05     68.59 
 O                     39.24     61.36     68.6 
 C                     37.13     60.44     70.29 
 H                     35.21     62.68     69.35 
 H                     37.19     62.61     70.28 
 H                     38.05     60.6      70.84 
 H                     36.3      60.36     70.99 
 H                     37.2      59.65     69.53 
 N                     38.16     63.14     67.83 
 C                     39.03     63.61     66.77 
 C                     40.11     64.58     67.24 
 O                     39.85     65.73     67.61 
 C                     38.15     64.41     65.81 
 H                     37.36     63.74     67.94 
 H                     39.42     62.7      66.33 
 H                     37.63     65.22     66.31 
 H                     38.72     64.95     65.06 
 H                     37.46     63.75     65.28 
 N                     41.37     64.25     66.96 
 C                     42.46     65.2      66.87 
 C                     42.78     65.75     68.25 
 O                     43.44     66.79     68.29 
 C                     42.21     66.11     65.67 
 C                     41.91     65.39     64.35 
 C                     41.64     66.34     63.19 
 O                     42.41     66.39     62.21 
 O                     40.61     67.05     63.26 
 H                     41.57     63.32     66.62 
 H                     43.34     64.59     66.67 
 H                     43.07     66.76     65.54 
 H                     41.41     66.8      65.95 
 H                     41.09     64.69     64.51 
 H                     42.73     64.77     64. 
 N                     42.27     65.13     69.31 
 C                     42.22     65.65     70.67 
 H                     41.271    66.162    70.828 
 H                     42.31     64.826    71.378 
 H                     43.04     66.352    70.822 
 H                     41.79     64.26     69.15 
 Ca                    41.17     68.41     61.08 
 O                     39.42     66.58     60.64 
 H                     39.16     66.3      59.76 
 H                     39.32     65.8      61.18 
 
 Stoichiometry    C54H83CaN15O23
 Framework group  C1[X(C54H83CaN15O23)]
 Deg. of freedom   522
 Full point group                 C1      NOp   1
 Largest Abelian subgroup         C1      NOp   1
 Largest concise Abelian subgroup C1      NOp   1
                         Standard orientation:                         
 ---------------------------------------------------------------------
 Center     Atomic      Atomic             Coordinates (Angstroms)
 Number     Number       Type             X           Y           Z
 ---------------------------------------------------------------------
      1          6           0       -8.202587   -1.882928    6.935582
      2          6           0       -8.769541   -1.821537    5.519463
      3          8           0       -9.946968   -1.490848    5.360682
      4          1           0       -7.314260   -2.514520    6.943262
      5          1           0       -7.936842   -0.878947    7.265533
      6          1           0       -8.950805   -2.301355    7.609231
      7          7           0       -8.004571   -2.097990    4.475148
      8          6           0       -8.472041   -2.026194    3.106931
      9          6           0       -7.373735   -1.438971    2.220255
     10          8           0       -6.226750   -1.366843    2.647013
     11          6           0       -8.936367   -3.416812    2.692828
     12          6           0       -9.508947   -3.511518    1.286811
     13          8           0      -10.197982   -2.553669    0.875161
     14          8           0       -9.370673   -4.579467    0.640850
     15          1           0       -7.039992   -2.293191    4.708352
     16          1           0       -9.296451   -1.308387    3.107898
     17          1           0       -9.660538   -3.845310    3.379681
     18          1           0       -8.058620   -4.068625    2.692010
     19          7           0       -7.763519   -1.027274    1.019766
     20          6           0       -6.878564   -0.494597   -0.006932
     21          6           0       -5.966784   -1.484474   -0.708502
     22          8           0       -6.027652   -2.660463   -0.343339
     23          6           0       -6.207911    0.771489    0.498390
     24          6           0       -7.162578    1.811477    1.069386
     25          6           0       -8.184507    2.321490    0.056051
     26          6           0       -8.639331    3.727638    0.465543
     27          7           0       -9.580810    3.625312    1.587125
     28          1           0       -8.733985   -1.139483    0.794588
     29          1           0       -7.545688   -0.302012   -0.857318
     30          1           0       -5.691586    1.189568   -0.366202
     31          1           0       -5.414298    0.483107    1.186224
     32          1           0       -6.516942    2.671119    1.289091
     33          1           0       -7.711391    1.568069    1.971859
     34          1           0       -8.997821    1.636794   -0.176995
     35          1           0       -7.670091    2.365543   -0.907035
     36          1           0       -9.231681    4.077981   -0.380259
     37          1           0       -7.753036    4.332248    0.650011
     38          1           0       -9.178441    3.404155    2.482104
     39          1           0       -9.978646    4.549670    1.701099
     40          1           0      -10.338119    2.964810    1.462143
     41          7           0       -5.143790   -1.017097   -1.640349
     42          6           0       -4.147079   -1.763376   -2.381250
     43          6           0       -2.895857   -1.824973   -1.517740
     44          8           0       -1.804149   -1.306724   -1.711885
     45          6           0       -4.002384   -1.319393   -3.834502
     46          6           0       -3.878219    0.186972   -4.058437
     47          8           0       -3.534837    0.992385   -3.172097
     48          8           0       -3.967708    0.674056   -5.203793
     49          1           0       -5.246185   -0.057821   -1.940857
     50          1           0       -4.380773   -2.835154   -2.412535
     51          1           0       -4.877504   -1.708024   -4.347952
     52          1           0       -3.189767   -1.814298   -4.377111
     53          7           0       -3.068969   -2.524044   -0.398887
     54          6           0       -2.038287   -2.946989    0.529344
     55          6           0       -1.132883   -4.095999    0.107303
     56          8           0       -0.780789   -4.967257    0.897202
     57          1           0       -4.006889   -2.827300   -0.142877
     58          1           0       -2.524034   -3.132382    1.482381
     59          1           0       -1.329407   -2.135247    0.667773
     60          7           0       -0.840525   -4.177805   -1.191864
     61          6           0        0.083788   -5.153908   -1.742924
     62          6           0        1.288041   -4.534571   -2.430744
     63          8           0        1.241963   -3.408243   -2.919989
     64          6           0       -0.611669   -6.111008   -2.704330
     65          6           0       -1.536711   -7.143773   -2.072354
     66          7           0       -2.746744   -7.346544   -2.602828
     67          8           0       -1.212911   -7.771417   -1.067856
     68          1           0       -1.220687   -3.547747   -1.883604
     69          1           0        0.467432   -5.678096   -0.868485
     70          1           0        0.151983   -6.708878   -3.202211
     71          1           0       -1.120932   -5.561237   -3.500888
     72          1           0       -3.086504   -6.854921   -3.421467
     73          1           0       -3.335529   -7.953860   -2.049746
     74          7           0        2.379888   -5.314024   -2.403824
     75          6           0        3.730858   -4.859747   -2.640280
     76          6           0        4.384824   -4.199999   -1.436261
     77          8           0        3.678306   -4.052499   -0.441487
     78          1           0        2.284244   -6.195481   -1.921864
     79          1           0        3.630979   -4.134703   -3.450424
     80          1           0        4.448921   -5.615102   -2.973783
     81          7           0        5.695982   -3.941407   -1.422273
     82          6           0        6.683495   -3.426325   -0.505862
     83          6           0        6.354803   -2.089367    0.161899
     84          8           0        7.223105   -1.510616    0.788077
     85          6           0        7.083273   -4.476068    0.522299
     86          6           0        8.439065   -4.230718    1.158326
     87          6           0        8.495243   -3.885212    2.509315
     88          6           0        9.648787   -4.388600    0.471415
     89          6           0        9.754519   -3.686011    3.101127
     90          6           0       10.890128   -4.062699    1.031201
     91          6           0       10.965925   -3.766437    2.404330
     92          8           0       12.113115   -3.325111    2.992620
     93          1           0        6.123198   -4.093718   -2.320264
     94          1           0        7.576481   -3.301105   -1.122544
     95          1           0        7.310417   -5.407000   -0.006068
     96          1           0        6.275223   -4.567121    1.239073
     97          1           0        7.588403   -3.765749    3.068216
     98          1           0        9.649568   -4.708119   -0.565121
     99          1           0        9.578044   -3.412379    4.132574
    100          1           0       11.828988   -4.095962    0.495630
    101          1           0       12.813762   -3.256489    2.334680
    102          7           0        5.105934   -1.616268    0.085066
    103          6           0        4.545289   -0.339695    0.462739
    104          6           0        5.225883    0.860385   -0.194756
    105          8           0        4.620341    1.612158   -0.962582
    106          6           0        4.328531   -0.186100    1.962981
    107          6           0        3.449789   -1.283530    2.581738
    108          6           0        3.746150    1.177874    2.283306
    109          6           0        2.178715   -1.815492    1.919705
    110          1           0        4.445198   -2.263285   -0.312297
    111          1           0        3.552122   -0.317876    0.009260
    112          1           0        5.284994   -0.214783    2.487914
    113          1           0        3.244383   -1.019871    3.621157
    114          1           0        4.084243   -2.154209    2.716220
    115          1           0        4.370273    2.034756    2.032660
    116          1           0        2.765974    1.186236    1.797421
    117          1           0        3.650294    1.119538    3.367653
    118          1           0        2.484043   -2.208568    0.955565
    119          1           0        1.603352   -2.551877    2.485474
    120          1           0        1.475983   -1.016689    1.685866
    121          7           0        6.538725    1.011211   -0.033513
    122          6           0        7.223387    2.192472   -0.524187
    123          6           0        6.727499    3.580308   -0.123553
    124          8           0        6.839268    4.540292   -0.887778
    125          6           0        8.700232    2.031594   -0.207886
    126          8           0        8.797247    1.913622    1.200720
    127          1           0        7.047593    0.431797    0.611647
    128          1           0        7.065801    2.107114   -1.604178
    129          1           0        9.330742    2.813970   -0.616354
    130          1           0        9.084988    1.072896   -0.562796
    131          1           0        9.595620    1.440612    1.424021
    132          7           0        6.138094    3.629668    1.073095
    133          6           0        5.657999    4.840579    1.698558
    134          6           0        4.552901    5.465887    0.866303
    135          8           0        4.461870    6.688316    0.748062
    136          6           0        6.824920    5.763493    2.057756
    137          1           0        6.071222    2.791469    1.625771
    138          1           0        5.132625    4.514597    2.595340
    139          1           0        6.268689    6.463187    2.670567
    140          1           0        7.547591    5.235604    2.677740
    141          1           0        7.212970    6.200536    1.127697
    142          7           0        3.587224    4.677561    0.402288
    143          6           0        2.461857    4.961726   -0.466158
    144          6           0        1.173212    5.295391    0.279673
    145          8           0        0.538158    4.446471    0.914528
    146          6           0        2.169748    3.672137   -1.232730
    147          1           0        3.640383    3.697647    0.623740
    148          1           0        2.819325    5.762243   -1.102703
    149          1           0        1.980925    2.835268   -0.569031
    150          1           0        1.243067    3.713207   -1.797155
    151          1           0        2.971911    3.455779   -1.941478
    152          7           0        0.596749    6.458998   -0.017998
    153          6           0       -0.809073    6.746168    0.181750
    154          6           0       -1.111060    6.835330    1.668408
    155          8           0       -2.295144    6.742981    1.997372
    156          6           0       -1.621536    5.862378   -0.761340
    157          6           0       -1.188604    5.897673   -2.231757
    158          6           0       -2.010385    4.978877   -3.127016
    159          8           0       -2.736951    5.443880   -4.027945
    160          8           0       -1.910476    3.746055   -2.926841
    161          1           0        1.107341    7.132540   -0.571293
    162          1           0       -0.923474    7.784866   -0.125691
    163          1           0       -2.668172    6.141380   -0.685766
    164          1           0       -1.598604    4.848888   -0.352914
    165          1           0       -0.121376    5.683813   -2.289095
    166          1           0       -1.292811    6.876953   -2.689416
    167          7           0       -0.089890    6.926363    2.515182
    168          6           0       -0.148955    6.737469    3.958556
    169          1           0        0.072529    5.697541    4.197728
    170          1           0        0.584079    7.384655    4.440376
    171          1           0       -1.147313    6.987112    4.318094
    172          1           0        0.828321    7.045844    2.120831
    173         20           0       -3.778598    3.120239   -4.668699
    174          8           0       -1.421174    2.771839   -5.631076
    175          1           0       -1.248543    2.628375   -6.563822
    176          1           0       -0.644253    3.222086   -5.309095
 ---------------------------------------------------------------------
 Rotational constants (GHZ):           0.0174165           0.0094281           0.0075723
 Standard basis: SVP (5D, 7F)
 There are  1809 symmetry adapted cartesian basis functions of A   symmetry.
 There are  1717 symmetry adapted basis functions of A   symmetry.
  1717 basis functions,  2922 primitive gaussians,  1809 cartesian basis functions
   358 alpha electrons      358 beta electrons
       nuclear repulsion energy     18823.7404003229 Hartrees.
 NAtoms=  176 NActive=  176 NUniq=  176 SFac= 1.00D+00 NAtFMM=   60 NAOKFM=T Big=T
 Integral buffers will be    131072 words long.
 Raffenetti 2 integral format.
 Two-electron integral symmetry is turned on.
 One-electron integrals computed using PRISM.
 NBasis=  1717 RedAO= T EigKep=  2.92D-04  NBF=  1717
 NBsUse=  1717 1.00D-06 EigRej= -1.00D+00 NBFU=  1717
 ExpMin= 1.98D-02 ExpMax= 3.51D+04 ExpMxC= 5.28D+03 IAcc=3 IRadAn=         5 AccDes= 0.00D+00
 Harris functional with IExCor=  402 and IRadAn=       5 diagonalized for initial guess.
 HarFok:  IExCor=  402 AccDes= 0.00D+00 IRadAn=         5 IDoV= 1 UseB2=F ITyADJ=14
 ICtDFT=  3500011 ScaDFX=  1.000000  1.000000  1.000000  1.000000
 FoFCou: FMM=F IPFlag=           0 FMFlag=      100000 FMFlg1=        2001
         NFxFlg=           0 DoJE=T BraDBF=F KetDBF=T FulRan=T
         wScrn=  0.000000 ICntrl=       500 IOpCl=  0 I1Cent=   200000004 NGrid=           0
         NMat0=    1 NMatS0=      1 NMatT0=    0 NMatD0=    1 NMtDS0=    0 NMtDT0=    0
 Petite list used in FoFCou.
 Requested convergence on RMS density matrix=1.00D-08 within 128 cycles.
 Requested convergence on MAX density matrix=1.00D-06.
 Requested convergence on             energy=1.00D-06.
 No special actions if energy rises.
 EnCoef did     2 forward-backward iterations
 EnCoef did     3 forward-backward iterations
 EnCoef did     3 forward-backward iterations
 Rare condition: small coef for last iteration:  0.000D+00
 Restarting incremental Fock formation.
 SCF Done:  E(RB3LYP) =  -5333.39119509     A.U. after   27 cycles
            NFock= 27  Conv=0.32D-08     -V/T= 2.0081
 SCF density gives NOpUse=  1 NOpAll=  1.
 Hyperfine terms turned off by default for NAtoms > 100.

 **********************************************************************

            Population analysis using the SCF density.

 **********************************************************************

 Orbital symmetries:
 BldTbl:  Degeneracy threshold= 1.00D-02
       Occupied  (A) (A) (A) (A) (A) (A) (A) (A) (A) (A) (A) (A)
                 (A) (A) (A) (A) (A) (A) (A) (A) (A) (A) (A) (A)
                 (A) (A) (A) (A) (A) (A) (A) (A) (A) (A) (A) (A)
                 (A) (A) (A) (A) (A) (A) (A) (A) (A) (A) (A) (A)
                 (A) (A) (A) (A) (A) (A) (A) (A) (A) (A) (A) (A)
                 (A) (A) (A) (A) (A) (A) (A) (A) (A) (A) (A) (A)
                 (A) (A) (A) (A) (A) (A) (A) (A) (A) (A) (A) (A)
                 (A) (A) (A) (A) (A) (A) (A) (A) (A) (A) (A) (A)
                 (A) (A) (A) (A) (A) (A) (A) (A) (A) (A) (A) (A)
                 (A) (A) (A) (A) (A) (A) (A) (A) (A) (A) (A) (A)
                 (A) (A) (A) (A) (A) (A) (A) (A) (A) (A) (A) (A)
                 (A) (A) (A) (A) (A) (A) (A) (A) (A) (A) (A) (A)
                 (A) (A) (A) (A) (A) (A) (A) (A) (A) (A) (A) (A)
                 (A) (A) (A) (A) (A) (A) (A) (A) (A) (A) (A) (A)
                 (A) (A) (A) (A) (A) (A) (A) (A) (A) (A) (A) (A)
                 (A) (A) (A) (A) (A) (A) (A) (A) (A) (A) (A) (A)
                 (A) (A) (A) (A) (A) (A) (A) (A) (A) (A) (A) (A)
                 (A) (A) (A) (A) (A) (A) (A) (A) (A) (A) (A) (A)
                 (A) (A) (A) (A) (A) (A) (A) (A) (A) (A) (A) (A)
                 (A) (A) (A) (A) (A) (A) (A) (A) (A) (A) (A) (A)
                 (A) (A) (A) (A) (A) (A) (A) (A) (A) (A) (A) (A)
                 (A) (A) (A) (A) (A) (A) (A) (A) (A) (A) (A) (A)
                 (A) (A) (A) (A) (A) (A) (A) (A) (A) (A) (A) (A)
                 (A) (A) (A) (A) (A) (A) (A) (A) (A) (A) (A) (A)
                 (A) (A) (A) (A) (A) (A) (A) (A) (A) (A) (A) (A)
                 (A) (A) (A) (A) (A) (A) (A) (A) (A) (A) (A) (A)
                 (A) (A) (A) (A) (A) (A) (A) (A) (A) (A) (A) (A)
                 (A) (A) (A) (A) (A) (A) (A) (A) (A) (A) (A) (A)
                 (A) (A) (A) (A) (A) (A) (A) (A) (A) (A) (A) (A)
                 (A) (A) (A) (A) (A) (A) (A) (A) (A) (A)
       Virtual   (A) (A) (A) (A) (A) (A) (A) (A) (A) (A) (A) (A)
                 (A) (A) (A) (A) (A) (A) (A) (A) (A) (A) (A) (A)
                 (A) (A) (A) (A) (A) (A) (A) (A) (A) (A) (A) (A)
                 (A) (A) (A) (A) (A) (A) (A) (A) (A) (A) (A) (A)
                 (A) (A) (A) (A) (A) (A) (A) (A) (A) (A) (A) (A)
                 (A) (A) (A) (A) (A) (A) (A) (A) (A) (A) (A) (A)
                 (A) (A) (A) (A) (A) (A) (A) (A) (A) (A) (A) (A)
                 (A) (A) (A) (A) (A) (A) (A) (A) (A) (A) (A) (A)
                 (A) (A) (A) (A) (A) (A) (A) (A) (A) (A) (A) (A)
                 (A) (A) (A) (A) (A) (A) (A) (A) (A) (A) (A) (A)
                 (A) (A) (A) (A) (A) (A) (A) (A) (A) (A) (A) (A)
                 (A) (A) (A) (A) (A) (A) (A) (A) (A) (A) (A) (A)
                 (A) (A) (A) (A) (A) (A) (A) (A) (A) (A) (A) (A)
                 (A) (A) (A) (A) (A) (A) (A) (A) (A) (A) (A) (A)
                 (A) (A) (A) (A) (A) (A) (A) (A) (A) (A) (A) (A)
                 (A) (A) (A) (A) (A) (A) (A) (A) (A) (A) (A) (A)
                 (A) (A) (A) (A) (A) (A) (A) (A) (A) (A) (A) (A)
                 (A) (A) (A) (A) (A) (A) (A) (A) (A) (A) (A) (A)
                 (A) (A) (A) (A) (A) (A) (A) (A) (A) (A) (A) (A)
                 (A) (A) (A) (A) (A) (A) (A) (A) (A) (A) (A) (A)
                 (A) (A) (A) (A) (A) (A) (A) (A) (A) (A) (A) (A)
                 (A) (A) (A) (A) (A) (A) (A) (A) (A) (A) (A) (A)
                 (A) (A) (A) (A) (A) (A) (A) (A) (A) (A) (A) (A)
                 (A) (A) (A) (A) (A) (A) (A) (A) (A) (A) (A) (A)
                 (A) (A) (A) (A) (A) (A) (A) (A) (A) (A) (A) (A)
                 (A) (A) (A) (A) (A) (A) (A) (A) (A) (A) (A) (A)
                 (A) (A) (A) (A) (A) (A) (A) (A) (A) (A) (A) (A)
                 (A) (A) (A) (A) (A) (A) (A) (A) (A) (A) (A) (A)
                 (A) (A) (A) (A) (A) (A) (A) (A) (A) (A) (A) (A)
                 (A) (A) (A) (A) (A) (A) (A) (A) (A) (A) (A) (A)
                 (A) (A) (A) (A) (A) (A) (A) (A) (A) (A) (A) (A)
                 (A) (A) (A) (A) (A) (A) (A) (A) (A) (A) (A) (A)
                 (A) (A) (A) (A) (A) (A) (A) (A) (A) (A) (A) (A)
                 (A) (A) (A) (A) (A) (A) (A) (A) (A) (A) (A) (A)
                 (A) (A) (A) (A) (A) (A) (A) (A) (A) (A) (A) (A)
                 (A) (A) (A) (A) (A) (A) (A) (A) (A) (A) (A) (A)
                 (A) (A) (A) (A) (A) (A) (A) (A) (A) (A) (A) (A)
                 (A) (A) (A) (A) (A) (A) (A) (A) (A) (A) (A) (A)
                 (A) (A) (A) (A) (A) (A) (A) (A) (A) (A) (A) (A)
                 (A) (A) (A) (A) (A) (A) (A) (A) (A) (A) (A) (A)
                 (A) (A) (A) (A) (A) (A) (A) (A) (A) (A) (A) (A)
                 (A) (A) (A) (A) (A) (A) (A) (A) (A) (A) (A) (A)
                 (A) (A) (A) (A) (A) (A) (A) (A) (A) (A) (A) (A)
                 (A) (A) (A) (A) (A) (A) (A) (A) (A) (A) (A) (A)
                 (A) (A) (A) (A) (A) (A) (A) (A) (A) (A) (A) (A)
                 (A) (A) (A) (A) (A) (A) (A) (A) (A) (A) (A) (A)
                 (A) (A) (A) (A) (A) (A) (A) (A) (A) (A) (A) (A)
                 (A) (A) (A) (A) (A) (A) (A) (A) (A) (A) (A) (A)
                 (A) (A) (A) (A) (A) (A) (A) (A) (A) (A) (A) (A)
                 (A) (A) (A) (A) (A) (A) (A) (A) (A) (A) (A) (A)
                 (A) (A) (A) (A) (A) (A) (A) (A) (A) (A) (A) (A)
                 (A) (A) (A) (A) (A) (A) (A) (A) (A) (A) (A) (A)
                 (A) (A) (A) (A) (A) (A) (A) (A) (A) (A) (A) (A)
                 (A) (A) (A) (A) (A) (A) (A) (A) (A) (A) (A) (A)
                 (A) (A) (A) (A) (A) (A) (A) (A) (A) (A) (A) (A)
                 (A) (A) (A) (A) (A) (A) (A) (A) (A) (A) (A) (A)
                 (A) (A) (A) (A) (A) (A) (A) (A) (A) (A) (A) (A)
                 (A) (A) (A) (A) (A) (A) (A) (A) (A) (A) (A) (A)
                 (A) (A) (A) (A) (A) (A) (A) (A) (A) (A) (A) (A)
                 (A) (A) (A) (A) (A) (A) (A) (A) (A) (A) (A) (A)
                 (A) (A) (A) (A) (A) (A) (A) (A) (A) (A) (A) (A)
                 (A) (A) (A) (A) (A) (A) (A) (A) (A) (A) (A) (A)
                 (A) (A) (A) (A) (A) (A) (A) (A) (A) (A) (A) (A)
                 (A) (A) (A) (A) (A) (A) (A) (A) (A) (A) (A) (A)
                 (A) (A) (A) (A) (A) (A) (A) (A) (A) (A) (A) (A)
                 (A) (A) (A) (A) (A) (A) (A) (A) (A) (A) (A) (A)
                 (A) (A) (A) (A) (A) (A) (A) (A) (A) (A) (A) (A)
                 (A) (A) (A) (A) (A) (A) (A) (A) (A) (A) (A) (A)
                 (A) (A) (A) (A) (A) (A) (A) (A) (A) (A) (A) (A)
                 (A) (A) (A) (A) (A) (A) (A) (A) (A) (A) (A) (A)
                 (A) (A) (A) (A) (A) (A) (A) (A) (A) (A) (A) (A)
                 (A) (A) (A) (A) (A) (A) (A) (A) (A) (A) (A) (A)
                 (A) (A) (A) (A) (A) (A) (A) (A) (A) (A) (A) (A)
                 (A) (A) (A) (A) (A) (A) (A) (A) (A) (A) (A) (A)
                 (A) (A) (A) (A) (A) (A) (A) (A) (A) (A) (A) (A)
                 (A) (A) (A) (A) (A) (A) (A) (A) (A) (A) (A) (A)
                 (A) (A) (A) (A) (A) (A) (A) (A) (A) (A) (A) (A)
                 (A) (A) (A) (A) (A) (A) (A) (A) (A) (A) (A) (A)
                 (A) (A) (A) (A) (A) (A) (A) (A) (A) (A) (A) (A)
                 (A) (A) (A) (A) (A) (A) (A) (A) (A) (A) (A) (A)
                 (A) (A) (A) (A) (A) (A) (A) (A) (A) (A) (A) (A)
                 (A) (A) (A) (A) (A) (A) (A) (A) (A) (A) (A) (A)
                 (A) (A) (A) (A) (A) (A) (A) (A) (A) (A) (A) (A)
                 (A) (A) (A) (A) (A) (A) (A) (A) (A) (A) (A) (A)
                 (A) (A) (A) (A) (A) (A) (A) (A) (A) (A) (A) (A)
                 (A) (A) (A) (A) (A) (A) (A) (A) (A) (A) (A) (A)
                 (A) (A) (A) (A) (A) (A) (A) (A) (A) (A) (A) (A)
                 (A) (A) (A) (A) (A) (A) (A) (A) (A) (A) (A) (A)
                 (A) (A) (A) (A) (A) (A) (A) (A) (A) (A) (A) (A)
                 (A) (A) (A) (A) (A) (A) (A) (A) (A) (A) (A) (A)
                 (A) (A) (A) (A) (A) (A) (A) (A) (A) (A) (A) (A)
                 (A) (A) (A) (A) (A) (A) (A) (A) (A) (A) (A) (A)
                 (A) (A) (A) (A) (A) (A) (A) (A) (A) (A) (A) (A)
                 (A) (A) (A) (A) (A) (A) (A) (A) (A) (A) (A) (A)
                 (A) (A) (A) (A) (A) (A) (A) (A) (A) (A) (A) (A)
                 (A) (A) (A) (A) (A) (A) (A) (A) (A) (A) (A) (A)
                 (A) (A) (A) (A) (A) (A) (A) (A) (A) (A) (A) (A)
                 (A) (A) (A) (A) (A) (A) (A) (A) (A) (A) (A) (A)
                 (A) (A) (A) (A) (A) (A) (A) (A) (A) (A) (A) (A)
                 (A) (A) (A) (A) (A) (A) (A) (A) (A) (A) (A) (A)
                 (A) (A) (A) (A) (A) (A) (A) (A) (A) (A) (A) (A)
                 (A) (A) (A) (A) (A) (A) (A) (A) (A) (A) (A) (A)
                 (A) (A) (A) (A) (A) (A) (A) (A) (A) (A) (A) (A)
                 (A) (A) (A) (A) (A) (A) (A) (A) (A) (A) (A) (A)
                 (A) (A) (A) (A) (A) (A) (A) (A) (A) (A) (A) (A)
                 (A) (A) (A) (A) (A) (A) (A) (A) (A) (A) (A) (A)
                 (A) (A) (A) (A) (A) (A) (A) (A) (A) (A) (A) (A)
                 (A) (A) (A) (A) (A) (A) (A) (A) (A) (A) (A) (A)
                 (A) (A) (A) (A) (A) (A) (A) (A) (A) (A) (A) (A)
                 (A) (A) (A) (A) (A) (A) (A) (A) (A) (A) (A) (A)
                 (A) (A) (A) (A) (A) (A) (A) (A) (A) (A) (A) (A)
                 (A) (A) (A) (A) (A) (A) (A) (A) (A) (A) (A) (A)
                 (A) (A) (A) (A) (A) (A) (A) (A) (A) (A) (A) (A)
                 (A) (A) (A)
 The electronic state is 1-A.
 Alpha  occ. eigenvalues -- -145.44942 -19.18668 -19.16791 -19.13951 -19.11727
 Alpha  occ. eigenvalues --  -19.10835 -19.09610 -19.09410 -19.09192 -19.08946
 Alpha  occ. eigenvalues --  -19.08855 -19.08784 -19.08428 -19.08089 -19.07802
 Alpha  occ. eigenvalues --  -19.07678 -19.07325 -19.07277 -19.07252 -19.06770
 Alpha  occ. eigenvalues --  -19.06492 -19.04023 -18.96771 -18.95570 -15.50948
 Alpha  occ. eigenvalues --  -14.57723 -14.38414 -14.36324 -14.35888 -14.35572
 Alpha  occ. eigenvalues --  -14.35347 -14.34743 -14.34453 -14.34275 -14.34000
 Alpha  occ. eigenvalues --  -14.33532 -14.32747 -14.32300 -14.32064 -14.30668
 Alpha  occ. eigenvalues --  -12.64548 -12.64518 -12.64426 -10.34877 -10.30825
 Alpha  occ. eigenvalues --  -10.29624 -10.28077 -10.27918 -10.27834 -10.27805
 Alpha  occ. eigenvalues --  -10.27632 -10.27379 -10.27037 -10.26992 -10.26990
 Alpha  occ. eigenvalues --  -10.26757 -10.26669 -10.26104 -10.25823 -10.25611
 Alpha  occ. eigenvalues --  -10.25483 -10.25329 -10.24910 -10.24304 -10.23779
 Alpha  occ. eigenvalues --  -10.23656 -10.23475 -10.23267 -10.23103 -10.22905
 Alpha  occ. eigenvalues --  -10.22826 -10.22578 -10.22525 -10.22010 -10.21595
 Alpha  occ. eigenvalues --  -10.20732 -10.20580 -10.20055 -10.19900 -10.19808
 Alpha  occ. eigenvalues --  -10.19742 -10.19706 -10.19448 -10.19024 -10.18858
 Alpha  occ. eigenvalues --  -10.18610 -10.17918 -10.17896 -10.17843 -10.17716
 Alpha  occ. eigenvalues --  -10.17159 -10.16908 -10.16422 -10.16208 -10.15882
 Alpha  occ. eigenvalues --  -10.15808 -10.10716  -1.87877  -1.15499  -1.15102
 Alpha  occ. eigenvalues --   -1.14745  -1.13164  -1.05587  -1.05394  -1.04721
 Alpha  occ. eigenvalues --   -1.04432  -1.04280  -1.03137  -1.03102  -1.02451
 Alpha  occ. eigenvalues --   -1.02317  -1.02228  -1.02028  -1.01506  -1.00734
 Alpha  occ. eigenvalues --   -1.00543  -1.00482  -1.00285  -0.99774  -0.99431
 Alpha  occ. eigenvalues --   -0.97479  -0.95587  -0.92956  -0.92889  -0.92672
 Alpha  occ. eigenvalues --   -0.92671  -0.92417  -0.92338  -0.92093  -0.91213
 Alpha  occ. eigenvalues --   -0.90848  -0.90372  -0.90197  -0.90112  -0.89772
 Alpha  occ. eigenvalues --   -0.88721  -0.88446  -0.88245  -0.87139  -0.85511
 Alpha  occ. eigenvalues --   -0.81861  -0.81566  -0.80651  -0.80633  -0.78807
 Alpha  occ. eigenvalues --   -0.78678  -0.78182  -0.77726  -0.75973  -0.75724
 Alpha  occ. eigenvalues --   -0.75576  -0.74641  -0.74510  -0.73399  -0.73070
 Alpha  occ. eigenvalues --   -0.72722  -0.72527  -0.72206  -0.71914  -0.70997
 Alpha  occ. eigenvalues --   -0.70871  -0.69193  -0.68987  -0.68252  -0.67693
 Alpha  occ. eigenvalues --   -0.66777  -0.66058  -0.65388  -0.64512  -0.63678
 Alpha  occ. eigenvalues --   -0.63504  -0.63073  -0.62756  -0.62299  -0.61992
 Alpha  occ. eigenvalues --   -0.61464  -0.61074  -0.60348  -0.59937  -0.59577
 Alpha  occ. eigenvalues --   -0.59522  -0.59241  -0.58476  -0.58352  -0.57922
 Alpha  occ. eigenvalues --   -0.57845  -0.57364  -0.57041  -0.56803  -0.56717
 Alpha  occ. eigenvalues --   -0.56476  -0.55947  -0.55670  -0.55403  -0.54954
 Alpha  occ. eigenvalues --   -0.54724  -0.54056  -0.53849  -0.53767  -0.53599
 Alpha  occ. eigenvalues --   -0.53384  -0.52927  -0.52888  -0.52475  -0.52021
 Alpha  occ. eigenvalues --   -0.51407  -0.51154  -0.50994  -0.50842  -0.50467
 Alpha  occ. eigenvalues --   -0.50339  -0.49373  -0.48829  -0.48795  -0.48086
 Alpha  occ. eigenvalues --   -0.48000  -0.47906  -0.47707  -0.47413  -0.47107
 Alpha  occ. eigenvalues --   -0.47061  -0.46714  -0.46593  -0.46371  -0.46266
 Alpha  occ. eigenvalues --   -0.46020  -0.45781  -0.45680  -0.45370  -0.45353
 Alpha  occ. eigenvalues --   -0.44800  -0.44726  -0.44572  -0.44557  -0.44425
 Alpha  occ. eigenvalues --   -0.44341  -0.44078  -0.44056  -0.43678  -0.43498
 Alpha  occ. eigenvalues --   -0.43373  -0.43184  -0.42934  -0.42718  -0.42691
 Alpha  occ. eigenvalues --   -0.42506  -0.42426  -0.42296  -0.42237  -0.42156
 Alpha  occ. eigenvalues --   -0.42012  -0.41884  -0.41581  -0.41487  -0.41385
 Alpha  occ. eigenvalues --   -0.41268  -0.40900  -0.40775  -0.40684  -0.40637
 Alpha  occ. eigenvalues --   -0.40483  -0.40285  -0.40236  -0.39952  -0.39871
 Alpha  occ. eigenvalues --   -0.39757  -0.39636  -0.39539  -0.39314  -0.39125
 Alpha  occ. eigenvalues --   -0.39057  -0.39030  -0.38968  -0.38802  -0.38489
 Alpha  occ. eigenvalues --   -0.38446  -0.38315  -0.38098  -0.38058  -0.37835
 Alpha  occ. eigenvalues --   -0.37755  -0.37558  -0.37457  -0.37324  -0.37159
 Alpha  occ. eigenvalues --   -0.37081  -0.36953  -0.36637  -0.36594  -0.36563
 Alpha  occ. eigenvalues --   -0.36245  -0.36071  -0.35993  -0.35894  -0.35751
 Alpha  occ. eigenvalues --   -0.35578  -0.35344  -0.35198  -0.35022  -0.34976
 Alpha  occ. eigenvalues --   -0.34870  -0.34623  -0.34605  -0.34196  -0.34130
 Alpha  occ. eigenvalues --   -0.33858  -0.33842  -0.33672  -0.33547  -0.33287
 Alpha  occ. eigenvalues --   -0.33124  -0.33005  -0.32493  -0.31612  -0.30708
 Alpha  occ. eigenvalues --   -0.30491  -0.29407  -0.28825  -0.28565  -0.28060
 Alpha  occ. eigenvalues --   -0.27625  -0.27509  -0.27100  -0.26980  -0.26937
 Alpha  occ. eigenvalues --   -0.26812  -0.26614  -0.26443  -0.26367  -0.26203
 Alpha  occ. eigenvalues --   -0.25984  -0.25883  -0.25797  -0.25747  -0.25691
 Alpha  occ. eigenvalues --   -0.25430  -0.25046  -0.24571  -0.24562  -0.24193
 Alpha  occ. eigenvalues --   -0.23809  -0.23746  -0.23711  -0.23531  -0.23443
 Alpha  occ. eigenvalues --   -0.23406  -0.23174  -0.23122  -0.22730  -0.22391
 Alpha  occ. eigenvalues --   -0.22350  -0.22080  -0.21283  -0.21165  -0.20108
 Alpha  occ. eigenvalues --   -0.13899  -0.13665  -0.11313
 Alpha virt. eigenvalues --   -0.10161  -0.09517  -0.03804  -0.03437  -0.02072
 Alpha virt. eigenvalues --   -0.01644  -0.01108  -0.01094  -0.00018   0.00186
 Alpha virt. eigenvalues --    0.01033   0.01201   0.01468   0.01732   0.01787
 Alpha virt. eigenvalues --    0.02165   0.02390   0.02497   0.02614   0.03104
 Alpha virt. eigenvalues --    0.03163   0.03536   0.03799   0.03908   0.03979
 Alpha virt. eigenvalues --    0.04434   0.04596   0.04702   0.05004   0.05188
 Alpha virt. eigenvalues --    0.05354   0.05511   0.05713   0.05911   0.06076
 Alpha virt. eigenvalues --    0.06199   0.06733   0.06916   0.06968   0.07017
 Alpha virt. eigenvalues --    0.07234   0.07302   0.07569   0.08200   0.08358
 Alpha virt. eigenvalues --    0.08400   0.08621   0.08839   0.09073   0.09212
 Alpha virt. eigenvalues --    0.09426   0.09645   0.09696   0.09965   0.10046
 Alpha virt. eigenvalues --    0.10302   0.10582   0.10921   0.11023   0.11443
 Alpha virt. eigenvalues --    0.11767   0.11872   0.11894   0.12084   0.12264
 Alpha virt. eigenvalues --    0.12442   0.12580   0.12725   0.12903   0.12944
 Alpha virt. eigenvalues --    0.13018   0.13166   0.13232   0.13415   0.13838
 Alpha virt. eigenvalues --    0.13919   0.14028   0.14168   0.14449   0.14639
 Alpha virt. eigenvalues --    0.14691   0.14717   0.14834   0.15017   0.15172
 Alpha virt. eigenvalues --    0.15333   0.15572   0.15736   0.16026   0.16152
 Alpha virt. eigenvalues --    0.16313   0.16379   0.16474   0.16654   0.16748
 Alpha virt. eigenvalues --    0.16964   0.17108   0.17175   0.17398   0.17561
 Alpha virt. eigenvalues --    0.17665   0.17766   0.18083   0.18213   0.18283
 Alpha virt. eigenvalues --    0.18503   0.18788   0.18935   0.19265   0.19429
 Alpha virt. eigenvalues --    0.19626   0.19768   0.20145   0.20336   0.20722
 Alpha virt. eigenvalues --    0.20900   0.21118   0.21352   0.21413   0.21606
 Alpha virt. eigenvalues --    0.21767   0.21891   0.22333   0.22549   0.22696
 Alpha virt. eigenvalues --    0.22866   0.22950   0.23487   0.23672   0.23937
 Alpha virt. eigenvalues --    0.23999   0.24246   0.24306   0.24523   0.24981
 Alpha virt. eigenvalues --    0.25090   0.25138   0.25221   0.25641   0.26004
 Alpha virt. eigenvalues --    0.26026   0.26310   0.26603   0.26744   0.26949
 Alpha virt. eigenvalues --    0.27119   0.27264   0.27506   0.27867   0.28040
 Alpha virt. eigenvalues --    0.28258   0.28437   0.28756   0.28891   0.29117
 Alpha virt. eigenvalues --    0.29265   0.29369   0.29491   0.29826   0.29973
 Alpha virt. eigenvalues --    0.30014   0.30511   0.30623   0.31251   0.31442
 Alpha virt. eigenvalues --    0.31614   0.31723   0.32414   0.32633   0.32811
 Alpha virt. eigenvalues --    0.33003   0.33276   0.33431   0.33831   0.34060
 Alpha virt. eigenvalues --    0.34292   0.34590   0.35077   0.35265   0.35359
 Alpha virt. eigenvalues --    0.35728   0.36043   0.36342   0.36778   0.36850
 Alpha virt. eigenvalues --    0.37400   0.37577   0.38276   0.38742   0.39175
 Alpha virt. eigenvalues --    0.39789   0.40024   0.40398   0.40587   0.40821
 Alpha virt. eigenvalues --    0.40911   0.41059   0.41280   0.41432   0.41703
 Alpha virt. eigenvalues --    0.41990   0.42299   0.42431   0.42569   0.42727
 Alpha virt. eigenvalues --    0.42832   0.43106   0.43438   0.43944   0.44096
 Alpha virt. eigenvalues --    0.44218   0.44461   0.44472   0.44631   0.45020
 Alpha virt. eigenvalues --    0.45399   0.45504   0.45560   0.45679   0.45882
 Alpha virt. eigenvalues --    0.46074   0.46478   0.46625   0.46788   0.46972
 Alpha virt. eigenvalues --    0.47159   0.47298   0.47391   0.47461   0.47694
 Alpha virt. eigenvalues --    0.47822   0.47934   0.48070   0.48105   0.48227
 Alpha virt. eigenvalues --    0.48506   0.48857   0.48926   0.49259   0.49380
 Alpha virt. eigenvalues --    0.49744   0.49837   0.49888   0.50366   0.50858
 Alpha virt. eigenvalues --    0.51201   0.51289   0.51418   0.51504   0.51703
 Alpha virt. eigenvalues --    0.51993   0.52031   0.52039   0.52306   0.52740
 Alpha virt. eigenvalues --    0.52868   0.52919   0.53058   0.53183   0.53544
 Alpha virt. eigenvalues --    0.53713   0.54105   0.54144   0.54179   0.54335
 Alpha virt. eigenvalues --    0.54674   0.54781   0.54953   0.55157   0.55453
 Alpha virt. eigenvalues --    0.55532   0.55809   0.55903   0.55990   0.56069
 Alpha virt. eigenvalues --    0.56124   0.56357   0.56531   0.56788   0.57036
 Alpha virt. eigenvalues --    0.57194   0.57238   0.57407   0.57727   0.57840
 Alpha virt. eigenvalues --    0.58053   0.58212   0.58591   0.58673   0.58909
 Alpha virt. eigenvalues --    0.58975   0.59125   0.59249   0.59312   0.59619
 Alpha virt. eigenvalues --    0.59709   0.60047   0.60236   0.60289   0.60422
 Alpha virt. eigenvalues --    0.60449   0.60607   0.60822   0.61097   0.61194
 Alpha virt. eigenvalues --    0.61298   0.61432   0.61616   0.61806   0.61853
 Alpha virt. eigenvalues --    0.61896   0.62113   0.62248   0.62350   0.62527
 Alpha virt. eigenvalues --    0.62704   0.62886   0.62896   0.63171   0.63253
 Alpha virt. eigenvalues --    0.63357   0.63428   0.63698   0.63787   0.64055
 Alpha virt. eigenvalues --    0.64098   0.64290   0.64349   0.64418   0.64470
 Alpha virt. eigenvalues --    0.64674   0.64763   0.64857   0.64942   0.65035
 Alpha virt. eigenvalues --    0.65106   0.65216   0.65486   0.65687   0.65744
 Alpha virt. eigenvalues --    0.65847   0.66028   0.66073   0.66165   0.66224
 Alpha virt. eigenvalues --    0.66302   0.66404   0.66489   0.66674   0.66733
 Alpha virt. eigenvalues --    0.66787   0.67045   0.67109   0.67238   0.67307
 Alpha virt. eigenvalues --    0.67458   0.67504   0.67684   0.67754   0.68009
 Alpha virt. eigenvalues --    0.68032   0.68033   0.68108   0.68235   0.68266
 Alpha virt. eigenvalues --    0.68318   0.68489   0.68535   0.68639   0.68725
 Alpha virt. eigenvalues --    0.68851   0.68868   0.68937   0.69124   0.69193
 Alpha virt. eigenvalues --    0.69418   0.69448   0.69527   0.69577   0.69588
 Alpha virt. eigenvalues --    0.69679   0.69834   0.69943   0.70119   0.70177
 Alpha virt. eigenvalues --    0.70334   0.70517   0.70663   0.70795   0.71003
 Alpha virt. eigenvalues --    0.71098   0.71301   0.71453   0.71584   0.71682
 Alpha virt. eigenvalues --    0.71698   0.71933   0.72050   0.72104   0.72147
 Alpha virt. eigenvalues --    0.72475   0.72797   0.72973   0.73170   0.73229
 Alpha virt. eigenvalues --    0.73463   0.73519   0.73790   0.74127   0.74241
 Alpha virt. eigenvalues --    0.74415   0.74473   0.74808   0.74857   0.75157
 Alpha virt. eigenvalues --    0.75356   0.75686   0.75924   0.76115   0.76436
 Alpha virt. eigenvalues --    0.76550   0.76708   0.76770   0.76813   0.76939
 Alpha virt. eigenvalues --    0.77290   0.77327   0.77458   0.77815   0.78063
 Alpha virt. eigenvalues --    0.78284   0.78584   0.78741   0.79137   0.79177
 Alpha virt. eigenvalues --    0.79592   0.79975   0.80186   0.80526   0.80671
 Alpha virt. eigenvalues --    0.80762   0.81273   0.81560   0.81655   0.81958
 Alpha virt. eigenvalues --    0.82114   0.82259   0.82412   0.82675   0.83198
 Alpha virt. eigenvalues --    0.83682   0.83931   0.83995   0.84493   0.84790
 Alpha virt. eigenvalues --    0.85323   0.85630   0.85815   0.86227   0.86499
 Alpha virt. eigenvalues --    0.86773   0.87271   0.87544   0.87708   0.88065
 Alpha virt. eigenvalues --    0.88231   0.88682   0.88790   0.89396   0.89493
 Alpha virt. eigenvalues --    0.89931   0.90078   0.90453   0.90747   0.91079
 Alpha virt. eigenvalues --    0.91280   0.91418   0.91495   0.91633   0.91872
 Alpha virt. eigenvalues --    0.92190   0.92591   0.93002   0.93214   0.93577
 Alpha virt. eigenvalues --    0.94064   0.94295   0.94820   0.95307   0.95455
 Alpha virt. eigenvalues --    0.95678   0.95744   0.96177   0.96498   0.96730
 Alpha virt. eigenvalues --    0.96825   0.96959   0.97260   0.97608   0.97984
 Alpha virt. eigenvalues --    0.98396   0.98579   0.98774   0.98910   0.99148
 Alpha virt. eigenvalues --    0.99908   1.00130   1.00593   1.00792   1.01096
 Alpha virt. eigenvalues --    1.01563   1.01733   1.01960   1.02524   1.02604
 Alpha virt. eigenvalues --    1.02920   1.03031   1.03368   1.03801   1.04254
 Alpha virt. eigenvalues --    1.04403   1.04694   1.04807   1.04994   1.05156
 Alpha virt. eigenvalues --    1.05695   1.05859   1.06032   1.06512   1.06805
 Alpha virt. eigenvalues --    1.06921   1.07040   1.07329   1.07739   1.07884
 Alpha virt. eigenvalues --    1.08065   1.08424   1.08747   1.08775   1.09019
 Alpha virt. eigenvalues --    1.09312   1.09571   1.09710   1.09861   1.10071
 Alpha virt. eigenvalues --    1.10432   1.10557   1.10690   1.10917   1.11210
 Alpha virt. eigenvalues --    1.11503   1.11923   1.12362   1.12824   1.13001
 Alpha virt. eigenvalues --    1.13175   1.13615   1.13804   1.14712   1.14785
 Alpha virt. eigenvalues --    1.14941   1.15264   1.15389   1.15732   1.15760
 Alpha virt. eigenvalues --    1.16060   1.16301   1.16561   1.16802   1.17056
 Alpha virt. eigenvalues --    1.17364   1.17492   1.18193   1.18429   1.18779
 Alpha virt. eigenvalues --    1.18836   1.19071   1.19198   1.19414   1.19737
 Alpha virt. eigenvalues --    1.20009   1.20291   1.20507   1.20541   1.20835
 Alpha virt. eigenvalues --    1.21018   1.21467   1.21772   1.22013   1.22521
 Alpha virt. eigenvalues --    1.22751   1.23092   1.23257   1.23403   1.23500
 Alpha virt. eigenvalues --    1.23785   1.24053   1.24358   1.24498   1.24696
 Alpha virt. eigenvalues --    1.24849   1.25490   1.25752   1.26040   1.26319
 Alpha virt. eigenvalues --    1.26422   1.26522   1.26914   1.27194   1.27683
 Alpha virt. eigenvalues --    1.27740   1.27866   1.27960   1.28318   1.28743
 Alpha virt. eigenvalues --    1.28955   1.29015   1.29304   1.29748   1.30066
 Alpha virt. eigenvalues --    1.30334   1.30478   1.30731   1.30904   1.31422
 Alpha virt. eigenvalues --    1.31509   1.31665   1.31770   1.32160   1.32199
 Alpha virt. eigenvalues --    1.32505   1.32778   1.33703   1.33721   1.34477
 Alpha virt. eigenvalues --    1.34541   1.34692   1.35051   1.35223   1.35835
 Alpha virt. eigenvalues --    1.35944   1.36160   1.36288   1.36474   1.36803
 Alpha virt. eigenvalues --    1.36937   1.37514   1.37748   1.37939   1.38409
 Alpha virt. eigenvalues --    1.38517   1.38697   1.39547   1.39704   1.40217
 Alpha virt. eigenvalues --    1.40333   1.40538   1.41142   1.41216   1.41441
 Alpha virt. eigenvalues --    1.42118   1.42254   1.42461   1.42754   1.42823
 Alpha virt. eigenvalues --    1.43442   1.43633   1.44048   1.44351   1.44579
 Alpha virt. eigenvalues --    1.45198   1.45668   1.45923   1.45983   1.46171
 Alpha virt. eigenvalues --    1.46569   1.46741   1.47431   1.47574   1.47681
 Alpha virt. eigenvalues --    1.47810   1.48162   1.48667   1.49291   1.49569
 Alpha virt. eigenvalues --    1.49667   1.49774   1.50420   1.50748   1.51175
 Alpha virt. eigenvalues --    1.51333   1.51603   1.51856   1.51924   1.52399
 Alpha virt. eigenvalues --    1.52547   1.52695   1.52889   1.53233   1.53642
 Alpha virt. eigenvalues --    1.53788   1.53879   1.54685   1.54804   1.55074
 Alpha virt. eigenvalues --    1.56376   1.56642   1.56706   1.56891   1.57532
 Alpha virt. eigenvalues --    1.58384   1.58949   1.59192   1.59516   1.59994
 Alpha virt. eigenvalues --    1.60221   1.60842   1.60997   1.61283   1.61485
 Alpha virt. eigenvalues --    1.62100   1.62309   1.62346   1.62496   1.62708
 Alpha virt. eigenvalues --    1.62856   1.63125   1.63403   1.63584   1.63755
 Alpha virt. eigenvalues --    1.64488   1.64597   1.64769   1.65093   1.65568
 Alpha virt. eigenvalues --    1.65614   1.66195   1.66484   1.67025   1.67323
 Alpha virt. eigenvalues --    1.67884   1.67963   1.68112   1.68307   1.68947
 Alpha virt. eigenvalues --    1.69040   1.69158   1.69577   1.69727   1.69951
 Alpha virt. eigenvalues --    1.70046   1.70377   1.70774   1.70859   1.71133
 Alpha virt. eigenvalues --    1.71404   1.71747   1.71853   1.72086   1.72278
 Alpha virt. eigenvalues --    1.72419   1.72541   1.72644   1.72780   1.73185
 Alpha virt. eigenvalues --    1.74033   1.74253   1.74532   1.74644   1.74680
 Alpha virt. eigenvalues --    1.74915   1.75239   1.75267   1.75499   1.75534
 Alpha virt. eigenvalues --    1.75684   1.75840   1.75954   1.76004   1.76244
 Alpha virt. eigenvalues --    1.76339   1.76475   1.76798   1.76880   1.77010
 Alpha virt. eigenvalues --    1.77298   1.77493   1.77699   1.77941   1.78178
 Alpha virt. eigenvalues --    1.78241   1.78605   1.78842   1.79126   1.79242
 Alpha virt. eigenvalues --    1.79602   1.79700   1.79864   1.79953   1.79991
 Alpha virt. eigenvalues --    1.80159   1.80447   1.80627   1.80774   1.80847
 Alpha virt. eigenvalues --    1.81018   1.81076   1.81291   1.81348   1.81461
 Alpha virt. eigenvalues --    1.81844   1.81986   1.82147   1.82229   1.82502
 Alpha virt. eigenvalues --    1.82679   1.82764   1.83150   1.83248   1.83517
 Alpha virt. eigenvalues --    1.83650   1.83952   1.84056   1.84159   1.84278
 Alpha virt. eigenvalues --    1.84317   1.84767   1.84882   1.85034   1.85117
 Alpha virt. eigenvalues --    1.85158   1.85309   1.85613   1.85763   1.86209
 Alpha virt. eigenvalues --    1.86311   1.86587   1.86803   1.86903   1.87119
 Alpha virt. eigenvalues --    1.87231   1.87581   1.87781   1.87860   1.88176
 Alpha virt. eigenvalues --    1.88365   1.88654   1.88902   1.89174   1.89281
 Alpha virt. eigenvalues --    1.89422   1.89684   1.89798   1.90035   1.90355
 Alpha virt. eigenvalues --    1.90398   1.90490   1.90856   1.91058   1.91139
 Alpha virt. eigenvalues --    1.91380   1.91431   1.91686   1.91934   1.92062
 Alpha virt. eigenvalues --    1.92358   1.92666   1.92866   1.92933   1.93131
 Alpha virt. eigenvalues --    1.93275   1.93503   1.93563   1.93860   1.94187
 Alpha virt. eigenvalues --    1.94476   1.94675   1.95032   1.95161   1.95441
 Alpha virt. eigenvalues --    1.95599   1.95762   1.95994   1.96174   1.96317
 Alpha virt. eigenvalues --    1.96427   1.96855   1.96925   1.97005   1.97367
 Alpha virt. eigenvalues --    1.97939   1.98060   1.98088   1.98812   1.98911
 Alpha virt. eigenvalues --    1.99269   1.99563   1.99644   2.00072   2.00144
 Alpha virt. eigenvalues --    2.00348   2.00464   2.00947   2.00973   2.01509
 Alpha virt. eigenvalues --    2.01612   2.01873   2.01976   2.02121   2.02424
 Alpha virt. eigenvalues --    2.02785   2.02809   2.03002   2.03319   2.03773
 Alpha virt. eigenvalues --    2.03852   2.04104   2.04154   2.04256   2.04504
 Alpha virt. eigenvalues --    2.04709   2.05228   2.05705   2.06116   2.06451
 Alpha virt. eigenvalues --    2.06943   2.06989   2.07250   2.07292   2.07747
 Alpha virt. eigenvalues --    2.07852   2.08161   2.08428   2.08764   2.09068
 Alpha virt. eigenvalues --    2.09344   2.09670   2.09687   2.10019   2.10361
 Alpha virt. eigenvalues --    2.10591   2.10754   2.10970   2.11294   2.11464
 Alpha virt. eigenvalues --    2.11524   2.11585   2.11925   2.12030   2.12238
 Alpha virt. eigenvalues --    2.12772   2.13001   2.13457   2.13606   2.14072
 Alpha virt. eigenvalues --    2.14325   2.14434   2.14708   2.15133   2.15463
 Alpha virt. eigenvalues --    2.15532   2.16018   2.16107   2.16630   2.16990
 Alpha virt. eigenvalues --    2.17283   2.17878   2.18021   2.18151   2.18638
 Alpha virt. eigenvalues --    2.18760   2.18878   2.19072   2.19780   2.20126
 Alpha virt. eigenvalues --    2.20329   2.20500   2.20727   2.21617   2.21939
 Alpha virt. eigenvalues --    2.22071   2.22697   2.22787   2.23464   2.23654
 Alpha virt. eigenvalues --    2.23850   2.23991   2.24315   2.24525   2.24625
 Alpha virt. eigenvalues --    2.24811   2.25097   2.25148   2.26234   2.26926
 Alpha virt. eigenvalues --    2.27134   2.27240   2.27474   2.27838   2.28148
 Alpha virt. eigenvalues --    2.28517   2.28917   2.29146   2.29491   2.29911
 Alpha virt. eigenvalues --    2.30047   2.30229   2.30383   2.31041   2.31255
 Alpha virt. eigenvalues --    2.31437   2.31457   2.31943   2.32241   2.32519
 Alpha virt. eigenvalues --    2.32815   2.33226   2.33441   2.34321   2.34512
 Alpha virt. eigenvalues --    2.34653   2.34914   2.35074   2.35530   2.35597
 Alpha virt. eigenvalues --    2.35748   2.36055   2.36189   2.36530   2.37058
 Alpha virt. eigenvalues --    2.37365   2.37641   2.37764   2.38137   2.38253
 Alpha virt. eigenvalues --    2.38679   2.38882   2.39298   2.39699   2.39894
 Alpha virt. eigenvalues --    2.40143   2.40865   2.41488   2.41680   2.41818
 Alpha virt. eigenvalues --    2.42470   2.42551   2.43323   2.44059   2.44615
 Alpha virt. eigenvalues --    2.44853   2.45784   2.45810   2.46182   2.46306
 Alpha virt. eigenvalues --    2.46692   2.46867   2.46880   2.47042   2.47694
 Alpha virt. eigenvalues --    2.48122   2.48241   2.48633   2.49048   2.49145
 Alpha virt. eigenvalues --    2.49730   2.49846   2.49952   2.50205   2.50320
 Alpha virt. eigenvalues --    2.50584   2.51702   2.51882   2.53040   2.54117
 Alpha virt. eigenvalues --    2.54407   2.54763   2.54768   2.55140   2.55353
 Alpha virt. eigenvalues --    2.55633   2.55783   2.56050   2.56319   2.56547
 Alpha virt. eigenvalues --    2.57833   2.57944   2.58088   2.58246   2.58299
 Alpha virt. eigenvalues --    2.58892   2.59166   2.59388   2.59703   2.60239
 Alpha virt. eigenvalues --    2.60518   2.60736   2.60852   2.60910   2.60996
 Alpha virt. eigenvalues --    2.61435   2.61519   2.62131   2.62327   2.62691
 Alpha virt. eigenvalues --    2.63007   2.63380   2.63521   2.63767   2.64117
 Alpha virt. eigenvalues --    2.64144   2.64273   2.64566   2.64856   2.65021
 Alpha virt. eigenvalues --    2.65398   2.65516   2.66068   2.66104   2.66183
 Alpha virt. eigenvalues --    2.66476   2.67043   2.67268   2.67511   2.67890
 Alpha virt. eigenvalues --    2.67965   2.68252   2.68695   2.68983   2.69382
 Alpha virt. eigenvalues --    2.69453   2.69667   2.69822   2.69881   2.70070
 Alpha virt. eigenvalues --    2.70239   2.71350   2.71918   2.72360   2.72576
 Alpha virt. eigenvalues --    2.72896   2.73086   2.73108   2.73545   2.73547
 Alpha virt. eigenvalues --    2.74512   2.74612   2.75040   2.75643   2.76198
 Alpha virt. eigenvalues --    2.76305   2.76532   2.76695   2.77108   2.77913
 Alpha virt. eigenvalues --    2.78062   2.78222   2.78359   2.78749   2.79239
 Alpha virt. eigenvalues --    2.79323   2.79407   2.79792   2.79956   2.80140
 Alpha virt. eigenvalues --    2.80935   2.81285   2.81496   2.81716   2.81892
 Alpha virt. eigenvalues --    2.82282   2.82314   2.82582   2.82609   2.83212
 Alpha virt. eigenvalues --    2.83376   2.83817   2.83838   2.84363   2.84523
 Alpha virt. eigenvalues --    2.84890   2.85633   2.85637   2.85892   2.86132
 Alpha virt. eigenvalues --    2.86973   2.87134   2.87629   2.87894   2.88208
 Alpha virt. eigenvalues --    2.88444   2.88451   2.88651   2.89066   2.89106
 Alpha virt. eigenvalues --    2.89358   2.89495   2.89879   2.90177   2.90918
 Alpha virt. eigenvalues --    2.91132   2.91690   2.91911   2.92135   2.92237
 Alpha virt. eigenvalues --    2.92303   2.93261   2.93417   2.93478   2.93562
 Alpha virt. eigenvalues --    2.93932   2.94082   2.94120   2.94616   2.94763
 Alpha virt. eigenvalues --    2.94958   2.95091   2.95274   2.95758   2.96165
 Alpha virt. eigenvalues --    2.96319   2.96936   2.97207   2.97649   2.97918
 Alpha virt. eigenvalues --    2.97959   2.98146   2.98304   2.99237   2.99803
 Alpha virt. eigenvalues --    3.00280   3.00687   3.00797   3.01047   3.01089
 Alpha virt. eigenvalues --    3.01743   3.02305   3.02811   3.03070   3.03255
 Alpha virt. eigenvalues --    3.03784   3.04006   3.04242   3.04867   3.05156
 Alpha virt. eigenvalues --    3.05514   3.05701   3.05825   3.06479   3.06995
 Alpha virt. eigenvalues --    3.07203   3.07453   3.07732   3.08405   3.08618
 Alpha virt. eigenvalues --    3.09541   3.09762   3.10293   3.11097   3.11180
 Alpha virt. eigenvalues --    3.11839   3.12691   3.13290   3.13439   3.13691
 Alpha virt. eigenvalues --    3.13823   3.14288   3.14524   3.15145   3.15197
 Alpha virt. eigenvalues --    3.15318   3.16702   3.16839   3.17193   3.17574
 Alpha virt. eigenvalues --    3.17764   3.18083   3.18188   3.18664   3.18713
 Alpha virt. eigenvalues --    3.18910   3.19368   3.20015   3.20304   3.20692
 Alpha virt. eigenvalues --    3.20799   3.21003   3.21125   3.21410   3.21574
 Alpha virt. eigenvalues --    3.21770   3.21852   3.22256   3.22814   3.23220
 Alpha virt. eigenvalues --    3.23834   3.24457   3.24533   3.24762   3.26099
 Alpha virt. eigenvalues --    3.27334   3.27644   3.28198   3.28663   3.29178
 Alpha virt. eigenvalues --    3.29791   3.31088   3.31837   3.32823   3.33475
 Alpha virt. eigenvalues --    3.34344   3.34793   3.35782   3.36904   3.38093
 Alpha virt. eigenvalues --    3.39481   3.39642   3.44542   3.46349   3.46929
 Alpha virt. eigenvalues --    3.53247   3.53845   3.54405   3.55911   3.56238
 Alpha virt. eigenvalues --    3.56443   3.56488   3.57866   3.58340   3.59262
 Alpha virt. eigenvalues --    3.59324   3.59651   3.62139   3.62235   3.62570
 Alpha virt. eigenvalues --    3.62808   3.63088   3.65599   3.67493   3.67956
 Alpha virt. eigenvalues --    3.68137   3.68658   3.68713   3.69264   3.69557
 Alpha virt. eigenvalues --    3.69649   3.69992   3.70436   3.70522   3.70892
 Alpha virt. eigenvalues --    3.71187   3.71216   3.71826   3.73401   3.74462
 Alpha virt. eigenvalues --    3.78053   3.78100   3.80277   3.81182
          Condensed to atoms (all electrons):
 Mulliken charges:
               1
     1  C    0.075369
     2  C   -0.018629
     3  O   -0.324913
     4  H   -0.003900
     5  H    0.021376
     6  H    0.030420
     7  N   -0.109297
     8  C    0.110544
     9  C    0.058081
    10  O   -0.297327
    11  C    0.114139
    12  C    0.042076
    13  O   -0.421930
    14  O   -0.355128
    15  H    0.109527
    16  H   -0.021461
    17  H    0.012381
    18  H   -0.025149
    19  N   -0.107376
    20  C    0.092634
    21  C    0.079777
    22  O   -0.247367
    23  C    0.076089
    24  C    0.041791
    25  C   -0.076902
    26  C    0.046882
    27  N    0.090023
    28  H    0.101856
    29  H   -0.011006
    30  H   -0.021220
    31  H    0.050038
    32  H    0.005942
    33  H    0.003968
    34  H    0.049233
    35  H    0.015123
    36  H    0.055144
    37  H    0.093092
    38  H    0.182493
    39  H    0.173870
    40  H    0.188449
    41  N   -0.127498
    42  C    0.109032
    43  C    0.031040
    44  O   -0.245621
    45  C    0.114510
    46  C    0.096174
    47  O   -0.392513
    48  O   -0.470865
    49  H    0.113463
    50  H    0.014435
    51  H    0.011045
    52  H    0.033654
    53  N   -0.172616
    54  C    0.240349
    55  C    0.033064
    56  O   -0.264549
    57  H    0.137058
    58  H    0.028519
    59  H    0.027875
    60  N   -0.137197
    61  C    0.076237
    62  C    0.078861
    63  O   -0.252575
    64  C    0.098607
    65  C    0.011663
    66  N   -0.050807
    67  O   -0.251225
    68  H    0.125038
    69  H    0.035791
    70  H    0.006009
    71  H   -0.021582
    72  H    0.114057
    73  H    0.138424
    74  N   -0.133944
    75  C    0.211349
    76  C    0.029030
    77  O   -0.285542
    78  H    0.126820
    79  H    0.038456
    80  H    0.018713
    81  N   -0.110857
    82  C    0.087217
    83  C    0.073704
    84  O   -0.285253
    85  C    0.167547
    86  C   -0.016101
    87  C   -0.005223
    88  C   -0.005985
    89  C   -0.031158
    90  C   -0.046636
    91  C    0.191024
    92  O   -0.195646
    93  H    0.113217
    94  H    0.012115
    95  H   -0.001655
    96  H    0.018223
    97  H   -0.033241
    98  H   -0.043820
    99  H   -0.025296
   100  H   -0.044481
   101  H    0.172886
   102  N   -0.106242
   103  C    0.187938
   104  C    0.005997
   105  O   -0.270581
   106  C   -0.096123
   107  C    0.011797
   108  C    0.065459
   109  C    0.010524
   110  H    0.135714
   111  H    0.009000
   112  H   -0.010457
   113  H   -0.013923
   114  H   -0.011330
   115  H   -0.025224
   116  H    0.036660
   117  H    0.003191
   118  H    0.017238
   119  H    0.031215
   120  H    0.009255
   121  N   -0.127919
   122  C    0.106566
   123  C    0.095068
   124  O   -0.268970
   125  C    0.221063
   126  O   -0.324546
   127  H    0.129596
   128  H    0.018494
   129  H    0.015558
   130  H   -0.003446
   131  H    0.168873
   132  N   -0.142521
   133  C    0.012383
   134  C    0.052676
   135  O   -0.286013
   136  C    0.111438
   137  H    0.126079
   138  H    0.012407
   139  H    0.007053
   140  H    0.004126
   141  H    0.053556
   142  N   -0.109648
   143  C    0.090360
   144  C    0.085172
   145  O   -0.275235
   146  C    0.046362
   147  H    0.125636
   148  H   -0.008939
   149  H    0.032501
   150  H    0.015134
   151  H    0.037731
   152  N   -0.175937
   153  C    0.123671
   154  C    0.055121
   155  O   -0.297049
   156  C    0.045616
   157  C    0.123285
   158  C    0.052509
   159  O   -0.437499
   160  O   -0.398149
   161  H    0.123502
   162  H   -0.000978
   163  H   -0.016607
   164  H    0.044939
   165  H   -0.013742
   166  H   -0.030467
   167  N   -0.128235
   168  C    0.129568
   169  H    0.033226
   170  H    0.015766
   171  H    0.032910
   172  H    0.120705
   173  Ca   1.345350
   174  O   -0.289025
   175  H    0.173356
   176  H    0.195429
 Sum of Mulliken charges =  -0.00000
 Mulliken charges with hydrogens summed into heavy atoms:
               1
     1  C    0.123264
     2  C   -0.018629
     3  O   -0.324913
     7  N    0.000230
     8  C    0.089083
     9  C    0.058081
    10  O   -0.297327
    11  C    0.101371
    12  C    0.042076
    13  O   -0.421930
    14  O   -0.355128
    19  N   -0.005520
    20  C    0.081628
    21  C    0.079777
    22  O   -0.247367
    23  C    0.104907
    24  C    0.051701
    25  C   -0.012545
    26  C    0.195117
    27  N    0.634835
    41  N   -0.014035
    42  C    0.123466
    43  C    0.031040
    44  O   -0.245621
    45  C    0.159209
    46  C    0.096174
    47  O   -0.392513
    48  O   -0.470865
    53  N   -0.035558
    54  C    0.296743
    55  C    0.033064
    56  O   -0.264549
    60  N   -0.012159
    61  C    0.112028
    62  C    0.078861
    63  O   -0.252575
    64  C    0.083034
    65  C    0.011663
    66  N    0.201674
    67  O   -0.251225
    74  N   -0.007125
    75  C    0.268518
    76  C    0.029030
    77  O   -0.285542
    81  N    0.002359
    82  C    0.099333
    83  C    0.073704
    84  O   -0.285253
    85  C    0.184115
    86  C   -0.016101
    87  C   -0.038464
    88  C   -0.049805
    89  C   -0.056454
    90  C   -0.091116
    91  C    0.191024
    92  O   -0.022760
   102  N    0.029471
   103  C    0.196937
   104  C    0.005997
   105  O   -0.270581
   106  C   -0.106580
   107  C   -0.013455
   108  C    0.080087
   109  C    0.068233
   121  N    0.001677
   122  C    0.125060
   123  C    0.095068
   124  O   -0.268970
   125  C    0.233175
   126  O   -0.155673
   132  N   -0.016442
   133  C    0.024791
   134  C    0.052676
   135  O   -0.286013
   136  C    0.176173
   142  N    0.015987
   143  C    0.081421
   144  C    0.085172
   145  O   -0.275235
   146  C    0.131727
   152  N   -0.052435
   153  C    0.122694
   154  C    0.055121
   155  O   -0.297049
   156  C    0.073948
   157  C    0.079076
   158  C    0.052509
   159  O   -0.437499
   160  O   -0.398149
   167  N   -0.007529
   168  C    0.211470
   173  Ca   1.345350
   174  O    0.079761
 DipInt: DoE/N= T F RetVal/Mat= T F Init=T NMatP=  1 IDeriv=0 Min/MaxMlt=  0  4
 Entering OneElI...
 OneElI was handed  1333951383 working-precision words.
 Multipole integrals L=0 to 4 MinM= 0 MaxM= 0.
 Requested accuracy = 0.1000D-12
 ShPair: Thresh= 1.00D-13 NBox=     0 BxSize= 0.00D+00 RnKept= 3.61D+01
         NSMCal=               327645 NSMKep=              123431
 PrmmSu-InSpLW:  IPartL=    0 NPrtUS=    1 NPrtUL=    1 DoSpLW=F IThBeg=    0 IThEnd=    0 NThAct=    1.
 PrsmSu:  NPrtUS=   1 ThrOK=F IAlg=1 NPAlg=1 LenDen=           0 ISkipM=0 DoSpLW=F IThBeg=    0 IThEnd=    0.
 Prism:   IPart=     0 DynPar=F LinDyn=F Incr=         512.
 PRISM was handed  1325343413 working-precision words and123431 shell-pairs
 IPart=  0 NShTot=      123431 NBatch=         286 AvBLen=       431.6
 PrsmSu-ThDecC:  IPartSL=    0    0 NPrtUSL=    1    1 IThBeg=    0 IThEnd=    0 CPU=   -1 GPU=   -1 NThAct=    1.
 PrSmSu:  NxtVal=            513.
 Electronic moments (au):
       -716.00000000          1.14592307          8.71325894         -5.42615983
     -87265.51605018     -40505.11794569     -15656.68287312       -240.12039412
         31.73581386         34.19994848     -43053.38091316     -52047.59698019
      -3688.07407312     -48933.87594146     152111.56191124    -206594.42697254
      81016.90544535      -1917.56990925      10189.45706686     -24430.36999539
  -21803824.53917511   -4470618.55650127   -1110767.94509780     859199.94888521
     694614.74358771     -97376.71705895    -531615.79932179     356208.31123335
     248330.59967951   -3299976.71793536   -2013572.96361333    -699066.84896826
     823404.56917350    -193401.53363380     -28291.15447964
 Electronic spatial extent (au):  <R**2>=         143427.3169
 DipInt: DoE/N= F T RetVal/Mat= T F Init=T NMatP=  1 IDeriv=0 Min/MaxMlt=  0  4
 Nuclear    moments (au):
        716.00000000          0.00000000          0.00000000         -0.00000000
      86903.97536472      40069.45890053      15298.26242353          0.00000000
         -0.00000000          0.00000000      44788.78128931      52377.55487516
       2981.23843334      48661.60463884    -149000.56691073     205759.17595828
     -81205.14617844       2223.08051698     -10638.47985360      24454.94841528
   21515618.53329951    4321640.63244587    1065188.59630363    -936804.00532061
    -689834.36126083      84913.77140580     536826.21808810    -351991.65284702
    -250932.27791810    3226783.38988859    1951940.49220991     671214.69628215
    -813279.84270354     192968.14797179      26180.78615748
 Total      moments (au):
         -0.00000000          1.14592307          8.71325894         -5.42615983
       -361.54068546       -435.65904516       -358.42044959       -240.12039412
         31.73581386         34.19994848       1735.40037614        329.95789497
       -706.83563977       -272.27130262       3110.99500051       -835.25101426
       -188.24073310        305.51060773       -449.02278674         24.57841989
    -288206.00587560    -148977.92405539     -45579.34879416     -77604.05643539
       4780.38232689     -12462.94565315       5210.41876630       4216.65838633
      -2601.67823859     -73193.32804677     -61632.47140342     -27852.15268611
      10124.72646996       -433.38566201      -2110.36832216
 Traceless Quadrup. (au):
         23.66604127        -50.45231842         26.78627715       -240.12039412
         31.73581386         34.19994848
 Charge=             -0.0000 electrons
 Dipole moment (field-independent basis, Debye):
    X=              2.9126    Y=             22.1469    Z=            -13.7919  Tot=             26.2523
 Quadrupole moment (field-independent basis, Debye-Ang):
   XX=           -486.2846   YY=           -585.9763   ZZ=           -482.0878
   XY=           -322.9702   XZ=             42.6858   YZ=             46.0001
 Traceless Quadrupole moment (field-independent basis, Debye-Ang):
   XX=             31.8316   YY=            -67.8601   ZZ=             36.0285
   XY=           -322.9702   XZ=             42.6858   YZ=             46.0001
 Octapole moment (field-independent basis, Debye-Ang**2):
  XXX=           1235.1911  YYY=            234.8513  ZZZ=           -503.0984  XYY=           -193.7922
  XXY=           2214.2864  XXZ=           -594.4995  XZZ=           -133.9825  YZZ=            217.4507
  YYZ=           -319.5971  XYZ=             17.4940
 Hexadecapole moment (field-independent basis, Debye-Ang**3):
 XXXX=        -108552.2017 YYYY=         -56112.2299 ZZZZ=         -17167.3684 XXXY=         -29229.4089
 XXXZ=           1800.5212 YYYX=          -4694.1430 YYYZ=           1962.4936 ZZZX=           1588.1957
 ZZZY=           -979.9168 XXYY=         -27568.1171 XXZZ=         -23213.7441 YYZZ=         -10490.4563
 XXYZ=           3813.4575 YYXZ=           -163.2338 ZZXY=           -794.8659
 N-N= 1.882374040032D+04 E-N=-5.012860507128D+04  KE= 5.290729689501D+03
 Leave Link  601 at Tue Sep 17 00:38:01 2019, MaxMem=  1342177280 cpu:              39.2 elap:               1.0
 FitSet:  NAtFit=   176 NAtPot=   176 NAtFrz=     0 MDM=   180 TotChg=   0.00000
 Merz-Kollman atomic radii used.
 Read replacement radii for each type of atom:
 Rad(20) =   1.700000000000D+00
 Atom Element Radius
    1     6    1.50
    2     6    1.50
    3     8    1.40
    4     1    1.20
    5     1    1.20
    6     1    1.20
    7     7    1.50
    8     6    1.50
    9     6    1.50
   10     8    1.40
   11     6    1.50
   12     6    1.50
   13     8    1.40
   14     8    1.40
   15     1    1.20
   16     1    1.20
   17     1    1.20
   18     1    1.20
   19     7    1.50
   20     6    1.50
   21     6    1.50
   22     8    1.40
   23     6    1.50
   24     6    1.50
   25     6    1.50
   26     6    1.50
   27     7    1.50
   28     1    1.20
   29     1    1.20
   30     1    1.20
   31     1    1.20
   32     1    1.20
   33     1    1.20
   34     1    1.20
   35     1    1.20
   36     1    1.20
   37     1    1.20
   38     1    1.20
   39     1    1.20
   40     1    1.20
   41     7    1.50
   42     6    1.50
   43     6    1.50
   44     8    1.40
   45     6    1.50
   46     6    1.50
   47     8    1.40
   48     8    1.40
   49     1    1.20
   50     1    1.20
   51     1    1.20
   52     1    1.20
   53     7    1.50
   54     6    1.50
   55     6    1.50
   56     8    1.40
   57     1    1.20
   58     1    1.20
   59     1    1.20
   60     7    1.50
   61     6    1.50
   62     6    1.50
   63     8    1.40
   64     6    1.50
   65     6    1.50
   66     7    1.50
   67     8    1.40
   68     1    1.20
   69     1    1.20
   70     1    1.20
   71     1    1.20
   72     1    1.20
   73     1    1.20
   74     7    1.50
   75     6    1.50
   76     6    1.50
   77     8    1.40
   78     1    1.20
   79     1    1.20
   80     1    1.20
   81     7    1.50
   82     6    1.50
   83     6    1.50
   84     8    1.40
   85     6    1.50
   86     6    1.50
   87     6    1.50
   88     6    1.50
   89     6    1.50
   90     6    1.50
   91     6    1.50
   92     8    1.40
   93     1    1.20
   94     1    1.20
   95     1    1.20
   96     1    1.20
   97     1    1.20
   98     1    1.20
   99     1    1.20
  100     1    1.20
  101     1    1.20
  102     7    1.50
  103     6    1.50
  104     6    1.50
  105     8    1.40
  106     6    1.50
  107     6    1.50
  108     6    1.50
  109     6    1.50
  110     1    1.20
  111     1    1.20
  112     1    1.20
  113     1    1.20
  114     1    1.20
  115     1    1.20
  116     1    1.20
  117     1    1.20
  118     1    1.20
  119     1    1.20
  120     1    1.20
  121     7    1.50
  122     6    1.50
  123     6    1.50
  124     8    1.40
  125     6    1.50
  126     8    1.40
  127     1    1.20
  128     1    1.20
  129     1    1.20
  130     1    1.20
  131     1    1.20
  132     7    1.50
  133     6    1.50
  134     6    1.50
  135     8    1.40
  136     6    1.50
  137     1    1.20
  138     1    1.20
  139     1    1.20
  140     1    1.20
  141     1    1.20
  142     7    1.50
  143     6    1.50
  144     6    1.50
  145     8    1.40
  146     6    1.50
  147     1    1.20
  148     1    1.20
  149     1    1.20
  150     1    1.20
  151     1    1.20
  152     7    1.50
  153     6    1.50
  154     6    1.50
  155     8    1.40
  156     6    1.50
  157     6    1.50
  158     6    1.50
  159     8    1.40
  160     8    1.40
  161     1    1.20
  162     1    1.20
  163     1    1.20
  164     1    1.20
[...]
 **** Fit      -0.003609
 **** Fit      -0.004292
 **** Fit      -0.004910
 **** Fit      -0.005346
 **** Fit       0.001004
 **** Fit       0.000114
 **** Fit      -0.000792
 **** Fit      -0.001745
 **** Fit      -0.002735
 **** Fit      -0.003728
 **** Fit      -0.004676
 **** Fit      -0.005547
 **** Fit      -0.006330
 **** Fit      -0.007034
 **** Fit      -0.007669
 **** Fit      -0.008212
 **** Fit      -0.008587
 **** Fit      -0.000885
 **** Fit      -0.002120
 **** Fit      -0.003470
 **** Fit      -0.004937
 **** Fit      -0.006480
 **** Fit      -0.008015
 **** Fit      -0.009444
 **** Fit      -0.010674
 **** Fit      -0.011648
 **** Fit      -0.012355
 **** Fit      -0.012825
 **** Fit      -0.013093
 **** Fit      -0.013163
 **** Fit      -0.004062
 **** Fit      -0.005993
 **** Fit      -0.008189
 **** Fit      -0.010601
 **** Fit      -0.013113
 **** Fit      -0.019391
 **** Fit      -0.007924
 **** Fit      -0.011073
 **** Fit       0.002112
 **** Fit       0.002003
 **** Fit       0.003020
 **** Fit       0.004666
 **** Fit       0.004128
 **** Fit       0.003169
 **** Fit      -0.003131
 **** Fit      -0.000308
 **** Fit       0.002475
 **** Fit      -0.006341
 **** Fit      -0.001826
 **** Fit       0.001706
 **** Fit      -0.005944
 **** Fit      -0.000778
 **** Fit       0.002769
 **** Fit      -0.007779
 **** Fit      -0.001207
 **** Fit       0.003205
 **** Fit      -0.006244
 **** Fit       0.000975
 **** Fit       0.005713
 **** Fit       0.010117
 **** Fit       0.027212
 **** Fit       0.027011
 **** Fit       0.038460
 **** Fit       0.043602
 **** Fit       0.046567
 **** Fit       0.054024
 **** Fit       0.057545
 **** Fit       0.045304
 **** Fit       0.055600
 **** Fit       0.063468
 **** Fit       0.068126
 **** Fit       0.052249
 **** Fit       0.062517
 **** Fit       0.070517
 **** Fit       0.075798
 **** Fit       0.049935
 **** Fit       0.061501
 **** Fit       0.070942
 **** Fit       0.078012
 **** Fit       0.082515
 **** Fit       0.058602
 **** Fit       0.069072
 **** Fit       0.077296
 **** Fit       0.083236
 **** Fit       0.086830
 **** Fit       0.088063
 **** Fit       0.054687
 **** Fit       0.065921
 **** Fit       0.074886
 **** Fit       0.081723
 **** Fit       0.086470
 **** Fit       0.089118
 **** Fit       0.089674
 **** Fit       0.088183
 **** Fit       0.072966
 **** Fit       0.059133
 **** Fit       0.069545
 **** Fit       0.077679
 **** Fit       0.083726
 **** Fit       0.087760
 **** Fit       0.089796
 **** Fit       0.089848
 **** Fit       0.087962
 **** Fit       0.084235
 **** Fit       0.078848
 **** Fit       0.072131
 **** Fit       0.064597
 **** Fit       0.051587
 **** Fit       0.063313
 **** Fit       0.072560
 **** Fit       0.079669
 **** Fit       0.084820
 **** Fit       0.088091
 **** Fit       0.089510
 **** Fit       0.089094
 **** Fit       0.086883
 **** Fit       0.082951
 **** Fit       0.077433
 **** Fit       0.070534
 **** Fit       0.062559
 **** Fit       0.048793
 **** Fit       0.060779
 **** Fit       0.070240
 **** Fit       0.077555
 **** Fit       0.082944
 **** Fit       0.086523
 **** Fit       0.088342
 **** Fit       0.088419
 **** Fit       0.086772
 **** Fit       0.083437
 **** Fit       0.078472
 **** Fit       0.071969
 **** Fit       0.064054
 **** Fit       0.054914
 **** Fit       0.058779
 **** Fit       0.068139
 **** Fit       0.075451
 **** Fit       0.080929
 **** Fit       0.084698
 **** Fit       0.086821
 **** Fit       0.087321
 **** Fit       0.086208
 **** Fit       0.083486
 **** Fit       0.079168
 **** Fit       0.073268
 **** Fit       0.065801
 **** Fit       0.056772
 **** Fit       0.054154
 **** Fit       0.064067
 **** Fit       0.071925
 **** Fit       0.077934
 **** Fit       0.082230
 **** Fit       0.084888
 **** Fit       0.085939
 **** Fit       0.085391
 **** Fit       0.083233
 **** Fit       0.079448
 **** Fit       0.074007
 **** Fit       0.066853
 **** Fit       0.057888
 **** Fit       0.050390
 **** Fit       0.060395
 **** Fit       0.068517
 **** Fit       0.074883
 **** Fit       0.079595
 **** Fit       0.082719
 **** Fit       0.084285
 **** Fit       0.084297
 **** Fit       0.082738
 **** Fit       0.079573
 **** Fit       0.074746
 **** Fit       0.068168
 **** Fit       0.059685
 **** Fit       0.049042
 **** Fit       0.051160
 **** Fit       0.060365
 **** Fit       0.067980
 **** Fit       0.074010
 **** Fit       0.078482
 **** Fit       0.081418
 **** Fit       0.082823
 **** Fit       0.082683
 **** Fit       0.080965
 **** Fit       0.077612
 **** Fit       0.072540
 **** Fit       0.065612
 **** Fit       0.056610
 **** Fit       0.043554
 **** Fit       0.052648
 **** Fit       0.060775
 **** Fit       0.067676
 **** Fit       0.073225
 **** Fit       0.077365
 **** Fit       0.080063
 **** Fit       0.081290
 **** Fit       0.081008
 **** Fit       0.079166
 **** Fit       0.075691
 **** Fit       0.070476
 **** Fit       0.063362
 **** Fit       0.054101
 **** Fit       0.043826
 **** Fit       0.051571
 **** Fit       0.059029
 **** Fit       0.065687
 **** Fit       0.071231
 **** Fit       0.075472
 **** Fit       0.078295
 **** Fit       0.079618
 **** Fit       0.079368
 **** Fit       0.077468
 **** Fit       0.073824
 **** Fit       0.068307
 **** Fit       0.060734
 **** Fit       0.050842
 **** Fit       0.038297
 **** Fit       0.038711
 **** Fit       0.041368
 **** Fit       0.045925
 **** Fit       0.051715
 **** Fit       0.057971
 **** Fit       0.064010
 **** Fit       0.069318
 **** Fit       0.073540
 **** Fit       0.076442
 **** Fit       0.077861
 **** Fit       0.077672
 **** Fit       0.075765
 **** Fit       0.072026
 **** Fit       0.066318
 **** Fit       0.058473
 **** Fit       0.048286
 **** Fit       0.047908
 **** Fit       0.047847
 **** Fit       0.049736
 **** Fit       0.053247
 **** Fit       0.057834
 **** Fit       0.062830
 **** Fit       0.067599
 **** Fit       0.071622
 **** Fit       0.074517
 **** Fit       0.076011
 **** Fit       0.075907
 **** Fit       0.074049
 **** Fit       0.070307
 **** Fit       0.064561
 **** Fit       0.056706
 **** Fit       0.046695
 **** Fit       0.055471
 **** Fit       0.055071
 **** Fit       0.056604
 **** Fit       0.059588
 **** Fit       0.063417
 **** Fit       0.067396
 **** Fit       0.070867
 **** Fit       0.073292
 **** Fit       0.074266
 **** Fit       0.073504
 **** Fit       0.070803
 **** Fit       0.066038
 **** Fit       0.059169
 **** Fit       0.050315
 **** Fit       0.039920
 **** Fit       0.061205
 **** Fit       0.060412
 **** Fit       0.061557
 **** Fit       0.064013
 **** Fit       0.067055
 **** Fit       0.069897
 **** Fit       0.071812
 **** Fit       0.072230
 **** Fit       0.070755
 **** Fit       0.067172
 **** Fit       0.061464
 **** Fit       0.053907
 **** Fit       0.045255
 **** Fit       0.064567
 **** Fit       0.063940
 **** Fit       0.065085
 **** Fit       0.067227
 **** Fit       0.069304
 **** Fit       0.070243
 **** Fit       0.069216
 **** Fit       0.065800
 **** Fit       0.060112
 **** Fit       0.053008
 **** Fit       0.046284
 **** Fit       0.042391
 **** Fit       0.043264
 **** Fit       0.065486
 **** Fit       0.065571
 **** Fit       0.066734
 **** Fit       0.068010
 **** Fit       0.067683
 **** Fit       0.064617
 **** Fit       0.059181
 **** Fit       0.053723
 **** Fit       0.051748
 **** Fit       0.055035
 **** Fit       0.063489
 **** Fit       0.065318
 **** Fit       0.065996
 **** Fit       0.063707
 **** Fit       0.059359
 **** Fit       0.059634
 **** Fit       0.063231
 **** Fit      -0.054274
 **** Fit      -0.046067
 **** Fit      -0.037754
 **** Fit      -0.049471
 **** Fit      -0.042324
 **** Fit      -0.034569
 **** Fit      -0.026563
 **** Fit      -0.043445
 **** Fit      -0.037841
 **** Fit      -0.031255
 **** Fit      -0.024091
 **** Fit      -0.037033
 **** Fit      -0.033051
 **** Fit      -0.027842
 **** Fit      -0.021776
 **** Fit      -0.015162
 **** Fit      -0.030682
 **** Fit      -0.028227
 **** Fit      -0.024532
 **** Fit      -0.019750
 **** Fit      -0.014147
 **** Fit      -0.007987
 **** Fit      -0.024462
 **** Fit      -0.022271
 **** Fit      -0.019585
 **** Fit      -0.016051
 **** Fit      -0.011664
 **** Fit      -0.006583
 **** Fit      -0.001006
 **** Fit       0.004904
 **** Fit      -0.017231
 **** Fit      -0.014403
 **** Fit      -0.011569
 **** Fit      -0.008221
 **** Fit      -0.004232
 **** Fit       0.000329
 **** Fit       0.005322
 **** Fit       0.010602
 **** Fit       0.020958
 **** Fit      -0.010354
 **** Fit      -0.007012
 **** Fit      -0.004054
 **** Fit      -0.000882
 **** Fit       0.002732
 **** Fit       0.006800
 **** Fit       0.011231
 **** Fit       0.015897
 **** Fit       0.020663
 **** Fit       0.029394
 **** Fit       0.026734
 **** Fit       0.025441
 **** Fit      -0.002674
 **** Fit       0.000723
 **** Fit       0.003674
 **** Fit       0.006662
 **** Fit       0.025383
 **** Fit       0.029292
 **** Fit       0.036803
 **** Fit       0.034674
 **** Fit       0.032989
 **** Fit       0.032546
 **** Fit       0.034361
 **** Fit       0.039579
 **** Fit       0.039023
 **** Fit       0.038044
 **** Fit       0.038303
 **** Fit       0.040661
 **** Fit       0.045912
 **** Fit       0.032675
 **** Fit       0.035926
 **** Fit       0.002086
 **** Fit       0.005106
 **** Fit       0.007634
 **** Fit       0.010011
 **** Fit       0.012533
 **** Fit       0.015353
 **** Fit       0.018494
 **** Fit       0.021901
 **** Fit       0.025483
 **** Fit       0.029125
 **** Fit       0.033399
 **** Fit       0.035922
 **** Fit       0.037966
 **** Fit       0.039351
 **** Fit       0.039975
 **** Fit       0.039885
 **** Fit       0.039345
 **** Fit       0.009991
 **** Fit       0.011602
 **** Fit       0.013394
 **** Fit       0.015240
 **** Fit       0.017240
 **** Fit       0.019493
 **** Fit       0.022020
 **** Fit       0.024775
 **** Fit       0.027670
 **** Fit       0.030591
 **** Fit       0.034393
 **** Fit       0.036392
 **** Fit       0.038013
 **** Fit       0.039154
 **** Fit       0.039797
 **** Fit       0.040064
 **** Fit       0.040252
 **** Fit       0.040841
 **** Fit       0.042443
 **** Fit       0.045672
 **** Fit       0.050876
 **** Fit       0.057788
 **** Fit       0.035773
 **** Fit       0.026477
 **** Fit       0.020992
 **** Fit       0.018714
 **** Fit       0.018400
 **** Fit       0.019053
 **** Fit       0.020173
 **** Fit       0.021602
 **** Fit       0.023316
 **** Fit       0.025295
 **** Fit       0.027489
 **** Fit       0.029810
 **** Fit       0.032153
 **** Fit       0.035516
 **** Fit       0.037240
 **** Fit       0.038646
 **** Fit       0.039687
 **** Fit       0.040437
 **** Fit       0.041127
 **** Fit       0.042153
 **** Fit       0.043997
 **** Fit       0.047055
 **** Fit       0.051346
 **** Fit       0.056218
 **** Fit       0.060259
 **** Fit       0.061687
 **** Fit       0.059218
 **** Fit       0.052952
 **** Fit       0.044536
 **** Fit       0.036328
 **** Fit       0.030136
 **** Fit       0.026502
 **** Fit       0.024954
 **** Fit       0.024741
 **** Fit       0.025318
 **** Fit       0.026407
 **** Fit       0.027878
 **** Fit       0.029638
 **** Fit       0.031581
 **** Fit       0.033585
 **** Fit       0.036685
 **** Fit       0.038219
 **** Fit       0.039519
 **** Fit       0.040602
 **** Fit       0.041626
 **** Fit       0.042894
 **** Fit       0.044760
 **** Fit       0.047413
 **** Fit       0.050589
 **** Fit       0.053397
 **** Fit       0.054515
 **** Fit       0.052886
 **** Fit       0.048506
 **** Fit       0.042614
 **** Fit       0.036972
 **** Fit       0.032830
 **** Fit       0.030485
 **** Fit       0.029599
 **** Fit       0.029716
 **** Fit       0.030506
 **** Fit       0.031758
 **** Fit       0.033310
 **** Fit       0.035004
 **** Fit       0.037858
 **** Fit       0.039329
 **** Fit       0.040669
 **** Fit       0.041970
 **** Fit       0.043473
 **** Fit       0.045399
 **** Fit       0.047618
 **** Fit       0.049381
 **** Fit       0.049533
 **** Fit       0.047362
 **** Fit       0.043374
 **** Fit       0.039049
 **** Fit       0.035735
 **** Fit       0.033918
 **** Fit       0.033412
 **** Fit       0.033852
 **** Fit       0.034913
 **** Fit       0.036326
 **** Fit       0.039029
 **** Fit       0.040610
 **** Fit       0.042219
 **** Fit       0.043964
 **** Fit       0.045671
 **** Fit       0.046342
 **** Fit       0.044848
 **** Fit       0.041609
 **** Fit       0.038483
 **** Fit       0.036806
 **** Fit       0.036668
 **** Fit       0.037585
 **** Fit       0.040224
 **** Fit       0.042096
 **** Fit       0.043648
 **** Fit       0.042990
 **** Fit       0.040347
 **** Fit       0.039200
 **** Fit       0.041508
 **** Fit      -0.028944
 **** Fit      -0.026356
 **** Fit      -0.018791
 **** Fit       0.011151
 **** Fit      -0.016443
 **** Fit      -0.010347
 **** Fit      -0.005117
 **** Fit      -0.000621
 **** Fit       0.008111
 **** Fit       0.010969
 **** Fit       0.013315
 **** Fit       0.015068
 **** Fit       0.016058
 **** Fit       0.016069
 **** Fit      -0.009021
 **** Fit      -0.003706
 **** Fit       0.000839
 **** Fit       0.004747
 **** Fit       0.012632
 **** Fit       0.015027
 **** Fit       0.016983
 **** Fit       0.018435
 **** Fit       0.019251
 **** Fit       0.019236
 **** Fit       0.018137
 **** Fit      -0.001782
 **** Fit       0.002699
 **** Fit       0.006526
 **** Fit       0.009810
 **** Fit       0.016912
 **** Fit       0.018882
 **** Fit       0.020472
 **** Fit       0.021625
 **** Fit       0.022237
 **** Fit       0.022148
 **** Fit       0.021142
 **** Fit       0.018914
 **** Fit       0.004840
 **** Fit       0.008611
 **** Fit       0.011825
 **** Fit       0.014569
 **** Fit       0.021051
 **** Fit       0.022677
 **** Fit       0.023949
 **** Fit       0.024816
 **** Fit       0.025180
 **** Fit       0.024899
 **** Fit       0.023791
 **** Fit       0.021623
 **** Fit       0.018109
 **** Fit       0.014012
 **** Fit       0.016758
 **** Fit       0.019087
 **** Fit       0.025166
 **** Fit       0.026448
 **** Fit       0.027413
 **** Fit       0.028004
 **** Fit       0.028132
 **** Fit       0.027679
 **** Fit       0.026522
 **** Fit       0.024559
 **** Fit       0.021812
 **** Fit       0.019519
 **** Fit       0.021715
 **** Fit       0.023590
 **** Fit       0.029421
 **** Fit       0.030302
 **** Fit       0.030945
 **** Fit       0.031289
 **** Fit       0.031262
 **** Fit       0.030798
 **** Fit       0.029872
 **** Fit       0.028580
 **** Fit       0.027110
 **** Fit       0.028345
 **** Fit       0.034061
 **** Fit       0.034490
 **** Fit       0.034799
 **** Fit       0.034908
 **** Fit       0.034768
 **** Fit       0.034401
 **** Fit       0.033610
 **** Fit       0.039193
 **** Fit       0.039188
 -----------------------------------------------------------------
 Leave Link  602 at Tue Sep 17 00:38:04 2019, MaxMem=  1342177280 cpu:             128.7 elap:               2.7

 Test job not archived.
 1\1\GINC-C506-073\SP\RB3LYP\SVP\C54H83Ca1N15O23\PENGZHI\17-Sep-2019\0\
 \#b3lyp/svp scf=(tight,noincore) Test #IOP(5/87=12) Density=Current Po
 p=(MK,readradii) iop(6/33=2) iop(6/42=6)\\Ng-293_loop3_27.0\\0,1\C,0,4
 0.4,77.68,70.71\C,0,40.73,77.72,69.22\O,0,41.7,78.38,68.84\H,0,39.36,7
 7.382,70.843\H,0,41.05,76.961,71.208\H,0,40.552,78.669,71.143\N,0,40.,
 77.04,68.35\C,0,40.28,77.01,66.93\C,0,40.04,75.6,66.39\O,0,39.42,74.79
 ,67.07\C,0,39.44,78.09,66.26\C,0,39.65,78.23,64.76\O,0,40.81,78.08,64.
 32\O,0,38.69,78.6,64.04\H,0,39.27,76.48,68.77\H,0,41.35,77.21,66.83\H,
 0,39.57,79.07,66.71\H,0,38.39,77.81,66.38\N,0,40.55,75.35,65.19\C,0,40
 .39,74.1,64.46\C,0,39.02,73.82,63.87\O,0,38.14,74.66,64.07\C,0,41.01,7
 2.96,65.25\C,0,42.44,73.21,65.71\C,0,43.42,73.43,64.56\C,0,44.83,73.04
 ,65.02\N,0,45.37,74.1,65.88\H,0,41.04,76.1,64.74\H,0,40.91,74.28,63.51
 \H,0,40.99,72.1,64.58\H,0,40.33,72.7,66.06\H,0,42.74,72.26,66.17\H,0,4
 2.62,74.,66.43\H,0,43.36,74.4,64.07\H,0,43.1,72.77,63.75\H,0,45.43,73.
 07,64.11\H,0,44.78,72.05,65.47\H,0,44.99,74.15,66.81\H,0,46.35,73.88,6
 6.01\H,0,45.3,75.04,65.51\N,0,38.85,72.68,63.21\C,0,37.62,72.18,62.63\
 C,0,36.85,71.48,63.74\O,0,36.59,70.29,63.86\C,0,37.82,71.44,61.31\C,0,
 38.93,70.39,61.3\O,0,39.4,69.87,62.33\O,0,39.32,69.88,60.23\H,0,39.66,
 72.11,63.01\H,0,36.91,72.99,62.42\H,0,38.02,72.21,60.57\H,0,36.91,70.9
 8,60.91\N,0,36.45,72.31,64.7\C,0,35.53,72.01,65.78\C,0,34.05,71.9,65.4
 4\O,0,33.18,72.35,66.18\H,0,36.79,73.27,64.7\H,0,35.72,72.73,66.57\H,0
 ,35.75,71.02,66.17\N,0,33.75,71.4,64.24\C,0,32.39,71.14,63.8\C,0,32.12
 ,69.68,63.48\O,0,33.02,68.92,63.13\C,0,32.01,72.,62.6\C,0,31.78,73.48,
 62.88\N,0,32.33,74.39,62.07\O,0,31.13,73.86,63.85\H,0,34.45,71.14,63.5
 6\H,0,31.78,71.38,64.67\H,0,31.05,71.65,62.22\H,0,32.72,71.86,61.78\H,
 0,32.89,74.15,61.26\H,0,32.23,75.34,62.4\N,0,30.84,69.32,63.66\C,0,30.
 37,67.96,63.79\C,0,30.55,67.37,65.18\O,0,31.14,68.07,66.\H,0,30.22,70.
 04,64.\H,0,30.97,67.4,63.07\H,0,29.32,67.78,63.54\N,0,29.96,66.22,65.5
 2\C,0,29.81,65.39,66.69\C,0,31.1,65.01,67.42\O,0,31.06,64.16,68.29\C,0
 ,28.78,65.97,67.65\C,0,28.18,64.95,68.6\C,0,28.48,65.04,69.96\C,0,27.2
 9,63.95,68.19\C,0,27.9,64.11,70.84\C,0,26.82,62.95,69.05\C,0,27.07,63.
 06,70.43\O,0,26.75,62.07,71.31\H,0,29.54,65.76,64.73\H,0,29.34,64.48,6
 6.31\H,0,27.88,66.22,67.08\H,0,29.23,66.82,68.15\H,0,29.15,65.8,70.31\
 H,0,26.99,63.88,67.15\H,0,28.27,64.34,71.83\H,0,26.2,62.12,68.74\H,0,2
 6.35,61.33,70.84\N,0,32.23,65.66,67.12\C,0,33.6,65.42,67.51\C,0,34.11,
 64.02,67.17\O,0,35.04,63.84,66.38\C,0,33.92,65.87,68.93\C,0,33.61,67.3
 5,69.2\C,0,35.37,65.58,69.27\C,0,33.93,68.47,68.21\H,0,32.1,66.45,66.5
 1\H,0,34.2,66.05,66.85\H,0,33.34,65.29,69.65\H,0,33.99,67.61,70.19\H,0
 ,32.54,67.42,69.37\H,0,35.66,64.53,69.27\H,0,35.95,66.2,68.58\H,0,35.4
 3,65.96,70.29\H,0,33.39,68.23,67.3\H,0,33.72,69.49,68.54\H,0,34.98,68.
 47,67.92\N,0,33.44,62.97,67.64\C,0,33.94,61.62,67.46\C,0,35.36,61.27,6
 7.9\O,0,36.02,60.42,67.3\C,0,32.93,60.67,68.08\O,0,32.84,61.02,69.45\H
 ,0,32.7,63.09,68.31\H,0,33.92,61.52,66.37\H,0,33.15,59.62,67.92\H,0,31
 .92,60.86,67.71\H,0,31.99,60.75,69.79\N,0,35.81,61.99,68.93\C,0,37.09,
 61.79,69.57\C,0,38.22,62.05,68.59\O,0,39.24,61.36,68.6\C,0,37.13,60.44
 ,70.29\H,0,35.21,62.68,69.35\H,0,37.19,62.61,70.28\H,0,38.05,60.6,70.8
 4\H,0,36.3,60.36,70.99\H,0,37.2,59.65,69.53\N,0,38.16,63.14,67.83\C,0,
 39.03,63.61,66.77\C,0,40.11,64.58,67.24\O,0,39.85,65.73,67.61\C,0,38.1
 5,64.41,65.81\H,0,37.36,63.74,67.94\H,0,39.42,62.7,66.33\H,0,37.63,65.
 22,66.31\H,0,38.72,64.95,65.06\H,0,37.46,63.75,65.28\N,0,41.37,64.25,6
 6.96\C,0,42.46,65.2,66.87\C,0,42.78,65.75,68.25\O,0,43.44,66.79,68.29\
 C,0,42.21,66.11,65.67\C,0,41.91,65.39,64.35\C,0,41.64,66.34,63.19\O,0,
 42.41,66.39,62.21\O,0,40.61,67.05,63.26\H,0,41.57,63.32,66.62\H,0,43.3
 4,64.59,66.67\H,0,43.07,66.76,65.54\H,0,41.41,66.8,65.95\H,0,41.09,64.
 69,64.51\H,0,42.73,64.77,64.\N,0,42.27,65.13,69.31\C,0,42.22,65.65,70.
 67\H,0,41.271,66.162,70.828\H,0,42.31,64.826,71.378\H,0,43.04,66.352,7
 0.822\H,0,41.79,64.26,69.15\Ca,0,41.17,68.41,61.08\O,0,39.42,66.58,60.
 64\H,0,39.16,66.3,59.76\H,0,39.32,65.8,61.18\\Version=ES64L-G16RevA.03
 \State=1-A\HF=-5333.3911951\RMSD=3.193e-09\Dipole=5.9776873,-7.4361415
 ,-3.9557914\Quadrupole=208.9951121,-243.3827255,34.3876133,93.3373254,
 -24.4399138,19.713946\PG=C01 [X(C54H83Ca1N15O23)]\\@


 "TIGER, TIGER BURNING BRIGHT
 IN THE FOREST OF THE NIGHT.
 WHAT IMMORTAL HAND OR EYE
 CAN FRAME THY FEARFUL SYMMETRYE?"
                     - WILLIAM BLAKE
 Job cpu time:       0 days  7 hours 46 minutes 48.3 seconds.
 Elapsed time:       0 days  0 hours  9 minutes 51.5 seconds.
 File lengths (MBytes):  RWF=   1517 Int=      0 D2E=      0 Chk=    171 Scr=      1
 Normal termination of Gaussian 16 at Tue Sep 17 00:38:05 2019.
