 Entering Gaussian System, Link 0=g16
 Initial command:
 /home1/apps/gaussian/16rA.03/g16/l1.exe "/scratch/01990/pengzhi/4350475/Gau-312929.inp" -scrdir="/scratch/01990/pengzhi/4350475/"
 Entering Link 1 = /home1/apps/gaussian/16rA.03/g16/l1.exe PID=    312930.
  
 Copyright (c) 1988,1990,1992,1993,1995,1998,2003,2009,2016,
            Gaussian, Inc.  All Rights Reserved.
  
 This is part of the Gaussian(R) 16 program.  It is based on
 the Gaussian(R) 09 system (copyright 2009, Gaussian, Inc.),
 the Gaussian(R) 03 system (copyright 2003, Gaussian, Inc.),
 the Gaussian(R) 98 system (copyright 1998, Gaussian, Inc.),
 the Gaussian(R) 94 system (copyright 1995, Gaussian, Inc.),
 the Gaussian 92(TM) system (copyright 1992, Gaussian, Inc.),
 the Gaussian 90(TM) system (copyright 1990, Gaussian, Inc.),
 the Gaussian 88(TM) system (copyright 1988, Gaussian, Inc.),
 the Gaussian 86(TM) system (copyright 1986, Carnegie Mellon
 University), and the Gaussian 82(TM) system (copyright 1983,
 Carnegie Mellon University). Gaussian is a federally registered
 trademark of Gaussian, Inc.
  
 This software contains proprietary and confidential information,
 including trade secrets, belonging to Gaussian, Inc.
  
 This software is provided under written license and may be
 used, copied, transmitted, or stored only in accord with that
 written license.
  
 The following legend is applicable only to US Government
 contracts under FAR:
  
                    RESTRICTED RIGHTS LEGEND
  
 Use, reproduction and disclosure by the US Government is
 subject to restrictions as set forth in subparagraphs (a)
 and (c) of the Commercial Computer Software - Restricted
 Rights clause in FAR 52.227-19.
  
 Gaussian, Inc.
 340 Quinnipiac St., Bldg. 40, Wallingford CT 06492
  
  
 ---------------------------------------------------------------
 Warning -- This program may not be used in any manner that
 competes with the business of Gaussian, Inc. or will provide
 assistance to any competitor of Gaussian, Inc.  The licensee
 of this program is prohibited from giving any competitor of
 Gaussian, Inc. access to this program.  By using this program,
 the user acknowledges that Gaussian, Inc. is engaged in the
 business of creating and licensing software in the field of
 computational chemistry and represents and warrants to the
 licensee that it is not a competitor of Gaussian, Inc. and that
 it will not use this program in any manner prohibited above.
 ---------------------------------------------------------------
  

 Cite this work as:
 Gaussian 16, Revision A.03,
 M. J. Frisch, G. W. Trucks, H. B. Schlegel, G. E. Scuseria, 
 M. A. Robb, J. R. Cheeseman, G. Scalmani, V. Barone, 
 G. A. Petersson, H. Nakatsuji, X. Li, M. Caricato, A. V. Marenich, 
 J. Bloino, B. G. Janesko, R. Gomperts, B. Mennucci, H. P. Hratchian, 
 J. V. Ortiz, A. F. Izmaylov, J. L. Sonnenberg, D. Williams-Young, 
 F. Ding, F. Lipparini, F. Egidi, J. Goings, B. Peng, A. Petrone, 
 T. Henderson, D. Ranasinghe, V. G. Zakrzewski, J. Gao, N. Rega, 
 G. Zheng, W. Liang, M. Hada, M. Ehara, K. Toyota, R. Fukuda, 
 J. Hasegawa, M. Ishida, T. Nakajima, Y. Honda, O. Kitao, H. Nakai, 
 T. Vreven, K. Throssell, J. A. Montgomery, Jr., J. E. Peralta, 
 F. Ogliaro, M. J. Bearpark, J. J. Heyd, E. N. Brothers, K. N. Kudin, 
 V. N. Staroverov, T. A. Keith, R. Kobayashi, J. Normand, 
 K. Raghavachari, A. P. Rendell, J. C. Burant, S. S. Iyengar, 
 J. Tomasi, M. Cossi, J. M. Millam, M. Klene, C. Adamo, R. Cammi, 
 J. W. Ochterski, R. L. Martin, K. Morokuma, O. Farkas, 
 J. B. Foresman, and D. J. Fox, Gaussian, Inc., Wallingford CT, 2016.
 
 ******************************************
 Gaussian 16:  ES64L-G16RevA.03 25-Dec-2016
                17-Sep-2019 
 ******************************************
 %chk=Ng-295_loop3_15.0.chk
 %nprocshared=48
 Will use up to   48 processors via shared memory.
 %mem=10GB
 %nosave
 ----------------------------------------------------------------------
 #b3lyp/svp scf=(tight,noincore) Test #IOP(5/87=12) Density=Current Pop
 =(MK,readradii) iop(6/33=2) iop(6/42=6)
 ----------------------------------------------------------------------
 1/30=1,38=1,172=1/1;
 2/12=2,17=6,18=5,40=1/2;
 3/5=18,7=101,11=2,25=1,30=1,74=-5/1,2,3;
 4//1;
 5/5=4,32=2,38=5,87=12/2;
 6/7=2,8=2,9=2,10=2,15=8,20=101,22=-1,28=1,33=2,42=6/1,2;
 99/5=1,9=1/99;
 -----------------
 Ng-295_loop3_15.0
 -----------------
 Symbolic Z-matrix:
 Charge =  0 Multiplicity = 1
 C                     7.135     73.695    66.64 
 C                     6.335     72.845    65.67 
 O                     5.675     73.425    64.81 
 H                     8.042     74.048    66.15 
 H                     6.536     74.55     66.954 
 H                     7.403     73.098    67.512 
 N                     6.405     71.525    65.81 
 C                     5.765     70.475    65.04 
 C                     5.215     69.305    65.84 
 O                     6.015     68.615    66.47 
 C                     6.825     70.005    64.04 
 C                     6.315     69.045    62.97 
 O                     6.165     69.455    61.8 
 O                     6.095     67.845    63.23 
 H                     7.075     71.135    66.46 
 H                     4.955     70.995    64.54 
 H                     7.635     69.535    64.59 
 H                     7.185     70.915    63.54 
 N                     3.905     69.055    65.89 
 C                     3.205     68.335    66.93 
 C                     2.425     67.065    66.59 
 O                     1.775     66.495    67.46 
 C                     2.255     69.275    67.66 
 C                     2.855     70.495    68.35 
 C                     1.725     71.445    68.73 
 C                     2.175     72.625    69.58 
 N                     2.765     72.225    70.87 
 H                     3.385     69.645    65.26 
 H                     3.925     67.995    67.67 
 H                     1.555     68.765    68.32 
 H                     1.635     69.525    66.79 
 H                     3.515     70.955    67.61 
 H                     3.425     70.165    69.23 
 H                     0.945     70.905    69.26 
 H                     1.245     71.925    67.88 
 H                     1.365     73.345    69.73 
 H                     2.895     73.235    69.03 
 H                     2.995     72.995    71.47 
 H                     2.065     71.685    71.38 
 H                     3.595     71.675    70.74 
 N                     2.395     66.605    65.34 
 C                     1.535     65.605    64.74 
 C                     2.035     64.175    64.95 
 O                     1.335     63.245    64.55 
 C                     1.235     65.905    63.28 
 C                     2.405     65.955    62.3 
 O                     3.575     65.765    62.7 
 O                     2.205     66.145    61.08 
 H                     3.135     66.945    64.74 
 H                     0.535     65.695    65.16 
 H                     0.735     66.865    63.3 
 H                     0.505     65.145    62.99 
 N                     3.215     63.985    65.53 
 C                     3.835     62.675    65.59 
 C                     4.635     62.335    64.33 
 O                     5.185     61.245    64.34 
 H                     3.795     64.805    65.66 
 H                     3.145     61.865    65.82 
 H                     4.585     62.705    66.38 
 N                     4.815     63.095    63.25 
 C                     5.475     62.635    62.04 
 C                     6.445     63.615    61.4 
 O                     6.175     64.815    61.35 
 C                     4.345     62.225    61.11 
 C                     4.885     61.725    59.78 
 N                     4.455     62.445    58.74 
 O                     5.805     60.915    59.7 
 H                     4.425     64.025    63.28 
 H                     6.035     61.725    62.29 
 H                     3.805     63.165    60.95 
 H                     3.715     61.495    61.61 
 H                     3.555     62.865    58.89 
 H                     4.705     62.135    57.81 
 N                     7.545     63.105    60.84 
 C                     8.475     63.815    59.98 
 C                     8.555     63.415    58.51 
 O                     8.715     64.285    57.67 
 H                     7.595     62.115    61.03 
 H                     9.485     63.735    60.37 
 H                     8.165     64.855    59.89 
 N                     8.295     62.155    58.16 
 C                     8.305     61.685    56.79 
 C                     7.125     62.205    55.98 
 O                     5.995     62.305    56.45 
 C                     8.465     60.165    56.82 
 C                     8.775     59.675    55.42 
 C                     7.835     59.045    54.6 
 C                     10.065    59.845    54.91 
 C                     8.135     58.535    53.33 
 C                     10.435    59.365    53.64 
 C                     9.445     58.735    52.86 
 O                     9.725     58.215    51.63 
 H                     8.055     61.405    58.79 
 H                     9.265     62.005    56.38 
 H                     7.545     59.735    57.22 
 H                     9.195     59.705    57.47 
 H                     6.855     58.835    55.01 
 H                     10.885    60.335    55.41 
 H                     7.445     57.965    52.73 
 H                     11.385    59.615    53.21 
 H                     10.555    58.435    51.2 
 N                     7.415     62.475    54.7 
 C                     6.645     62.945    53.57 
 C                     5.515     62.065    53.07 
 O                     4.935     61.285    53.83 
 C                     6.095     64.365    53.72 
 C                     7.075     65.455    54.13 
 C                     4.835     64.535    54.56 
 C                     6.675     66.915    53.93 
 H                     8.395     62.395    54.5 
 H                     7.435     63.035    52.82 
 H                     5.755     64.645    52.72 
 H                     8.035     65.415    53.61 
 H                     7.255     65.275    55.19 
 H                     5.145     64.825    55.57 
 H                     4.315     65.375    54.12 
 H                     4.125     63.705    54.56 
 H                     6.455     67.015    52.87 
 H                     5.755     67.165    54.47 
 H                     7.485     67.525    54.33 
 N                     5.245     62.165    51.76 
 C                     4.255     61.365    51.06 
 C                     4.205     61.485    49.55 
 O                     3.395     60.805    48.91 
 C                     2.815     61.555    51.52 
 O                     2.465     62.915    51.62 
 H                     5.805     62.845    51.27 
 H                     4.445     60.305    51.21 
 H                     2.725     61.175    52.54 
 H                     2.045     61.065    50.93 
 H                     2.155     63.165    52.49 
 N                     5.035     62.355    48.96 
 C                     5.105     62.735    47.56 
 C                     3.775     62.875    46.83 
 O                     3.295     62.115    45.99 
 C                     6.145     61.835    46.9 
 H                     5.835     62.515    49.55 
 H                     5.495     63.745    47.57 
 H                     6.395     62.375    45.98 
 H                     7.055     61.905    47.5 
 H                     5.815     60.815    46.75 
 N                     2.995     63.935    47.05 
 C                     3.135     65.085    47.91 
 C                     3.395     66.305    47.03 
 O                     3.025     66.245    45.86 
 C                     1.795     65.225    48.62 
 H                     2.175     63.975    46.46 
 H                     3.965     64.925    48.6 
 H                     0.975     65.185    47.91 
 H                     1.625     64.385    49.3 
 H                     1.805     66.175    49.17 
 N                     3.995     67.375    47.56 
 C                     4.345     67.735    48.92 
 C                     5.785     68.245    48.94 
 O                     6.315     68.525    50.01 
 C                     3.355     68.755    49.47 
 C                     3.555     69.195    50.92 
 C                     2.305     69.995    51.28 
 O                     2.275     71.235    51.15 
 O                     1.295     69.435    51.75 
 H                     4.215     68.105    46.9 
 H                     4.325     66.845    49.54 
 H                     2.395     68.265    49.28 
 H                     3.585     69.645    48.89 
 H                     4.435     69.825    51.05 
 H                     3.675     68.335    51.58 
 N                     6.425     68.435    47.78 
 C                     7.675     69.125    47.54 
 H                     8.448     68.399    47.289 
 H                     7.552     69.824    46.713 
 H                     7.968     69.671    48.437 
 H                     5.925     68.045    46.99 
 Ca                    4.98      67.27     60.94 
 O                     3.23      68.95     61.97 
 H                     2.33      69.01     61.66 
 H                     3.43      69.82     62.3 
 
 Stoichiometry    C54H83CaN15O23
 Framework group  C1[X(C54H83CaN15O23)]
 Deg. of freedom   522
 Full point group                 C1      NOp   1
 Largest Abelian subgroup         C1      NOp   1
 Largest concise Abelian subgroup C1      NOp   1
                         Standard orientation:                         
 ---------------------------------------------------------------------
 Center     Atomic      Atomic             Coordinates (Angstroms)
 Number     Number       Type             X           Y           Z
 ---------------------------------------------------------------------
      1          6           0      -10.722000    4.451566    4.384677
      2          6           0       -9.613754    4.182773    3.383208
      3          8           0       -8.991602    5.148267    2.944632
      4          1           0      -10.286281    4.644440    5.364629
      5          1           0      -11.297352    5.320941    4.065962
      6          1           0      -11.377730    3.582608    4.444240
      7          7           0       -9.383279    2.916997    3.049153
      8          6           0       -8.401514    2.362267    2.136239
      9          6           0       -8.887560    1.230923    1.244488
     10          8           0       -9.249450    0.188243    1.787493
     11          6           0       -7.241453    1.901324    3.022969
     12          6           0       -5.987484    1.474700    2.266559
     13          8           0       -4.986729    2.221685    2.268455
     14          8           0       -5.924652    0.370279    1.690100
     15          1           0       -9.855048    2.181052    3.558386
     16          1           0       -8.118691    3.216115    1.530060
     17          1           0       -7.585898    1.079125    3.643328
     18          1           0       -6.985325    2.766925    3.649732
     19          7           0       -8.956571    1.374264   -0.080574
     20          6           0       -9.805900    0.630853   -0.983890
     21          6           0       -9.186316   -0.204275   -2.104415
     22          8           0       -9.910013   -0.777682   -2.911735
     23          6           0      -10.827564    1.564524   -1.619075
     24          6           0      -11.781651    2.308782   -0.691553
     25          6           0      -12.482420    3.402791   -1.488967
     26          6           0      -13.589359    4.109787   -0.719394
     27          7           0      -14.678034    3.208702   -0.301024
     28          1           0       -8.548334    2.243138   -0.386844
     29          1           0      -10.374272   -0.099390   -0.413539
     30          1           0      -11.369503    1.119572   -2.452154
     31          1           0      -10.103075    2.219573   -2.118902
     32          1           0      -11.152025    2.742281    0.089759
     33          1           0      -12.497320    1.592566   -0.263705
     34          1           0      -12.896868    2.990463   -2.405001
     35          1           0      -11.830327    4.221119   -1.786312
     36          1           0      -13.984872    4.963979   -1.277002
     37          1           0      -13.178898    4.609343    0.160927
     38          1           0      -15.448203    3.676068    0.139667
     39          1           0      -15.067840    2.778428   -1.140437
     40          1           0      -14.346723    2.498313    0.326575
     41          7           0       -7.863303   -0.264969   -2.249164
     42          6           0       -7.073303   -0.756934   -3.359781
     43          6           0       -6.850713   -2.269463   -3.318401
     44          8           0       -6.260843   -2.800708   -4.259003
     45          6           0       -5.774456    0.015094   -3.528807
     46          6           0       -4.767938   -0.008806   -2.380700
     47          8           0       -5.020292   -0.639137   -1.329985
     48          8           0       -3.662596    0.565950   -2.491935
     49          1           0       -7.329847   -0.003932   -1.430332
     50          1           0       -7.569019   -0.498081   -4.293462
     51          1           0       -6.089566    1.033725   -3.716151
     52          1           0       -5.338564   -0.382875   -4.448708
     53          7           0       -7.275125   -2.953239   -2.261413
     54          6           0       -6.933146   -4.349394   -2.066725
     55          6           0       -5.576740   -4.542066   -1.383907
     56          8           0       -5.251555   -5.702599   -1.188666
     57          1           0       -7.584054   -2.411396   -1.463497
     58          1           0       -6.979916   -4.950713   -2.972996
     59          1           0       -7.648384   -4.764485   -1.357054
     60          7           0       -4.735350   -3.597765   -0.963480
     61          6           0       -3.403730   -3.872866   -0.451224
     62          6           0       -2.990798   -3.083664    0.780664
     63          8           0       -3.288532   -1.893871    0.886239
     64          6           0       -2.476366   -3.653745   -1.635235
     65          6           0       -1.026847   -3.896384   -1.247262
     66          7           0       -0.254479   -2.820220   -1.421097
     67          8           0       -0.666469   -4.884826   -0.613220
     68          1           0       -5.044381   -2.641738   -1.055200
     69          1           0       -3.357282   -4.939240   -0.196489
     70          1           0       -2.616004   -2.591105   -1.863483
     71          1           0       -2.799981   -4.275401   -2.465064
     72          1           0       -0.574290   -2.213591   -2.155006
     73          1           0        0.739596   -2.916113   -1.259480
     74          7           0       -2.239354   -3.716376    1.685488
     75          6           0       -1.544372   -3.100330    2.801771
     76          6           0       -0.019107   -3.076878    2.783962
     77          8           0        0.560596   -2.093533    3.214167
     78          1           0       -2.148239   -4.688820    1.431025
     79          1           0       -1.828031   -3.580249    3.733337
     80          1           0       -1.762799   -2.033703    2.821668
     81          7           0        0.642762   -4.053190    2.162315
     82          6           0        2.086387   -4.101130    2.054851
     83          6           0        2.641507   -3.051353    1.101588
     84          8           0        2.086226   -2.759111    0.046099
     85          6           0        2.483110   -5.545256    1.748238
     86          6           0        3.981412   -5.691392    1.921252
     87          6           0        4.876164   -5.760062    0.849989
     88          6           0        4.512328   -5.772868    3.211442
     89          6           0        6.254484   -5.957997    1.005083
     90          6           0        5.887233   -5.964010    3.442313
     91          6           0        6.740192   -6.029179    2.322665
     92          8           0        8.081492   -6.241583    2.454953
     93          1           0        0.226408   -4.844433    1.695858
     94          1           0        2.457945   -3.976455    3.073919
     95          1           0        2.153878   -5.779394    0.734293
     96          1           0        2.034522   -6.362818    2.293546
     97          1           0        4.473238   -5.778357   -0.154957
     98          1           0        3.954685   -5.706977    4.131873
     99          1           0        6.938770   -6.107197    0.186247
    100          1           0        6.296397   -5.894727    4.431093
    101          1           0        8.490666   -6.164371    3.320294
    102          7           0        3.815980   -2.530969    1.482658
    103          6           0        4.719755   -1.557822    0.910929
    104          6           0        5.362667   -1.888711   -0.422667
    105          8           0        4.806583   -2.643714   -1.224627
    106          6           0        4.151009   -0.140709    0.812352
    107          6           0        3.526969    0.451447    2.067950
    108          6           0        3.212704    0.149954   -0.352637
    109          6           0        3.293410    1.959129    2.130763
    110          1           0        4.096480   -2.836522    2.396309
    111          1           0        5.468759   -1.497812    1.704712
    112          1           0        5.011141    0.495769    0.590835
    113          1           0        4.102288    0.278106    2.980398
    114          1           0        2.571083   -0.063394    2.166034
    115          1           0        2.185452    0.040228    0.012073
    116          1           0        3.370411    1.193908   -0.586921
    117          1           0        3.390750   -0.399217   -1.279843
    118          1           0        4.268393    2.412665    1.970413
    119          1           0        2.644339    2.306924    1.319440
    120          1           0        2.798319    2.165646    3.079676
    121          7           0        6.574161   -1.350311   -0.626152
    122          6           0        7.396719   -1.593229   -1.798538
    123          6           0        8.809675   -1.045228   -1.782658
    124          8           0        9.554179   -1.248359   -2.748345
    125          6           0        6.805372   -1.124676   -3.122195
    126          8           0        6.314597    0.192758   -3.047322
    127          1           0        6.897051   -0.756525    0.121685
    128          1           0        7.554849   -2.659624   -1.939944
    129          1           0        5.924038   -1.731497   -3.341099
    130          1           0        7.452791   -1.180040   -3.993335
    131          1           0        5.390382    0.268341   -3.283149
    132          7           0        9.195093   -0.329319   -0.718315
    133          6           0       10.439737    0.390006   -0.511596
    134          6           0       11.011522    1.114360   -1.723938
    135          8           0       11.992256    0.797083   -2.395574
    136          6           0       11.389443   -0.553266    0.220182
    137          1           0        8.639733   -0.584261    0.081860
    138          1           0       10.181201    1.195040    0.164702
    139          1           0       12.142064    0.124552    0.638064
    140          1           0       10.856528   -0.925624    1.097878
    141          1           0       11.789146   -1.345825   -0.399404
    142          7           0       10.458132    2.250685   -2.151637
    143          6           0        9.328667    3.018755   -1.686798
    144          6           0        9.858096    4.303618   -1.054950
    145          8           0       10.972070    4.686019   -1.404565
    146          6           0        8.517853    3.342042   -2.934742
    147          1           0       10.957576    2.694225   -2.910536
    148          1           0        8.766671    2.434587   -0.956381
    149          1           0        9.154278    3.746166   -3.715605
    150          1           0        8.082832    2.433938   -3.362532
    151          1           0        7.731584    4.052658   -2.648551
    152          7           0        9.098471    4.955733   -0.169786
    153          6           0        7.718966    4.799979    0.247835
    154          6           0        7.658733    4.836240    1.773992
    155          8           0        6.591612    4.635761    2.344309
    156          6           0        6.845496    5.869015   -0.398085
    157          6           0        5.347583    5.805265   -0.100942
    158          6           0        4.698752    6.803189   -1.057637
    159          8           0        4.483226    7.981297   -0.709770
    160          8           0        4.331674    6.457152   -2.197861
    161          1           0        9.547709    5.743012    0.272116
    162          1           0        7.365380    3.818861   -0.050969
    163          1           0        7.096108    5.757375   -1.457580
    164          1           0        7.174998    6.777072    0.100173
    165          1           0        5.110914    6.085193    0.925619
    166          1           0        4.956962    4.799105   -0.257967
    167          7           0        8.763705    5.146807    2.462385
    168          6           0        8.890945    5.476402    3.866442
    169          1           0        9.382501    4.655962    4.388798
    170          1           0        9.485542    6.383219    3.975056
    171          1           0        7.901147    5.637254    4.294228
    172          1           0        9.594168    5.159404    1.882408
    173         20           0       -3.646115    0.815814    0.495229
    174          8           0       -5.212016    2.576919   -0.684714
    175          1           0       -4.992183    2.983731   -1.518907
    176          1           0       -5.752397    3.220226   -0.237562
 ---------------------------------------------------------------------
 Rotational constants (GHZ):           0.0225028           0.0066641           0.0058141
 Standard basis: SVP (5D, 7F)
 There are  1809 symmetry adapted cartesian basis functions of A   symmetry.
 There are  1717 symmetry adapted basis functions of A   symmetry.
  1717 basis functions,  2922 primitive gaussians,  1809 cartesian basis functions
   358 alpha electrons      358 beta electrons
       nuclear repulsion energy     18388.8516600777 Hartrees.
 NAtoms=  176 NActive=  176 NUniq=  176 SFac= 1.00D+00 NAtFMM=   60 NAOKFM=T Big=T
 Integral buffers will be    131072 words long.
 Raffenetti 2 integral format.
 Two-electron integral symmetry is turned on.
 One-electron integrals computed using PRISM.
 NBasis=  1717 RedAO= T EigKep=  2.87D-04  NBF=  1717
 NBsUse=  1717 1.00D-06 EigRej= -1.00D+00 NBFU=  1717
 ExpMin= 1.98D-02 ExpMax= 3.51D+04 ExpMxC= 5.28D+03 IAcc=3 IRadAn=         5 AccDes= 0.00D+00
 Harris functional with IExCor=  402 and IRadAn=       5 diagonalized for initial guess.
 HarFok:  IExCor=  402 AccDes= 0.00D+00 IRadAn=         5 IDoV= 1 UseB2=F ITyADJ=14
 ICtDFT=  3500011 ScaDFX=  1.000000  1.000000  1.000000  1.000000
 FoFCou: FMM=F IPFlag=           0 FMFlag=      100000 FMFlg1=        2001
         NFxFlg=           0 DoJE=T BraDBF=F KetDBF=T FulRan=T
         wScrn=  0.000000 ICntrl=       500 IOpCl=  0 I1Cent=   200000004 NGrid=           0
         NMat0=    1 NMatS0=      1 NMatT0=    0 NMatD0=    1 NMtDS0=    0 NMtDT0=    0
 Petite list used in FoFCou.
 Requested convergence on RMS density matrix=1.00D-08 within 128 cycles.
 Requested convergence on MAX density matrix=1.00D-06.
 Requested convergence on             energy=1.00D-06.
 No special actions if energy rises.
 EnCoef did     5 forward-backward iterations
 EnCoef did     4 forward-backward iterations
 EnCoef did     2 forward-backward iterations
 EnCoef did     3 forward-backward iterations
 EnCoef did     5 forward-backward iterations
 EnCoef did    55 forward-backward iterations
 Rare condition: small coef for last iteration: -0.444D-15
 EnCoef did   100 forward-backward iterations
 EnCoef did   100 forward-backward iterations
 EnCoef did    68 forward-backward iterations
 Rare condition: small coef for last iteration:  0.226D-14
 EnCoef did   100 forward-backward iterations
 EnCoef did   100 forward-backward iterations
 Rare condition: small coef for last iteration: -0.861D-15
 EnCoef did   100 forward-backward iterations
 EnCoef did   100 forward-backward iterations
 EnCoef did   100 forward-backward iterations
 Rare condition: small coef for last iteration: -0.165D-14
 Restarting incremental Fock formation.
 EnCoef did   100 forward-backward iterations
 EnCoef did   100 forward-backward iterations
 EnCoef did   100 forward-backward iterations
 Rare condition: small coef for last iteration:  0.155D-14
 EnCoef did   100 forward-backward iterations
 EnCoef did   100 forward-backward iterations
 EnCoef did   100 forward-backward iterations
 Rare condition: small coef for last iteration:  0.207D-15
 EnCoef did   100 forward-backward iterations
 Rare condition: small coef for last iteration:  0.000D+00
 EnCoef did    44 forward-backward iterations
 Rare condition: small coef for last iteration:  0.155D-14
 EnCoef did   100 forward-backward iterations
 EnCoef did   100 forward-backward iterations
 EnCoef did   100 forward-backward iterations
 Rare condition: small coef for last iteration:  0.506D-15
 EnCoef did   100 forward-backward iterations
 EnCoef did   100 forward-backward iterations
 Rare condition: small coef for last iteration: -0.872D-15
 EnCoef did   100 forward-backward iterations
 EnCoef did   100 forward-backward iterations
 Rare condition: small coef for last iteration: -0.429D-15
 EnCoef did    71 forward-backward iterations
 Restarting incremental Fock formation.
 EnCoef did   100 forward-backward iterations
 EnCoef did   100 forward-backward iterations
 Rare condition: small coef for last iteration:  0.622D-15
 EnCoef did   100 forward-backward iterations
 EnCoef did   100 forward-backward iterations
 Rare condition: small coef for last iteration:  0.867D-15
 EnCoef did    26 forward-backward iterations
 Rare condition: small coef for last iteration:  0.888D-15
 EnCoef did    51 forward-backward iterations
 Rare condition: small coef for last iteration:  0.000D+00
 Rare condition: small coef for last iteration:  0.000D+00
 EnCoef did   100 forward-backward iterations
 EnCoef did     5 forward-backward iterations
 Rare condition: small coef for last iteration:  0.333D-15
 EnCoef did   100 forward-backward iterations
 EnCoef did   100 forward-backward iterations
 Rare condition: small coef for last iteration:  0.668D-15
 EnCoef did   100 forward-backward iterations
 EnCoef did   100 forward-backward iterations
 EnCoef did   100 forward-backward iterations
 EnCoef did   100 forward-backward iterations
 Rare condition: small coef for last iteration: -0.840D-15
 EnCoef did   100 forward-backward iterations
 Restarting incremental Fock formation.
 EnCoef did   100 forward-backward iterations
 Rare condition: small coef for last iteration: -0.217D-14
 EnCoef did   100 forward-backward iterations
 EnCoef did   100 forward-backward iterations
 Rare condition: small coef for last iteration: -0.184D-14
 EnCoef did     8 forward-backward iterations
 Rare condition: small coef for last iteration:  0.444D-15
 EnCoef did    40 forward-backward iterations
 Rare condition: small coef for last iteration:  0.000D+00
 EnCoef did   100 forward-backward iterations
 EnCoef did     3 forward-backward iterations
 EnCoef did   100 forward-backward iterations
 EnCoef did    16 forward-backward iterations
 EnCoef did    15 forward-backward iterations
 EnCoef did    10 forward-backward iterations
 Restarting incremental Fock formation.
 SCF Done:  E(RB3LYP) =  -5333.36377980     A.U. after   82 cycles
            NFock= 82  Conv=0.17D-09     -V/T= 2.0081
 SCF density gives NOpUse=  1 NOpAll=  1.
 Hyperfine terms turned off by default for NAtoms > 100.

 **********************************************************************

            Population analysis using the SCF density.

 **********************************************************************

 Orbital symmetries:
 BldTbl:  Degeneracy threshold= 1.00D-02
       Occupied  (A) (A) (A) (A) (A) (A) (A) (A) (A) (A) (A) (A)
                 (A) (A) (A) (A) (A) (A) (A) (A) (A) (A) (A) (A)
                 (A) (A) (A) (A) (A) (A) (A) (A) (A) (A) (A) (A)
                 (A) (A) (A) (A) (A) (A) (A) (A) (A) (A) (A) (A)
                 (A) (A) (A) (A) (A) (A) (A) (A) (A) (A) (A) (A)
                 (A) (A) (A) (A) (A) (A) (A) (A) (A) (A) (A) (A)
                 (A) (A) (A) (A) (A) (A) (A) (A) (A) (A) (A) (A)
                 (A) (A) (A) (A) (A) (A) (A) (A) (A) (A) (A) (A)
                 (A) (A) (A) (A) (A) (A) (A) (A) (A) (A) (A) (A)
                 (A) (A) (A) (A) (A) (A) (A) (A) (A) (A) (A) (A)
                 (A) (A) (A) (A) (A) (A) (A) (A) (A) (A) (A) (A)
                 (A) (A) (A) (A) (A) (A) (A) (A) (A) (A) (A) (A)
                 (A) (A) (A) (A) (A) (A) (A) (A) (A) (A) (A) (A)
                 (A) (A) (A) (A) (A) (A) (A) (A) (A) (A) (A) (A)
                 (A) (A) (A) (A) (A) (A) (A) (A) (A) (A) (A) (A)
                 (A) (A) (A) (A) (A) (A) (A) (A) (A) (A) (A) (A)
                 (A) (A) (A) (A) (A) (A) (A) (A) (A) (A) (A) (A)
                 (A) (A) (A) (A) (A) (A) (A) (A) (A) (A) (A) (A)
                 (A) (A) (A) (A) (A) (A) (A) (A) (A) (A) (A) (A)
                 (A) (A) (A) (A) (A) (A) (A) (A) (A) (A) (A) (A)
                 (A) (A) (A) (A) (A) (A) (A) (A) (A) (A) (A) (A)
                 (A) (A) (A) (A) (A) (A) (A) (A) (A) (A) (A) (A)
                 (A) (A) (A) (A) (A) (A) (A) (A) (A) (A) (A) (A)
                 (A) (A) (A) (A) (A) (A) (A) (A) (A) (A) (A) (A)
                 (A) (A) (A) (A) (A) (A) (A) (A) (A) (A) (A) (A)
                 (A) (A) (A) (A) (A) (A) (A) (A) (A) (A) (A) (A)
                 (A) (A) (A) (A) (A) (A) (A) (A) (A) (A) (A) (A)
                 (A) (A) (A) (A) (A) (A) (A) (A) (A) (A) (A) (A)
                 (A) (A) (A) (A) (A) (A) (A) (A) (A) (A) (A) (A)
                 (A) (A) (A) (A) (A) (A) (A) (A) (A) (A)
       Virtual   (A) (A) (A) (A) (A) (A) (A) (A) (A) (A) (A) (A)
                 (A) (A) (A) (A) (A) (A) (A) (A) (A) (A) (A) (A)
                 (A) (A) (A) (A) (A) (A) (A) (A) (A) (A) (A) (A)
                 (A) (A) (A) (A) (A) (A) (A) (A) (A) (A) (A) (A)
                 (A) (A) (A) (A) (A) (A) (A) (A) (A) (A) (A) (A)
                 (A) (A) (A) (A) (A) (A) (A) (A) (A) (A) (A) (A)
                 (A) (A) (A) (A) (A) (A) (A) (A) (A) (A) (A) (A)
                 (A) (A) (A) (A) (A) (A) (A) (A) (A) (A) (A) (A)
                 (A) (A) (A) (A) (A) (A) (A) (A) (A) (A) (A) (A)
                 (A) (A) (A) (A) (A) (A) (A) (A) (A) (A) (A) (A)
                 (A) (A) (A) (A) (A) (A) (A) (A) (A) (A) (A) (A)
                 (A) (A) (A) (A) (A) (A) (A) (A) (A) (A) (A) (A)
                 (A) (A) (A) (A) (A) (A) (A) (A) (A) (A) (A) (A)
                 (A) (A) (A) (A) (A) (A) (A) (A) (A) (A) (A) (A)
                 (A) (A) (A) (A) (A) (A) (A) (A) (A) (A) (A) (A)
                 (A) (A) (A) (A) (A) (A) (A) (A) (A) (A) (A) (A)
                 (A) (A) (A) (A) (A) (A) (A) (A) (A) (A) (A) (A)
                 (A) (A) (A) (A) (A) (A) (A) (A) (A) (A) (A) (A)
                 (A) (A) (A) (A) (A) (A) (A) (A) (A) (A) (A) (A)
                 (A) (A) (A) (A) (A) (A) (A) (A) (A) (A) (A) (A)
                 (A) (A) (A) (A) (A) (A) (A) (A) (A) (A) (A) (A)
                 (A) (A) (A) (A) (A) (A) (A) (A) (A) (A) (A) (A)
                 (A) (A) (A) (A) (A) (A) (A) (A) (A) (A) (A) (A)
                 (A) (A) (A) (A) (A) (A) (A) (A) (A) (A) (A) (A)
                 (A) (A) (A) (A) (A) (A) (A) (A) (A) (A) (A) (A)
                 (A) (A) (A) (A) (A) (A) (A) (A) (A) (A) (A) (A)
                 (A) (A) (A) (A) (A) (A) (A) (A) (A) (A) (A) (A)
                 (A) (A) (A) (A) (A) (A) (A) (A) (A) (A) (A) (A)
                 (A) (A) (A) (A) (A) (A) (A) (A) (A) (A) (A) (A)
                 (A) (A) (A) (A) (A) (A) (A) (A) (A) (A) (A) (A)
                 (A) (A) (A) (A) (A) (A) (A) (A) (A) (A) (A) (A)
                 (A) (A) (A) (A) (A) (A) (A) (A) (A) (A) (A) (A)
                 (A) (A) (A) (A) (A) (A) (A) (A) (A) (A) (A) (A)
                 (A) (A) (A) (A) (A) (A) (A) (A) (A) (A) (A) (A)
                 (A) (A) (A) (A) (A) (A) (A) (A) (A) (A) (A) (A)
                 (A) (A) (A) (A) (A) (A) (A) (A) (A) (A) (A) (A)
                 (A) (A) (A) (A) (A) (A) (A) (A) (A) (A) (A) (A)
                 (A) (A) (A) (A) (A) (A) (A) (A) (A) (A) (A) (A)
                 (A) (A) (A) (A) (A) (A) (A) (A) (A) (A) (A) (A)
                 (A) (A) (A) (A) (A) (A) (A) (A) (A) (A) (A) (A)
                 (A) (A) (A) (A) (A) (A) (A) (A) (A) (A) (A) (A)
                 (A) (A) (A) (A) (A) (A) (A) (A) (A) (A) (A) (A)
                 (A) (A) (A) (A) (A) (A) (A) (A) (A) (A) (A) (A)
                 (A) (A) (A) (A) (A) (A) (A) (A) (A) (A) (A) (A)
                 (A) (A) (A) (A) (A) (A) (A) (A) (A) (A) (A) (A)
                 (A) (A) (A) (A) (A) (A) (A) (A) (A) (A) (A) (A)
                 (A) (A) (A) (A) (A) (A) (A) (A) (A) (A) (A) (A)
                 (A) (A) (A) (A) (A) (A) (A) (A) (A) (A) (A) (A)
                 (A) (A) (A) (A) (A) (A) (A) (A) (A) (A) (A) (A)
                 (A) (A) (A) (A) (A) (A) (A) (A) (A) (A) (A) (A)
                 (A) (A) (A) (A) (A) (A) (A) (A) (A) (A) (A) (A)
                 (A) (A) (A) (A) (A) (A) (A) (A) (A) (A) (A) (A)
                 (A) (A) (A) (A) (A) (A) (A) (A) (A) (A) (A) (A)
                 (A) (A) (A) (A) (A) (A) (A) (A) (A) (A) (A) (A)
                 (A) (A) (A) (A) (A) (A) (A) (A) (A) (A) (A) (A)
                 (A) (A) (A) (A) (A) (A) (A) (A) (A) (A) (A) (A)
                 (A) (A) (A) (A) (A) (A) (A) (A) (A) (A) (A) (A)
                 (A) (A) (A) (A) (A) (A) (A) (A) (A) (A) (A) (A)
                 (A) (A) (A) (A) (A) (A) (A) (A) (A) (A) (A) (A)
                 (A) (A) (A) (A) (A) (A) (A) (A) (A) (A) (A) (A)
                 (A) (A) (A) (A) (A) (A) (A) (A) (A) (A) (A) (A)
                 (A) (A) (A) (A) (A) (A) (A) (A) (A) (A) (A) (A)
                 (A) (A) (A) (A) (A) (A) (A) (A) (A) (A) (A) (A)
                 (A) (A) (A) (A) (A) (A) (A) (A) (A) (A) (A) (A)
                 (A) (A) (A) (A) (A) (A) (A) (A) (A) (A) (A) (A)
                 (A) (A) (A) (A) (A) (A) (A) (A) (A) (A) (A) (A)
                 (A) (A) (A) (A) (A) (A) (A) (A) (A) (A) (A) (A)
                 (A) (A) (A) (A) (A) (A) (A) (A) (A) (A) (A) (A)
                 (A) (A) (A) (A) (A) (A) (A) (A) (A) (A) (A) (A)
                 (A) (A) (A) (A) (A) (A) (A) (A) (A) (A) (A) (A)
                 (A) (A) (A) (A) (A) (A) (A) (A) (A) (A) (A) (A)
                 (A) (A) (A) (A) (A) (A) (A) (A) (A) (A) (A) (A)
                 (A) (A) (A) (A) (A) (A) (A) (A) (A) (A) (A) (A)
                 (A) (A) (A) (A) (A) (A) (A) (A) (A) (A) (A) (A)
                 (A) (A) (A) (A) (A) (A) (A) (A) (A) (A) (A) (A)
                 (A) (A) (A) (A) (A) (A) (A) (A) (A) (A) (A) (A)
                 (A) (A) (A) (A) (A) (A) (A) (A) (A) (A) (A) (A)
                 (A) (A) (A) (A) (A) (A) (A) (A) (A) (A) (A) (A)
                 (A) (A) (A) (A) (A) (A) (A) (A) (A) (A) (A) (A)
                 (A) (A) (A) (A) (A) (A) (A) (A) (A) (A) (A) (A)
                 (A) (A) (A) (A) (A) (A) (A) (A) (A) (A) (A) (A)
                 (A) (A) (A) (A) (A) (A) (A) (A) (A) (A) (A) (A)
                 (A) (A) (A) (A) (A) (A) (A) (A) (A) (A) (A) (A)
                 (A) (A) (A) (A) (A) (A) (A) (A) (A) (A) (A) (A)
                 (A) (A) (A) (A) (A) (A) (A) (A) (A) (A) (A) (A)
                 (A) (A) (A) (A) (A) (A) (A) (A) (A) (A) (A) (A)
                 (A) (A) (A) (A) (A) (A) (A) (A) (A) (A) (A) (A)
                 (A) (A) (A) (A) (A) (A) (A) (A) (A) (A) (A) (A)
                 (A) (A) (A) (A) (A) (A) (A) (A) (A) (A) (A) (A)
                 (A) (A) (A) (A) (A) (A) (A) (A) (A) (A) (A) (A)
                 (A) (A) (A) (A) (A) (A) (A) (A) (A) (A) (A) (A)
                 (A) (A) (A) (A) (A) (A) (A) (A) (A) (A) (A) (A)
                 (A) (A) (A) (A) (A) (A) (A) (A) (A) (A) (A) (A)
                 (A) (A) (A) (A) (A) (A) (A) (A) (A) (A) (A) (A)
                 (A) (A) (A) (A) (A) (A) (A) (A) (A) (A) (A) (A)
                 (A) (A) (A) (A) (A) (A) (A) (A) (A) (A) (A) (A)
                 (A) (A) (A) (A) (A) (A) (A) (A) (A) (A) (A) (A)
                 (A) (A) (A) (A) (A) (A) (A) (A) (A) (A) (A) (A)
                 (A) (A) (A) (A) (A) (A) (A) (A) (A) (A) (A) (A)
                 (A) (A) (A) (A) (A) (A) (A) (A) (A) (A) (A) (A)
                 (A) (A) (A) (A) (A) (A) (A) (A) (A) (A) (A) (A)
                 (A) (A) (A) (A) (A) (A) (A) (A) (A) (A) (A) (A)
                 (A) (A) (A) (A) (A) (A) (A) (A) (A) (A) (A) (A)
                 (A) (A) (A) (A) (A) (A) (A) (A) (A) (A) (A) (A)
                 (A) (A) (A) (A) (A) (A) (A) (A) (A) (A) (A) (A)
                 (A) (A) (A) (A) (A) (A) (A) (A) (A) (A) (A) (A)
                 (A) (A) (A) (A) (A) (A) (A) (A) (A) (A) (A) (A)
                 (A) (A) (A) (A) (A) (A) (A) (A) (A) (A) (A) (A)
                 (A) (A) (A) (A) (A) (A) (A) (A) (A) (A) (A) (A)
                 (A) (A) (A) (A) (A) (A) (A) (A) (A) (A) (A) (A)
                 (A) (A) (A) (A) (A) (A) (A) (A) (A) (A) (A) (A)
                 (A) (A) (A) (A) (A) (A) (A) (A) (A) (A) (A) (A)
                 (A) (A) (A) (A) (A) (A) (A) (A) (A) (A) (A) (A)
                 (A) (A) (A)
 The electronic state is 1-A.
 Alpha  occ. eigenvalues -- -145.45724 -19.20804 -19.16317 -19.13696 -19.13124
 Alpha  occ. eigenvalues --  -19.11677 -19.11603 -19.11402 -19.10981 -19.10386
 Alpha  occ. eigenvalues --  -19.10069 -19.09910 -19.09365 -19.09205 -19.09053
 Alpha  occ. eigenvalues --  -19.08641 -19.08566 -19.08425 -19.07654 -19.07530
 Alpha  occ. eigenvalues --  -19.07255 -19.05723 -18.97264 -18.97233 -15.51532
 Alpha  occ. eigenvalues --  -14.56142 -14.40568 -14.39104 -14.38878 -14.37225
 Alpha  occ. eigenvalues --  -14.37123 -14.36356 -14.36256 -14.35928 -14.35793
 Alpha  occ. eigenvalues --  -14.34403 -14.34334 -14.34248 -14.33825 -14.31618
 Alpha  occ. eigenvalues --  -12.65130 -12.65117 -12.65069 -10.34799 -10.32197
 Alpha  occ. eigenvalues --  -10.31803 -10.31322 -10.30832 -10.29789 -10.29332
 Alpha  occ. eigenvalues --  -10.29037 -10.28734 -10.28275 -10.28144 -10.28028
 Alpha  occ. eigenvalues --  -10.28019 -10.27971 -10.27790 -10.27196 -10.27090
 Alpha  occ. eigenvalues --  -10.26957 -10.26539 -10.26305 -10.25896 -10.25828
 Alpha  occ. eigenvalues --  -10.25411 -10.24532 -10.24490 -10.24453 -10.24378
 Alpha  occ. eigenvalues --  -10.24315 -10.23628 -10.23384 -10.23380 -10.22376
 Alpha  occ. eigenvalues --  -10.21722 -10.21677 -10.21511 -10.21497 -10.20522
 Alpha  occ. eigenvalues --  -10.20336 -10.20162 -10.19976 -10.19927 -10.19761
 Alpha  occ. eigenvalues --  -10.19724 -10.19562 -10.19180 -10.19072 -10.17878
 Alpha  occ. eigenvalues --  -10.17097 -10.16319 -10.16288 -10.16243 -10.16224
 Alpha  occ. eigenvalues --  -10.15151 -10.11194  -1.88122  -1.15518  -1.15365
 Alpha  occ. eigenvalues --   -1.15084  -1.12033  -1.06986  -1.06717  -1.06206
 Alpha  occ. eigenvalues --   -1.05130  -1.04787  -1.04737  -1.04569  -1.04298
 Alpha  occ. eigenvalues --   -1.03814  -1.03390  -1.02591  -1.02551  -1.02283
 Alpha  occ. eigenvalues --   -1.01756  -1.01736  -1.01301  -1.00489  -0.99618
 Alpha  occ. eigenvalues --   -0.99306  -0.97129  -0.95771  -0.95273  -0.94182
 Alpha  occ. eigenvalues --   -0.93578  -0.93392  -0.93369  -0.93212  -0.92913
 Alpha  occ. eigenvalues --   -0.92178  -0.92021  -0.92017  -0.92003  -0.90965
 Alpha  occ. eigenvalues --   -0.89857  -0.89785  -0.89708  -0.88586  -0.85765
 Alpha  occ. eigenvalues --   -0.84498  -0.82030  -0.81487  -0.81068  -0.80230
 Alpha  occ. eigenvalues --   -0.79970  -0.79113  -0.78485  -0.78086  -0.76261
 Alpha  occ. eigenvalues --   -0.76113  -0.76035  -0.75408  -0.75021  -0.74265
 Alpha  occ. eigenvalues --   -0.74050  -0.73504  -0.72438  -0.72424  -0.71509
 Alpha  occ. eigenvalues --   -0.71222  -0.70192  -0.69943  -0.69186  -0.68053
 Alpha  occ. eigenvalues --   -0.67338  -0.66577  -0.66490  -0.66165  -0.65907
 Alpha  occ. eigenvalues --   -0.64426  -0.64086  -0.63759  -0.63155  -0.62553
 Alpha  occ. eigenvalues --   -0.62323  -0.62114  -0.61611  -0.61427  -0.61149
 Alpha  occ. eigenvalues --   -0.60599  -0.60069  -0.59865  -0.59686  -0.59465
 Alpha  occ. eigenvalues --   -0.59153  -0.58957  -0.58584  -0.58488  -0.57983
 Alpha  occ. eigenvalues --   -0.57446  -0.56958  -0.56467  -0.56385  -0.56179
 Alpha  occ. eigenvalues --   -0.55971  -0.55736  -0.55596  -0.55393  -0.54582
 Alpha  occ. eigenvalues --   -0.53835  -0.53657  -0.53536  -0.53030  -0.52832
 Alpha  occ. eigenvalues --   -0.52655  -0.52492  -0.51652  -0.51538  -0.51272
 Alpha  occ. eigenvalues --   -0.50845  -0.50767  -0.50374  -0.50128  -0.49905
 Alpha  occ. eigenvalues --   -0.49768  -0.49652  -0.49541  -0.49012  -0.48644
 Alpha  occ. eigenvalues --   -0.48366  -0.48179  -0.47969  -0.47907  -0.47587
 Alpha  occ. eigenvalues --   -0.47530  -0.47314  -0.47187  -0.46847  -0.46734
 Alpha  occ. eigenvalues --   -0.46578  -0.46476  -0.46161  -0.45672  -0.45612
 Alpha  occ. eigenvalues --   -0.45445  -0.45086  -0.45018  -0.44835  -0.44735
 Alpha  occ. eigenvalues --   -0.44588  -0.44530  -0.44518  -0.44226  -0.44110
 Alpha  occ. eigenvalues --   -0.43983  -0.43742  -0.43623  -0.43506  -0.43380
 Alpha  occ. eigenvalues --   -0.43280  -0.43139  -0.43004  -0.42840  -0.42680
 Alpha  occ. eigenvalues --   -0.42560  -0.42461  -0.42318  -0.42278  -0.42200
 Alpha  occ. eigenvalues --   -0.41974  -0.41630  -0.41509  -0.41344  -0.41294
 Alpha  occ. eigenvalues --   -0.40819  -0.40744  -0.40651  -0.40622  -0.40516
 Alpha  occ. eigenvalues --   -0.40231  -0.40125  -0.40059  -0.39717  -0.39678
 Alpha  occ. eigenvalues --   -0.39604  -0.39472  -0.39325  -0.39124  -0.39031
 Alpha  occ. eigenvalues --   -0.38701  -0.38547  -0.38419  -0.38120  -0.37988
 Alpha  occ. eigenvalues --   -0.37934  -0.37909  -0.37754  -0.37678  -0.37662
 Alpha  occ. eigenvalues --   -0.37399  -0.37255  -0.37236  -0.36998  -0.36973
 Alpha  occ. eigenvalues --   -0.36436  -0.36247  -0.36175  -0.36084  -0.35482
 Alpha  occ. eigenvalues --   -0.35397  -0.35309  -0.35040  -0.34834  -0.34662
 Alpha  occ. eigenvalues --   -0.34478  -0.34431  -0.34049  -0.33710  -0.33600
 Alpha  occ. eigenvalues --   -0.32979  -0.31777  -0.31729  -0.31692  -0.31537
 Alpha  occ. eigenvalues --   -0.31154  -0.30753  -0.30667  -0.30623  -0.29713
 Alpha  occ. eigenvalues --   -0.29616  -0.28615  -0.28292  -0.27900  -0.27835
 Alpha  occ. eigenvalues --   -0.27819  -0.27571  -0.27470  -0.27422  -0.27341
 Alpha  occ. eigenvalues --   -0.27313  -0.27207  -0.27012  -0.26713  -0.26693
 Alpha  occ. eigenvalues --   -0.26390  -0.26367  -0.26312  -0.26172  -0.25598
 Alpha  occ. eigenvalues --   -0.25578  -0.25384  -0.24596  -0.24481  -0.24407
 Alpha  occ. eigenvalues --   -0.24292  -0.24199  -0.24078  -0.23907  -0.23760
 Alpha  occ. eigenvalues --   -0.23216  -0.22968  -0.22174  -0.22075  -0.21522
 Alpha  occ. eigenvalues --   -0.14720  -0.14127  -0.10705
 Alpha virt. eigenvalues --   -0.10171  -0.07892  -0.04131  -0.03872  -0.03296
 Alpha virt. eigenvalues --   -0.02889  -0.02427  -0.01777  -0.01425  -0.00996
 Alpha virt. eigenvalues --   -0.00603  -0.00159   0.00085   0.00316   0.00724
 Alpha virt. eigenvalues --    0.01057   0.01208   0.01276   0.01379   0.01616
 Alpha virt. eigenvalues --    0.02038   0.02161   0.02447   0.02975   0.03235
 Alpha virt. eigenvalues --    0.03577   0.03682   0.03768   0.03833   0.03896
 Alpha virt. eigenvalues --    0.04241   0.04406   0.04582   0.04850   0.04994
 Alpha virt. eigenvalues --    0.05026   0.05431   0.05450   0.05793   0.06273
 Alpha virt. eigenvalues --    0.06340   0.06476   0.06822   0.07056   0.07219
 Alpha virt. eigenvalues --    0.07403   0.07653   0.08214   0.08497   0.08590
 Alpha virt. eigenvalues --    0.08769   0.08998   0.09112   0.09186   0.09685
 Alpha virt. eigenvalues --    0.10018   0.10085   0.10196   0.10294   0.10345
 Alpha virt. eigenvalues --    0.10409   0.10543   0.10777   0.10845   0.11413
 Alpha virt. eigenvalues --    0.11603   0.11793   0.11821   0.12004   0.12227
 Alpha virt. eigenvalues --    0.12368   0.12739   0.12751   0.13070   0.13178
 Alpha virt. eigenvalues --    0.13287   0.13366   0.13435   0.13579   0.13763
 Alpha virt. eigenvalues --    0.13782   0.13969   0.14244   0.14295   0.14479
 Alpha virt. eigenvalues --    0.14565   0.14809   0.14915   0.15149   0.15265
 Alpha virt. eigenvalues --    0.15367   0.15426   0.15558   0.15722   0.15809
 Alpha virt. eigenvalues --    0.15894   0.16154   0.16206   0.16369   0.16456
 Alpha virt. eigenvalues --    0.16725   0.16899   0.17114   0.17261   0.17518
 Alpha virt. eigenvalues --    0.17632   0.17902   0.18000   0.18364   0.18789
 Alpha virt. eigenvalues --    0.18823   0.18949   0.19189   0.19456   0.19726
 Alpha virt. eigenvalues --    0.19865   0.20300   0.20473   0.20684   0.20840
 Alpha virt. eigenvalues --    0.20881   0.21107   0.21204   0.21286   0.21715
 Alpha virt. eigenvalues --    0.21812   0.22155   0.22421   0.22530   0.22551
 Alpha virt. eigenvalues --    0.22678   0.22904   0.23077   0.23262   0.23370
 Alpha virt. eigenvalues --    0.23454   0.23849   0.23926   0.24091   0.24183
 Alpha virt. eigenvalues --    0.24356   0.24760   0.24915   0.25655   0.26070
 Alpha virt. eigenvalues --    0.26305   0.26545   0.26769   0.26860   0.26952
 Alpha virt. eigenvalues --    0.27128   0.27341   0.27497   0.27770   0.28119
 Alpha virt. eigenvalues --    0.28182   0.28404   0.28474   0.28571   0.28960
 Alpha virt. eigenvalues --    0.29141   0.29448   0.29887   0.30145   0.30551
 Alpha virt. eigenvalues --    0.30674   0.30767   0.31182   0.31370   0.31628
 Alpha virt. eigenvalues --    0.31742   0.31850   0.32392   0.32531   0.32836
 Alpha virt. eigenvalues --    0.33289   0.33434   0.33561   0.34120   0.34271
 Alpha virt. eigenvalues --    0.34592   0.35304   0.35432   0.35526   0.35954
 Alpha virt. eigenvalues --    0.36199   0.36447   0.36786   0.37144   0.37592
 Alpha virt. eigenvalues --    0.37944   0.38201   0.38388   0.38614   0.38810
 Alpha virt. eigenvalues --    0.39053   0.39402   0.39526   0.39820   0.40584
 Alpha virt. eigenvalues --    0.40631   0.40909   0.40951   0.41123   0.41655
 Alpha virt. eigenvalues --    0.41726   0.41881   0.42284   0.42404   0.42605
 Alpha virt. eigenvalues --    0.42867   0.43009   0.43218   0.43269   0.43530
 Alpha virt. eigenvalues --    0.43686   0.44160   0.44465   0.44551   0.45002
 Alpha virt. eigenvalues --    0.45135   0.45179   0.45220   0.45298   0.45599
 Alpha virt. eigenvalues --    0.45703   0.46052   0.46471   0.46579   0.46818
 Alpha virt. eigenvalues --    0.46901   0.47204   0.47240   0.47380   0.47695
 Alpha virt. eigenvalues --    0.48118   0.48168   0.48387   0.48521   0.48619
 Alpha virt. eigenvalues --    0.49007   0.49105   0.49146   0.49322   0.49513
 Alpha virt. eigenvalues --    0.49725   0.49893   0.50076   0.50124   0.50375
 Alpha virt. eigenvalues --    0.50495   0.50686   0.50904   0.51176   0.51254
 Alpha virt. eigenvalues --    0.51309   0.51555   0.51951   0.52036   0.52184
 Alpha virt. eigenvalues --    0.52378   0.52594   0.52673   0.52951   0.53175
 Alpha virt. eigenvalues --    0.53395   0.53424   0.53703   0.54075   0.54107
 Alpha virt. eigenvalues --    0.54632   0.54688   0.55004   0.55128   0.55463
 Alpha virt. eigenvalues --    0.55536   0.55686   0.55825   0.55884   0.56160
 Alpha virt. eigenvalues --    0.56425   0.56537   0.56667   0.56963   0.57084
 Alpha virt. eigenvalues --    0.57355   0.57430   0.57562   0.57735   0.57830
 Alpha virt. eigenvalues --    0.58009   0.58256   0.58485   0.58625   0.58759
 Alpha virt. eigenvalues --    0.58876   0.59045   0.59103   0.59571   0.59628
 Alpha virt. eigenvalues --    0.59683   0.59842   0.60187   0.60230   0.60314
 Alpha virt. eigenvalues --    0.60449   0.60596   0.60806   0.60926   0.61057
 Alpha virt. eigenvalues --    0.61220   0.61362   0.61389   0.61624   0.61676
 Alpha virt. eigenvalues --    0.61803   0.62048   0.62080   0.62185   0.62265
 Alpha virt. eigenvalues --    0.62410   0.62514   0.62640   0.62723   0.62886
 Alpha virt. eigenvalues --    0.62985   0.63117   0.63230   0.63292   0.63401
 Alpha virt. eigenvalues --    0.63699   0.63781   0.63898   0.63990   0.64055
 Alpha virt. eigenvalues --    0.64135   0.64298   0.64442   0.64553   0.64581
 Alpha virt. eigenvalues --    0.64721   0.64860   0.64959   0.65032   0.65085
 Alpha virt. eigenvalues --    0.65127   0.65280   0.65287   0.65482   0.65543
 Alpha virt. eigenvalues --    0.65671   0.65734   0.65941   0.66049   0.66174
 Alpha virt. eigenvalues --    0.66237   0.66282   0.66389   0.66399   0.66504
 Alpha virt. eigenvalues --    0.66711   0.66757   0.66827   0.67121   0.67187
 Alpha virt. eigenvalues --    0.67214   0.67302   0.67404   0.67540   0.67601
 Alpha virt. eigenvalues --    0.67816   0.67961   0.68085   0.68148   0.68296
 Alpha virt. eigenvalues --    0.68462   0.68526   0.68776   0.68888   0.69014
 Alpha virt. eigenvalues --    0.69050   0.69386   0.69506   0.69623   0.69650
 Alpha virt. eigenvalues --    0.69761   0.69900   0.70015   0.70160   0.70195
 Alpha virt. eigenvalues --    0.70340   0.70465   0.70570   0.70665   0.70999
 Alpha virt. eigenvalues --    0.71324   0.71381   0.71506   0.71694   0.71777
 Alpha virt. eigenvalues --    0.71954   0.72216   0.72487   0.72656   0.72733
 Alpha virt. eigenvalues --    0.73140   0.73205   0.73324   0.73451   0.73499
 Alpha virt. eigenvalues --    0.73806   0.73940   0.74065   0.74187   0.74244
 Alpha virt. eigenvalues --    0.74490   0.74628   0.74732   0.74854   0.75022
 Alpha virt. eigenvalues --    0.75071   0.75322   0.75607   0.75863   0.76271
 Alpha virt. eigenvalues --    0.76423   0.76884   0.77039   0.77077   0.77298
 Alpha virt. eigenvalues --    0.77441   0.77741   0.77881   0.78266   0.78352
 Alpha virt. eigenvalues --    0.78426   0.78654   0.78925   0.79270   0.79547
 Alpha virt. eigenvalues --    0.79969   0.80109   0.80343   0.80445   0.80946
 Alpha virt. eigenvalues --    0.81286   0.81574   0.81928   0.82003   0.82303
 Alpha virt. eigenvalues --    0.82402   0.82604   0.82823   0.83301   0.83545
 Alpha virt. eigenvalues --    0.83835   0.84311   0.84504   0.84805   0.85043
 Alpha virt. eigenvalues --    0.85182   0.85612   0.85800   0.86294   0.86572
 Alpha virt. eigenvalues --    0.86669   0.87052   0.87513   0.87941   0.88122
 Alpha virt. eigenvalues --    0.88427   0.88837   0.89009   0.89246   0.89608
 Alpha virt. eigenvalues --    0.89846   0.90253   0.90431   0.90885   0.90953
 Alpha virt. eigenvalues --    0.91725   0.92172   0.92674   0.92745   0.92898
 Alpha virt. eigenvalues --    0.93573   0.93639   0.93951   0.94230   0.94429
 Alpha virt. eigenvalues --    0.94814   0.94900   0.95101   0.95338   0.95696
 Alpha virt. eigenvalues --    0.95853   0.95966   0.96272   0.96422   0.96632
 Alpha virt. eigenvalues --    0.96908   0.97202   0.97709   0.97785   0.98061
 Alpha virt. eigenvalues --    0.98233   0.98322   0.98867   0.99136   0.99466
 Alpha virt. eigenvalues --    0.99941   1.00159   1.00378   1.00841   1.01045
 Alpha virt. eigenvalues --    1.01401   1.01421   1.01668   1.01997   1.02295
 Alpha virt. eigenvalues --    1.02648   1.02935   1.03348   1.03577   1.03612
 Alpha virt. eigenvalues --    1.03820   1.04180   1.04330   1.04860   1.05166
 Alpha virt. eigenvalues --    1.05299   1.05376   1.05765   1.05998   1.06085
 Alpha virt. eigenvalues --    1.06322   1.06705   1.06947   1.07137   1.07388
 Alpha virt. eigenvalues --    1.07495   1.07711   1.08002   1.08374   1.08852
 Alpha virt. eigenvalues --    1.09036   1.09526   1.09819   1.09990   1.10260
 Alpha virt. eigenvalues --    1.10749   1.10891   1.11147   1.11299   1.11579
 Alpha virt. eigenvalues --    1.12055   1.12147   1.12309   1.12726   1.12876
 Alpha virt. eigenvalues --    1.13125   1.13315   1.13668   1.13854   1.14047
 Alpha virt. eigenvalues --    1.14167   1.14549   1.14856   1.15004   1.15341
 Alpha virt. eigenvalues --    1.15592   1.15785   1.15895   1.16191   1.16524
 Alpha virt. eigenvalues --    1.17110   1.17596   1.17773   1.18305   1.18516
 Alpha virt. eigenvalues --    1.18755   1.18909   1.19133   1.19208   1.19280
 Alpha virt. eigenvalues --    1.19635   1.19902   1.20132   1.20307   1.20518
 Alpha virt. eigenvalues --    1.20999   1.21342   1.21359   1.21707   1.22035
 Alpha virt. eigenvalues --    1.22419   1.22526   1.22576   1.22828   1.23318
 Alpha virt. eigenvalues --    1.23494   1.23798   1.24289   1.24922   1.25357
 Alpha virt. eigenvalues --    1.25479   1.25797   1.26036   1.26283   1.26699
 Alpha virt. eigenvalues --    1.26826   1.26938   1.27282   1.27451   1.27792
 Alpha virt. eigenvalues --    1.27902   1.28224   1.28558   1.28910   1.29070
 Alpha virt. eigenvalues --    1.29157   1.29723   1.29926   1.30264   1.30510
 Alpha virt. eigenvalues --    1.30733   1.31082   1.31399   1.31529   1.31749
 Alpha virt. eigenvalues --    1.31981   1.32019   1.32288   1.32376   1.32803
 Alpha virt. eigenvalues --    1.33003   1.33303   1.33798   1.34076   1.34354
 Alpha virt. eigenvalues --    1.34901   1.35073   1.35476   1.35719   1.36392
 Alpha virt. eigenvalues --    1.36613   1.36711   1.36896   1.37277   1.37488
 Alpha virt. eigenvalues --    1.37688   1.38417   1.38862   1.38955   1.39304
 Alpha virt. eigenvalues --    1.39521   1.39716   1.40248   1.40704   1.40768
 Alpha virt. eigenvalues --    1.41146   1.41523   1.41906   1.42132   1.42332
 Alpha virt. eigenvalues --    1.42484   1.42555   1.42681   1.42973   1.43609
 Alpha virt. eigenvalues --    1.44042   1.44257   1.44649   1.45132   1.45421
 Alpha virt. eigenvalues --    1.46178   1.46358   1.46366   1.46767   1.47154
 Alpha virt. eigenvalues --    1.47694   1.47847   1.47919   1.48236   1.48838
 Alpha virt. eigenvalues --    1.48880   1.49148   1.49823   1.50110   1.50206
 Alpha virt. eigenvalues --    1.50596   1.50852   1.51541   1.52056   1.52277
 Alpha virt. eigenvalues --    1.52464   1.52530   1.52655   1.53074   1.53114
 Alpha virt. eigenvalues --    1.53347   1.53900   1.54244   1.54377   1.54655
 Alpha virt. eigenvalues --    1.55232   1.55541   1.55609   1.56051   1.56247
 Alpha virt. eigenvalues --    1.56417   1.56956   1.57227   1.57610   1.57719
 Alpha virt. eigenvalues --    1.58059   1.58101   1.58445   1.59350   1.59695
 Alpha virt. eigenvalues --    1.60228   1.60233   1.60673   1.61013   1.61289
 Alpha virt. eigenvalues --    1.61495   1.61532   1.61785   1.61931   1.62019
 Alpha virt. eigenvalues --    1.62161   1.62575   1.63785   1.63926   1.64130
 Alpha virt. eigenvalues --    1.64518   1.64708   1.65314   1.65825   1.66018
 Alpha virt. eigenvalues --    1.66068   1.66779   1.67150   1.67212   1.67723
 Alpha virt. eigenvalues --    1.67919   1.68158   1.68764   1.68874   1.68942
 Alpha virt. eigenvalues --    1.69246   1.69361   1.69586   1.70000   1.70099
 Alpha virt. eigenvalues --    1.70345   1.70722   1.71088   1.71208   1.71651
 Alpha virt. eigenvalues --    1.71832   1.71962   1.72307   1.72459   1.72578
 Alpha virt. eigenvalues --    1.72977   1.73057   1.73384   1.73462   1.73507
 Alpha virt. eigenvalues --    1.73776   1.73897   1.74069   1.74206   1.74531
 Alpha virt. eigenvalues --    1.74544   1.74754   1.74864   1.75090   1.75165
 Alpha virt. eigenvalues --    1.75371   1.75852   1.75925   1.76018   1.76200
 Alpha virt. eigenvalues --    1.76232   1.76462   1.76626   1.76967   1.77288
 Alpha virt. eigenvalues --    1.77407   1.77566   1.77737   1.77793   1.77952
 Alpha virt. eigenvalues --    1.78150   1.78263   1.78626   1.78682   1.78789
 Alpha virt. eigenvalues --    1.78898   1.79154   1.79358   1.79631   1.79807
 Alpha virt. eigenvalues --    1.80033   1.80266   1.80334   1.80446   1.80547
 Alpha virt. eigenvalues --    1.80776   1.80888   1.81040   1.81158   1.81321
 Alpha virt. eigenvalues --    1.81566   1.81803   1.81912   1.82198   1.82235
 Alpha virt. eigenvalues --    1.82334   1.82589   1.82811   1.82973   1.83185
 Alpha virt. eigenvalues --    1.83316   1.83482   1.83670   1.83799   1.83908
 Alpha virt. eigenvalues --    1.84186   1.84424   1.84552   1.84735   1.84781
 Alpha virt. eigenvalues --    1.85340   1.85492   1.85878   1.85969   1.86246
 Alpha virt. eigenvalues --    1.86274   1.86296   1.86686   1.86933   1.87015
 Alpha virt. eigenvalues --    1.87308   1.87403   1.87844   1.87967   1.88135
 Alpha virt. eigenvalues --    1.88256   1.88348   1.88534   1.88628   1.88830
 Alpha virt. eigenvalues --    1.88973   1.89363   1.89459   1.89664   1.89848
 Alpha virt. eigenvalues --    1.90087   1.90248   1.90367   1.90523   1.90695
 Alpha virt. eigenvalues --    1.91010   1.91124   1.91264   1.91349   1.91835
 Alpha virt. eigenvalues --    1.91971   1.92214   1.92433   1.92608   1.92713
 Alpha virt. eigenvalues --    1.93014   1.93461   1.93563   1.93722   1.93912
 Alpha virt. eigenvalues --    1.94181   1.94281   1.94311   1.94618   1.94842
 Alpha virt. eigenvalues --    1.95229   1.95330   1.95813   1.96116   1.96216
 Alpha virt. eigenvalues --    1.96767   1.96971   1.97007   1.97176   1.97395
 Alpha virt. eigenvalues --    1.97444   1.97966   1.98118   1.98262   1.98431
 Alpha virt. eigenvalues --    1.98547   1.98769   1.98863   1.99468   1.99728
 Alpha virt. eigenvalues --    1.99784   2.00300   2.00549   2.00995   2.01169
 Alpha virt. eigenvalues --    2.01293   2.01317   2.01655   2.01877   2.02449
 Alpha virt. eigenvalues --    2.02761   2.02812   2.03194   2.03340   2.03797
 Alpha virt. eigenvalues --    2.04118   2.04463   2.04486   2.04883   2.05070
 Alpha virt. eigenvalues --    2.05375   2.05823   2.05996   2.06211   2.06269
 Alpha virt. eigenvalues --    2.06478   2.06546   2.06982   2.07373   2.07614
 Alpha virt. eigenvalues --    2.07871   2.07988   2.08272   2.08503   2.08552
 Alpha virt. eigenvalues --    2.09061   2.09171   2.09904   2.10234   2.10503
 Alpha virt. eigenvalues --    2.10538   2.10831   2.11138   2.11237   2.11429
 Alpha virt. eigenvalues --    2.11437   2.11689   2.12014   2.12119   2.12596
 Alpha virt. eigenvalues --    2.12791   2.12950   2.13353   2.13576   2.13949
 Alpha virt. eigenvalues --    2.14453   2.14776   2.14929   2.15081   2.15624
 Alpha virt. eigenvalues --    2.15982   2.16149   2.16715   2.16939   2.17143
 Alpha virt. eigenvalues --    2.17207   2.17808   2.18187   2.18264   2.19144
 Alpha virt. eigenvalues --    2.19187   2.19495   2.19700   2.19869   2.20100
 Alpha virt. eigenvalues --    2.20208   2.20724   2.21171   2.21465   2.21854
 Alpha virt. eigenvalues --    2.21995   2.22210   2.22792   2.23011   2.23416
 Alpha virt. eigenvalues --    2.24247   2.24637   2.24792   2.25722   2.26111
 Alpha virt. eigenvalues --    2.26212   2.26681   2.26895   2.27679   2.27979
 Alpha virt. eigenvalues --    2.28288   2.28599   2.28891   2.29138   2.29517
 Alpha virt. eigenvalues --    2.29858   2.30047   2.30286   2.30347   2.30505
 Alpha virt. eigenvalues --    2.30744   2.31039   2.31477   2.31936   2.32075
 Alpha virt. eigenvalues --    2.32472   2.32898   2.33004   2.33363   2.33526
 Alpha virt. eigenvalues --    2.33903   2.34078   2.34385   2.35048   2.35082
 Alpha virt. eigenvalues --    2.35224   2.35528   2.35730   2.36192   2.36509
 Alpha virt. eigenvalues --    2.36933   2.37015   2.37260   2.37670   2.37926
 Alpha virt. eigenvalues --    2.38005   2.38404   2.38778   2.38886   2.38952
 Alpha virt. eigenvalues --    2.39679   2.39895   2.40193   2.40552   2.40829
 Alpha virt. eigenvalues --    2.41175   2.41423   2.42117   2.42522   2.42590
 Alpha virt. eigenvalues --    2.43202   2.43470   2.43744   2.43822   2.44459
 Alpha virt. eigenvalues --    2.44619   2.45243   2.45631   2.46382   2.46842
 Alpha virt. eigenvalues --    2.47095   2.47541   2.47557   2.47741   2.48177
 Alpha virt. eigenvalues --    2.48597   2.48885   2.49206   2.49447   2.49984
 Alpha virt. eigenvalues --    2.50314   2.50451   2.51450   2.51684   2.52393
 Alpha virt. eigenvalues --    2.52647   2.52926   2.53656   2.54254   2.54646
 Alpha virt. eigenvalues --    2.54754   2.55105   2.55390   2.55527   2.55740
 Alpha virt. eigenvalues --    2.56056   2.56627   2.56869   2.57064   2.57188
 Alpha virt. eigenvalues --    2.57569   2.57606   2.57703   2.58081   2.58381
 Alpha virt. eigenvalues --    2.58750   2.58864   2.58993   2.59313   2.60099
 Alpha virt. eigenvalues --    2.60337   2.60482   2.61344   2.61844   2.61989
 Alpha virt. eigenvalues --    2.62188   2.62344   2.62381   2.63552   2.63832
 Alpha virt. eigenvalues --    2.63892   2.63983   2.64840   2.65105   2.65156
 Alpha virt. eigenvalues --    2.65453   2.65689   2.65919   2.66344   2.66650
 Alpha virt. eigenvalues --    2.67132   2.67520   2.67559   2.67832   2.68017
 Alpha virt. eigenvalues --    2.68328   2.68383   2.68393   2.68968   2.69021
 Alpha virt. eigenvalues --    2.69211   2.69481   2.69643   2.69847   2.69952
 Alpha virt. eigenvalues --    2.70713   2.70876   2.70970   2.71033   2.71164
 Alpha virt. eigenvalues --    2.72482   2.72737   2.72805   2.72995   2.73307
 Alpha virt. eigenvalues --    2.73726   2.74567   2.74943   2.75100   2.75175
 Alpha virt. eigenvalues --    2.75498   2.75795   2.75889   2.76035   2.76073
 Alpha virt. eigenvalues --    2.76585   2.76775   2.77151   2.77485   2.77778
 Alpha virt. eigenvalues --    2.77878   2.78085   2.78264   2.78353   2.78760
 Alpha virt. eigenvalues --    2.79115   2.79346   2.79598   2.80044   2.80341
 Alpha virt. eigenvalues --    2.80734   2.80768   2.80924   2.81572   2.81910
 Alpha virt. eigenvalues --    2.82063   2.82286   2.83325   2.83347   2.83467
 Alpha virt. eigenvalues --    2.83817   2.83893   2.84306   2.84544   2.84849
 Alpha virt. eigenvalues --    2.85066   2.85447   2.85533   2.85642   2.85774
 Alpha virt. eigenvalues --    2.86158   2.86197   2.86859   2.87329   2.87458
 Alpha virt. eigenvalues --    2.87574   2.88014   2.88058   2.88308   2.88497
 Alpha virt. eigenvalues --    2.88777   2.89360   2.89877   2.90005   2.90192
 Alpha virt. eigenvalues --    2.90590   2.90945   2.91360   2.91678   2.91722
 Alpha virt. eigenvalues --    2.92123   2.92360   2.93017   2.93217   2.93365
 Alpha virt. eigenvalues --    2.93553   2.93618   2.93850   2.94485   2.95209
 Alpha virt. eigenvalues --    2.95298   2.96028   2.96526   2.96589   2.96831
 Alpha virt. eigenvalues --    2.97025   2.97348   2.97357   2.97664   2.98163
 Alpha virt. eigenvalues --    2.98570   2.98659   2.99427   2.99655   2.99906
 Alpha virt. eigenvalues --    3.00135   3.00270   3.00573   3.00692   3.01410
 Alpha virt. eigenvalues --    3.01465   3.01531   3.01823   3.02078   3.02332
 Alpha virt. eigenvalues --    3.02493   3.03433   3.03816   3.04632   3.05289
 Alpha virt. eigenvalues --    3.05461   3.06209   3.07020   3.07148   3.07509
 Alpha virt. eigenvalues --    3.07923   3.08111   3.08392   3.08771   3.09144
 Alpha virt. eigenvalues --    3.10136   3.11308   3.11623   3.11665   3.12232
 Alpha virt. eigenvalues --    3.12392   3.12638   3.13260   3.14002   3.14232
 Alpha virt. eigenvalues --    3.14411   3.14562   3.15202   3.15342   3.15551
 Alpha virt. eigenvalues --    3.16316   3.16460   3.16604   3.16955   3.17663
 Alpha virt. eigenvalues --    3.17758   3.18486   3.18722   3.19000   3.19218
 Alpha virt. eigenvalues --    3.19233   3.19555   3.19716   3.20026   3.20055
 Alpha virt. eigenvalues --    3.20310   3.20469   3.20670   3.20880   3.21224
 Alpha virt. eigenvalues --    3.21896   3.22537   3.22964   3.23565   3.24105
 Alpha virt. eigenvalues --    3.24488   3.25065   3.25665   3.27662   3.27690
 Alpha virt. eigenvalues --    3.28976   3.29400   3.29772   3.32354   3.32553
 Alpha virt. eigenvalues --    3.34345   3.34901   3.38336   3.38957   3.40458
 Alpha virt. eigenvalues --    3.41875   3.44179   3.45447   3.46003   3.47995
 Alpha virt. eigenvalues --    3.51042   3.52147   3.52224   3.53204   3.53841
 Alpha virt. eigenvalues --    3.54383   3.54509   3.55124   3.56228   3.56817
 Alpha virt. eigenvalues --    3.57247   3.59062   3.59867   3.60009   3.60408
 Alpha virt. eigenvalues --    3.63222   3.63580   3.64453   3.65076   3.65394
 Alpha virt. eigenvalues --    3.65523   3.66010   3.67306   3.67842   3.68315
 Alpha virt. eigenvalues --    3.68652   3.69117   3.69198   3.69540   3.69781
 Alpha virt. eigenvalues --    3.70293   3.70344   3.71204   3.73161   3.74911
 Alpha virt. eigenvalues --    3.78392   3.79125   3.79385   3.82398
          Condensed to atoms (all electrons):
 Mulliken charges:
               1
     1  C    0.059395
     2  C   -0.001020
     3  O   -0.284773
     4  H    0.058105
     5  H    0.031381
     6  H   -0.014996
     7  N   -0.125113
     8  C    0.088552
     9  C    0.084158
    10  O   -0.266051
    11  C    0.154351
    12  C    0.047188
    13  O   -0.434851
    14  O   -0.398450
    15  H    0.121017
    16  H   -0.035244
    17  H    0.020413
    18  H    0.016157
    19  N   -0.115354
    20  C    0.188416
    21  C    0.028304
    22  O   -0.269755
    23  C   -0.061298
    24  C    0.053407
    25  C   -0.012605
    26  C    0.052987
    27  N    0.167191
    28  H    0.102614
    29  H    0.026413
    30  H    0.033914
    31  H   -0.011082
    32  H    0.008325
    33  H   -0.013216
    34  H    0.022985
    35  H    0.042657
    36  H    0.053027
    37  H    0.049434
    38  H    0.081632
    39  H    0.094301
    40  H    0.104701
    41  N   -0.152882
    42  C    0.153475
    43  C    0.058905
    44  O   -0.279524
    45  C    0.049699
    46  C    0.108549
    47  O   -0.427827
    48  O   -0.399678
    49  H    0.129819
    50  H    0.015478
    51  H   -0.009410
    52  H    0.053293
    53  N   -0.134836
    54  C    0.237859
    55  C    0.004253
    56  O   -0.306061
    57  H    0.126109
    58  H    0.056693
    59  H    0.025586
    60  N   -0.137058
    61  C    0.103050
    62  C    0.111420
    63  O   -0.358062
    64  C    0.068636
    65  C    0.015667
    66  N   -0.047795
    67  O   -0.301513
    68  H    0.136337
    69  H    0.020620
    70  H    0.009925
    71  H    0.050239
    72  H    0.119910
    73  H    0.142976
    74  N   -0.120546
    75  C    0.229381
    76  C    0.028874
    77  O   -0.274801
    78  H    0.139752
    79  H    0.040453
    80  H    0.022366
    81  N   -0.111820
    82  C    0.057933
    83  C    0.156037
    84  O   -0.276398
    85  C    0.155751
    86  C   -0.050208
    87  C    0.021069
    88  C   -0.052157
    89  C   -0.005192
    90  C   -0.033767
    91  C    0.150109
    92  O   -0.217512
    93  H    0.129039
    94  H   -0.004685
    95  H    0.011099
    96  H    0.010625
    97  H   -0.007227
    98  H   -0.029263
    99  H   -0.015726
   100  H   -0.043781
   101  H    0.176138
   102  N   -0.100953
   103  C    0.160605
   104  C    0.092889
   105  O   -0.257570
   106  C   -0.117497
   107  C   -0.004986
   108  C    0.069711
   109  C    0.025714
   110  H    0.123934
   111  H   -0.026142
   112  H   -0.024208
   113  H   -0.025160
   114  H    0.008282
   115  H   -0.000442
   116  H    0.012690
   117  H    0.013913
   118  H    0.033505
   119  H    0.004338
   120  H    0.015034
   121  N   -0.136230
   122  C    0.154513
   123  C    0.037410
   124  O   -0.259365
   125  C    0.207725
   126  O   -0.332682
   127  H    0.117898
   128  H    0.030373
   129  H    0.002915
   130  H    0.032228
   131  H    0.175089
   132  N   -0.143430
   133  C    0.048951
   134  C    0.076710
   135  O   -0.258431
   136  C    0.089733
   137  H    0.098868
   138  H   -0.001559
   139  H    0.010655
   140  H   -0.020869
   141  H    0.058211
   142  N   -0.092063
   143  C   -0.000488
   144  C    0.058878
   145  O   -0.264472
   146  C    0.064056
   147  H    0.131283
   148  H    0.002263
   149  H    0.012542
   150  H    0.035034
   151  H    0.028088
   152  N   -0.128466
   153  C    0.110865
   154  C    0.025970
   155  O   -0.269720
   156  C    0.028060
   157  C    0.108995
   158  C    0.017885
   159  O   -0.332503
   160  O   -0.339617
   161  H    0.110823
   162  H    0.013134
   163  H    0.023988
   164  H   -0.004928
   165  H   -0.003757
   166  H   -0.038376
   167  N   -0.156892
   168  C    0.133162
   169  H    0.018482
   170  H    0.023502
   171  H    0.047764
   172  H    0.102710
   173  Ca   1.387281
   174  O   -0.283678
   175  H    0.183552
   176  H    0.177670
 Sum of Mulliken charges =  -0.00000
 Mulliken charges with hydrogens summed into heavy atoms:
               1
     1  C    0.133885
     2  C   -0.001020
     3  O   -0.284773
     7  N   -0.004096
     8  C    0.053308
     9  C    0.084158
    10  O   -0.266051
    11  C    0.190921
    12  C    0.047188
    13  O   -0.434851
    14  O   -0.398450
    19  N   -0.012741
    20  C    0.214829
    21  C    0.028304
    22  O   -0.269755
    23  C   -0.038466
    24  C    0.048516
    25  C    0.053038
    26  C    0.155448
    27  N    0.447825
    41  N   -0.023063
    42  C    0.168953
    43  C    0.058905
    44  O   -0.279524
    45  C    0.093581
    46  C    0.108549
    47  O   -0.427827
    48  O   -0.399678
    53  N   -0.008727
    54  C    0.320139
    55  C    0.004253
    56  O   -0.306061
    60  N   -0.000721
    61  C    0.123669
    62  C    0.111420
    63  O   -0.358062
    64  C    0.128799
    65  C    0.015667
    66  N    0.215091
    67  O   -0.301513
    74  N    0.019205
    75  C    0.292201
    76  C    0.028874
    77  O   -0.274801
    81  N    0.017219
    82  C    0.053248
    83  C    0.156037
    84  O   -0.276398
    85  C    0.177475
    86  C   -0.050208
    87  C    0.013841
    88  C   -0.081419
    89  C   -0.020918
    90  C   -0.077548
    91  C    0.150109
    92  O   -0.041375
   102  N    0.022981
   103  C    0.134464
   104  C    0.092889
   105  O   -0.257570
   106  C   -0.141706
   107  C   -0.021864
   108  C    0.095872
   109  C    0.078591
   121  N   -0.018332
   122  C    0.184886
   123  C    0.037410
   124  O   -0.259365
   125  C    0.242869
   126  O   -0.157593
   132  N   -0.044562
   133  C    0.047392
   134  C    0.076710
   135  O   -0.258431
   136  C    0.137730
   142  N    0.039220
   143  C    0.001776
   144  C    0.058878
   145  O   -0.264472
   146  C    0.139720
   152  N   -0.017643
   153  C    0.123999
   154  C    0.025970
   155  O   -0.269720
   156  C    0.047119
   157  C    0.066861
   158  C    0.017885
   159  O   -0.332503
   160  O   -0.339617
   167  N   -0.054183
   168  C    0.222910
   173  Ca   1.387281
   174  O    0.077544
 DipInt: DoE/N= T F RetVal/Mat= T F Init=T NMatP=  1 IDeriv=0 Min/MaxMlt=  0  4
 Entering OneElI...
 OneElI was handed  1333951383 working-precision words.
 Multipole integrals L=0 to 4 MinM= 0 MaxM= 0.
 Requested accuracy = 0.1000D-12
 PrtBox:  NBox=     1 Levels=  1 BoxLen=   98.75 SMaxX=       52.14
          Shift=           29.192873           12.023984            8.406840
 Box      1 Number                   0 centers from      1 to    809:
 ShPair: Thresh= 1.00D-13 NBox=     1 BxSize= 9.87D+01 RnKept= 3.01D+01
         NSMCal=               327645 NSMKep=              116488
 PrmmSu-InSpLW:  IPartL=    0 NPrtUS=    1 NPrtUL=    1 DoSpLW=F IThBeg=    0 IThEnd=    0 NThAct=    1.
 PrsmSu:  NPrtUS=   1 ThrOK=F IAlg=1 NPAlg=1 LenDen=           0 ISkipM=0 DoSpLW=F IThBeg=    0 IThEnd=    0.
 Prism:   IPart=     0 DynPar=F LinDyn=F Incr=         512.
 PRISM was handed  1325517337 working-precision words and116488 shell-pairs
 IPart=  0 NShTot=      116488 NBatch=         279 AvBLen=       417.5
 PrsmSu-ThDecC:  IPartSL=    0    0 NPrtUSL=    1    1 IThBeg=    0 IThEnd=    0 CPU=   -1 GPU=   -1 NThAct=    1.
 PrSmSu:  NxtVal=            513.
 Electronic moments (au):
       -716.00000000        -20.31215402         -1.63913775          6.17483184
    -134798.60779391     -32394.72013867     -11451.08984546       -208.39649049
         82.42779512        -14.15762023     236684.23777708     -22182.79725016
      -5820.46784862    -117059.70985340    -343918.21918047      68943.57627471
      16367.49798814      -1135.82693172     -35427.43643023      70356.71157214
  -45045254.23358506   -3214582.99939820    -397611.36661362    2194810.31482850
     928347.39035206    -458305.31640272     196252.69364911      14282.59602553
     -75718.34991276   -5454120.07264494   -2234258.07698783    -520422.83999264
    -417265.79252741    -238321.47249262      98802.94653546
 Electronic spatial extent (au):  <R**2>=         178644.4178
 DipInt: DoE/N= F T RetVal/Mat= T F Init=T NMatP=  1 IDeriv=0 Min/MaxMlt=  0  4
 Nuclear    moments (au):
        716.00000000          0.00000000          0.00000000          0.00000000
     134726.00788876      31869.32127967      11023.54417961         -0.00000000
         -0.00000000          0.00000000    -251837.87781555      20769.40424872
       6116.54904337     115753.61732702     346948.24682696     -67343.07000546
     -16333.14043180       1046.44473203      35971.42531893     -69819.30162406
   44871717.26882742    3071771.83196433     358888.61133230   -2292773.90843434
    -893315.06710457     440800.35825943    -194164.38377620     -15497.98782763
      74980.54350077    5369342.54683775    2148460.96727106     495429.13688297
     414726.24356736     245685.86427729    -102047.45084090
 Total      moments (au):
         -0.00000000        -20.31215402         -1.63913775          6.17483184
        -72.59990515       -525.39885901       -427.54566585       -208.39649049
         82.42779512        -14.15762023     -15153.64003847      -1413.39300143
        296.08119475      -1306.09252639       3030.02764649       1600.50626924
         34.35755635        -89.38219968        543.98888870        537.40994808
    -173536.96475764    -142811.16743387     -38722.75528132     -97963.59360585
      35032.32324749     -17504.95814329       2088.30987291      -1215.39180209
       -737.80641199     -84777.52580719     -85797.10971677     -24993.70310967
      -2539.54896005       7364.39178467      -3244.50430544
 Traceless Quadrup. (au):
        269.24823819       -183.55071567        -85.69752251       -208.39649049
         82.42779512        -14.15762023
 Charge=             -0.0000 electrons
 Dipole moment (field-independent basis, Debye):
    X=            -51.6283    Y=             -4.1663    Z=             15.6949  Tot=             54.1218
 Quadrupole moment (field-independent basis, Debye-Ang):
   XX=            -97.6494   YY=           -706.6795   ZZ=           -575.0636
   XY=           -280.3004   XZ=            110.8682   YZ=            -19.0425
 Traceless Quadrupole moment (field-independent basis, Debye-Ang):
   XX=            362.1481   YY=           -246.8820   ZZ=           -115.2661
   XY=           -280.3004   XZ=            110.8682   YZ=            -19.0425
 Octapole moment (field-independent basis, Debye-Ang**2):
  XXX=         -10785.7772  YYY=          -1005.9987  ZZZ=            210.7392  XYY=           -929.6263
  XXY=           2156.6569  XXZ=           1139.1787  XZZ=             24.4544  YZZ=            -63.6188
  YYZ=            387.1903  XYZ=            382.5077
 Hexadecapole moment (field-independent basis, Debye-Ang**3):
[...]
 **** Fit       0.000613
 **** Fit      -0.000292
 **** Fit       0.000982
 **** Fit       0.000204
 **** Fit      -0.000651
 **** Fit      -0.001560
 **** Fit      -0.002413
 **** Fit       0.001911
 **** Fit       0.001229
 **** Fit       0.000528
 **** Fit      -0.000248
 **** Fit      -0.001126
 **** Fit      -0.002094
 **** Fit      -0.003091
 **** Fit      -0.003996
 **** Fit       0.002063
 **** Fit       0.001399
 **** Fit       0.000732
 **** Fit       0.000002
 **** Fit      -0.000831
 **** Fit      -0.001785
 **** Fit      -0.002850
 **** Fit      -0.003980
 **** Fit      -0.005086
 **** Fit      -0.006022
 **** Fit       0.002205
 **** Fit       0.001543
 **** Fit       0.000894
 **** Fit       0.000202
 **** Fit      -0.000577
 **** Fit      -0.001473
 **** Fit      -0.002500
 **** Fit      -0.003649
 **** Fit      -0.004887
 **** Fit      -0.006150
 **** Fit      -0.007333
 **** Fit       0.002376
 **** Fit       0.001652
 **** Fit       0.000957
 **** Fit       0.000233
 **** Fit      -0.000572
 **** Fit      -0.001494
 **** Fit      -0.002559
 **** Fit      -0.003772
 **** Fit      -0.005119
 **** Fit      -0.006561
 **** Fit      -0.008027
 **** Fit      -0.009409
 **** Fit       0.002637
 **** Fit       0.001819
 **** Fit       0.001052
 **** Fit       0.000277
 **** Fit      -0.000561
 **** Fit      -0.001506
 **** Fit      -0.002590
 **** Fit      -0.003832
 **** Fit      -0.005231
 **** Fit      -0.006768
 **** Fit      -0.008401
 **** Fit      -0.010056
 **** Fit      -0.011627
 **** Fit       0.003567
 **** Fit       0.003081
 **** Fit       0.002098
 **** Fit       0.001201
 **** Fit       0.000324
 **** Fit      -0.000598
 **** Fit      -0.001615
 **** Fit      -0.002767
 **** Fit      -0.004082
 **** Fit      -0.005568
 **** Fit      -0.007217
 **** Fit      -0.008999
 **** Fit      -0.010856
 **** Fit      -0.012702
 **** Fit       0.004214
 **** Fit       0.003857
 **** Fit       0.002575
 **** Fit       0.001441
 **** Fit       0.000365
 **** Fit      -0.000735
 **** Fit      -0.001930
 **** Fit      -0.003270
 **** Fit      -0.004789
 **** Fit      -0.006501
 **** Fit      -0.008397
 **** Fit      -0.010440
 **** Fit      -0.012562
 **** Fit       0.005206
 **** Fit       0.003440
 **** Fit       0.001937
 **** Fit       0.000559
 **** Fit      -0.000815
 **** Fit      -0.002278
 **** Fit      -0.003899
 **** Fit      -0.005719
 **** Fit      -0.007750
 **** Fit      -0.009968
 **** Fit      -0.012313
 **** Fit       0.007522
 **** Fit       0.005020
 **** Fit       0.002982
 **** Fit       0.001187
 **** Fit      -0.000541
 **** Fit      -0.002331
 **** Fit      -0.004268
 **** Fit      -0.006399
 **** Fit      -0.008722
 **** Fit      -0.011190
 **** Fit       0.007553
 **** Fit       0.004589
 **** Fit       0.002091
 **** Fit      -0.000243
 **** Fit      -0.002607
 **** Fit      -0.005104
 **** Fit      -0.007754
 **** Fit      -0.010486
 **** Fit      -0.003780
 **** Fit      -0.004879
 **** Fit      -0.005582
 **** Fit      -0.004593
 **** Fit      -0.004557
 **** Fit      -0.006148
 **** Fit      -0.007255
 **** Fit      -0.007642
 **** Fit      -0.007118
 **** Fit      -0.005703
 **** Fit      -0.006093
 **** Fit      -0.007632
 **** Fit      -0.008877
 **** Fit      -0.009744
 **** Fit      -0.010112
 **** Fit      -0.009842
 **** Fit      -0.008852
 **** Fit      -0.007207
 **** Fit      -0.006565
 **** Fit      -0.008319
 **** Fit      -0.009867
 **** Fit      -0.011196
 **** Fit      -0.012261
 **** Fit      -0.012976
 **** Fit      -0.013210
 **** Fit      -0.012822
 **** Fit      -0.011725
 **** Fit      -0.009953
 **** Fit      -0.007675
 **** Fit      -0.007656
 **** Fit      -0.009624
 **** Fit      -0.011410
 **** Fit      -0.013033
 **** Fit      -0.014487
 **** Fit      -0.015731
 **** Fit      -0.016675
 **** Fit      -0.017175
 **** Fit      -0.017050
 **** Fit      -0.016148
 **** Fit      -0.014425
 **** Fit      -0.011996
 **** Fit      -0.011101
 **** Fit      -0.013123
 **** Fit      -0.015020
 **** Fit      -0.016811
 **** Fit      -0.018495
 **** Fit      -0.020032
 **** Fit      -0.021332
 **** Fit      -0.022232
 **** Fit      -0.022509
 **** Fit      -0.021938
 **** Fit      -0.020379
 **** Fit      -0.017869
 **** Fit      -0.014628
 **** Fit      -0.011655
 **** Fit      -0.014121
 **** Fit      -0.016455
 **** Fit      -0.018710
 **** Fit      -0.020918
 **** Fit      -0.023092
 **** Fit      -0.025209
 **** Fit      -0.027172
 **** Fit      -0.028770
 **** Fit      -0.029679
 **** Fit      -0.029520
 **** Fit      -0.028003
 **** Fit      -0.025084
 **** Fit      -0.021024
 **** Fit      -0.014847
 **** Fit      -0.017634
 **** Fit      -0.020351
 **** Fit      -0.023058
 **** Fit      -0.025808
 **** Fit      -0.028650
 **** Fit      -0.031595
 **** Fit      -0.034558
 **** Fit      -0.019412
 **** Fit      -0.022665
 **** Fit      -0.025958
 **** Fit      -0.029381
 **** Fit      -0.033047
 **** Fit      -0.037075
 **** Fit      -0.023234
 **** Fit      -0.027285
 **** Fit      -0.031538
 **** Fit      -0.036188
 **** Fit      -0.028874
 **** Fit      -0.034189
 **** Fit       0.007048
 **** Fit       0.007423
 **** Fit       0.007977
 **** Fit       0.007136
 **** Fit       0.006939
 **** Fit       0.004370
 **** Fit       0.004864
 **** Fit       0.005598
 **** Fit       0.006404
 **** Fit       0.007089
 **** Fit       0.006595
 **** Fit       0.005407
 **** Fit       0.004595
 **** Fit       0.004252
 **** Fit       0.000840
 **** Fit       0.001598
 **** Fit       0.002734
 **** Fit       0.004018
 **** Fit       0.005201
 **** Fit       0.006023
 **** Fit       0.006598
 **** Fit       0.004284
 **** Fit       0.002395
 **** Fit       0.001156
 **** Fit       0.000651
 **** Fit      -0.003935
 **** Fit      -0.002650
 **** Fit      -0.000717
 **** Fit       0.001507
 **** Fit       0.001521
 **** Fit      -0.001499
 **** Fit      -0.003478
 **** Fit      -0.004275
 **** Fit       0.015941
 **** Fit       0.023001
 **** Fit       0.015076
 **** Fit       0.020980
 **** Fit       0.023879
 **** Fit       0.028578
 **** Fit       0.025385
 **** Fit       0.011646
 **** Fit       0.018696
 **** Fit       0.028112
 **** Fit       0.029306
 **** Fit       0.032805
 **** Fit       0.031228
 **** Fit       0.027356
 **** Fit       0.006202
 **** Fit       0.033020
 **** Fit       0.035720
 **** Fit       0.035433
 **** Fit       0.033381
 **** Fit       0.028988
 **** Fit       0.035146
 **** Fit       0.037561
 **** Fit       0.038442
 **** Fit       0.037830
 **** Fit       0.035359
 **** Fit       0.030771
 **** Fit       0.023713
 **** Fit       0.035966
 **** Fit       0.038737
 **** Fit       0.040598
 **** Fit       0.041004
 **** Fit       0.039770
 **** Fit       0.036816
 **** Fit       0.032001
 **** Fit       0.025024
 **** Fit       0.036032
 **** Fit       0.039691
 **** Fit       0.042211
 **** Fit       0.043319
 **** Fit       0.042973
 **** Fit       0.041216
 **** Fit       0.038045
 **** Fit       0.033350
 **** Fit       0.026881
 **** Fit       0.036148
 **** Fit       0.040693
 **** Fit       0.043479
 **** Fit       0.044961
 **** Fit       0.045183
 **** Fit       0.044249
 **** Fit       0.042231
 **** Fit       0.039130
 **** Fit       0.034852
 **** Fit       0.029206
 **** Fit       0.036817
 **** Fit       0.041738
 **** Fit       0.044548
 **** Fit       0.046129
 **** Fit       0.046574
 **** Fit       0.046021
 **** Fit       0.044579
 **** Fit       0.042299
 **** Fit       0.039153
 **** Fit       0.035038
 **** Fit       0.029796
 **** Fit       0.033334
 **** Fit       0.037803
 **** Fit       0.042597
 **** Fit       0.045231
 **** Fit       0.046760
 **** Fit       0.047304
 **** Fit       0.047009
 **** Fit       0.046005
 **** Fit       0.044373
 **** Fit       0.042131
 **** Fit       0.039236
 **** Fit       0.035602
 **** Fit       0.031137
 **** Fit       0.025789
 **** Fit       0.034406
 **** Fit       0.038868
 **** Fit       0.042985
 **** Fit       0.045404
 **** Fit       0.046816
 **** Fit       0.047367
 **** Fit       0.047208
 **** Fit       0.046480
 **** Fit       0.045287
 **** Fit       0.043675
 **** Fit       0.041629
 **** Fit       0.039101
 **** Fit       0.036048
 **** Fit       0.032488
 **** Fit       0.028591
 **** Fit       0.025875
 **** Fit       0.030197
 **** Fit       0.035009
 **** Fit       0.039468
 **** Fit       0.042668
 **** Fit       0.044858
 **** Fit       0.046150
 **** Fit       0.046705
 **** Fit       0.046671
 **** Fit       0.046194
 **** Fit       0.045393
 **** Fit       0.044329
 **** Fit       0.043013
 **** Fit       0.041419
 **** Fit       0.039529
 **** Fit       0.037382
 **** Fit       0.035160
 **** Fit       0.029826
 **** Fit       0.035027
 **** Fit       0.039404
 **** Fit       0.041531
 **** Fit       0.043550
 **** Fit       0.044742
 **** Fit       0.045285
 **** Fit       0.045336
 **** Fit       0.045052
 **** Fit       0.044562
 **** Fit       0.043936
 **** Fit       0.043195
 **** Fit       0.042329
 **** Fit       0.041344
 **** Fit       0.040321
 **** Fit       0.034151
 **** Fit       0.038457
 **** Fit       0.039566
 **** Fit       0.041361
 **** Fit       0.042457
 **** Fit       0.043020
 **** Fit       0.043207
 **** Fit       0.043175
 **** Fit       0.043052
 **** Fit       0.042919
 **** Fit       0.042810
 **** Fit       0.042743
 **** Fit       0.042764
 **** Fit       0.033018
 **** Fit       0.036860
 **** Fit       0.036691
 **** Fit       0.038202
 **** Fit       0.039196
 **** Fit       0.039804
 **** Fit       0.040174
 **** Fit       0.040455
 **** Fit       0.040776
 **** Fit       0.041230
 **** Fit       0.041882
 **** Fit       0.042819
 **** Fit       0.034521
 **** Fit       0.032517
 **** Fit       0.033705
 **** Fit       0.034625
 **** Fit       0.035350
 **** Fit       0.035993
 **** Fit       0.036693
 **** Fit       0.037579
 **** Fit       0.038777
 **** Fit       0.040434
 **** Fit       0.042801
 **** Fit       0.031033
 **** Fit       0.026289
 **** Fit       0.027311
 **** Fit       0.028319
 **** Fit       0.029332
 **** Fit       0.030447
 **** Fit       0.031813
 **** Fit       0.033612
 **** Fit       0.036094
 **** Fit       0.039697
 **** Fit       0.025342
 **** Fit       0.022957
 **** Fit       0.025328
 **** Fit       0.028530
 **** Fit       0.026851
 **** Fit       0.024042
 **** Fit       0.032017
 **** Fit       0.028673
 **** Fit       0.028122
 **** Fit       0.040056
 **** Fit       0.033994
 **** Fit       0.031273
 **** Fit       0.031029
 **** Fit       0.032635
 **** Fit       0.039544
 **** Fit       0.034973
 **** Fit       0.033106
 **** Fit       0.033283
 **** Fit       0.034998
 **** Fit       0.043243
 **** Fit       0.037995
 **** Fit       0.035323
 **** Fit       0.034674
 **** Fit       0.035578
 **** Fit       0.037650
 **** Fit       0.040584
 **** Fit       0.063554
 **** Fit       0.065620
 **** Fit       0.067480
 **** Fit       0.061818
 **** Fit       0.061455
 **** Fit       0.059433
 **** Fit       0.036809
 **** Fit       0.034668
 **** Fit       0.034420
 **** Fit       0.035698
 **** Fit       0.038208
 **** Fit       0.041736
 **** Fit       0.038044
 **** Fit       0.034919
 **** Fit       0.032957
 **** Fit       0.032269
 **** Fit       0.032785
 **** Fit       0.034350
 **** Fit       0.036792
 **** Fit       0.039959
 **** Fit       0.043727
 **** Fit       0.048002
 **** Fit       0.028652
 **** Fit       0.028962
 **** Fit       0.029271
 **** Fit       0.030096
 **** Fit       0.031609
 **** Fit       0.033804
 **** Fit       0.036597
 **** Fit       0.039887
 **** Fit       0.043579
 **** Fit       0.047587
 **** Fit       0.051823
 **** Fit       0.056172
 **** Fit       0.060472
 **** Fit       0.021408
 **** Fit       0.024424
 **** Fit       0.026606
 **** Fit       0.028741
 **** Fit       0.031168
 **** Fit       0.033978
 **** Fit       0.037153
 **** Fit       0.040628
 **** Fit       0.044324
 **** Fit       0.048156
 **** Fit       0.052012
 **** Fit       0.055737
 **** Fit       0.059103
 **** Fit       0.061784
 **** Fit       0.016497
 **** Fit       0.021418
 **** Fit       0.024980
 **** Fit       0.028088
 **** Fit       0.031168
 **** Fit       0.034379
 **** Fit       0.037746
 **** Fit       0.041229
 **** Fit       0.044755
 **** Fit       0.048221
 **** Fit       0.051480
 **** Fit       0.054320
 **** Fit       0.056445
 **** Fit       0.057462
 **** Fit       0.056907
 **** Fit       0.014365
 **** Fit       0.020523
 **** Fit       0.025075
 **** Fit       0.028969
 **** Fit       0.032648
 **** Fit       0.036273
 **** Fit       0.039855
 **** Fit       0.043323
 **** Fit       0.046545
 **** Fit       0.049321
 **** Fit       0.051373
 **** Fit       0.052370
 **** Fit       0.014460
 **** Fit       0.021118
 **** Fit       0.026198
 **** Fit       0.030527
 **** Fit       0.034484
 **** Fit       0.038170
 **** Fit       0.041531
 **** Fit       0.044400
 **** Fit       0.046535
 **** Fit       0.047661
 **** Fit       0.016718
 **** Fit       0.023411
 **** Fit       0.028700
 **** Fit       0.033172
 **** Fit       0.037007
 **** Fit       0.040114
 **** Fit       0.042244
 **** Fit       0.020848
 **** Fit       0.027431
 **** Fit       0.032538
 **** Fit       0.036175
 **** Fit       0.018746
 **** Fit       0.026166
 **** Fit       0.031396
 **** Fit       0.013699
 **** Fit       0.015895
 **** Fit       0.017662
 **** Fit       0.019047
 **** Fit       0.019280
 **** Fit       0.019861
 **** Fit       0.021106
 **** Fit       0.022519
 **** Fit       0.023812
 **** Fit       0.024937
 **** Fit       0.026263
 **** Fit       0.025613
 **** Fit       0.026236
 **** Fit       0.027372
 **** Fit       0.028692
 **** Fit       0.030051
 **** Fit       0.031545
 **** Fit       0.033652
 **** Fit       0.030742
 **** Fit       0.031619
 **** Fit       0.032889
 **** Fit       0.034396
 **** Fit       0.036137
 **** Fit       0.038308
 **** Fit       0.041389
 **** Fit       0.035103
 **** Fit       0.035798
 **** Fit       0.036988
 **** Fit       0.038543
 **** Fit       0.040449
 **** Fit       0.042827
 **** Fit       0.045962
 **** Fit       0.050321
 **** Fit       0.056524
 **** Fit       0.040378
 **** Fit       0.041582
 **** Fit       0.043267
 **** Fit       0.045454
 **** Fit       0.048275
 **** Fit       0.051991
 **** Fit       0.056975
 **** Fit       0.063709
 **** Fit       0.045360
 **** Fit       0.046561
 **** Fit       0.048402
 **** Fit       0.050927
 **** Fit       0.054277
 **** Fit       0.058675
 **** Fit       0.064417
 **** Fit       0.051574
 **** Fit       0.053402
 **** Fit       0.056050
 **** Fit       0.059584
 **** Fit       0.064100
 **** Fit       0.069702
 **** Fit       0.059520
 **** Fit       0.062658
 **** Fit       0.066521
 -----------------------------------------------------------------
 Leave Link  602 at Wed Sep 18 00:08:10 2019, MaxMem=  1342177280 cpu:             169.2 elap:               3.6

 Test job not archived.
 1\1\GINC-C500-064\SP\RB3LYP\SVP\C54H83Ca1N15O23\PENGZHI\18-Sep-2019\0\
 \#b3lyp/svp scf=(tight,noincore) Test #IOP(5/87=12) Density=Current Po
 p=(MK,readradii) iop(6/33=2) iop(6/42=6)\\Ng-295_loop3_15.0\\0,1\C,0,7
 .135,73.695,66.64\C,0,6.335,72.845,65.67\O,0,5.675,73.425,64.81\H,0,8.
 042,74.048,66.15\H,0,6.536,74.55,66.954\H,0,7.403,73.098,67.512\N,0,6.
 405,71.525,65.81\C,0,5.765,70.475,65.04\C,0,5.215,69.305,65.84\O,0,6.0
 15,68.615,66.47\C,0,6.825,70.005,64.04\C,0,6.315,69.045,62.97\O,0,6.16
 5,69.455,61.8\O,0,6.095,67.845,63.23\H,0,7.075,71.135,66.46\H,0,4.955,
 70.995,64.54\H,0,7.635,69.535,64.59\H,0,7.185,70.915,63.54\N,0,3.905,6
 9.055,65.89\C,0,3.205,68.335,66.93\C,0,2.425,67.065,66.59\O,0,1.775,66
 .495,67.46\C,0,2.255,69.275,67.66\C,0,2.855,70.495,68.35\C,0,1.725,71.
 445,68.73\C,0,2.175,72.625,69.58\N,0,2.765,72.225,70.87\H,0,3.385,69.6
 45,65.26\H,0,3.925,67.995,67.67\H,0,1.555,68.765,68.32\H,0,1.635,69.52
 5,66.79\H,0,3.515,70.955,67.61\H,0,3.425,70.165,69.23\H,0,0.945,70.905
 ,69.26\H,0,1.245,71.925,67.88\H,0,1.365,73.345,69.73\H,0,2.895,73.235,
 69.03\H,0,2.995,72.995,71.47\H,0,2.065,71.685,71.38\H,0,3.595,71.675,7
 0.74\N,0,2.395,66.605,65.34\C,0,1.535,65.605,64.74\C,0,2.035,64.175,64
 .95\O,0,1.335,63.245,64.55\C,0,1.235,65.905,63.28\C,0,2.405,65.955,62.
 3\O,0,3.575,65.765,62.7\O,0,2.205,66.145,61.08\H,0,3.135,66.945,64.74\
 H,0,0.535,65.695,65.16\H,0,0.735,66.865,63.3\H,0,0.505,65.145,62.99\N,
 0,3.215,63.985,65.53\C,0,3.835,62.675,65.59\C,0,4.635,62.335,64.33\O,0
 ,5.185,61.245,64.34\H,0,3.795,64.805,65.66\H,0,3.145,61.865,65.82\H,0,
 4.585,62.705,66.38\N,0,4.815,63.095,63.25\C,0,5.475,62.635,62.04\C,0,6
 .445,63.615,61.4\O,0,6.175,64.815,61.35\C,0,4.345,62.225,61.11\C,0,4.8
 85,61.725,59.78\N,0,4.455,62.445,58.74\O,0,5.805,60.915,59.7\H,0,4.425
 ,64.025,63.28\H,0,6.035,61.725,62.29\H,0,3.805,63.165,60.95\H,0,3.715,
 61.495,61.61\H,0,3.555,62.865,58.89\H,0,4.705,62.135,57.81\N,0,7.545,6
 3.105,60.84\C,0,8.475,63.815,59.98\C,0,8.555,63.415,58.51\O,0,8.715,64
 .285,57.67\H,0,7.595,62.115,61.03\H,0,9.485,63.735,60.37\H,0,8.165,64.
 855,59.89\N,0,8.295,62.155,58.16\C,0,8.305,61.685,56.79\C,0,7.125,62.2
 05,55.98\O,0,5.995,62.305,56.45\C,0,8.465,60.165,56.82\C,0,8.775,59.67
 5,55.42\C,0,7.835,59.045,54.6\C,0,10.065,59.845,54.91\C,0,8.135,58.535
 ,53.33\C,0,10.435,59.365,53.64\C,0,9.445,58.735,52.86\O,0,9.725,58.215
 ,51.63\H,0,8.055,61.405,58.79\H,0,9.265,62.005,56.38\H,0,7.545,59.735,
 57.22\H,0,9.195,59.705,57.47\H,0,6.855,58.835,55.01\H,0,10.885,60.335,
 55.41\H,0,7.445,57.965,52.73\H,0,11.385,59.615,53.21\H,0,10.555,58.435
 ,51.2\N,0,7.415,62.475,54.7\C,0,6.645,62.945,53.57\C,0,5.515,62.065,53
 .07\O,0,4.935,61.285,53.83\C,0,6.095,64.365,53.72\C,0,7.075,65.455,54.
 13\C,0,4.835,64.535,54.56\C,0,6.675,66.915,53.93\H,0,8.395,62.395,54.5
 \H,0,7.435,63.035,52.82\H,0,5.755,64.645,52.72\H,0,8.035,65.415,53.61\
 H,0,7.255,65.275,55.19\H,0,5.145,64.825,55.57\H,0,4.315,65.375,54.12\H
 ,0,4.125,63.705,54.56\H,0,6.455,67.015,52.87\H,0,5.755,67.165,54.47\H,
 0,7.485,67.525,54.33\N,0,5.245,62.165,51.76\C,0,4.255,61.365,51.06\C,0
 ,4.205,61.485,49.55\O,0,3.395,60.805,48.91\C,0,2.815,61.555,51.52\O,0,
 2.465,62.915,51.62\H,0,5.805,62.845,51.27\H,0,4.445,60.305,51.21\H,0,2
 .725,61.175,52.54\H,0,2.045,61.065,50.93\H,0,2.155,63.165,52.49\N,0,5.
 035,62.355,48.96\C,0,5.105,62.735,47.56\C,0,3.775,62.875,46.83\O,0,3.2
 95,62.115,45.99\C,0,6.145,61.835,46.9\H,0,5.835,62.515,49.55\H,0,5.495
 ,63.745,47.57\H,0,6.395,62.375,45.98\H,0,7.055,61.905,47.5\H,0,5.815,6
 0.815,46.75\N,0,2.995,63.935,47.05\C,0,3.135,65.085,47.91\C,0,3.395,66
 .305,47.03\O,0,3.025,66.245,45.86\C,0,1.795,65.225,48.62\H,0,2.175,63.
 975,46.46\H,0,3.965,64.925,48.6\H,0,0.975,65.185,47.91\H,0,1.625,64.38
 5,49.3\H,0,1.805,66.175,49.17\N,0,3.995,67.375,47.56\C,0,4.345,67.735,
 48.92\C,0,5.785,68.245,48.94\O,0,6.315,68.525,50.01\C,0,3.355,68.755,4
 9.47\C,0,3.555,69.195,50.92\C,0,2.305,69.995,51.28\O,0,2.275,71.235,51
 .15\O,0,1.295,69.435,51.75\H,0,4.215,68.105,46.9\H,0,4.325,66.845,49.5
 4\H,0,2.395,68.265,49.28\H,0,3.585,69.645,48.89\H,0,4.435,69.825,51.05
 \H,0,3.675,68.335,51.58\N,0,6.425,68.435,47.78\C,0,7.675,69.125,47.54\
 H,0,8.448,68.399,47.289\H,0,7.552,69.824,46.713\H,0,7.968,69.671,48.43
 7\H,0,5.925,68.045,46.99\Ca,0,4.98,67.27,60.94\O,0,3.23,68.95,61.97\H,
 0,2.33,69.01,61.66\H,0,3.43,69.82,62.3\\Version=ES64L-G16RevA.03\State
 =1-A\HF=-5333.3637798\RMSD=1.676e-10\Dipole=4.9853134,5.9061348,19.840
 9462\Quadrupole=-65.5264368,-58.4630576,123.9894944,-40.7855081,-157.9
 87182,262.7217593\PG=C01 [X(C54H83Ca1N15O23)]\\@


 I SUPPOSE A BABY LLAMA HAS A MMAMA AND A PPOPA.
     -- RICHARD AMOUR
 Job cpu time:       0 days 22 hours 53 minutes 44.9 seconds.
 Elapsed time:       0 days  0 hours 29 minutes  0.6 seconds.
 File lengths (MBytes):  RWF=   1517 Int=      0 D2E=      0 Chk=    171 Scr=      1
 Normal termination of Gaussian 16 at Wed Sep 18 00:08:11 2019.
