 Entering Gaussian System, Link 0=g16
 Initial command:
 /home1/apps/gaussian/16rA.03/g16/l1.exe "/scratch/01990/pengzhi/4345047/Gau-244109.inp" -scrdir="/scratch/01990/pengzhi/4345047/"
 Entering Link 1 = /home1/apps/gaussian/16rA.03/g16/l1.exe PID=    244111.
  
 Copyright (c) 1988,1990,1992,1993,1995,1998,2003,2009,2016,
            Gaussian, Inc.  All Rights Reserved.
  
 This is part of the Gaussian(R) 16 program.  It is based on
 the Gaussian(R) 09 system (copyright 2009, Gaussian, Inc.),
 the Gaussian(R) 03 system (copyright 2003, Gaussian, Inc.),
 the Gaussian(R) 98 system (copyright 1998, Gaussian, Inc.),
 the Gaussian(R) 94 system (copyright 1995, Gaussian, Inc.),
 the Gaussian 92(TM) system (copyright 1992, Gaussian, Inc.),
 the Gaussian 90(TM) system (copyright 1990, Gaussian, Inc.),
 the Gaussian 88(TM) system (copyright 1988, Gaussian, Inc.),
 the Gaussian 86(TM) system (copyright 1986, Carnegie Mellon
 University), and the Gaussian 82(TM) system (copyright 1983,
 Carnegie Mellon University). Gaussian is a federally registered
 trademark of Gaussian, Inc.
  
 This software contains proprietary and confidential information,
 including trade secrets, belonging to Gaussian, Inc.
  
 This software is provided under written license and may be
 used, copied, transmitted, or stored only in accord with that
 written license.
  
 The following legend is applicable only to US Government
 contracts under FAR:
  
                    RESTRICTED RIGHTS LEGEND
  
 Use, reproduction and disclosure by the US Government is
 subject to restrictions as set forth in subparagraphs (a)
 and (c) of the Commercial Computer Software - Restricted
 Rights clause in FAR 52.227-19.
  
 Gaussian, Inc.
 340 Quinnipiac St., Bldg. 40, Wallingford CT 06492
  
  
 ---------------------------------------------------------------
 Warning -- This program may not be used in any manner that
 competes with the business of Gaussian, Inc. or will provide
 assistance to any competitor of Gaussian, Inc.  The licensee
 of this program is prohibited from giving any competitor of
 Gaussian, Inc. access to this program.  By using this program,
 the user acknowledges that Gaussian, Inc. is engaged in the
 business of creating and licensing software in the field of
 computational chemistry and represents and warrants to the
 licensee that it is not a competitor of Gaussian, Inc. and that
 it will not use this program in any manner prohibited above.
 ---------------------------------------------------------------
  

 Cite this work as:
 Gaussian 16, Revision A.03,
 M. J. Frisch, G. W. Trucks, H. B. Schlegel, G. E. Scuseria, 
 M. A. Robb, J. R. Cheeseman, G. Scalmani, V. Barone, 
 G. A. Petersson, H. Nakatsuji, X. Li, M. Caricato, A. V. Marenich, 
 J. Bloino, B. G. Janesko, R. Gomperts, B. Mennucci, H. P. Hratchian, 
 J. V. Ortiz, A. F. Izmaylov, J. L. Sonnenberg, D. Williams-Young, 
 F. Ding, F. Lipparini, F. Egidi, J. Goings, B. Peng, A. Petrone, 
 T. Henderson, D. Ranasinghe, V. G. Zakrzewski, J. Gao, N. Rega, 
 G. Zheng, W. Liang, M. Hada, M. Ehara, K. Toyota, R. Fukuda, 
 J. Hasegawa, M. Ishida, T. Nakajima, Y. Honda, O. Kitao, H. Nakai, 
 T. Vreven, K. Throssell, J. A. Montgomery, Jr., J. E. Peralta, 
 F. Ogliaro, M. J. Bearpark, J. J. Heyd, E. N. Brothers, K. N. Kudin, 
 V. N. Staroverov, T. A. Keith, R. Kobayashi, J. Normand, 
 K. Raghavachari, A. P. Rendell, J. C. Burant, S. S. Iyengar, 
 J. Tomasi, M. Cossi, J. M. Millam, M. Klene, C. Adamo, R. Cammi, 
 J. W. Ochterski, R. L. Martin, K. Morokuma, O. Farkas, 
 J. B. Foresman, and D. J. Fox, Gaussian, Inc., Wallingford CT, 2016.
 
 ******************************************
 Gaussian 16:  ES64L-G16RevA.03 25-Dec-2016
                17-Sep-2019 
 ******************************************
 %chk=Ng-293_loop3_32.0.chk
 %nprocshared=48
 Will use up to   48 processors via shared memory.
 %mem=10GB
 %nosave
 ----------------------------------------------------------------------
 #b3lyp/svp scf=(tight,noincore) Test #IOP(5/87=12) Density=Current Pop
 =(MK,readradii) iop(6/33=2) iop(6/42=6)
 ----------------------------------------------------------------------
 1/30=1,38=1,172=1/1;
 2/12=2,17=6,18=5,40=1/2;
 3/5=18,7=101,11=2,25=1,30=1,74=-5/1,2,3;
 4//1;
 5/5=4,32=2,38=5,87=12/2;
 6/7=2,8=2,9=2,10=2,15=8,20=101,22=-1,28=1,33=2,42=6/1,2;
 99/5=1,9=1/99;
 -----------------
 Ng-293_loop3_32.0
 -----------------
 Symbolic Z-matrix:
 Charge =  0 Multiplicity = 1
 C                     37.43     97.237    84.397 
 C                     36.55     97.347    83.157 
 O                     36.47     96.477    82.297 
 H                     38.319    97.854    84.267 
 H                     36.874    97.58     85.269 
 H                     37.728    96.198    84.541 
 N                     35.76     98.417    83.057 
 C                     34.84     98.697    81.967 
 C                     33.97     97.547    81.487 
 O                     33.41     96.747    82.237 
 C                     33.89     99.787    82.447 
 C                     33.29     100.627   81.327 
 O                     33.41     100.337   80.117 
 O                     32.72     101.667   81.737 
 H                     35.77     99.057    83.837 
 H                     35.43     98.997    81.107 
 H                     34.44     100.487   83.067 
 H                     33.06     99.377    83.027 
 N                     33.68     97.607    80.187 
 C                     32.8      96.717    79.447 
 C                     31.41     96.437    79.987 
 O                     30.85     95.357    79.817 
 C                     33.54     95.417    79.117 
 C                     34.84     95.557    78.327 
 C                     35.81     94.407    78.577 
 C                     36.33     94.437    80.007 
 N                     37.13     93.237    80.267 
 H                     33.87     98.507    79.767 
 H                     32.57     97.287    78.557 
 H                     32.96     94.637    78.627 
 H                     33.81     95.037    80.097 
 H                     35.3      96.497    78.637 
 H                     34.59     95.547    77.267 
 H                     36.68     94.407    77.907 
 H                     35.26     93.487    78.387 
 H                     35.45     94.497    80.657 
 H                     36.84     95.387    80.167 
 H                     36.53     92.427    80.167 
 H                     37.81     93.157    79.527 
 H                     37.62     93.247    81.147 
 N                     30.79     97.417    80.657 
 C                     29.49     97.377    81.307 
 C                     28.87     98.757    81.477 
 O                     29.57     99.747    81.707 
 C                     29.61     96.647    82.637 
 C                     28.41     96.887    83.547 
 O                     28.52     97.497    84.627 
 O                     27.28     96.467    83.207 
 H                     31.21     98.327    80.577 
 H                     28.81     96.787    80.707 
 H                     30.53     97.027    83.087 
 H                     29.78     95.587    82.457 
 N                     27.56     98.857    81.247 
 C                     26.79     100.087   81.297 
 C                     26.33     100.437   82.707 
 O                     26.01     99.567    83.517 
 H                     27.04     98.037    80.967 
 H                     25.85     100.047   80.747 
 H                     27.41     100.847   80.827 
 N                     26.52     101.687   83.127 
 C                     26.27     102.287   84.427 
 C                     25.7      103.687   84.317 
 O                     24.99     104.147   85.207 
 C                     27.61     102.217   85.157 
 C                     28.06     100.797   85.437 
 N                     29.1      100.237   84.807 
 O                     27.36     100.087   86.157 
 H                     26.85     102.287   82.387 
 H                     25.6      101.717   85.067 
 H                     27.54     102.847   86.047 
 H                     28.34     102.687   84.487 
 H                     29.78     100.837   84.367 
 H                     29.01     99.247    84.617 
 N                     26.       104.387   83.207 
 C                     25.82     105.817   83.117 
 C                     26.43     106.557   84.307 
 O                     27.45     106.147   84.847 
 H                     26.43     103.937   82.407 
 H                     24.76     106.067   83.197 
 H                     26.32     106.057   82.177 
 N                     25.75     107.597   84.777 
 C                     25.98     108.277   86.037 
 C                     26.2      107.397   87.267 
 O                     26.56     108.027   88.267 
 C                     27.07     109.327   85.847 
 C                     26.77     110.467   84.907 
 C                     27.15     110.347   83.567 
 C                     26.37     111.697   85.437 
 C                     26.73     111.377   82.707 
 C                     25.9      112.687   84.577 
 C                     26.05     112.507   83.187 
 O                     25.73     113.557   82.377 
 H                     24.85     107.757   84.347 
 H                     25.09     108.867   86.247 
 H                     27.95     108.767   85.507 
 H                     27.34     109.797   86.787 
 H                     27.72     109.507   83.207 
 H                     26.18     111.687   86.507 
 H                     27.       111.337   81.657 
 H                     25.42     113.597   84.927 
 H                     25.42     114.407   82.687 
 N                     25.93     106.097   87.247 
 C                     25.7      105.267   88.407 
 C                     24.43     105.527   89.207 
 O                     23.64     104.617   89.417 
 C                     26.9      105.207   89.347 
 C                     28.2      104.887   88.607 
 C                     26.63     104.207   90.467 
 C                     29.36     104.897   89.587 
 H                     25.56     105.697   86.387 
 H                     25.6      104.257   88.017 
 H                     26.97     106.197   89.807 
 H                     28.37     105.617   87.807 
 H                     28.02     103.927   88.127 
 H                     27.38     104.277   91.257 
 H                     25.68     104.317   90.997 
 H                     26.83     103.267   89.957 
 H                     29.59     105.927   89.847 
 H                     29.24     104.157   90.387 
 H                     30.17     104.607   88.917 
 N                     24.07     106.757   89.587 
 C                     22.91     107.197   90.347 
 C                     22.48     106.307   91.497 
 O                     21.29     106.037   91.617 
 C                     23.14     108.597   90.907 
 O                     23.43     109.567   89.927 
 H                     24.66     107.517   89.297 
 H                     22.12     107.277   89.597 
 H                     23.92     108.557   91.657 
 H                     22.18     108.897   91.327 
 H                     23.66     110.317   90.467 
 N                     23.46     105.667   92.157 
 C                     23.17     104.707   93.197 
 C                     22.4      103.497   92.697 
 O                     21.65     102.997   93.527 
 C                     22.59     105.427   94.407 
 H                     24.42     105.877   91.927 
 H                     24.18     104.357   93.407 
 H                     23.21     106.267   94.737 
 H                     21.65     105.917   94.167 
 H                     22.65     104.777   95.287 
 N                     22.56     103.087   91.437 
 C                     22.1      101.797   90.977 
 C                     22.97     100.637   91.427 
 O                     24.18     100.767   91.617 
 C                     21.93     101.907   89.457 
 H                     22.98     103.767   90.827 
 H                     21.13     101.517   91.397 
 H                     22.91     102.247   89.127 
 H                     21.63     100.897   89.167 
 H                     21.12     102.557   89.137 
 N                     22.34     99.467    91.547 
 C                     23.14     98.257    91.557 
 C                     24.14     98.077    92.687 
 O                     25.21     97.517    92.477 
 C                     23.7      97.857    90.197 
 C                     22.66     97.677    89.097 
 C                     23.31     97.637    87.717 
 O                     24.54     97.427    87.687 
 O                     22.68     97.947    86.687 
 H                     21.34     99.387    91.667 
 H                     22.43     97.467    91.797 
 H                     24.33     96.967    90.277 
 H                     24.36     98.647    89.847 
 H                     21.94     98.487    89.167 
 H                     22.17     96.737    89.357 
 N                     23.81     98.487    93.917 
 C                     24.76     98.547    95.017 
 H                     25.629    99.132    94.715 
 H                     24.288    99.017    95.88 
 H                     25.076    97.538    95.28 
 H                     22.9      98.897    94.077 
 Ca                    26.05     97.7      85.53 
 O                     26.04     95.05     85.92 
 H                     25.45     94.57     86.5 
 H                     26.48     94.37     85.41 
 
 Stoichiometry    C54H83CaN15O23
 Framework group  C1[X(C54H83CaN15O23)]
 Deg. of freedom   522
 Full point group                 C1      NOp   1
 Largest Abelian subgroup         C1      NOp   1
 Largest concise Abelian subgroup C1      NOp   1
                         Standard orientation:                         
 ---------------------------------------------------------------------
 Center     Atomic      Atomic             Coordinates (Angstroms)
 Number     Number       Type             X           Y           Z
 ---------------------------------------------------------------------
      1          6           0        9.376662    0.007056    5.790548
      2          6           0        9.477580    0.500485    4.351645
      3          8           0       10.408662    0.231103    3.601033
      4          1           0        9.628017    0.820110    6.471484
      5          1           0        8.360068   -0.331421    5.988382
      6          1           0       10.071362   -0.819785    5.941503
      7          7           0        8.445575    1.191258    3.865025
      8          6           0        8.341269    1.731221    2.519491
      9          6           0        8.747478    0.815870    1.376282
     10          8           0        8.452585   -0.377826    1.311257
     11          6           0        6.878349    2.088440    2.288710
     12          6           0        6.661202    3.183693    1.252724
     13          8           0        7.574508    3.620207    0.519288
     14          8           0        5.493848    3.644000    1.253921
     15          1           0        7.649162    1.298301    4.475244
     16          1           0        9.002490    2.589461    2.456950
     17          1           0        6.460489    2.479062    3.210506
     18          1           0        6.292555    1.221730    1.973973
     19          7           0        9.264285    1.465971    0.333219
     20          6           0        9.660287    0.893315   -0.943240
     21          6           0        8.686449   -0.004844   -1.682869
     22          8           0        9.065424   -0.940011   -2.383398
     23          6           0       11.034173    0.229733   -0.806873
     24          6           0       12.173853    1.121584   -0.317557
     25          6           0       13.276025    0.338152    0.387675
     26          6           0       12.772942   -0.243522    1.700977
     27          7           0       13.796314   -1.120007    2.277244
     28          1           0        9.095886    2.462916    0.348737
     29          1           0        9.691651    1.754470   -1.596943
     30          1           0       11.407454   -0.301877   -1.680345
     31          1           0       10.867535   -0.514877   -0.035195
     32          1           0       11.737193    1.842695    0.375715
     33          1           0       12.620953    1.600538   -1.187560
     34          1           0       14.171329    0.933998    0.609482
     35          1           0       13.580315   -0.455170   -0.292802
     36          1           0       11.848360   -0.783459    1.468350
     37          1           0       12.444185    0.578458    2.336955
     38          1           0       13.957291   -1.886266    1.634568
     39          1           0       14.662669   -0.604877    2.298934
     40          1           0       13.593502   -1.437126    3.211537
     41          7           0        7.378535    0.256623   -1.561649
     42          6           0        6.259546   -0.481324   -2.125029
     43          6           0        5.000930    0.364227   -2.261520
     44          8           0        4.724081    1.234789   -1.431775
     45          6           0        6.008647   -1.733054   -1.296524
     46          6           0        4.643877   -2.354681   -1.573441
     47          8           0        3.757303   -2.401370   -0.700282
     48          8           0        4.397118   -2.830017   -2.705725
     49          1           0        7.152645    1.147373   -1.153681
     50          1           0        6.525174   -0.830514   -3.113972
     51          1           0        6.091108   -1.406496   -0.257361
     52          1           0        6.819379   -2.442366   -1.453017
     53          7           0        4.286434    0.198387   -3.375518
     54          6           0        3.090918    0.944471   -3.725373
     55          6           0        1.827776    0.355795   -3.108822
     56          8           0        1.683483   -0.858421   -2.966486
     57          1           0        4.601512   -0.458901   -4.075445
     58          1           0        2.857093    0.937992   -4.789790
     59          1           0        3.288563    1.975704   -3.441833
     60          7           0        0.989955    1.192485   -2.498082
     61          6           0       -0.229422    0.921286   -1.755067
     62          6           0       -1.313363    1.944054   -2.030781
     63          8           0       -2.499481    1.646961   -1.918261
     64          6           0        0.206953    0.856881   -0.292594
     65          6           0        1.135607   -0.304911   -0.000806
     66          7           0        2.431946   -0.132321    0.285235
     67          8           0        0.721856   -1.449768   -0.175772
     68          1           0        1.256171    2.155818   -2.630820
     69          1           0       -0.660922   -0.060658   -1.936710
     70          1           0       -0.693039    0.875671    0.326730
     71          1           0        0.748555    1.791068   -0.101120
     72          1           0        2.740666    0.771424    0.607626
     73          1           0        3.052199   -0.852992   -0.061492
     74          7           0       -0.916152    3.173751   -2.407836
     75          6           0       -1.794650    4.319380   -2.373552
     76          6           0       -2.517430    4.459410   -1.034231
     77          8           0       -1.971777    4.132058    0.012289
     78          1           0        0.046156    3.353131   -2.670866
     79          1           0       -2.618270    4.181179   -3.077150
     80          1           0       -1.108327    5.146244   -2.564489
     81          7           0       -3.784200    4.857366   -1.076955
     82          6           0       -4.739408    4.805941    0.012922
     83          6           0       -4.788480    3.514280    0.828338
     84          8           0       -5.492028    3.595743    1.840703
     85          6           0       -4.582611    6.054686    0.874753
     86          6           0       -4.892490    7.380404    0.226951
     87          6           0       -3.848370    8.094647   -0.368087
     88          6           0       -6.133912    7.977915    0.462858
     89          6           0       -4.211678    9.256336   -1.071923
     90          6           0       -6.504238    9.093461   -0.284814
     91          6           0       -5.535683    9.721337   -1.093933
     92          8           0       -5.878406   10.900836   -1.687501
     93          1           0       -4.175771    4.959701   -2.002536
     94          1           0       -5.728769    4.920190   -0.425724
     95          1           0       -3.543953    6.030051    1.227148
     96          1           0       -5.214815    6.013930    1.755694
     97          1           0       -2.823699    7.768732   -0.305406
     98          1           0       -6.838905    7.354359    1.006240
     99          1           0       -3.441180    9.851630   -1.550418
    100          1           0       -7.509552    9.506081   -0.275331
    101          1           0       -6.725050   11.333907   -1.585793
    102          7           0       -4.193033    2.404807    0.406659
    103          6           0       -4.501549    1.064015    0.847675
    104          6           0       -5.858410    0.496648    0.450785
    105          8           0       -5.926858   -0.566085   -0.151056
    106          6           0       -4.271981    0.858062    2.341690
    107          6           0       -2.896162    1.354105    2.790091
    108          6           0       -4.484592   -0.609484    2.700028
    109          6           0       -2.753065    1.172157    4.290931
    110          1           0       -3.705582    2.431739   -0.486743
    111          1           0       -3.764256    0.429576    0.361787
    112          1           0       -5.054825    1.431244    2.846882
    113          1           0       -2.767020    2.408571    2.519495
    114          1           0       -2.185331    0.784713    2.194347
    115          1           0       -4.515764   -0.758260    3.780951
    116          1           0       -5.412907   -1.065807    2.345768
    117          1           0       -3.540684   -1.040574    2.373074
    118          1           0       -3.351387    1.927402    4.793938
    119          1           0       -2.846490    0.123667    4.597425
    120          1           0       -1.727281    1.518225    4.421711
    121          7           0       -6.992184    1.184191    0.620314
    122          6           0       -8.364101    0.813264    0.308774
    123          6           0       -8.752507   -0.626509    0.583898
    124          8           0       -9.377912   -1.239887   -0.274028
    125          6           0       -9.342126    1.708091    1.063261
    126          8           0       -9.178394    3.083571    0.805096
    127          1           0       -6.912924    2.112428    0.997002
    128          1           0       -8.465317    1.050314   -0.752623
    129          1           0       -9.269864    1.500374    2.123512
    130          1           0      -10.324136    1.459405    0.661003
    131          1           0       -9.772181    3.466741    1.443529
    132          7           0       -8.165755   -1.212895    1.641004
    133          6           0       -8.368693   -2.611871    1.939303
    134          6           0       -7.856937   -3.536894    0.848689
    135          8           0       -8.482555   -4.584865    0.740249
    136          6           0       -9.804593   -2.831835    2.396148
    137          1           0       -7.582449   -0.654354    2.246302
    138          1           0       -7.679407   -2.720409    2.775847
    139          1           0      -10.099086   -2.156738    3.206344
    140          1           0      -10.515534   -2.575453    1.615040
    141          1           0       -9.886382   -3.799633    2.903275
    142          7           0       -6.822884   -3.159298    0.094067
    143          6           0       -6.101666   -4.082751   -0.751143
    144          6           0       -5.165263   -5.007335    0.006019
    145          8           0       -4.620422   -4.663726    1.055867
    146          6           0       -5.418903   -3.243251   -1.837640
    147          1           0       -6.621138   -2.174798    0.125021
    148          1           0       -6.756767   -4.800173   -1.252989
    149          1           0       -4.842445   -2.522123   -1.260950
    150          1           0       -4.857294   -3.986277   -2.409224
    151          1           0       -6.099118   -2.779872   -2.547278
    152          7           0       -4.938353   -6.186811   -0.574971
    153          6           0       -3.769797   -6.939953   -0.160903
    154          6           0       -3.697237   -7.398188    1.286183
    155          8           0       -2.617179   -7.437904    1.864539
    156          6           0       -2.445893   -6.389701   -0.678300
    157          6           0       -2.352537   -6.247638   -2.193259
    158          6           0       -1.170150   -5.372459   -2.598872
    159          8           0       -0.295457   -5.180769   -1.729351
    160          8           0       -1.151277   -4.758673   -3.683681
    161          1           0       -5.558901   -6.594320   -1.260286
    162          1           0       -3.875893   -7.899637   -0.664441
    163          1           0       -1.601973   -6.970193   -0.295901
    164          1           0       -2.308418   -5.386221   -0.282915
    165          1           0       -3.288164   -5.835454   -2.559467
    166          1           0       -2.251795   -7.276691   -2.542830
    167          7           0       -4.816477   -7.807650    1.894082
    168          6           0       -4.894914   -8.071330    3.322515
    169          1           0       -4.541246   -7.199199    3.872876
    170          1           0       -5.929023   -8.279518    3.597707
    171          1           0       -4.273018   -8.931563    3.568179
    172          1           0       -5.686626   -7.817330    1.379739
    173         20           0        1.656268   -3.404874   -1.939697
    174          8           0        2.953769   -5.741455   -2.117400
    175          1           0        2.552041   -6.597155   -2.263323
    176          1           0        3.892331   -5.896435   -2.223144
 ---------------------------------------------------------------------
 Rotational constants (GHZ):           0.0186717           0.0084879           0.0066363
 Standard basis: SVP (5D, 7F)
 There are  1809 symmetry adapted cartesian basis functions of A   symmetry.
 There are  1717 symmetry adapted basis functions of A   symmetry.
  1717 basis functions,  2922 primitive gaussians,  1809 cartesian basis functions
   358 alpha electrons      358 beta electrons
       nuclear repulsion energy     18889.7381154869 Hartrees.
 NAtoms=  176 NActive=  176 NUniq=  176 SFac= 1.00D+00 NAtFMM=   60 NAOKFM=T Big=T
 Integral buffers will be    131072 words long.
 Raffenetti 2 integral format.
 Two-electron integral symmetry is turned on.
 One-electron integrals computed using PRISM.
 NBasis=  1717 RedAO= T EigKep=  3.44D-04  NBF=  1717
 NBsUse=  1717 1.00D-06 EigRej= -1.00D+00 NBFU=  1717
 ExpMin= 1.98D-02 ExpMax= 3.51D+04 ExpMxC= 5.28D+03 IAcc=3 IRadAn=         5 AccDes= 0.00D+00
 Harris functional with IExCor=  402 and IRadAn=       5 diagonalized for initial guess.
 HarFok:  IExCor=  402 AccDes= 0.00D+00 IRadAn=         5 IDoV= 1 UseB2=F ITyADJ=14
 ICtDFT=  3500011 ScaDFX=  1.000000  1.000000  1.000000  1.000000
 FoFCou: FMM=F IPFlag=           0 FMFlag=      100000 FMFlg1=        2001
         NFxFlg=           0 DoJE=T BraDBF=F KetDBF=T FulRan=T
         wScrn=  0.000000 ICntrl=       500 IOpCl=  0 I1Cent=   200000004 NGrid=           0
         NMat0=    1 NMatS0=      1 NMatT0=    0 NMatD0=    1 NMtDS0=    0 NMtDT0=    0
 Petite list used in FoFCou.
 Requested convergence on RMS density matrix=1.00D-08 within 128 cycles.
 Requested convergence on MAX density matrix=1.00D-06.
 Requested convergence on             energy=1.00D-06.
 No special actions if energy rises.
 EnCoef did     2 forward-backward iterations
 EnCoef did     2 forward-backward iterations
 EnCoef did     3 forward-backward iterations
 SCF Done:  E(RB3LYP) =  -5333.46771478     A.U. after   20 cycles
            NFock= 20  Conv=0.88D-08     -V/T= 2.0081
 SCF density gives NOpUse=  1 NOpAll=  1.
 Hyperfine terms turned off by default for NAtoms > 100.

 **********************************************************************

            Population analysis using the SCF density.

 **********************************************************************

 Orbital symmetries:
 BldTbl:  Degeneracy threshold= 1.00D-02
       Occupied  (A) (A) (A) (A) (A) (A) (A) (A) (A) (A) (A) (A)
                 (A) (A) (A) (A) (A) (A) (A) (A) (A) (A) (A) (A)
                 (A) (A) (A) (A) (A) (A) (A) (A) (A) (A) (A) (A)
                 (A) (A) (A) (A) (A) (A) (A) (A) (A) (A) (A) (A)
                 (A) (A) (A) (A) (A) (A) (A) (A) (A) (A) (A) (A)
                 (A) (A) (A) (A) (A) (A) (A) (A) (A) (A) (A) (A)
                 (A) (A) (A) (A) (A) (A) (A) (A) (A) (A) (A) (A)
                 (A) (A) (A) (A) (A) (A) (A) (A) (A) (A) (A) (A)
                 (A) (A) (A) (A) (A) (A) (A) (A) (A) (A) (A) (A)
                 (A) (A) (A) (A) (A) (A) (A) (A) (A) (A) (A) (A)
                 (A) (A) (A) (A) (A) (A) (A) (A) (A) (A) (A) (A)
                 (A) (A) (A) (A) (A) (A) (A) (A) (A) (A) (A) (A)
                 (A) (A) (A) (A) (A) (A) (A) (A) (A) (A) (A) (A)
                 (A) (A) (A) (A) (A) (A) (A) (A) (A) (A) (A) (A)
                 (A) (A) (A) (A) (A) (A) (A) (A) (A) (A) (A) (A)
                 (A) (A) (A) (A) (A) (A) (A) (A) (A) (A) (A) (A)
                 (A) (A) (A) (A) (A) (A) (A) (A) (A) (A) (A) (A)
                 (A) (A) (A) (A) (A) (A) (A) (A) (A) (A) (A) (A)
                 (A) (A) (A) (A) (A) (A) (A) (A) (A) (A) (A) (A)
                 (A) (A) (A) (A) (A) (A) (A) (A) (A) (A) (A) (A)
                 (A) (A) (A) (A) (A) (A) (A) (A) (A) (A) (A) (A)
                 (A) (A) (A) (A) (A) (A) (A) (A) (A) (A) (A) (A)
                 (A) (A) (A) (A) (A) (A) (A) (A) (A) (A) (A) (A)
                 (A) (A) (A) (A) (A) (A) (A) (A) (A) (A) (A) (A)
                 (A) (A) (A) (A) (A) (A) (A) (A) (A) (A) (A) (A)
                 (A) (A) (A) (A) (A) (A) (A) (A) (A) (A) (A) (A)
                 (A) (A) (A) (A) (A) (A) (A) (A) (A) (A) (A) (A)
                 (A) (A) (A) (A) (A) (A) (A) (A) (A) (A) (A) (A)
                 (A) (A) (A) (A) (A) (A) (A) (A) (A) (A) (A) (A)
                 (A) (A) (A) (A) (A) (A) (A) (A) (A) (A)
       Virtual   (A) (A) (A) (A) (A) (A) (A) (A) (A) (A) (A) (A)
                 (A) (A) (A) (A) (A) (A) (A) (A) (A) (A) (A) (A)
                 (A) (A) (A) (A) (A) (A) (A) (A) (A) (A) (A) (A)
                 (A) (A) (A) (A) (A) (A) (A) (A) (A) (A) (A) (A)
                 (A) (A) (A) (A) (A) (A) (A) (A) (A) (A) (A) (A)
                 (A) (A) (A) (A) (A) (A) (A) (A) (A) (A) (A) (A)
                 (A) (A) (A) (A) (A) (A) (A) (A) (A) (A) (A) (A)
                 (A) (A) (A) (A) (A) (A) (A) (A) (A) (A) (A) (A)
                 (A) (A) (A) (A) (A) (A) (A) (A) (A) (A) (A) (A)
                 (A) (A) (A) (A) (A) (A) (A) (A) (A) (A) (A) (A)
                 (A) (A) (A) (A) (A) (A) (A) (A) (A) (A) (A) (A)
                 (A) (A) (A) (A) (A) (A) (A) (A) (A) (A) (A) (A)
                 (A) (A) (A) (A) (A) (A) (A) (A) (A) (A) (A) (A)
                 (A) (A) (A) (A) (A) (A) (A) (A) (A) (A) (A) (A)
                 (A) (A) (A) (A) (A) (A) (A) (A) (A) (A) (A) (A)
                 (A) (A) (A) (A) (A) (A) (A) (A) (A) (A) (A) (A)
                 (A) (A) (A) (A) (A) (A) (A) (A) (A) (A) (A) (A)
                 (A) (A) (A) (A) (A) (A) (A) (A) (A) (A) (A) (A)
                 (A) (A) (A) (A) (A) (A) (A) (A) (A) (A) (A) (A)
                 (A) (A) (A) (A) (A) (A) (A) (A) (A) (A) (A) (A)
                 (A) (A) (A) (A) (A) (A) (A) (A) (A) (A) (A) (A)
                 (A) (A) (A) (A) (A) (A) (A) (A) (A) (A) (A) (A)
                 (A) (A) (A) (A) (A) (A) (A) (A) (A) (A) (A) (A)
                 (A) (A) (A) (A) (A) (A) (A) (A) (A) (A) (A) (A)
                 (A) (A) (A) (A) (A) (A) (A) (A) (A) (A) (A) (A)
                 (A) (A) (A) (A) (A) (A) (A) (A) (A) (A) (A) (A)
                 (A) (A) (A) (A) (A) (A) (A) (A) (A) (A) (A) (A)
                 (A) (A) (A) (A) (A) (A) (A) (A) (A) (A) (A) (A)
                 (A) (A) (A) (A) (A) (A) (A) (A) (A) (A) (A) (A)
                 (A) (A) (A) (A) (A) (A) (A) (A) (A) (A) (A) (A)
                 (A) (A) (A) (A) (A) (A) (A) (A) (A) (A) (A) (A)
                 (A) (A) (A) (A) (A) (A) (A) (A) (A) (A) (A) (A)
                 (A) (A) (A) (A) (A) (A) (A) (A) (A) (A) (A) (A)
                 (A) (A) (A) (A) (A) (A) (A) (A) (A) (A) (A) (A)
                 (A) (A) (A) (A) (A) (A) (A) (A) (A) (A) (A) (A)
                 (A) (A) (A) (A) (A) (A) (A) (A) (A) (A) (A) (A)
                 (A) (A) (A) (A) (A) (A) (A) (A) (A) (A) (A) (A)
                 (A) (A) (A) (A) (A) (A) (A) (A) (A) (A) (A) (A)
                 (A) (A) (A) (A) (A) (A) (A) (A) (A) (A) (A) (A)
                 (A) (A) (A) (A) (A) (A) (A) (A) (A) (A) (A) (A)
                 (A) (A) (A) (A) (A) (A) (A) (A) (A) (A) (A) (A)
                 (A) (A) (A) (A) (A) (A) (A) (A) (A) (A) (A) (A)
                 (A) (A) (A) (A) (A) (A) (A) (A) (A) (A) (A) (A)
                 (A) (A) (A) (A) (A) (A) (A) (A) (A) (A) (A) (A)
                 (A) (A) (A) (A) (A) (A) (A) (A) (A) (A) (A) (A)
                 (A) (A) (A) (A) (A) (A) (A) (A) (A) (A) (A) (A)
                 (A) (A) (A) (A) (A) (A) (A) (A) (A) (A) (A) (A)
                 (A) (A) (A) (A) (A) (A) (A) (A) (A) (A) (A) (A)
                 (A) (A) (A) (A) (A) (A) (A) (A) (A) (A) (A) (A)
                 (A) (A) (A) (A) (A) (A) (A) (A) (A) (A) (A) (A)
                 (A) (A) (A) (A) (A) (A) (A) (A) (A) (A) (A) (A)
                 (A) (A) (A) (A) (A) (A) (A) (A) (A) (A) (A) (A)
                 (A) (A) (A) (A) (A) (A) (A) (A) (A) (A) (A) (A)
                 (A) (A) (A) (A) (A) (A) (A) (A) (A) (A) (A) (A)
                 (A) (A) (A) (A) (A) (A) (A) (A) (A) (A) (A) (A)
                 (A) (A) (A) (A) (A) (A) (A) (A) (A) (A) (A) (A)
                 (A) (A) (A) (A) (A) (A) (A) (A) (A) (A) (A) (A)
                 (A) (A) (A) (A) (A) (A) (A) (A) (A) (A) (A) (A)
                 (A) (A) (A) (A) (A) (A) (A) (A) (A) (A) (A) (A)
                 (A) (A) (A) (A) (A) (A) (A) (A) (A) (A) (A) (A)
                 (A) (A) (A) (A) (A) (A) (A) (A) (A) (A) (A) (A)
                 (A) (A) (A) (A) (A) (A) (A) (A) (A) (A) (A) (A)
                 (A) (A) (A) (A) (A) (A) (A) (A) (A) (A) (A) (A)
                 (A) (A) (A) (A) (A) (A) (A) (A) (A) (A) (A) (A)
                 (A) (A) (A) (A) (A) (A) (A) (A) (A) (A) (A) (A)
                 (A) (A) (A) (A) (A) (A) (A) (A) (A) (A) (A) (A)
                 (A) (A) (A) (A) (A) (A) (A) (A) (A) (A) (A) (A)
                 (A) (A) (A) (A) (A) (A) (A) (A) (A) (A) (A) (A)
                 (A) (A) (A) (A) (A) (A) (A) (A) (A) (A) (A) (A)
                 (A) (A) (A) (A) (A) (A) (A) (A) (A) (A) (A) (A)
                 (A) (A) (A) (A) (A) (A) (A) (A) (A) (A) (A) (A)
                 (A) (A) (A) (A) (A) (A) (A) (A) (A) (A) (A) (A)
                 (A) (A) (A) (A) (A) (A) (A) (A) (A) (A) (A) (A)
                 (A) (A) (A) (A) (A) (A) (A) (A) (A) (A) (A) (A)
                 (A) (A) (A) (A) (A) (A) (A) (A) (A) (A) (A) (A)
                 (A) (A) (A) (A) (A) (A) (A) (A) (A) (A) (A) (A)
                 (A) (A) (A) (A) (A) (A) (A) (A) (A) (A) (A) (A)
                 (A) (A) (A) (A) (A) (A) (A) (A) (A) (A) (A) (A)
                 (A) (A) (A) (A) (A) (A) (A) (A) (A) (A) (A) (A)
                 (A) (A) (A) (A) (A) (A) (A) (A) (A) (A) (A) (A)
                 (A) (A) (A) (A) (A) (A) (A) (A) (A) (A) (A) (A)
                 (A) (A) (A) (A) (A) (A) (A) (A) (A) (A) (A) (A)
                 (A) (A) (A) (A) (A) (A) (A) (A) (A) (A) (A) (A)
                 (A) (A) (A) (A) (A) (A) (A) (A) (A) (A) (A) (A)
                 (A) (A) (A) (A) (A) (A) (A) (A) (A) (A) (A) (A)
                 (A) (A) (A) (A) (A) (A) (A) (A) (A) (A) (A) (A)
                 (A) (A) (A) (A) (A) (A) (A) (A) (A) (A) (A) (A)
                 (A) (A) (A) (A) (A) (A) (A) (A) (A) (A) (A) (A)
                 (A) (A) (A) (A) (A) (A) (A) (A) (A) (A) (A) (A)
                 (A) (A) (A) (A) (A) (A) (A) (A) (A) (A) (A) (A)
                 (A) (A) (A) (A) (A) (A) (A) (A) (A) (A) (A) (A)
                 (A) (A) (A) (A) (A) (A) (A) (A) (A) (A) (A) (A)
                 (A) (A) (A) (A) (A) (A) (A) (A) (A) (A) (A) (A)
                 (A) (A) (A) (A) (A) (A) (A) (A) (A) (A) (A) (A)
                 (A) (A) (A) (A) (A) (A) (A) (A) (A) (A) (A) (A)
                 (A) (A) (A) (A) (A) (A) (A) (A) (A) (A) (A) (A)
                 (A) (A) (A) (A) (A) (A) (A) (A) (A) (A) (A) (A)
                 (A) (A) (A) (A) (A) (A) (A) (A) (A) (A) (A) (A)
                 (A) (A) (A) (A) (A) (A) (A) (A) (A) (A) (A) (A)
                 (A) (A) (A) (A) (A) (A) (A) (A) (A) (A) (A) (A)
                 (A) (A) (A) (A) (A) (A) (A) (A) (A) (A) (A) (A)
                 (A) (A) (A) (A) (A) (A) (A) (A) (A) (A) (A) (A)
                 (A) (A) (A) (A) (A) (A) (A) (A) (A) (A) (A) (A)
                 (A) (A) (A) (A) (A) (A) (A) (A) (A) (A) (A) (A)
                 (A) (A) (A) (A) (A) (A) (A) (A) (A) (A) (A) (A)
                 (A) (A) (A) (A) (A) (A) (A) (A) (A) (A) (A) (A)
                 (A) (A) (A) (A) (A) (A) (A) (A) (A) (A) (A) (A)
                 (A) (A) (A) (A) (A) (A) (A) (A) (A) (A) (A) (A)
                 (A) (A) (A) (A) (A) (A) (A) (A) (A) (A) (A) (A)
                 (A) (A) (A) (A) (A) (A) (A) (A) (A) (A) (A) (A)
                 (A) (A) (A) (A) (A) (A) (A) (A) (A) (A) (A) (A)
                 (A) (A) (A) (A) (A) (A) (A) (A) (A) (A) (A) (A)
                 (A) (A) (A) (A) (A) (A) (A) (A) (A) (A) (A) (A)
                 (A) (A) (A)
 The electronic state is 1-A.
 Alpha  occ. eigenvalues -- -145.40056 -19.16084 -19.15568 -19.14099 -19.13521
 Alpha  occ. eigenvalues --  -19.12907 -19.11181 -19.09851 -19.09666 -19.09429
 Alpha  occ. eigenvalues --  -19.09419 -19.09402 -19.08430 -19.07574 -19.06928
 Alpha  occ. eigenvalues --  -19.06800 -19.06503 -19.05603 -19.05201 -19.04777
 Alpha  occ. eigenvalues --  -19.02653 -19.00589 -18.99271 -18.96474 -15.45862
 Alpha  occ. eigenvalues --  -14.56609 -14.39355 -14.39028 -14.37613 -14.36319
 Alpha  occ. eigenvalues --  -14.35157 -14.34965 -14.34556 -14.34259 -14.33016
 Alpha  occ. eigenvalues --  -14.32703 -14.32221 -14.31960 -14.31387 -14.29930
 Alpha  occ. eigenvalues --  -12.59499 -12.59452 -12.59383 -10.31987 -10.31767
 Alpha  occ. eigenvalues --  -10.30694 -10.30159 -10.28694 -10.28481 -10.28269
 Alpha  occ. eigenvalues --  -10.28206 -10.28174 -10.27214 -10.26557 -10.26325
 Alpha  occ. eigenvalues --  -10.26030 -10.25658 -10.25588 -10.25508 -10.25436
 Alpha  occ. eigenvalues --  -10.25226 -10.24658 -10.24373 -10.24152 -10.23888
 Alpha  occ. eigenvalues --  -10.23822 -10.22885 -10.22821 -10.22180 -10.21977
 Alpha  occ. eigenvalues --  -10.21617 -10.20866 -10.20848 -10.20532 -10.20405
 Alpha  occ. eigenvalues --  -10.20264 -10.19441 -10.19421 -10.19413 -10.19248
 Alpha  occ. eigenvalues --  -10.19145 -10.19102 -10.19005 -10.18924 -10.18697
 Alpha  occ. eigenvalues --  -10.18045 -10.18019 -10.17053 -10.16299 -10.16013
 Alpha  occ. eigenvalues --  -10.15914 -10.15882 -10.15496 -10.14873 -10.13802
 Alpha  occ. eigenvalues --  -10.12915 -10.12421  -1.82374  -1.11760  -1.10045
 Alpha  occ. eigenvalues --   -1.09763  -1.09269  -1.06681  -1.05826  -1.04594
 Alpha  occ. eigenvalues --   -1.04044  -1.03703  -1.02933  -1.02830  -1.02402
 Alpha  occ. eigenvalues --   -1.02392  -1.02114  -1.01986  -1.01354  -1.01331
 Alpha  occ. eigenvalues --   -1.00758  -0.99603  -0.99539  -0.98151  -0.97765
 Alpha  occ. eigenvalues --   -0.96640  -0.96463  -0.94672  -0.94402  -0.92656
 Alpha  occ. eigenvalues --   -0.92419  -0.92403  -0.91873  -0.90988  -0.90829
 Alpha  occ. eigenvalues --   -0.90500  -0.90206  -0.89458  -0.89270  -0.87656
 Alpha  occ. eigenvalues --   -0.87631  -0.87203  -0.86567  -0.85984  -0.85165
 Alpha  occ. eigenvalues --   -0.82639  -0.81660  -0.80746  -0.79405  -0.79334
 Alpha  occ. eigenvalues --   -0.77578  -0.77495  -0.76580  -0.76061  -0.75500
 Alpha  occ. eigenvalues --   -0.74583  -0.74362  -0.73975  -0.73684  -0.73497
 Alpha  occ. eigenvalues --   -0.72500  -0.72294  -0.72106  -0.71261  -0.70433
 Alpha  occ. eigenvalues --   -0.69177  -0.69037  -0.68927  -0.67506  -0.66116
 Alpha  occ. eigenvalues --   -0.65552  -0.64928  -0.64705  -0.64024  -0.63602
 Alpha  occ. eigenvalues --   -0.62626  -0.62311  -0.62074  -0.61825  -0.61458
 Alpha  occ. eigenvalues --   -0.61210  -0.60941  -0.60398  -0.60298  -0.60134
 Alpha  occ. eigenvalues --   -0.59017  -0.58586  -0.58531  -0.58269  -0.58009
 Alpha  occ. eigenvalues --   -0.57131  -0.56739  -0.56675  -0.55760  -0.55621
 Alpha  occ. eigenvalues --   -0.55351  -0.55276  -0.55079  -0.54450  -0.54305
 Alpha  occ. eigenvalues --   -0.54126  -0.53704  -0.53558  -0.53390  -0.53093
 Alpha  occ. eigenvalues --   -0.52901  -0.52523  -0.52121  -0.51910  -0.51745
 Alpha  occ. eigenvalues --   -0.51111  -0.50898  -0.50417  -0.49846  -0.49608
 Alpha  occ. eigenvalues --   -0.49332  -0.49147  -0.48921  -0.48492  -0.48290
 Alpha  occ. eigenvalues --   -0.48055  -0.47868  -0.47608  -0.47589  -0.47165
 Alpha  occ. eigenvalues --   -0.47003  -0.46681  -0.46362  -0.46324  -0.45989
 Alpha  occ. eigenvalues --   -0.45914  -0.45602  -0.45569  -0.45285  -0.45204
 Alpha  occ. eigenvalues --   -0.45039  -0.44882  -0.44676  -0.44592  -0.44262
 Alpha  occ. eigenvalues --   -0.44167  -0.43907  -0.43662  -0.43450  -0.43095
 Alpha  occ. eigenvalues --   -0.42939  -0.42876  -0.42854  -0.42713  -0.42635
 Alpha  occ. eigenvalues --   -0.42613  -0.42442  -0.42284  -0.42137  -0.42039
 Alpha  occ. eigenvalues --   -0.41763  -0.41483  -0.41338  -0.41036  -0.40764
 Alpha  occ. eigenvalues --   -0.40707  -0.40665  -0.40638  -0.40552  -0.40298
 Alpha  occ. eigenvalues --   -0.39932  -0.39819  -0.39759  -0.39672  -0.39576
 Alpha  occ. eigenvalues --   -0.39341  -0.39308  -0.39027  -0.38990  -0.38849
 Alpha  occ. eigenvalues --   -0.38541  -0.38536  -0.38421  -0.38353  -0.38209
 Alpha  occ. eigenvalues --   -0.38052  -0.37700  -0.37262  -0.37240  -0.37061
 Alpha  occ. eigenvalues --   -0.36943  -0.36811  -0.36749  -0.36629  -0.36524
 Alpha  occ. eigenvalues --   -0.36432  -0.36158  -0.35952  -0.35832  -0.35629
 Alpha  occ. eigenvalues --   -0.35617  -0.35545  -0.35412  -0.34901  -0.34807
 Alpha  occ. eigenvalues --   -0.34642  -0.34511  -0.34437  -0.34075  -0.33745
 Alpha  occ. eigenvalues --   -0.33542  -0.33485  -0.33151  -0.33118  -0.32708
 Alpha  occ. eigenvalues --   -0.32666  -0.32579  -0.32550  -0.32372  -0.32041
 Alpha  occ. eigenvalues --   -0.31519  -0.31235  -0.30845  -0.30657  -0.30445
 Alpha  occ. eigenvalues --   -0.30079  -0.29547  -0.29451  -0.29399  -0.29007
 Alpha  occ. eigenvalues --   -0.28481  -0.28342  -0.28266  -0.28232  -0.27730
 Alpha  occ. eigenvalues --   -0.26890  -0.26653  -0.26289  -0.26136  -0.25977
 Alpha  occ. eigenvalues --   -0.25937  -0.25902  -0.25828  -0.25366  -0.25240
 Alpha  occ. eigenvalues --   -0.25105  -0.24794  -0.24581  -0.24137  -0.23892
 Alpha  occ. eigenvalues --   -0.23833  -0.23720  -0.23394  -0.22694  -0.22687
 Alpha  occ. eigenvalues --   -0.22053  -0.21914  -0.21696  -0.21465  -0.20900
 Alpha  occ. eigenvalues --   -0.20708  -0.20629  -0.20282  -0.19135  -0.16534
 Alpha  occ. eigenvalues --   -0.16250  -0.15379  -0.13046
 Alpha virt. eigenvalues --   -0.08641  -0.02909  -0.02844  -0.02125  -0.01881
 Alpha virt. eigenvalues --   -0.01624  -0.01097  -0.00322   0.00141   0.00325
 Alpha virt. eigenvalues --    0.00458   0.01704   0.01747   0.01836   0.02038
 Alpha virt. eigenvalues --    0.02171   0.02544   0.03541   0.03681   0.03772
 Alpha virt. eigenvalues --    0.03963   0.04185   0.04552   0.04720   0.04953
 Alpha virt. eigenvalues --    0.04995   0.05458   0.05726   0.05875   0.06329
 Alpha virt. eigenvalues --    0.06423   0.06552   0.06846   0.07147   0.07463
 Alpha virt. eigenvalues --    0.07641   0.08032   0.08463   0.08876   0.09061
 Alpha virt. eigenvalues --    0.09104   0.09172   0.09413   0.09522   0.09706
 Alpha virt. eigenvalues --    0.09902   0.09978   0.10197   0.10336   0.10457
 Alpha virt. eigenvalues --    0.10503   0.10763   0.10903   0.10968   0.11177
 Alpha virt. eigenvalues --    0.11340   0.11489   0.11670   0.12035   0.12079
 Alpha virt. eigenvalues --    0.12123   0.12291   0.12497   0.12715   0.12850
 Alpha virt. eigenvalues --    0.12938   0.13300   0.13490   0.13584   0.13725
 Alpha virt. eigenvalues --    0.13805   0.14093   0.14285   0.14417   0.14611
 Alpha virt. eigenvalues --    0.14709   0.14854   0.15168   0.15304   0.15449
 Alpha virt. eigenvalues --    0.15592   0.15648   0.15772   0.15970   0.16008
 Alpha virt. eigenvalues --    0.16156   0.16274   0.16372   0.16528   0.16977
 Alpha virt. eigenvalues --    0.17075   0.17268   0.17530   0.17718   0.17886
 Alpha virt. eigenvalues --    0.18087   0.18154   0.18254   0.18442   0.18663
 Alpha virt. eigenvalues --    0.18883   0.19035   0.19226   0.19548   0.19598
 Alpha virt. eigenvalues --    0.19789   0.20012   0.20099   0.20318   0.20544
 Alpha virt. eigenvalues --    0.20673   0.20774   0.21078   0.21188   0.21229
 Alpha virt. eigenvalues --    0.21261   0.21889   0.22122   0.22255   0.22601
 Alpha virt. eigenvalues --    0.22953   0.23002   0.23195   0.23381   0.23547
 Alpha virt. eigenvalues --    0.23941   0.23993   0.24316   0.24592   0.24650
 Alpha virt. eigenvalues --    0.24946   0.25242   0.25260   0.25480   0.25826
 Alpha virt. eigenvalues --    0.26064   0.26114   0.26216   0.26355   0.26688
 Alpha virt. eigenvalues --    0.27213   0.27339   0.27622   0.27901   0.27973
 Alpha virt. eigenvalues --    0.28098   0.28481   0.28606   0.28948   0.29031
 Alpha virt. eigenvalues --    0.29128   0.29322   0.29629   0.29924   0.30008
 Alpha virt. eigenvalues --    0.30213   0.30471   0.30681   0.30853   0.31104
 Alpha virt. eigenvalues --    0.31252   0.31401   0.31522   0.31786   0.31928
 Alpha virt. eigenvalues --    0.32208   0.32520   0.32696   0.33312   0.33524
 Alpha virt. eigenvalues --    0.33661   0.34325   0.34607   0.35116   0.35186
 Alpha virt. eigenvalues --    0.35511   0.35973   0.36138   0.36348   0.36522
 Alpha virt. eigenvalues --    0.36815   0.36906   0.37218   0.37873   0.38140
 Alpha virt. eigenvalues --    0.38413   0.38689   0.38985   0.39157   0.39367
 Alpha virt. eigenvalues --    0.39787   0.39968   0.40661   0.40845   0.41088
 Alpha virt. eigenvalues --    0.41307   0.41364   0.41543   0.41922   0.42277
 Alpha virt. eigenvalues --    0.42496   0.42655   0.42954   0.43012   0.43327
 Alpha virt. eigenvalues --    0.43560   0.43645   0.43998   0.44076   0.44193
 Alpha virt. eigenvalues --    0.44533   0.44689   0.44820   0.45180   0.45512
 Alpha virt. eigenvalues --    0.45913   0.46103   0.46181   0.46201   0.46398
 Alpha virt. eigenvalues --    0.46483   0.46807   0.46881   0.47049   0.47189
 Alpha virt. eigenvalues --    0.47397   0.47675   0.47816   0.48043   0.48399
 Alpha virt. eigenvalues --    0.48469   0.48563   0.48957   0.49077   0.49178
 Alpha virt. eigenvalues --    0.49319   0.49790   0.49916   0.49967   0.50248
 Alpha virt. eigenvalues --    0.50365   0.50541   0.50563   0.50714   0.50829
 Alpha virt. eigenvalues --    0.50982   0.51229   0.51359   0.51665   0.51680
 Alpha virt. eigenvalues --    0.52039   0.52134   0.52403   0.52751   0.52792
 Alpha virt. eigenvalues --    0.52990   0.53219   0.53456   0.53733   0.53909
 Alpha virt. eigenvalues --    0.54003   0.54292   0.54508   0.54840   0.54934
 Alpha virt. eigenvalues --    0.54959   0.55116   0.55401   0.55551   0.55677
 Alpha virt. eigenvalues --    0.55809   0.55845   0.56481   0.56761   0.56902
 Alpha virt. eigenvalues --    0.57086   0.57423   0.57447   0.57640   0.58006
 Alpha virt. eigenvalues --    0.58209   0.58491   0.58765   0.58821   0.59095
 Alpha virt. eigenvalues --    0.59223   0.59286   0.59474   0.59583   0.59801
 Alpha virt. eigenvalues --    0.60056   0.60210   0.60243   0.60436   0.60536
 Alpha virt. eigenvalues --    0.60547   0.60838   0.61119   0.61183   0.61222
 Alpha virt. eigenvalues --    0.61408   0.61541   0.61960   0.62027   0.62118
 Alpha virt. eigenvalues --    0.62270   0.62358   0.62411   0.62580   0.62700
 Alpha virt. eigenvalues --    0.62844   0.62938   0.63086   0.63135   0.63283
 Alpha virt. eigenvalues --    0.63314   0.63661   0.63710   0.63762   0.63970
 Alpha virt. eigenvalues --    0.64069   0.64250   0.64561   0.64709   0.64719
 Alpha virt. eigenvalues --    0.64863   0.64974   0.65196   0.65261   0.65313
 Alpha virt. eigenvalues --    0.65363   0.65377   0.65421   0.65451   0.65526
 Alpha virt. eigenvalues --    0.65595   0.65716   0.65902   0.66055   0.66083
 Alpha virt. eigenvalues --    0.66204   0.66341   0.66439   0.66595   0.66651
 Alpha virt. eigenvalues --    0.66753   0.66847   0.67053   0.67105   0.67207
 Alpha virt. eigenvalues --    0.67409   0.67573   0.67799   0.67883   0.67950
 Alpha virt. eigenvalues --    0.67996   0.68048   0.68218   0.68258   0.68425
 Alpha virt. eigenvalues --    0.68515   0.68544   0.68752   0.68841   0.68968
 Alpha virt. eigenvalues --    0.69095   0.69162   0.69170   0.69324   0.69516
 Alpha virt. eigenvalues --    0.69898   0.69962   0.69988   0.70062   0.70110
 Alpha virt. eigenvalues --    0.70354   0.70502   0.70550   0.70569   0.70821
 Alpha virt. eigenvalues --    0.70884   0.71216   0.71253   0.71343   0.71468
 Alpha virt. eigenvalues --    0.71550   0.71711   0.71819   0.71847   0.71988
 Alpha virt. eigenvalues --    0.72083   0.72288   0.72341   0.72478   0.72603
 Alpha virt. eigenvalues --    0.72766   0.72909   0.72955   0.73135   0.73347
 Alpha virt. eigenvalues --    0.73532   0.73646   0.73925   0.74034   0.74095
 Alpha virt. eigenvalues --    0.74406   0.74649   0.74725   0.75037   0.75046
 Alpha virt. eigenvalues --    0.75222   0.75380   0.75523   0.75571   0.75997
 Alpha virt. eigenvalues --    0.76319   0.76430   0.76579   0.76757   0.76974
 Alpha virt. eigenvalues --    0.77059   0.77393   0.77613   0.77901   0.78121
 Alpha virt. eigenvalues --    0.78337   0.78503   0.78669   0.78879   0.79472
 Alpha virt. eigenvalues --    0.79829   0.80299   0.80773   0.80983   0.81037
 Alpha virt. eigenvalues --    0.81237   0.81491   0.81675   0.81906   0.82152
 Alpha virt. eigenvalues --    0.82259   0.82625   0.82728   0.82821   0.83219
 Alpha virt. eigenvalues --    0.83532   0.83706   0.84050   0.84280   0.84494
 Alpha virt. eigenvalues --    0.84815   0.85291   0.85657   0.85905   0.86469
 Alpha virt. eigenvalues --    0.86613   0.86734   0.87089   0.87352   0.87561
 Alpha virt. eigenvalues --    0.87818   0.88012   0.88207   0.88510   0.88824
 Alpha virt. eigenvalues --    0.89124   0.89561   0.89791   0.90022   0.90273
 Alpha virt. eigenvalues --    0.90361   0.90748   0.91100   0.91365   0.91597
 Alpha virt. eigenvalues --    0.91893   0.92139   0.92560   0.92825   0.92969
 Alpha virt. eigenvalues --    0.93345   0.93504   0.93640   0.94295   0.94592
 Alpha virt. eigenvalues --    0.94694   0.95153   0.95312   0.95937   0.96151
 Alpha virt. eigenvalues --    0.96723   0.96840   0.97377   0.97632   0.97773
 Alpha virt. eigenvalues --    0.98204   0.98537   0.98611   0.98950   0.99218
 Alpha virt. eigenvalues --    0.99238   0.99930   1.00109   1.00403   1.00544
 Alpha virt. eigenvalues --    1.00706   1.01379   1.01611   1.01696   1.01847
 Alpha virt. eigenvalues --    1.02255   1.02458   1.02623   1.03140   1.03406
 Alpha virt. eigenvalues --    1.03449   1.03807   1.03884   1.04039   1.04588
 Alpha virt. eigenvalues --    1.05366   1.05382   1.05841   1.06021   1.06157
 Alpha virt. eigenvalues --    1.06428   1.06527   1.06951   1.07111   1.07402
 Alpha virt. eigenvalues --    1.07731   1.07996   1.08124   1.08598   1.08666
 Alpha virt. eigenvalues --    1.09245   1.09410   1.09757   1.09946   1.10127
 Alpha virt. eigenvalues --    1.10526   1.11022   1.11094   1.11435   1.11442
 Alpha virt. eigenvalues --    1.11720   1.12110   1.12532   1.12802   1.13219
 Alpha virt. eigenvalues --    1.13391   1.13774   1.13972   1.14119   1.14560
 Alpha virt. eigenvalues --    1.15080   1.15084   1.15292   1.15573   1.15823
 Alpha virt. eigenvalues --    1.15996   1.16236   1.16529   1.16717   1.16912
 Alpha virt. eigenvalues --    1.17413   1.17510   1.18093   1.18318   1.18717
 Alpha virt. eigenvalues --    1.18942   1.19240   1.19387   1.19491   1.19777
 Alpha virt. eigenvalues --    1.19938   1.20097   1.20317   1.20570   1.20850
 Alpha virt. eigenvalues --    1.21100   1.21134   1.21395   1.21513   1.21627
 Alpha virt. eigenvalues --    1.21855   1.22040   1.22443   1.22694   1.23002
 Alpha virt. eigenvalues --    1.23580   1.23688   1.23802   1.24268   1.24523
 Alpha virt. eigenvalues --    1.24540   1.24735   1.24931   1.25146   1.25605
 Alpha virt. eigenvalues --    1.25679   1.26020   1.26179   1.26393   1.26685
 Alpha virt. eigenvalues --    1.26959   1.27031   1.27371   1.27480   1.27819
 Alpha virt. eigenvalues --    1.28450   1.28781   1.28859   1.29160   1.29434
 Alpha virt. eigenvalues --    1.29451   1.29687   1.30122   1.30344   1.30747
 Alpha virt. eigenvalues --    1.30953   1.31371   1.31613   1.32005   1.32229
 Alpha virt. eigenvalues --    1.32343   1.32366   1.32693   1.33449   1.33733
 Alpha virt. eigenvalues --    1.33776   1.34465   1.34617   1.34682   1.34766
 Alpha virt. eigenvalues --    1.35524   1.35699   1.36156   1.36198   1.36442
 Alpha virt. eigenvalues --    1.36954   1.37473   1.37580   1.37746   1.38013
 Alpha virt. eigenvalues --    1.38521   1.38836   1.38951   1.39363   1.39945
 Alpha virt. eigenvalues --    1.40171   1.40275   1.40617   1.40909   1.41158
 Alpha virt. eigenvalues --    1.41574   1.42208   1.42323   1.42378   1.43174
 Alpha virt. eigenvalues --    1.43275   1.43485   1.44116   1.44403   1.44568
 Alpha virt. eigenvalues --    1.45209   1.45567   1.45851   1.46038   1.46473
 Alpha virt. eigenvalues --    1.46728   1.46780   1.47027   1.47342   1.47725
 Alpha virt. eigenvalues --    1.48216   1.48363   1.48441   1.48569   1.49031
 Alpha virt. eigenvalues --    1.49128   1.49561   1.49754   1.50177   1.50407
 Alpha virt. eigenvalues --    1.50782   1.50947   1.51132   1.51429   1.51504
 Alpha virt. eigenvalues --    1.52040   1.52315   1.52404   1.52429   1.52804
 Alpha virt. eigenvalues --    1.53533   1.53579   1.54256   1.54730   1.54955
 Alpha virt. eigenvalues --    1.55359   1.55699   1.55787   1.55945   1.56154
 Alpha virt. eigenvalues --    1.56407   1.56624   1.56819   1.57367   1.57581
 Alpha virt. eigenvalues --    1.57788   1.58462   1.58640   1.58877   1.59361
 Alpha virt. eigenvalues --    1.59406   1.60069   1.60507   1.60588   1.62083
 Alpha virt. eigenvalues --    1.62426   1.62623   1.63050   1.63163   1.63270
 Alpha virt. eigenvalues --    1.63797   1.64121   1.64327   1.64450   1.65167
 Alpha virt. eigenvalues --    1.66287   1.66331   1.67006   1.67425   1.67639
 Alpha virt. eigenvalues --    1.67846   1.68119   1.68133   1.68465   1.68869
 Alpha virt. eigenvalues --    1.69086   1.69291   1.69404   1.69635   1.70229
 Alpha virt. eigenvalues --    1.70272   1.70576   1.70771   1.70897   1.71400
 Alpha virt. eigenvalues --    1.71750   1.71899   1.72126   1.72313   1.72957
 Alpha virt. eigenvalues --    1.73140   1.73400   1.73454   1.73806   1.73915
 Alpha virt. eigenvalues --    1.74085   1.74300   1.74381   1.74552   1.74755
 Alpha virt. eigenvalues --    1.75152   1.75252   1.75480   1.75778   1.75929
 Alpha virt. eigenvalues --    1.76181   1.76218   1.76491   1.76681   1.76811
 Alpha virt. eigenvalues --    1.76857   1.77240   1.77424   1.77717   1.77776
 Alpha virt. eigenvalues --    1.77943   1.78034   1.78188   1.78321   1.78395
 Alpha virt. eigenvalues --    1.78449   1.78483   1.78665   1.78987   1.79149
 Alpha virt. eigenvalues --    1.79324   1.79458   1.79632   1.79715   1.79805
 Alpha virt. eigenvalues --    1.79936   1.80150   1.80522   1.80670   1.80687
 Alpha virt. eigenvalues --    1.80922   1.81117   1.81279   1.81549   1.81618
 Alpha virt. eigenvalues --    1.81867   1.82025   1.82350   1.82431   1.82567
 Alpha virt. eigenvalues --    1.82775   1.82892   1.83258   1.83391   1.83479
 Alpha virt. eigenvalues --    1.83711   1.83835   1.83968   1.84214   1.84403
 Alpha virt. eigenvalues --    1.84637   1.84754   1.84948   1.85122   1.85192
 Alpha virt. eigenvalues --    1.85341   1.85573   1.85718   1.86014   1.86135
 Alpha virt. eigenvalues --    1.86192   1.86491   1.86618   1.86769   1.86792
 Alpha virt. eigenvalues --    1.87064   1.87093   1.87264   1.87329   1.87590
 Alpha virt. eigenvalues --    1.87826   1.87919   1.88066   1.88285   1.88411
 Alpha virt. eigenvalues --    1.88532   1.88634   1.88929   1.89134   1.89424
 Alpha virt. eigenvalues --    1.89762   1.89869   1.90005   1.90205   1.90483
 Alpha virt. eigenvalues --    1.90565   1.90958   1.91217   1.91302   1.91584
 Alpha virt. eigenvalues --    1.91616   1.91843   1.92397   1.92672   1.92726
 Alpha virt. eigenvalues --    1.92777   1.92918   1.93123   1.93882   1.94085
 Alpha virt. eigenvalues --    1.94187   1.94313   1.94532   1.94911   1.94941
 Alpha virt. eigenvalues --    1.95052   1.95129   1.95355   1.95605   1.95640
 Alpha virt. eigenvalues --    1.96273   1.96474   1.96756   1.96801   1.97217
 Alpha virt. eigenvalues --    1.97671   1.97922   1.98046   1.98413   1.98780
 Alpha virt. eigenvalues --    1.98822   1.98933   1.99317   1.99470   1.99626
 Alpha virt. eigenvalues --    1.99796   1.99913   2.00081   2.00236   2.00299
 Alpha virt. eigenvalues --    2.00366   2.00486   2.00644   2.00941   2.01284
 Alpha virt. eigenvalues --    2.01444   2.01747   2.02032   2.02091   2.02505
 Alpha virt. eigenvalues --    2.02742   2.02883   2.03189   2.03833   2.04054
 Alpha virt. eigenvalues --    2.04113   2.04221   2.04596   2.04939   2.05076
 Alpha virt. eigenvalues --    2.05635   2.06147   2.06378   2.06656   2.06721
 Alpha virt. eigenvalues --    2.07115   2.07337   2.07447   2.08057   2.08278
 Alpha virt. eigenvalues --    2.08415   2.08810   2.09451   2.09703   2.09750
 Alpha virt. eigenvalues --    2.09890   2.10237   2.10493   2.10680   2.10738
 Alpha virt. eigenvalues --    2.11174   2.11584   2.11954   2.12132   2.12385
 Alpha virt. eigenvalues --    2.12610   2.13046   2.13141   2.13657   2.13859
 Alpha virt. eigenvalues --    2.13925   2.14575   2.15126   2.15255   2.15333
 Alpha virt. eigenvalues --    2.15668   2.15790   2.16440   2.16699   2.16886
 Alpha virt. eigenvalues --    2.17278   2.17392   2.17831   2.18099   2.18354
 Alpha virt. eigenvalues --    2.18820   2.18866   2.19309   2.19527   2.19666
 Alpha virt. eigenvalues --    2.19834   2.19865   2.20723   2.20987   2.21265
 Alpha virt. eigenvalues --    2.21338   2.21476   2.21772   2.22032   2.22391
 Alpha virt. eigenvalues --    2.23114   2.23410   2.23556   2.23783   2.24143
 Alpha virt. eigenvalues --    2.24312   2.24476   2.24723   2.25019   2.25633
 Alpha virt. eigenvalues --    2.25678   2.26116   2.26443   2.26661   2.27209
 Alpha virt. eigenvalues --    2.27315   2.27834   2.27919   2.28182   2.28482
 Alpha virt. eigenvalues --    2.29013   2.29766   2.29959   2.30040   2.30494
 Alpha virt. eigenvalues --    2.30871   2.30958   2.31323   2.31777   2.32500
 Alpha virt. eigenvalues --    2.32681   2.32809   2.32978   2.33578   2.33761
 Alpha virt. eigenvalues --    2.33887   2.34117   2.34334   2.34931   2.35035
 Alpha virt. eigenvalues --    2.35417   2.35652   2.35898   2.36289   2.36381
 Alpha virt. eigenvalues --    2.36458   2.36573   2.36976   2.37165   2.38317
 Alpha virt. eigenvalues --    2.38733   2.39019   2.39148   2.39458   2.39589
 Alpha virt. eigenvalues --    2.39876   2.40070   2.40467   2.40618   2.41183
 Alpha virt. eigenvalues --    2.41409   2.41525   2.41894   2.42128   2.42363
 Alpha virt. eigenvalues --    2.43043   2.43969   2.43983   2.44367   2.44542
 Alpha virt. eigenvalues --    2.44636   2.45087   2.45537   2.45950   2.46436
 Alpha virt. eigenvalues --    2.46657   2.46967   2.47263   2.47886   2.48803
 Alpha virt. eigenvalues --    2.48897   2.49003   2.49262   2.49465   2.49858
 Alpha virt. eigenvalues --    2.49979   2.50061   2.51135   2.51389   2.52208
 Alpha virt. eigenvalues --    2.52634   2.52753   2.53075   2.53632   2.54007
 Alpha virt. eigenvalues --    2.54197   2.54810   2.54961   2.55158   2.55522
 Alpha virt. eigenvalues --    2.55989   2.56388   2.56625   2.56722   2.57003
 Alpha virt. eigenvalues --    2.57724   2.57998   2.58092   2.58436   2.58649
 Alpha virt. eigenvalues --    2.59395   2.59421   2.59885   2.60491   2.60649
 Alpha virt. eigenvalues --    2.60995   2.61537   2.61743   2.61806   2.62237
 Alpha virt. eigenvalues --    2.62625   2.62693   2.63141   2.63209   2.63839
 Alpha virt. eigenvalues --    2.63993   2.64387   2.64624   2.65331   2.65662
 Alpha virt. eigenvalues --    2.65967   2.66486   2.66639   2.67089   2.67211
 Alpha virt. eigenvalues --    2.67853   2.68081   2.68148   2.68536   2.68860
 Alpha virt. eigenvalues --    2.69036   2.69465   2.69494   2.69585   2.70023
 Alpha virt. eigenvalues --    2.70397   2.70780   2.71025   2.71037   2.71477
 Alpha virt. eigenvalues --    2.71677   2.71995   2.72243   2.72323   2.72468
 Alpha virt. eigenvalues --    2.72787   2.72883   2.73000   2.73636   2.73899
 Alpha virt. eigenvalues --    2.74187   2.74329   2.74605   2.74856   2.75369
 Alpha virt. eigenvalues --    2.75658   2.75863   2.76416   2.76898   2.77073
 Alpha virt. eigenvalues --    2.77094   2.77355   2.77364   2.77684   2.77706
 Alpha virt. eigenvalues --    2.77973   2.78164   2.78762   2.79077   2.79192
 Alpha virt. eigenvalues --    2.79635   2.79831   2.80001   2.80206   2.80364
 Alpha virt. eigenvalues --    2.80578   2.80628   2.81032   2.81089   2.81211
 Alpha virt. eigenvalues --    2.81720   2.82100   2.82284   2.82421   2.82549
 Alpha virt. eigenvalues --    2.82933   2.83138   2.83758   2.83883   2.84118
 Alpha virt. eigenvalues --    2.84271   2.84704   2.84883   2.85165   2.85647
 Alpha virt. eigenvalues --    2.86527   2.87009   2.87397   2.87745   2.87912
 Alpha virt. eigenvalues --    2.88302   2.88364   2.88462   2.88653   2.88893
 Alpha virt. eigenvalues --    2.89017   2.89316   2.89654   2.90402   2.90592
 Alpha virt. eigenvalues --    2.91280   2.91383   2.91720   2.91763   2.91783
 Alpha virt. eigenvalues --    2.92030   2.92127   2.92821   2.92900   2.93575
 Alpha virt. eigenvalues --    2.93774   2.94408   2.94721   2.95173   2.95286
 Alpha virt. eigenvalues --    2.95435   2.96106   2.96409   2.96454   2.96608
 Alpha virt. eigenvalues --    2.97247   2.97349   2.97483   2.97773   2.98063
 Alpha virt. eigenvalues --    2.98296   2.99192   2.99757   2.99981   3.00089
 Alpha virt. eigenvalues --    3.00287   3.00812   3.01416   3.01789   3.01922
 Alpha virt. eigenvalues --    3.02112   3.02229   3.02476   3.03265   3.03973
 Alpha virt. eigenvalues --    3.04142   3.04206   3.04375   3.04657   3.05207
 Alpha virt. eigenvalues --    3.05329   3.06349   3.06948   3.07018   3.07184
 Alpha virt. eigenvalues --    3.07481   3.07581   3.08787   3.09943   3.10990
 Alpha virt. eigenvalues --    3.11182   3.11221   3.11539   3.11585   3.12852
 Alpha virt. eigenvalues --    3.13719   3.14197   3.14334   3.14512   3.14956
 Alpha virt. eigenvalues --    3.15163   3.15351   3.15481   3.15758   3.15779
 Alpha virt. eigenvalues --    3.15806   3.16066   3.16208   3.16281   3.16870
 Alpha virt. eigenvalues --    3.17324   3.17391   3.18036   3.18558   3.18661
 Alpha virt. eigenvalues --    3.19039   3.19335   3.19780   3.20239   3.20415
 Alpha virt. eigenvalues --    3.20733   3.20756   3.21370   3.21461   3.21911
 Alpha virt. eigenvalues --    3.22135   3.22550   3.22676   3.23466   3.23500
 Alpha virt. eigenvalues --    3.24264   3.24349   3.24779   3.25070   3.25419
 Alpha virt. eigenvalues --    3.27626   3.28134   3.28832   3.30575   3.30795
 Alpha virt. eigenvalues --    3.31079   3.31634   3.32379   3.32828   3.33482
 Alpha virt. eigenvalues --    3.33556   3.34114   3.35159   3.35798   3.37520
 Alpha virt. eigenvalues --    3.38448   3.39833   3.47657   3.49381   3.50355
 Alpha virt. eigenvalues --    3.50560   3.51459   3.54668   3.55079   3.55701
 Alpha virt. eigenvalues --    3.56164   3.56643   3.57513   3.57725   3.58064
 Alpha virt. eigenvalues --    3.60038   3.61090   3.61474   3.62216   3.63436
 Alpha virt. eigenvalues --    3.64248   3.66470   3.67067   3.67149   3.67939
 Alpha virt. eigenvalues --    3.68362   3.68607   3.69464   3.69759   3.70140
 Alpha virt. eigenvalues --    3.70163   3.70624   3.71179   3.71577   3.72563
 Alpha virt. eigenvalues --    3.73163   3.73671   3.74177   3.74281   3.77002
 Alpha virt. eigenvalues --    3.78581   3.79776   3.80313   3.80625
          Condensed to atoms (all electrons):
 Mulliken charges:
               1
     1  C    0.050001
     2  C    0.030286
     3  O   -0.330407
     4  H    0.038252
     5  H    0.035781
     6  H    0.008815
     7  N   -0.098011
     8  C    0.122344
     9  C    0.061323
    10  O   -0.301044
    11  C    0.024627
    12  C    0.074100
    13  O   -0.402952
    14  O   -0.391344
    15  H    0.112400
    16  H   -0.017038
    17  H   -0.008223
    18  H    0.020447
    19  N   -0.134505
    20  C    0.142840
    21  C    0.061433
    22  O   -0.291776
    23  C    0.008738
    24  C    0.072644
    25  C   -0.051482
    26  C   -0.009890
    27  N    0.098942
    28  H    0.119221
    29  H    0.011269
    30  H    0.008398
    31  H   -0.003723
    32  H    0.010750
    33  H    0.011100
    34  H    0.007694
    35  H    0.001803
    36  H    0.099007
    37  H    0.093223
    38  H    0.187193
    39  H    0.173871
    40  H    0.195292
    41  N   -0.113408
    42  C    0.127390
    43  C    0.040032
    44  O   -0.260144
    45  C    0.137572
    46  C    0.090428
    47  O   -0.438903
    48  O   -0.415021
    49  H    0.136393
    50  H   -0.012096
    51  H    0.015560
    52  H    0.024549
    53  N   -0.108989
    54  C    0.180104
    55  C    0.096481
    56  O   -0.349353
    57  H    0.133373
    58  H    0.037213
    59  H    0.029559
    60  N   -0.134613
    61  C    0.085188
    62  C    0.120595
    63  O   -0.270626
    64  C    0.135902
    65  C    0.044642
    66  N   -0.037535
    67  O   -0.347223
    68  H    0.116981
    69  H    0.046667
    70  H    0.036997
    71  H   -0.009110
    72  H    0.140419
    73  H    0.144701
    74  N   -0.157905
    75  C    0.254305
    76  C   -0.019111
    77  O   -0.267414
    78  H    0.109697
    79  H    0.008435
    80  H    0.036307
    81  N   -0.110500
    82  C    0.115409
    83  C    0.094041
    84  O   -0.312606
    85  C    0.131237
    86  C   -0.089635
    87  C    0.000108
    88  C    0.034731
    89  C   -0.039553
    90  C   -0.049134
    91  C    0.202056
    92  O   -0.225432
    93  H    0.124301
    94  H    0.011743
    95  H    0.005920
    96  H    0.008621
    97  H   -0.021249
    98  H   -0.015256
    99  H   -0.022950
   100  H   -0.038826
   101  H    0.180216
   102  N   -0.086370
   103  C    0.204048
   104  C    0.044174
   105  O   -0.279568
   106  C   -0.158546
   107  C   -0.006610
   108  C    0.066659
   109  C    0.059874
   110  H    0.144953
   111  H   -0.006390
   112  H   -0.008058
   113  H    0.015393
   114  H   -0.000882
   115  H    0.001087
   116  H    0.001431
   117  H    0.018113
   118  H    0.010534
   119  H    0.025899
   120  H   -0.001519
   121  N   -0.125826
   122  C    0.134752
   123  C    0.057062
   124  O   -0.251336
   125  C    0.188702
   126  O   -0.290104
   127  H    0.127243
   128  H    0.013281
   129  H   -0.008180
   130  H    0.013226
   131  H    0.162375
   132  N   -0.170163
   133  C    0.071096
   134  C    0.063482
   135  O   -0.284497
   136  C    0.102694
   137  H    0.116422
   138  H    0.005314
   139  H   -0.035278
   140  H    0.034027
   141  H    0.016810
   142  N   -0.109636
   143  C    0.096397
   144  C    0.079690
   145  O   -0.267805
   146  C    0.062388
   147  H    0.151914
   148  H   -0.027790
   149  H    0.038757
   150  H    0.007791
   151  H    0.023245
   152  N   -0.144920
   153  C    0.087521
   154  C    0.078038
   155  O   -0.271835
   156  C    0.058562
   157  C    0.046498
   158  C    0.105432
   159  O   -0.472996
   160  O   -0.370642
   161  H    0.126563
   162  H   -0.024354
   163  H    0.004694
   164  H    0.010169
   165  H   -0.024158
   166  H   -0.022329
   167  N   -0.155158
   168  C    0.147458
   169  H    0.031392
   170  H    0.003482
   171  H    0.018015
   172  H    0.104729
   173  Ca   1.340645
   174  O   -0.296794
   175  H    0.184538
   176  H    0.182492
 Sum of Mulliken charges =  -0.00000
 Mulliken charges with hydrogens summed into heavy atoms:
               1
     1  C    0.132849
     2  C    0.030286
     3  O   -0.330407
     7  N    0.014389
     8  C    0.105306
     9  C    0.061323
    10  O   -0.301044
    11  C    0.036851
    12  C    0.074100
    13  O   -0.402952
    14  O   -0.391344
    19  N   -0.015285
    20  C    0.154109
    21  C    0.061433
    22  O   -0.291776
    23  C    0.013412
    24  C    0.094494
    25  C   -0.041986
    26  C    0.182339
    27  N    0.655299
    41  N    0.022985
    42  C    0.115294
    43  C    0.040032
    44  O   -0.260144
    45  C    0.177682
    46  C    0.090428
    47  O   -0.438903
    48  O   -0.415021
    53  N    0.024384
    54  C    0.246877
    55  C    0.096481
    56  O   -0.349353
    60  N   -0.017632
    61  C    0.131855
    62  C    0.120595
    63  O   -0.270626
    64  C    0.163790
    65  C    0.044642
    66  N    0.247585
    67  O   -0.347223
    74  N   -0.048207
    75  C    0.299047
    76  C   -0.019111
    77  O   -0.267414
    81  N    0.013801
    82  C    0.127152
    83  C    0.094041
    84  O   -0.312606
    85  C    0.145779
    86  C   -0.089635
    87  C   -0.021141
    88  C    0.019475
    89  C   -0.062503
    90  C   -0.087960
    91  C    0.202056
    92  O   -0.045216
   102  N    0.058583
   103  C    0.197658
   104  C    0.044174
   105  O   -0.279568
   106  C   -0.166604
   107  C    0.007901
   108  C    0.087290
   109  C    0.094787
   121  N    0.001417
   122  C    0.148033
   123  C    0.057062
   124  O   -0.251336
   125  C    0.193747
   126  O   -0.127730
   132  N   -0.053741
   133  C    0.076409
   134  C    0.063482
   135  O   -0.284497
   136  C    0.118253
   142  N    0.042279
   143  C    0.068607
   144  C    0.079690
   145  O   -0.267805
   146  C    0.132181
   152  N   -0.018357
   153  C    0.063168
   154  C    0.078038
   155  O   -0.271835
   156  C    0.073425
   157  C    0.000011
   158  C    0.105432
   159  O   -0.472996
   160  O   -0.370642
   167  N   -0.050429
   168  C    0.200347
   173  Ca   1.340645
   174  O    0.070235
 DipInt: DoE/N= T F RetVal/Mat= T F Init=T NMatP=  1 IDeriv=0 Min/MaxMlt=  0  4
 Entering OneElI...
 OneElI was handed  1333951383 working-precision words.
 Multipole integrals L=0 to 4 MinM= 0 MaxM= 0.
 Requested accuracy = 0.1000D-12
 ShPair: Thresh= 1.00D-13 NBox=     0 BxSize= 0.00D+00 RnKept= 3.20D+01
         NSMCal=               327645 NSMKep=              120636
 PrmmSu-InSpLW:  IPartL=    0 NPrtUS=    1 NPrtUL=    1 DoSpLW=F IThBeg=    0 IThEnd=    0 NThAct=    1.
 PrsmSu:  NPrtUS=   1 ThrOK=F IAlg=1 NPAlg=1 LenDen=           0 ISkipM=0 DoSpLW=F IThBeg=    0 IThEnd=    0.
 Prism:   IPart=     0 DynPar=F LinDyn=F Incr=         512.
 PRISM was handed  1325390337 working-precision words and120636 shell-pairs
 IPart=  0 NShTot=      120636 NBatch=         287 AvBLen=       420.3
 PrsmSu-ThDecC:  IPartSL=    0    0 NPrtUSL=    1    1 IThBeg=    0 IThEnd=    0 CPU=   -1 GPU=   -1 NThAct=    1.
 PrSmSu:  NxtVal=            513.
 Electronic moments (au):
       -716.00000000         11.70261743          1.78852494          1.32203274
    -104719.68230214     -41937.91978910     -10666.25311094       -125.29311655
         59.27010431        -27.79747115    -554771.54544356     -86559.23438149
     -16238.25931545     283607.70174813     -44893.12204913    -158176.25975843
     -45234.43699616      11220.13785997      17394.35199540     -38336.64586624
  -31815491.48787551   -7919720.73008596    -467512.48308050    -613872.66063492
   -1487224.41456682    1485109.25117162     573703.32005830    -251298.54279058
     -14313.86231479   -3736923.71666737   -1605189.51100411    -428842.12170691
     137501.01389420      34489.80179139     -85273.72891586
 Electronic spatial extent (au):  <R**2>=         157323.8552
 DipInt: DoE/N= F T RetVal/Mat= T F Init=T NMatP=  1 IDeriv=0 Min/MaxMlt=  0  4
 Nuclear    moments (au):
        716.00000000          0.00000000          0.00000000         -0.00000000
     104675.51402768      41512.99444839      10285.06728979         -0.00000000
          0.00000000          0.00000000     566372.70445400      86428.09729411
      16465.39403706    -284123.21525815      44374.01410645     160626.85440343
      45787.80743910     -11092.59480343     -17719.44158961      38167.23836696
   31777943.77872197    7785957.08892920     432960.78144760     565262.56848542
    1538729.40202125   -1498556.56244487    -573146.82966491     254908.58946981
      12610.95911965    3661700.46613145    1551943.50716414     397939.27120328
    -143577.88458861     -33758.77755460      85373.44475276
 Total      moments (au):
         -0.00000000         11.70261743          1.78852494          1.32203274
        -44.16827446       -424.92534070       -381.18582115       -125.29311655
         59.27010431        -27.79747115      11601.15901043       -131.13708738
        227.13472161       -515.51351002       -519.10794268       2450.59464501
        553.37044293        127.54305653       -325.08959422       -169.40749928
     -37547.70915354    -133763.64115675     -34551.70163290     -48610.09214950
      51504.98745443     -13447.31127325        556.49039339       3610.04667924
      -1702.90319514     -75223.25053592     -53246.00383997     -30902.85050363
      -6076.87069441        731.02423680         99.71583690
 Traceless Quadrup. (au):
        239.25820431       -141.49886193        -97.75934238       -125.29311655
         59.27010431        -27.79747115
 Charge=             -0.0000 electrons
 Dipole moment (field-independent basis, Debye):
    X=             29.7451    Y=              4.5460    Z=              3.3603  Tot=             30.2775
 Quadrupole moment (field-independent basis, Debye-Ang):
   XX=            -59.4078   YY=           -571.5391   ZZ=           -512.7080
   XY=           -168.5235   XZ=             79.7203   YZ=            -37.3886
 Traceless Quadrupole moment (field-independent basis, Debye-Ang):
   XX=            321.8105   YY=           -190.3208   ZZ=           -131.4897
   XY=           -168.5235   XZ=             79.7203   YZ=            -37.3886
 Octapole moment (field-independent basis, Debye-Ang**2):
  XXX=           8257.2580  YYY=            -93.3383  ZZZ=            161.6657  XYY=           -366.9227
  XXY=           -369.4810  XXZ=           1744.2389  XZZ=            393.8678  YZZ=             90.7802
  YYZ=           -231.3862  XYZ=           -120.5777
 Hexadecapole moment (field-independent basis, Debye-Ang**3):
 XXXX=         -14142.2677 YYYY=         -50381.8014 ZZZZ=         -13013.8276 XXXY=         -18308.8916
 XXXZ=          19399.2480 YYYX=          -5064.9022 YYYZ=            209.6010 ZZZX=           1359.7167
 ZZZY=           -641.3950 XXYY=         -28332.6832 XXZZ=         -20054.9983 YYZZ=         -11639.4953
 XXYZ=          -2288.8409 YYXZ=            275.3388 ZZXY=             37.5578
 N-N= 1.888973811549D+04 E-N=-5.026426062905D+04  KE= 5.290442361773D+03
 Leave Link  601 at Tue Sep 17 10:16:10 2019, MaxMem=  1342177280 cpu:              41.3 elap:               1.0
 FitSet:  NAtFit=   176 NAtPot=   176 NAtFrz=     0 MDM=   180 TotChg=   0.00000
 Merz-Kollman atomic radii used.
 Read replacement radii for each type of atom:
 Rad(20) =   1.700000000000D+00
 Atom Element Radius
    1     6    1.50
    2     6    1.50
    3     8    1.40
    4     1    1.20
    5     1    1.20
    6     1    1.20
    7     7    1.50
    8     6    1.50
    9     6    1.50
   10     8    1.40
   11     6    1.50
   12     6    1.50
   13     8    1.40
   14     8    1.40
   15     1    1.20
   16     1    1.20
   17     1    1.20
   18     1    1.20
   19     7    1.50
   20     6    1.50
   21     6    1.50
   22     8    1.40
   23     6    1.50
   24     6    1.50
   25     6    1.50
   26     6    1.50
   27     7    1.50
   28     1    1.20
   29     1    1.20
   30     1    1.20
   31     1    1.20
   32     1    1.20
   33     1    1.20
   34     1    1.20
   35     1    1.20
   36     1    1.20
   37     1    1.20
   38     1    1.20
   39     1    1.20
   40     1    1.20
   41     7    1.50
   42     6    1.50
   43     6    1.50
   44     8    1.40
   45     6    1.50
   46     6    1.50
   47     8    1.40
   48     8    1.40
   49     1    1.20
   50     1    1.20
   51     1    1.20
   52     1    1.20
   53     7    1.50
   54     6    1.50
   55     6    1.50
   56     8    1.40
   57     1    1.20
   58     1    1.20
   59     1    1.20
   60     7    1.50
   61     6    1.50
   62     6    1.50
   63     8    1.40
   64     6    1.50
   65     6    1.50
   66     7    1.50
   67     8    1.40
   68     1    1.20
   69     1    1.20
   70     1    1.20
   71     1    1.20
   72     1    1.20
   73     1    1.20
   74     7    1.50
   75     6    1.50
   76     6    1.50
   77     8    1.40
   78     1    1.20
   79     1    1.20
   80     1    1.20
   81     7    1.50
   82     6    1.50
   83     6    1.50
   84     8    1.40
   85     6    1.50
   86     6    1.50
   87     6    1.50
   88     6    1.50
   89     6    1.50
   90     6    1.50
   91     6    1.50
   92     8    1.40
   93     1    1.20
   94     1    1.20
   95     1    1.20
   96     1    1.20
   97     1    1.20
   98     1    1.20
   99     1    1.20
  100     1    1.20
  101     1    1.20
  102     7    1.50
  103     6    1.50
  104     6    1.50
  105     8    1.40
  106     6    1.50
  107     6    1.50
  108     6    1.50
  109     6    1.50
  110     1    1.20
  111     1    1.20
  112     1    1.20
  113     1    1.20
  114     1    1.20
  115     1    1.20
  116     1    1.20
  117     1    1.20
  118     1    1.20
  119     1    1.20
  120     1    1.20
  121     7    1.50
  122     6    1.50
  123     6    1.50
  124     8    1.40
  125     6    1.50
  126     8    1.40
  127     1    1.20
  128     1    1.20
  129     1    1.20
  130     1    1.20
  131     1    1.20
  132     7    1.50
  133     6    1.50
  134     6    1.50
  135     8    1.40
  136     6    1.50
  137     1    1.20
  138     1    1.20
  139     1    1.20
  140     1    1.20
  141     1    1.20
  142     7    1.50
  143     6    1.50
  144     6    1.50
  145     8    1.40
  146     6    1.50
  147     1    1.20
  148     1    1.20
  149     1    1.20
  150     1    1.20
  151     1    1.20
  152     7    1.50
  153     6    1.50
  154     6    1.50
  155     8    1.40
  156     6    1.50
  157     6    1.50
  158     6    1.50
  159     8    1.40
  160     8    1.40
[...]
 **** Fit      -0.015460
 **** Fit      -0.013300
 **** Fit      -0.011520
 **** Fit      -0.010174
 **** Fit      -0.009270
 **** Fit      -0.008792
 **** Fit      -0.008710
 **** Fit      -0.008991
 **** Fit      -0.009596
 **** Fit      -0.026812
 **** Fit      -0.024120
 **** Fit      -0.021019
 **** Fit      -0.017859
 **** Fit      -0.014976
 **** Fit      -0.012570
 **** Fit      -0.010719
 **** Fit      -0.009431
 **** Fit      -0.008674
 **** Fit      -0.008405
 **** Fit      -0.008577
 **** Fit      -0.009146
 **** Fit      -0.026021
 **** Fit      -0.022269
 **** Fit      -0.018417
 **** Fit      -0.014962
 **** Fit      -0.012164
 **** Fit      -0.010095
 **** Fit      -0.008731
 **** Fit      -0.008012
 **** Fit      -0.007871
 **** Fit      -0.008249
 **** Fit      -0.017236
 **** Fit      -0.013569
 **** Fit      -0.010669
 **** Fit      -0.008614
 **** Fit      -0.007364
 **** Fit      -0.006839
 **** Fit      -0.006966
 **** Fit      -0.004870
 **** Fit      -0.020867
 **** Fit      -0.015547
 **** Fit      -0.017109
 **** Fit      -0.019062
 **** Fit      -0.023422
 **** Fit      -0.013717
 **** Fit      -0.014521
 **** Fit      -0.015662
 **** Fit      -0.017220
 **** Fit      -0.019181
 **** Fit      -0.021374
 **** Fit      -0.026555
 **** Fit      -0.013589
 **** Fit      -0.014435
 **** Fit      -0.015588
 **** Fit      -0.017131
 **** Fit      -0.019102
 **** Fit      -0.021460
 **** Fit      -0.024049
 **** Fit      -0.030435
 **** Fit      -0.033163
 **** Fit      -0.012759
 **** Fit      -0.013418
 **** Fit      -0.014254
 **** Fit      -0.015376
 **** Fit      -0.016874
 **** Fit      -0.018816
 **** Fit      -0.021233
 **** Fit      -0.024091
 **** Fit      -0.027254
 **** Fit      -0.035276
 **** Fit      -0.039010
 **** Fit      -0.012753
 **** Fit      -0.013418
 **** Fit      -0.014249
 **** Fit      -0.015345
 **** Fit      -0.016794
 **** Fit      -0.018675
 **** Fit      -0.021053
 **** Fit      -0.023965
 **** Fit      -0.027401
 **** Fit      -0.031255
 **** Fit      -0.041347
 **** Fit      -0.012495
 **** Fit      -0.013165
 **** Fit      -0.013948
 **** Fit      -0.014954
 **** Fit      -0.016281
 **** Fit      -0.018027
 **** Fit      -0.020287
 **** Fit      -0.023153
 **** Fit      -0.026704
 **** Fit      -0.030979
 **** Fit      -0.035931
 **** Fit      -0.013063
 **** Fit      -0.013838
 **** Fit      -0.014784
 **** Fit      -0.016003
 **** Fit      -0.017598
 **** Fit      -0.019679
 **** Fit      -0.022363
 **** Fit      -0.025780
 **** Fit      -0.030066
 **** Fit      -0.035343
 **** Fit      -0.041675
 **** Fit      -0.012816
 **** Fit      -0.013642
 **** Fit      -0.014550
 **** Fit      -0.015656
 **** Fit      -0.017072
 **** Fit      -0.018916
 **** Fit      -0.021318
 **** Fit      -0.024435
 **** Fit      -0.028453
 **** Fit      -0.033600
 **** Fit      -0.040142
 **** Fit      -0.013878
 **** Fit      -0.014919
 **** Fit      -0.016134
 **** Fit      -0.017663
 **** Fit      -0.019654
 **** Fit      -0.022277
 **** Fit      -0.025744
 **** Fit      -0.030330
 **** Fit      -0.036414
 **** Fit      -0.015072
 **** Fit      -0.016399
 **** Fit      -0.017993
 **** Fit      -0.020043
 **** Fit      -0.022768
 **** Fit      -0.026441
 **** Fit      -0.031442
 **** Fit      -0.038328
 **** Fit      -0.016796
 **** Fit      -0.018461
 **** Fit      -0.020531
 **** Fit      -0.023266
 **** Fit      -0.026993
 **** Fit      -0.032168
 **** Fit      -0.022595
 **** Fit      -0.025974
 **** Fit      -0.030775
 **** Fit      -0.025371
 **** Fit      -0.018706
 **** Fit      -0.013165
 **** Fit      -0.029067
 **** Fit      -0.021277
 **** Fit      -0.015052
 **** Fit      -0.010435
 **** Fit      -0.007284
 **** Fit      -0.005437
 **** Fit      -0.004753
 **** Fit      -0.027042
 **** Fit      -0.019279
 **** Fit      -0.013442
 **** Fit      -0.009300
 **** Fit      -0.006598
 **** Fit      -0.005127
 **** Fit      -0.004734
 **** Fit      -0.023175
 **** Fit      -0.016045
 **** Fit      -0.010916
 **** Fit      -0.007457
 **** Fit      -0.005383
 **** Fit      -0.004484
 **** Fit      -0.004612
 **** Fit      -0.021527
 **** Fit      -0.014633
 **** Fit      -0.009700
 **** Fit      -0.006431
 **** Fit      -0.004546
 **** Fit      -0.003832
 **** Fit      -0.004131
 **** Fit      -0.017676
 **** Fit      -0.011880
 **** Fit      -0.007650
 **** Fit      -0.004863
 **** Fit      -0.003326
 **** Fit      -0.002858
 **** Fit      -0.003310
 **** Fit      -0.007626
 **** Fit      -0.004427
 **** Fit      -0.002412
 **** Fit      -0.001502
 **** Fit      -0.001553
 **** Fit      -0.002389
 **** Fit      -0.000399
 **** Fit       0.000566
 **** Fit       0.000742
 **** Fit       0.000240
 **** Fit      -0.036013
 **** Fit      -0.033422
 **** Fit      -0.031812
 **** Fit      -0.036998
 **** Fit      -0.032472
 **** Fit      -0.028924
 **** Fit      -0.028308
 **** Fit      -0.031826
 **** Fit      -0.038163
 **** Fit      -0.033884
 **** Fit      -0.029338
 **** Fit      -0.026079
 **** Fit      -0.025554
 **** Fit      -0.028551
 **** Fit      -0.045162
 **** Fit      -0.042343
 **** Fit      -0.037804
 **** Fit      -0.032270
 **** Fit      -0.027246
 **** Fit      -0.024028
 **** Fit      -0.023363
 **** Fit      -0.025719
 **** Fit      -0.052524
 **** Fit      -0.039709
 **** Fit      -0.032623
 **** Fit      -0.026777
 **** Fit      -0.023056
 **** Fit      -0.021716
 **** Fit      -0.022936
 **** Fit      -0.032992
 **** Fit      -0.026649
 **** Fit      -0.022750
 **** Fit      -0.023555
 **** Fit      -0.038193
 **** Fit      -0.028721
 **** Fit      -0.022481
 **** Fit      -0.027375
 **** Fit      -0.015884
 **** Fit      -0.010956
 **** Fit      -0.024622
 **** Fit      -0.017044
 **** Fit      -0.010700
 **** Fit      -0.007817
 **** Fit      -0.007782
 **** Fit      -0.010005
 **** Fit      -0.009098
 **** Fit      -0.008497
 **** Fit      -0.006723
 **** Fit      -0.016265
 **** Fit      -0.024821
 **** Fit      -0.019525
 **** Fit      -0.011917
 **** Fit      -0.007891
 **** Fit      -0.007008
 **** Fit      -0.008056
 **** Fit      -0.005926
 **** Fit      -0.005291
 **** Fit      -0.004939
 **** Fit      -0.006229
 **** Fit      -0.009634
 **** Fit      -0.015633
 **** Fit      -0.022525
 **** Fit      -0.020308
 **** Fit      -0.013023
 **** Fit      -0.008005
 **** Fit      -0.006225
 **** Fit      -0.005781
 **** Fit      -0.005742
 **** Fit      -0.008876
 **** Fit      -0.013926
 **** Fit      -0.013234
 **** Fit      -0.008173
 **** Fit      -0.008435
 **** Fit      -0.021523
 **** Fit      -0.020072
 **** Fit      -0.021547
 **** Fit      -0.021153
 **** Fit      -0.022840
 **** Fit      -0.021977
 **** Fit      -0.019573
 **** Fit      -0.018060
 **** Fit      -0.021354
 **** Fit      -0.022899
 **** Fit      -0.024678
 **** Fit      -0.025392
 **** Fit      -0.022281
 **** Fit      -0.018494
 **** Fit      -0.016117
 **** Fit      -0.015953
 **** Fit      -0.015245
 **** Fit      -0.019659
 **** Fit      -0.029854
 **** Fit      -0.026848
 **** Fit      -0.021948
 **** Fit      -0.017267
 **** Fit      -0.013753
 **** Fit      -0.011676
 **** Fit      -0.011139
 **** Fit      -0.012301
 **** Fit      -0.011556
 **** Fit      -0.016493
 **** Fit      -0.032903
 **** Fit      -0.026840
 **** Fit      -0.020611
 **** Fit      -0.015297
 **** Fit      -0.011239
 **** Fit      -0.008392
 **** Fit      -0.006619
 **** Fit      -0.005884
 **** Fit      -0.006321
 **** Fit      -0.008157
 **** Fit      -0.012351
 **** Fit      -0.028114
 **** Fit      -0.020326
 **** Fit      -0.009113
 **** Fit      -0.005600
 **** Fit      -0.003129
 **** Fit      -0.001454
 **** Fit      -0.000480
 **** Fit      -0.000303
 **** Fit       0.001947
 **** Fit       0.003553
 **** Fit       0.004716
 **** Fit       0.008446
 **** Fit       0.009591
 **** Fit       0.013832
 **** Fit       0.013628
 **** Fit      -0.024200
 **** Fit      -0.021003
 **** Fit       0.008593
 **** Fit       0.009131
 **** Fit       0.008691
 **** Fit      -0.003503
 **** Fit      -0.009183
 **** Fit      -0.013919
 **** Fit      -0.014722
 **** Fit      -0.017046
 **** Fit      -0.014580
 **** Fit      -0.009086
 **** Fit       0.000995
 **** Fit       0.003538
 **** Fit       0.004385
 **** Fit       0.003605
 **** Fit       0.001005
 **** Fit      -0.004924
 **** Fit      -0.009020
 **** Fit      -0.010598
 **** Fit      -0.008779
 **** Fit      -0.010538
 **** Fit      -0.012362
 **** Fit      -0.009906
 **** Fit      -0.005283
 **** Fit      -0.001605
 **** Fit      -0.000242
 **** Fit      -0.001443
 **** Fit      -0.006156
 **** Fit      -0.008601
 **** Fit      -0.009025
 **** Fit      -0.009408
 **** Fit      -0.006573
 **** Fit      -0.004367
 **** Fit      -0.007516
 **** Fit      -0.022817
 **** Fit      -0.015629
 **** Fit      -0.009882
 **** Fit      -0.005729
 **** Fit      -0.033082
 **** Fit      -0.023601
 **** Fit      -0.015746
 **** Fit      -0.009465
 **** Fit      -0.004585
 **** Fit      -0.000910
 **** Fit       0.001743
 **** Fit      -0.027374
 **** Fit      -0.018194
 **** Fit      -0.011014
 **** Fit      -0.005339
 **** Fit      -0.000857
 **** Fit       0.002677
 **** Fit       0.005482
 **** Fit       0.007763
 **** Fit      -0.020432
 **** Fit      -0.012640
 **** Fit      -0.006504
 **** Fit      -0.001580
 **** Fit       0.002411
 **** Fit       0.005685
 **** Fit       0.008441
 **** Fit       0.010887
 **** Fit      -0.020188
 **** Fit      -0.012142
 **** Fit      -0.005866
 **** Fit      -0.000821
 **** Fit       0.003301
 **** Fit       0.006720
 **** Fit       0.009632
 **** Fit       0.012237
 **** Fit       0.014776
 **** Fit      -0.019478
 **** Fit      -0.011596
 **** Fit      -0.005409
 **** Fit      -0.000400
 **** Fit       0.003728
 **** Fit       0.007182
 **** Fit       0.010134
 **** Fit       0.012760
 **** Fit       0.015260
 **** Fit       0.017894
 **** Fit      -0.013754
 **** Fit      -0.007170
 **** Fit      -0.001831
 **** Fit       0.002576
 **** Fit       0.006260
 **** Fit       0.009388
 **** Fit       0.012114
 **** Fit       0.014602
 **** Fit       0.017049
 **** Fit       0.019720
 **** Fit      -0.014583
 **** Fit      -0.007762
 **** Fit      -0.002191
 **** Fit       0.002405
 **** Fit       0.006234
 **** Fit       0.009467
 **** Fit       0.012258
 **** Fit       0.014772
 **** Fit       0.017200
 **** Fit       0.019794
 **** Fit      -0.011433
 **** Fit      -0.005068
 **** Fit       0.000168
 **** Fit       0.004487
 **** Fit       0.008080
 **** Fit       0.011115
 **** Fit       0.013757
 **** Fit       0.016190
 **** Fit       0.018635
 **** Fit       0.021386
 **** Fit      -0.015979
 **** Fit      -0.008858
 **** Fit      -0.002947
 **** Fit       0.001921
 **** Fit       0.005930
 **** Fit       0.009254
 **** Fit       0.012058
 **** Fit       0.014510
 **** Fit       0.016795
 **** Fit       0.019125
 **** Fit      -0.011811
 **** Fit      -0.005202
 **** Fit       0.000232
 **** Fit       0.004647
 **** Fit       0.008226
 **** Fit       0.011150
 **** Fit       0.013601
 **** Fit       0.015756
 **** Fit       0.017773
 **** Fit      -0.021999
 **** Fit      -0.014693
 **** Fit      -0.007813
 **** Fit      -0.001943
 **** Fit       0.002842
 **** Fit       0.006648
 **** Fit       0.009634
 **** Fit       0.011957
 **** Fit       0.013733
 **** Fit      -0.018113
 **** Fit      -0.012617
 **** Fit      -0.006413
 **** Fit      -0.000864
 **** Fit       0.003595
 **** Fit       0.006930
 **** Fit       0.009213
 **** Fit       0.010440
 **** Fit      -0.011927
 **** Fit      -0.007118
 **** Fit      -0.001562
 **** Fit       0.002880
 **** Fit       0.005546
 **** Fit      -0.002262
 **** Fit      -0.003965
 **** Fit      -0.008650
 **** Fit       0.000938
 **** Fit      -0.000744
 **** Fit      -0.001019
 **** Fit      -0.005460
 **** Fit      -0.010954
 **** Fit       0.005666
 **** Fit       0.005538
 **** Fit       0.004452
 **** Fit       0.002290
 **** Fit       0.001386
 **** Fit      -0.002946
 **** Fit       0.009700
 **** Fit       0.009511
 **** Fit       0.008732
 **** Fit       0.007199
 **** Fit       0.004775
 **** Fit       0.003143
 **** Fit      -0.001111
 **** Fit      -0.006053
 **** Fit       0.013282
 **** Fit       0.012859
 **** Fit       0.012155
 **** Fit       0.010977
 **** Fit       0.009159
 **** Fit       0.006572
 **** Fit       0.004209
 **** Fit      -0.000338
 **** Fit      -0.005717
 **** Fit       0.016704
 **** Fit       0.015879
 **** Fit       0.015106
 **** Fit       0.014118
 **** Fit       0.012698
 **** Fit       0.010664
 **** Fit       0.007867
 **** Fit       0.004618
 **** Fit      -0.000263
 **** Fit      -0.006274
 **** Fit       0.018565
 **** Fit       0.017504
 **** Fit       0.016506
 **** Fit       0.015305
 **** Fit       0.013688
 **** Fit       0.011470
 **** Fit       0.008492
 **** Fit       0.004482
 **** Fit      -0.000844
 **** Fit      -0.007706
 **** Fit       0.021315
 **** Fit       0.019679
 **** Fit       0.018457
 **** Fit       0.017299
 **** Fit       0.015941
 **** Fit       0.014168
 **** Fit       0.011788
 **** Fit       0.008620
 **** Fit       0.003964
 **** Fit      -0.001996
 **** Fit      -0.010020
 **** Fit       0.020508
 **** Fit       0.019076
 **** Fit       0.017770
 **** Fit       0.016292
 **** Fit       0.014397
 **** Fit       0.011863
 **** Fit       0.008469
 **** Fit       0.003240
 **** Fit      -0.003297
 **** Fit       0.020915
 **** Fit       0.019271
 **** Fit       0.017838
 **** Fit       0.016274
 **** Fit       0.014298
 **** Fit       0.011652
 **** Fit       0.008071
 **** Fit       0.002451
 **** Fit      -0.004274
 **** Fit       0.020440
 **** Fit       0.018764
 **** Fit       0.017298
 **** Fit       0.015710
 **** Fit       0.013713
 **** Fit       0.011035
 **** Fit       0.007393
 **** Fit       0.001685
 **** Fit      -0.005296
 **** Fit       0.017995
 **** Fit       0.016571
 **** Fit       0.015044
 **** Fit       0.013110
 **** Fit       0.010462
 **** Fit       0.006777
 **** Fit       0.000977
 **** Fit      -0.005797
 **** Fit       0.014884
 **** Fit       0.013692
 **** Fit       0.011998
 **** Fit       0.009529
 **** Fit       0.005969
 **** Fit       0.000315
 **** Fit      -0.006109
 **** Fit      -0.013566
 **** Fit       0.011365
 **** Fit       0.010403
 **** Fit       0.008401
 **** Fit       0.005126
 **** Fit      -0.000344
 **** Fit      -0.006377
 **** Fit       0.006743
 **** Fit       0.004236
 **** Fit      -0.001062
 -----------------------------------------------------------------
 Leave Link  602 at Tue Sep 17 10:16:13 2019, MaxMem=  1342177280 cpu:             123.9 elap:               2.6

 Test job not archived.
 1\1\GINC-C489-071\SP\RB3LYP\SVP\C54H83Ca1N15O23\PENGZHI\17-Sep-2019\0\
 \#b3lyp/svp scf=(tight,noincore) Test #IOP(5/87=12) Density=Current Po
 p=(MK,readradii) iop(6/33=2) iop(6/42=6)\\Ng-293_loop3_32.0\\0,1\C,0,3
 7.43,97.237,84.397\C,0,36.55,97.347,83.157\O,0,36.47,96.477,82.297\H,0
 ,38.319,97.854,84.267\H,0,36.874,97.58,85.269\H,0,37.728,96.198,84.541
 \N,0,35.76,98.417,83.057\C,0,34.84,98.697,81.967\C,0,33.97,97.547,81.4
 87\O,0,33.41,96.747,82.237\C,0,33.89,99.787,82.447\C,0,33.29,100.627,8
 1.327\O,0,33.41,100.337,80.117\O,0,32.72,101.667,81.737\H,0,35.77,99.0
 57,83.837\H,0,35.43,98.997,81.107\H,0,34.44,100.487,83.067\H,0,33.06,9
 9.377,83.027\N,0,33.68,97.607,80.187\C,0,32.8,96.717,79.447\C,0,31.41,
 96.437,79.987\O,0,30.85,95.357,79.817\C,0,33.54,95.417,79.117\C,0,34.8
 4,95.557,78.327\C,0,35.81,94.407,78.577\C,0,36.33,94.437,80.007\N,0,37
 .13,93.237,80.267\H,0,33.87,98.507,79.767\H,0,32.57,97.287,78.557\H,0,
 32.96,94.637,78.627\H,0,33.81,95.037,80.097\H,0,35.3,96.497,78.637\H,0
 ,34.59,95.547,77.267\H,0,36.68,94.407,77.907\H,0,35.26,93.487,78.387\H
 ,0,35.45,94.497,80.657\H,0,36.84,95.387,80.167\H,0,36.53,92.427,80.167
 \H,0,37.81,93.157,79.527\H,0,37.62,93.247,81.147\N,0,30.79,97.417,80.6
 57\C,0,29.49,97.377,81.307\C,0,28.87,98.757,81.477\O,0,29.57,99.747,81
 .707\C,0,29.61,96.647,82.637\C,0,28.41,96.887,83.547\O,0,28.52,97.497,
 84.627\O,0,27.28,96.467,83.207\H,0,31.21,98.327,80.577\H,0,28.81,96.78
 7,80.707\H,0,30.53,97.027,83.087\H,0,29.78,95.587,82.457\N,0,27.56,98.
 857,81.247\C,0,26.79,100.087,81.297\C,0,26.33,100.437,82.707\O,0,26.01
 ,99.567,83.517\H,0,27.04,98.037,80.967\H,0,25.85,100.047,80.747\H,0,27
 .41,100.847,80.827\N,0,26.52,101.687,83.127\C,0,26.27,102.287,84.427\C
 ,0,25.7,103.687,84.317\O,0,24.99,104.147,85.207\C,0,27.61,102.217,85.1
 57\C,0,28.06,100.797,85.437\N,0,29.1,100.237,84.807\O,0,27.36,100.087,
 86.157\H,0,26.85,102.287,82.387\H,0,25.6,101.717,85.067\H,0,27.54,102.
 847,86.047\H,0,28.34,102.687,84.487\H,0,29.78,100.837,84.367\H,0,29.01
 ,99.247,84.617\N,0,26.,104.387,83.207\C,0,25.82,105.817,83.117\C,0,26.
 43,106.557,84.307\O,0,27.45,106.147,84.847\H,0,26.43,103.937,82.407\H,
 0,24.76,106.067,83.197\H,0,26.32,106.057,82.177\N,0,25.75,107.597,84.7
 77\C,0,25.98,108.277,86.037\C,0,26.2,107.397,87.267\O,0,26.56,108.027,
 88.267\C,0,27.07,109.327,85.847\C,0,26.77,110.467,84.907\C,0,27.15,110
 .347,83.567\C,0,26.37,111.697,85.437\C,0,26.73,111.377,82.707\C,0,25.9
 ,112.687,84.577\C,0,26.05,112.507,83.187\O,0,25.73,113.557,82.377\H,0,
 24.85,107.757,84.347\H,0,25.09,108.867,86.247\H,0,27.95,108.767,85.507
 \H,0,27.34,109.797,86.787\H,0,27.72,109.507,83.207\H,0,26.18,111.687,8
 6.507\H,0,27.,111.337,81.657\H,0,25.42,113.597,84.927\H,0,25.42,114.40
 7,82.687\N,0,25.93,106.097,87.247\C,0,25.7,105.267,88.407\C,0,24.43,10
 5.527,89.207\O,0,23.64,104.617,89.417\C,0,26.9,105.207,89.347\C,0,28.2
 ,104.887,88.607\C,0,26.63,104.207,90.467\C,0,29.36,104.897,89.587\H,0,
 25.56,105.697,86.387\H,0,25.6,104.257,88.017\H,0,26.97,106.197,89.807\
 H,0,28.37,105.617,87.807\H,0,28.02,103.927,88.127\H,0,27.38,104.277,91
 .257\H,0,25.68,104.317,90.997\H,0,26.83,103.267,89.957\H,0,29.59,105.9
 27,89.847\H,0,29.24,104.157,90.387\H,0,30.17,104.607,88.917\N,0,24.07,
 106.757,89.587\C,0,22.91,107.197,90.347\C,0,22.48,106.307,91.497\O,0,2
 1.29,106.037,91.617\C,0,23.14,108.597,90.907\O,0,23.43,109.567,89.927\
 H,0,24.66,107.517,89.297\H,0,22.12,107.277,89.597\H,0,23.92,108.557,91
 .657\H,0,22.18,108.897,91.327\H,0,23.66,110.317,90.467\N,0,23.46,105.6
 67,92.157\C,0,23.17,104.707,93.197\C,0,22.4,103.497,92.697\O,0,21.65,1
 02.997,93.527\C,0,22.59,105.427,94.407\H,0,24.42,105.877,91.927\H,0,24
 .18,104.357,93.407\H,0,23.21,106.267,94.737\H,0,21.65,105.917,94.167\H
 ,0,22.65,104.777,95.287\N,0,22.56,103.087,91.437\C,0,22.1,101.797,90.9
 77\C,0,22.97,100.637,91.427\O,0,24.18,100.767,91.617\C,0,21.93,101.907
 ,89.457\H,0,22.98,103.767,90.827\H,0,21.13,101.517,91.397\H,0,22.91,10
 2.247,89.127\H,0,21.63,100.897,89.167\H,0,21.12,102.557,89.137\N,0,22.
 34,99.467,91.547\C,0,23.14,98.257,91.557\C,0,24.14,98.077,92.687\O,0,2
 5.21,97.517,92.477\C,0,23.7,97.857,90.197\C,0,22.66,97.677,89.097\C,0,
 23.31,97.637,87.717\O,0,24.54,97.427,87.687\O,0,22.68,97.947,86.687\H,
 0,21.34,99.387,91.667\H,0,22.43,97.467,91.797\H,0,24.33,96.967,90.277\
 H,0,24.36,98.647,89.847\H,0,21.94,98.487,89.167\H,0,22.17,96.737,89.35
 7\N,0,23.81,98.487,93.917\C,0,24.76,98.547,95.017\H,0,25.629,99.132,94
 .715\H,0,24.288,99.017,95.88\H,0,25.076,97.538,95.28\H,0,22.9,98.897,9
 4.077\Ca,0,26.05,97.7,85.53\O,0,26.04,95.05,85.92\H,0,25.45,94.57,86.5
 \H,0,26.48,94.37,85.41\\Version=ES64L-G16RevA.03\State=1-A\HF=-5333.46
 77148\RMSD=8.840e-09\Dipole=8.508352,-5.0702998,-6.6179945\Quadrupole=
 19.4539657,82.6915788,-102.1455445,-203.8534764,-43.2136284,105.579220
 1\PG=C01 [X(C54H83Ca1N15O23)]\\@


 Time has a wonderful way of weeding out the trivial.
                                -- Richard Ben Sapir
 Job cpu time:       0 days  6 hours 29 minutes 13.6 seconds.
 Elapsed time:       0 days  0 hours  8 minutes 13.1 seconds.
 File lengths (MBytes):  RWF=   1517 Int=      0 D2E=      0 Chk=    171 Scr=      1
 Normal termination of Gaussian 16 at Tue Sep 17 10:16:15 2019.
