 Entering Gaussian System, Link 0=g16
 Initial command:
 /home1/apps/gaussian/16rA.03/g16/l1.exe "/scratch/01990/pengzhi/4345067/Gau-278659.inp" -scrdir="/scratch/01990/pengzhi/4345067/"
 Entering Link 1 = /home1/apps/gaussian/16rA.03/g16/l1.exe PID=    278660.
  
 Copyright (c) 1988,1990,1992,1993,1995,1998,2003,2009,2016,
            Gaussian, Inc.  All Rights Reserved.
  
 This is part of the Gaussian(R) 16 program.  It is based on
 the Gaussian(R) 09 system (copyright 2009, Gaussian, Inc.),
 the Gaussian(R) 03 system (copyright 2003, Gaussian, Inc.),
 the Gaussian(R) 98 system (copyright 1998, Gaussian, Inc.),
 the Gaussian(R) 94 system (copyright 1995, Gaussian, Inc.),
 the Gaussian 92(TM) system (copyright 1992, Gaussian, Inc.),
 the Gaussian 90(TM) system (copyright 1990, Gaussian, Inc.),
 the Gaussian 88(TM) system (copyright 1988, Gaussian, Inc.),
 the Gaussian 86(TM) system (copyright 1986, Carnegie Mellon
 University), and the Gaussian 82(TM) system (copyright 1983,
 Carnegie Mellon University). Gaussian is a federally registered
 trademark of Gaussian, Inc.
  
 This software contains proprietary and confidential information,
 including trade secrets, belonging to Gaussian, Inc.
  
 This software is provided under written license and may be
 used, copied, transmitted, or stored only in accord with that
 written license.
  
 The following legend is applicable only to US Government
 contracts under FAR:
  
                    RESTRICTED RIGHTS LEGEND
  
 Use, reproduction and disclosure by the US Government is
 subject to restrictions as set forth in subparagraphs (a)
 and (c) of the Commercial Computer Software - Restricted
 Rights clause in FAR 52.227-19.
  
 Gaussian, Inc.
 340 Quinnipiac St., Bldg. 40, Wallingford CT 06492
  
  
 ---------------------------------------------------------------
 Warning -- This program may not be used in any manner that
 competes with the business of Gaussian, Inc. or will provide
 assistance to any competitor of Gaussian, Inc.  The licensee
 of this program is prohibited from giving any competitor of
 Gaussian, Inc. access to this program.  By using this program,
 the user acknowledges that Gaussian, Inc. is engaged in the
 business of creating and licensing software in the field of
 computational chemistry and represents and warrants to the
 licensee that it is not a competitor of Gaussian, Inc. and that
 it will not use this program in any manner prohibited above.
 ---------------------------------------------------------------
  

 Cite this work as:
 Gaussian 16, Revision A.03,
 M. J. Frisch, G. W. Trucks, H. B. Schlegel, G. E. Scuseria, 
 M. A. Robb, J. R. Cheeseman, G. Scalmani, V. Barone, 
 G. A. Petersson, H. Nakatsuji, X. Li, M. Caricato, A. V. Marenich, 
 J. Bloino, B. G. Janesko, R. Gomperts, B. Mennucci, H. P. Hratchian, 
 J. V. Ortiz, A. F. Izmaylov, J. L. Sonnenberg, D. Williams-Young, 
 F. Ding, F. Lipparini, F. Egidi, J. Goings, B. Peng, A. Petrone, 
 T. Henderson, D. Ranasinghe, V. G. Zakrzewski, J. Gao, N. Rega, 
 G. Zheng, W. Liang, M. Hada, M. Ehara, K. Toyota, R. Fukuda, 
 J. Hasegawa, M. Ishida, T. Nakajima, Y. Honda, O. Kitao, H. Nakai, 
 T. Vreven, K. Throssell, J. A. Montgomery, Jr., J. E. Peralta, 
 F. Ogliaro, M. J. Bearpark, J. J. Heyd, E. N. Brothers, K. N. Kudin, 
 V. N. Staroverov, T. A. Keith, R. Kobayashi, J. Normand, 
 K. Raghavachari, A. P. Rendell, J. C. Burant, S. S. Iyengar, 
 J. Tomasi, M. Cossi, J. M. Millam, M. Klene, C. Adamo, R. Cammi, 
 J. W. Ochterski, R. L. Martin, K. Morokuma, O. Farkas, 
 J. B. Foresman, and D. J. Fox, Gaussian, Inc., Wallingford CT, 2016.
 
 ******************************************
 Gaussian 16:  ES64L-G16RevA.03 25-Dec-2016
                17-Sep-2019 
 ******************************************
 %chk=Ng-293_loop3_49.0.chk
 %nprocshared=48
 Will use up to   48 processors via shared memory.
 %mem=10GB
 %nosave
 ----------------------------------------------------------------------
 #b3lyp/svp scf=(tight,noincore) Test #IOP(5/87=12) Density=Current Pop
 =(MK,readradii) iop(6/33=2) iop(6/42=6)
 ----------------------------------------------------------------------
 1/30=1,38=1,172=1/1;
 2/12=2,17=6,18=5,40=1/2;
 3/5=18,7=101,11=2,25=1,30=1,74=-5/1,2,3;
 4//1;
 5/5=4,32=2,38=5,87=12/2;
 6/7=2,8=2,9=2,10=2,15=8,20=101,22=-1,28=1,33=2,42=6/1,2;
 99/5=1,9=1/99;
 -----------------
 Ng-293_loop3_49.0
 -----------------
 Symbolic Z-matrix:
 Charge =  0 Multiplicity = 1
 C                     39.64     81.66     66.73 
 C                     39.58     81.64     65.21 
 O                     40.01     82.6      64.57 
 H                     39.802    82.682    67.073 
 H                     38.7      81.286    67.136 
 H                     40.461    81.029    67.07 
 N                     38.87     80.65     64.66 
 C                     38.64     80.63     63.23 
 C                     38.47     79.19     62.76 
 O                     38.1      78.36     63.59 
 C                     37.36     81.44     63.05 
 C                     36.95     81.69     61.6 
 O                     37.85     81.61     60.74 
 O                     35.77     81.98     61.3 
 H                     38.53     79.92     65.28 
 H                     39.49     81.04     62.69 
 H                     37.54     82.4      63.53 
 H                     36.47     80.95     63.44 
 N                     38.7      78.87     61.48 
 C                     38.68     77.57     60.83 
 C                     37.28     76.98     60.78 
 O                     36.34     77.58     61.28 
 C                     39.86     76.7      61.25 
 C                     41.29     77.23     61.21 
 C                     41.84     77.48     59.8 
 C                     43.31     77.87     59.72 
 N                     43.75     78.77     60.8 
 H                     38.75     79.67     60.87 
 H                     39.05     77.78     59.83 
 H                     39.93     75.82     60.62 
 H                     39.62     76.47     62.29 
 H                     41.98     76.53     61.67 
 H                     41.3      78.11     61.85 
 H                     41.24     78.28     59.37 
 H                     41.68     76.57     59.22 
 H                     43.49     78.47     58.83 
 H                     43.96     76.99     59.68 
 H                     43.76     78.33     61.71 
 H                     44.71     79.04     60.62 
 H                     43.13     79.54     60.96 
 N                     37.11     75.9      60.02 
 C                     35.89     75.24     59.57 
 C                     34.77     75.2      60.6 
 O                     33.7      75.74     60.33 
 C                     36.31     73.94     58.9 
 C                     37.53     73.78     58.01 
 O                     37.42     72.94     57.09 
 O                     38.62     74.37     58.21 
 H                     37.95     75.65     59.51 
 H                     35.54     75.92     58.79 
 H                     35.49     73.53     58.31 
 H                     36.47     73.2      59.69 
 N                     34.97     74.4      61.65 
 C                     34.1      74.43     62.82 
 C                     32.64     74.07     62.63 
 O                     31.8      74.37     63.47 
 H                     35.91     74.11     61.84 
 H                     34.15     75.4      63.31 
 H                     34.53     73.72     63.53 
 N                     32.33     73.38     61.53 
 C                     31.13     72.62     61.23 
 C                     31.53     71.29     60.62 
 O                     32.5      71.17     59.87 
 C                     30.26     73.4      60.25 
 C                     28.95     72.68     59.97 
 N                     28.64     72.45     58.69 
 O                     28.17     72.28     60.83 
 H                     33.14     73.14     60.99 
 H                     30.57     72.44     62.14 
 H                     30.86     73.4      59.34 
 H                     30.02     74.37     60.69 
 H                     29.25     72.76     57.94 
 H                     27.87     71.83     58.5 
 N                     30.8      70.19     60.83 
 C                     31.16     68.84     60.43 
 C                     32.09     68.12     61.39 
 O                     32.81     68.75     62.17 
 H                     29.94     70.3      61.34 
 H                     31.49     68.78     59.39 
 H                     30.22     68.29     60.37 
 N                     32.09     66.79     61.34 
 C                     32.55     65.87     62.36 
 C                     34.03     65.95     62.69 
 O                     34.57     65.19     63.49 
 C                     31.71     65.89     63.64 
 C                     30.23     65.75     63.41 
 C                     29.31     66.75     63.77 
 C                     29.79     64.52     62.92 
 C                     27.95     66.57     63.51 
 C                     28.42     64.32     62.71 
 C                     27.49     65.35     62.96 
 O                     26.18     65.17     62.63 
 H                     31.67     66.36     60.53 
 H                     32.52     64.84     62. 
 H                     31.82     66.9      64.04 
 H                     32.07     65.25     64.45 
 H                     29.74     67.7      64.06 
 H                     30.53     63.75     62.73 
 H                     27.26     67.4      63.5 
 H                     28.08     63.32     62.46 
 H                     25.87     64.3      62.35 
 N                     34.78     66.91     62.15 
 C                     36.2      67.15     62.31 
 C                     37.09     66.07     61.71 
 O                     38.02     66.43     60.99 
 C                     36.5      67.67     63.72 
 C                     35.83     69.02     63.98 
 C                     37.97     68.02     63.92 
 C                     35.54     69.31     65.45 
 H                     34.29     67.51     61.5 
 H                     36.28     68.       61.63 
 H                     36.27     66.93     64.49 
 H                     34.86     69.02     63.5 
 H                     36.43     69.82     63.56 
 H                     38.2      68.55     64.84 
 H                     38.44     67.04     63.88 
 H                     38.38     68.62     63.1 
 H                     36.4      69.22     66.11 
 H                     35.25     70.35     65.37 
 H                     34.7      68.74     65.86 
 N                     36.93     64.78     62.01 
 C                     37.65     63.63     61.5 
 C                     39.09     63.58     61.98 
 O                     39.95     62.92     61.41 
 C                     36.88     62.39     61.94 
 O                     36.55     62.54     63.3 
 H                     36.19     64.58     62.67 
 H                     37.7      63.67     60.41 
 H                     37.46     61.49     61.73 
 H                     35.92     62.36     61.42 
 H                     36.76     61.68     63.68 
 N                     39.37     64.27     63.09 
 C                     40.64     64.47     63.76 
 C                     41.72     65.09     62.9 
 O                     42.9      64.8      63.11 
 C                     40.97     63.17     64.49 
 H                     38.56     64.69     63.52 
 H                     40.55     65.27     64.5 
 H                     41.89     63.4      65.03 
 H                     40.12     62.94     65.13 
 H                     41.17     62.38     63.77 
 N                     41.39     65.95     61.93 
 C                     42.26     66.46     60.89 
 C                     42.4      67.97     60.88 
 O                     41.6      68.69     61.49 
 C                     41.84     65.85     59.55 
 H                     40.42     66.17     61.79 
 H                     43.22     66.02     61.19 
 H                     41.73     64.76     59.6 
 H                     40.93     66.33     59.19 
 H                     42.6      66.1      58.81 
 N                     43.5      68.46     60.31 
 C                     43.82     69.87     60.18 
 C                     44.19     70.55     61.49 
 O                     44.39     71.76     61.53 
 C                     42.74     70.63     59.43 
 C                     42.29     69.99     58.11 
 C                     41.29     70.91     57.42 
 O                     41.54     71.24     56.24 
 O                     40.24     71.26     57.99 
 H                     44.22     67.78     60.09 
 H                     44.7      69.94     59.53 
 H                     43.18     71.61     59.29 
 H                     41.81     70.8      59.98 
 H                     41.84     69.01     58.29 
 H                     43.18     69.84     57.51 
 N                     44.57     69.75     62.48 
 C                     44.49     70.23     63.85 
 H                     43.463    70.519    64.074 
 H                     44.8      69.438    64.532 
 H                     45.145    71.093    63.972 
 H                     44.59     68.74     62.39 
 Ca                    39.08     71.6      55.65 
 O                     39.78     69.75     53.96 
 H                     39.58     70.1      53.1 
 H                     39.76     68.8      53.84 
 
 Stoichiometry    C54H83CaN15O23
 Framework group  C1[X(C54H83CaN15O23)]
 Deg. of freedom   522
 Full point group                 C1      NOp   1
 Largest Abelian subgroup         C1      NOp   1
 Largest concise Abelian subgroup C1      NOp   1
                         Standard orientation:                         
 ---------------------------------------------------------------------
 Center     Atomic      Atomic             Coordinates (Angstroms)
 Number     Number       Type             X           Y           Z
 ---------------------------------------------------------------------
      1          6           0       10.427780   -1.621462   -5.772978
      2          6           0       10.463886   -1.543258   -4.254104
      3          8           0       11.543932   -1.423441   -3.675100
      4          1           0       11.424313   -1.855703   -6.147718
      5          1           0        9.731991   -2.402252   -6.080480
      6          1           0       10.103674   -0.663380   -6.178979
      7          7           0        9.318057   -1.814340   -3.621417
      8          6           0        9.290878   -1.902339   -2.175832
      9          6           0        7.906253   -1.519029   -1.666628
     10          8           0        6.959316   -1.644125   -2.442747
     11          6           0        9.615953   -3.364705   -1.888234
     12          6           0        9.780473   -3.713280   -0.410219
     13          8           0       10.059635   -2.773353    0.360888
     14          8           0        9.658902   -4.890757   -0.003686
     15          1           0        8.485636   -1.928763   -4.193154
     16          1           0        9.995927   -1.206902   -1.726975
     17          1           0       10.553809   -3.571971   -2.399963
     18          1           0        8.829572   -4.056997   -2.182575
     19          7           0        7.749662   -1.085523   -0.409150
     20          6           0        6.557052   -0.596012    0.262386
     21          6           0        5.522435   -1.692582    0.456551
     22          8           0        5.734549   -2.821221    0.038482
     23          6           0        6.129230    0.773874   -0.253446
     24          6           0        7.122486    1.926921   -0.359864
     25          6           0        7.617116    2.471020    0.986390
     26          6           0        8.495027    3.713618    0.918396
     27          7           0        9.436767    3.719748   -0.214338
     28          1           0        8.546850   -1.267043    0.179189
     29          1           0        6.931543   -0.240271    1.218527
     30          1           0        5.360274    1.199110    0.382228
     31          1           0        5.778983    0.543103   -1.261499
     32          1           0        6.682446    2.776775   -0.871541
     33          1           0        7.918620    1.575517   -1.013152
     34          1           0        8.180492    1.667752    1.457842
     35          1           0        6.737999    2.687871    1.594855
     36          1           0        9.163725    3.746681    1.776446
     37          1           0        7.897369    4.630817    0.911319
     38          1           0        8.982712    3.806499   -1.113287
     39          1           0       10.030792    4.536590   -0.131862
     40          1           0        9.935772    2.858901   -0.327643
     41          7           0        4.489532   -1.410659    1.248088
     42          6           0        3.471492   -2.281311    1.824334
     43          6           0        2.995337   -3.398919    0.907204
     44          8           0        3.144561   -4.563502    1.268976
     45          6           0        2.432089   -1.379449    2.473631
     46          6           0        2.748487   -0.110412    3.245342
     47          8           0        1.969164    0.157130    4.186180
     48          8           0        3.668404    0.684262    2.931582
     49          1           0        4.571250   -0.496689    1.679574
     50          1           0        4.026328   -2.780058    2.622275
     51          1           0        1.793622   -1.952305    3.146531
     52          1           0        1.754811   -1.037933    1.684985
     53          7           0        2.262748   -3.020888   -0.142990
     54          6           0        1.931699   -3.941309   -1.224624
     55          6           0        1.098785   -5.162445   -0.889395
     56          8           0        1.047501   -6.121490   -1.650187
     57          1           0        2.306766   -2.058210   -0.417058
     58          1           0        2.833455   -4.274239   -1.734029
     59          1           0        1.379912   -3.351562   -1.960035
     60          7           0        0.399768   -5.118866    0.247125
     61          6           0       -0.712508   -5.948501    0.673914
     62          6           0       -1.789922   -5.059856    1.265935
     63          8           0       -1.529494   -4.049839    1.921559
     64          6           0       -0.233917   -6.950759    1.718965
     65          6           0       -1.347763   -7.898699    2.135687
     66          7           0       -1.606835   -8.000620    3.443316
     67          8           0       -2.035143   -8.559076    1.361471
     68          1           0        0.481969   -4.233876    0.711167
     69          1           0       -1.120142   -6.484517   -0.174979
     70          1           0        0.018906   -6.314578    2.567171
     71          1           0        0.570004   -7.550177    1.287099
     72          1           0       -1.068060   -7.476705    4.125910
     73          1           0       -2.444658   -8.486986    3.716997
     74          7           0       -3.083533   -5.374821    1.146069
     75          6           0       -4.203968   -4.534106    1.533269
     76          6           0       -4.604592   -3.495116    0.501328
     77          8           0       -3.804041   -3.108292   -0.354934
     78          1           0       -3.303341   -6.258591    0.718944
     79          1           0       -4.094299   -4.118107    2.537767
     80          1           0       -5.041480   -5.214458    1.692627
     81          7           0       -5.848234   -3.026686    0.574323
     82          6           0       -6.601819   -2.361584   -0.468821
     83          6           0       -6.031292   -1.035763   -0.940409
     84          8           0       -6.596350   -0.333428   -1.775056
     85          6           0       -6.937330   -3.259721   -1.662631
     86          6           0       -7.569048   -4.572969   -1.289519
     87          6           0       -6.968276   -5.810845   -1.577156
     88          6           0       -8.849323   -4.513293   -0.738217
     89          6           0       -7.594466   -6.995618   -1.184982
     90          6           0       -9.500198   -5.704603   -0.394499
     91          6           0       -8.869306   -6.953077   -0.572224
     92          8           0       -9.474718   -8.085323   -0.115172
     93          1           0       -6.356123   -3.200804    1.428215
     94          1           0       -7.559338   -1.999925   -0.089666
     95          1           0       -5.972864   -3.543079   -2.088909
     96          1           0       -7.452722   -2.768114   -2.492085
     97          1           0       -5.943855   -5.765379   -1.923560
     98          1           0       -9.305323   -3.537933   -0.606549
     99          1           0       -7.055005   -7.928513   -1.123438
    100          1           0      -10.542321   -5.651962   -0.095652
    101          1           0      -10.383169   -8.047548    0.208387
    102          7           0       -4.845520   -0.625642   -0.491581
    103          6           0       -4.137383    0.602558   -0.791025
    104          6           0       -4.811552    1.860447   -0.260258
    105          8           0       -4.116722    2.663072    0.360955
    106          6           0       -3.616524    0.583039   -2.232145
    107          6           0       -2.596366   -0.535298   -2.450316
    108          6           0       -2.790017    1.816162   -2.578109
    109          6           0       -2.498089   -1.030237   -3.890621
    110          1           0       -4.420536   -1.238015    0.191784
    111          1           0       -3.279489    0.437445   -0.136766
    112          1           0       -4.427722    0.562219   -2.963530
    113          1           0       -2.908050   -1.400478   -1.879687
    114          1           0       -1.618363   -0.219376   -2.103756
    115          1           0       -2.259633    1.768830   -3.525026
    116          1           0       -3.543638    2.600263   -2.566199
    117          1           0       -2.045235    2.058039   -1.811757
    118          1           0       -2.317735   -0.251378   -4.628287
    119          1           0       -1.620015   -1.657233   -3.801390
    120          1           0       -3.343123   -1.649611   -4.208258
    121          7           0       -6.090474    2.136282   -0.520974
    122          6           0       -6.893513    3.252401   -0.062272
    123          6           0       -6.466086    4.573711   -0.677046
    124          8           0       -6.758611    5.654483   -0.180599
    125          6           0       -8.343573    2.929719   -0.404769
    126          8           0       -8.384834    2.455521   -1.729319
    127          1           0       -6.566681    1.460168   -1.103465
    128          1           0       -6.784525    3.376340    1.017061
    129          1           0       -8.975730    3.802793   -0.235600
    130          1           0       -8.677916    2.087693    0.205237
    131          1           0       -9.136855    2.919908   -2.112606
    132          7           0       -5.777945    4.501294   -1.820645
    133          6           0       -5.184542    5.560766   -2.612599
    134          6           0       -4.187255    6.424358   -1.870961
    135          8           0       -4.061208    7.609368   -2.187922
    136          6           0       -6.324712    6.261446   -3.348031
    137          1           0       -5.686026    3.562681   -2.178354
    138          1           0       -4.502931    5.135581   -3.354437
    139          1           0       -5.817813    6.994653   -3.977604
    140          1           0       -6.866086    5.494808   -3.899557
    141          1           0       -6.959896    6.784136   -2.636809
    142          7           0       -3.447401    5.897351   -0.888984
    143          6           0       -2.616871    6.618400    0.053835
    144          6           0       -1.153165    6.222832    0.024002
    145          8           0       -0.785658    5.173769   -0.519050
    146          6           0       -3.267049    6.551473    1.438353
    147          1           0       -3.569870    4.926921   -0.660582
    148          1           0       -2.711947    7.642897   -0.329005
    149          1           0       -4.328852    6.825091    1.418167
    150          1           0       -3.114215    5.564704    1.875421
    151          1           0       -2.733097    7.235498    2.097675
    152          7           0       -0.285185    7.126195    0.477373
    153          6           0        1.153064    6.943580    0.551475
    154          6           0        1.853023    6.941916   -0.799619
    155          8           0        3.053917    6.702881   -0.879722
    156          6           0        1.528830    5.733047    1.388082
    157          6           0        0.839171    5.646917    2.756092
    158          6           0        1.389538    4.450182    3.522527
    159          8           0        1.843902    4.667099    4.667210
    160          8           0        1.325883    3.300279    3.049693
    161          1           0       -0.662287    8.053984    0.639242
    162          1           0        1.555403    7.794905    1.112875
    163          1           0        2.606205    5.813367    1.468154
    164          1           0        1.339033    4.759651    0.926804
    165          1           0       -0.243653    5.553917    2.637169
    166          1           0        1.036356    6.580183    3.270615
    167          7           0        1.185688    7.492974   -1.807339
    168          6           0        1.539603    7.136089   -3.171552
    169          1           0        1.443961    6.057906   -3.301166
    170          1           0        0.870867    7.644799   -3.866170
    171          1           0        2.568701    7.435990   -3.370785
    172          1           0        0.250774    7.871721   -1.702039
    173         20           0        1.359542    2.294765    5.483745
    174          8           0       -0.047583    3.735323    7.130983
    175          1           0        0.253932    3.498464    7.999940
    176          1           0       -0.938626    4.058303    7.268923
 ---------------------------------------------------------------------
 Rotational constants (GHZ):           0.0147418           0.0101356           0.0072313
 Standard basis: SVP (5D, 7F)
 There are  1809 symmetry adapted cartesian basis functions of A   symmetry.
 There are  1717 symmetry adapted basis functions of A   symmetry.
  1717 basis functions,  2922 primitive gaussians,  1809 cartesian basis functions
   358 alpha electrons      358 beta electrons
       nuclear repulsion energy     18529.8076265687 Hartrees.
 NAtoms=  176 NActive=  176 NUniq=  176 SFac= 1.00D+00 NAtFMM=   60 NAOKFM=T Big=T
 Integral buffers will be    131072 words long.
 Raffenetti 2 integral format.
 Two-electron integral symmetry is turned on.
 One-electron integrals computed using PRISM.
 NBasis=  1717 RedAO= T EigKep=  2.88D-04  NBF=  1717
 NBsUse=  1717 1.00D-06 EigRej= -1.00D+00 NBFU=  1717
 ExpMin= 1.98D-02 ExpMax= 3.51D+04 ExpMxC= 5.28D+03 IAcc=3 IRadAn=         5 AccDes= 0.00D+00
 Harris functional with IExCor=  402 and IRadAn=       5 diagonalized for initial guess.
 HarFok:  IExCor=  402 AccDes= 0.00D+00 IRadAn=         5 IDoV= 1 UseB2=F ITyADJ=14
 ICtDFT=  3500011 ScaDFX=  1.000000  1.000000  1.000000  1.000000
 FoFCou: FMM=F IPFlag=           0 FMFlag=      100000 FMFlg1=        2001
         NFxFlg=           0 DoJE=T BraDBF=F KetDBF=T FulRan=T
         wScrn=  0.000000 ICntrl=       500 IOpCl=  0 I1Cent=   200000004 NGrid=           0
         NMat0=    1 NMatS0=      1 NMatT0=    0 NMatD0=    1 NMtDS0=    0 NMtDT0=    0
 Petite list used in FoFCou.
 Requested convergence on RMS density matrix=1.00D-08 within 128 cycles.
 Requested convergence on MAX density matrix=1.00D-06.
 Requested convergence on             energy=1.00D-06.
 No special actions if energy rises.
 EnCoef did     2 forward-backward iterations
 EnCoef did     3 forward-backward iterations
 EnCoef did     3 forward-backward iterations
 EnCoef did     2 forward-backward iterations
 EnCoef did     1 forward-backward iterations
 EnCoef did    15 forward-backward iterations
 EnCoef did   100 forward-backward iterations
 EnCoef did   100 forward-backward iterations
 EnCoef did   100 forward-backward iterations
 Rare condition: small coef for last iteration:  0.000D+00
 EnCoef did   100 forward-backward iterations
 Restarting incremental Fock formation.
 EnCoef did   100 forward-backward iterations
 EnCoef did   100 forward-backward iterations
 Rare condition: small coef for last iteration: -0.306D-15
 EnCoef did   100 forward-backward iterations
 Rare condition: small coef for last iteration:  0.000D+00
 EnCoef did   100 forward-backward iterations
 EnCoef did   100 forward-backward iterations
 Rare condition: small coef for last iteration: -0.949D-15
 EnCoef did   100 forward-backward iterations
 EnCoef did   100 forward-backward iterations
 EnCoef did   100 forward-backward iterations
 EnCoef did   100 forward-backward iterations
 EnCoef did   100 forward-backward iterations
 EnCoef did   100 forward-backward iterations
 Restarting incremental Fock formation.
 SCF Done:  E(RB3LYP) =  -5333.35783378     A.U. after   43 cycles
            NFock= 43  Conv=0.26D-09     -V/T= 2.0081
 SCF density gives NOpUse=  1 NOpAll=  1.
 Hyperfine terms turned off by default for NAtoms > 100.

 **********************************************************************

            Population analysis using the SCF density.

 **********************************************************************

 Orbital symmetries:
 BldTbl:  Degeneracy threshold= 1.00D-02
       Occupied  (A) (A) (A) (A) (A) (A) (A) (A) (A) (A) (A) (A)
                 (A) (A) (A) (A) (A) (A) (A) (A) (A) (A) (A) (A)
                 (A) (A) (A) (A) (A) (A) (A) (A) (A) (A) (A) (A)
                 (A) (A) (A) (A) (A) (A) (A) (A) (A) (A) (A) (A)
                 (A) (A) (A) (A) (A) (A) (A) (A) (A) (A) (A) (A)
                 (A) (A) (A) (A) (A) (A) (A) (A) (A) (A) (A) (A)
                 (A) (A) (A) (A) (A) (A) (A) (A) (A) (A) (A) (A)
                 (A) (A) (A) (A) (A) (A) (A) (A) (A) (A) (A) (A)
                 (A) (A) (A) (A) (A) (A) (A) (A) (A) (A) (A) (A)
                 (A) (A) (A) (A) (A) (A) (A) (A) (A) (A) (A) (A)
                 (A) (A) (A) (A) (A) (A) (A) (A) (A) (A) (A) (A)
                 (A) (A) (A) (A) (A) (A) (A) (A) (A) (A) (A) (A)
                 (A) (A) (A) (A) (A) (A) (A) (A) (A) (A) (A) (A)
                 (A) (A) (A) (A) (A) (A) (A) (A) (A) (A) (A) (A)
                 (A) (A) (A) (A) (A) (A) (A) (A) (A) (A) (A) (A)
                 (A) (A) (A) (A) (A) (A) (A) (A) (A) (A) (A) (A)
                 (A) (A) (A) (A) (A) (A) (A) (A) (A) (A) (A) (A)
                 (A) (A) (A) (A) (A) (A) (A) (A) (A) (A) (A) (A)
                 (A) (A) (A) (A) (A) (A) (A) (A) (A) (A) (A) (A)
                 (A) (A) (A) (A) (A) (A) (A) (A) (A) (A) (A) (A)
                 (A) (A) (A) (A) (A) (A) (A) (A) (A) (A) (A) (A)
                 (A) (A) (A) (A) (A) (A) (A) (A) (A) (A) (A) (A)
                 (A) (A) (A) (A) (A) (A) (A) (A) (A) (A) (A) (A)
                 (A) (A) (A) (A) (A) (A) (A) (A) (A) (A) (A) (A)
                 (A) (A) (A) (A) (A) (A) (A) (A) (A) (A) (A) (A)
                 (A) (A) (A) (A) (A) (A) (A) (A) (A) (A) (A) (A)
                 (A) (A) (A) (A) (A) (A) (A) (A) (A) (A) (A) (A)
                 (A) (A) (A) (A) (A) (A) (A) (A) (A) (A) (A) (A)
                 (A) (A) (A) (A) (A) (A) (A) (A) (A) (A) (A) (A)
                 (A) (A) (A) (A) (A) (A) (A) (A) (A) (A)
       Virtual   (A) (A) (A) (A) (A) (A) (A) (A) (A) (A) (A) (A)
                 (A) (A) (A) (A) (A) (A) (A) (A) (A) (A) (A) (A)
                 (A) (A) (A) (A) (A) (A) (A) (A) (A) (A) (A) (A)
                 (A) (A) (A) (A) (A) (A) (A) (A) (A) (A) (A) (A)
                 (A) (A) (A) (A) (A) (A) (A) (A) (A) (A) (A) (A)
                 (A) (A) (A) (A) (A) (A) (A) (A) (A) (A) (A) (A)
                 (A) (A) (A) (A) (A) (A) (A) (A) (A) (A) (A) (A)
                 (A) (A) (A) (A) (A) (A) (A) (A) (A) (A) (A) (A)
                 (A) (A) (A) (A) (A) (A) (A) (A) (A) (A) (A) (A)
                 (A) (A) (A) (A) (A) (A) (A) (A) (A) (A) (A) (A)
                 (A) (A) (A) (A) (A) (A) (A) (A) (A) (A) (A) (A)
                 (A) (A) (A) (A) (A) (A) (A) (A) (A) (A) (A) (A)
                 (A) (A) (A) (A) (A) (A) (A) (A) (A) (A) (A) (A)
                 (A) (A) (A) (A) (A) (A) (A) (A) (A) (A) (A) (A)
                 (A) (A) (A) (A) (A) (A) (A) (A) (A) (A) (A) (A)
                 (A) (A) (A) (A) (A) (A) (A) (A) (A) (A) (A) (A)
                 (A) (A) (A) (A) (A) (A) (A) (A) (A) (A) (A) (A)
                 (A) (A) (A) (A) (A) (A) (A) (A) (A) (A) (A) (A)
                 (A) (A) (A) (A) (A) (A) (A) (A) (A) (A) (A) (A)
                 (A) (A) (A) (A) (A) (A) (A) (A) (A) (A) (A) (A)
                 (A) (A) (A) (A) (A) (A) (A) (A) (A) (A) (A) (A)
                 (A) (A) (A) (A) (A) (A) (A) (A) (A) (A) (A) (A)
                 (A) (A) (A) (A) (A) (A) (A) (A) (A) (A) (A) (A)
                 (A) (A) (A) (A) (A) (A) (A) (A) (A) (A) (A) (A)
                 (A) (A) (A) (A) (A) (A) (A) (A) (A) (A) (A) (A)
                 (A) (A) (A) (A) (A) (A) (A) (A) (A) (A) (A) (A)
                 (A) (A) (A) (A) (A) (A) (A) (A) (A) (A) (A) (A)
                 (A) (A) (A) (A) (A) (A) (A) (A) (A) (A) (A) (A)
                 (A) (A) (A) (A) (A) (A) (A) (A) (A) (A) (A) (A)
                 (A) (A) (A) (A) (A) (A) (A) (A) (A) (A) (A) (A)
                 (A) (A) (A) (A) (A) (A) (A) (A) (A) (A) (A) (A)
                 (A) (A) (A) (A) (A) (A) (A) (A) (A) (A) (A) (A)
                 (A) (A) (A) (A) (A) (A) (A) (A) (A) (A) (A) (A)
                 (A) (A) (A) (A) (A) (A) (A) (A) (A) (A) (A) (A)
                 (A) (A) (A) (A) (A) (A) (A) (A) (A) (A) (A) (A)
                 (A) (A) (A) (A) (A) (A) (A) (A) (A) (A) (A) (A)
                 (A) (A) (A) (A) (A) (A) (A) (A) (A) (A) (A) (A)
                 (A) (A) (A) (A) (A) (A) (A) (A) (A) (A) (A) (A)
                 (A) (A) (A) (A) (A) (A) (A) (A) (A) (A) (A) (A)
                 (A) (A) (A) (A) (A) (A) (A) (A) (A) (A) (A) (A)
                 (A) (A) (A) (A) (A) (A) (A) (A) (A) (A) (A) (A)
                 (A) (A) (A) (A) (A) (A) (A) (A) (A) (A) (A) (A)
                 (A) (A) (A) (A) (A) (A) (A) (A) (A) (A) (A) (A)
                 (A) (A) (A) (A) (A) (A) (A) (A) (A) (A) (A) (A)
                 (A) (A) (A) (A) (A) (A) (A) (A) (A) (A) (A) (A)
                 (A) (A) (A) (A) (A) (A) (A) (A) (A) (A) (A) (A)
                 (A) (A) (A) (A) (A) (A) (A) (A) (A) (A) (A) (A)
                 (A) (A) (A) (A) (A) (A) (A) (A) (A) (A) (A) (A)
                 (A) (A) (A) (A) (A) (A) (A) (A) (A) (A) (A) (A)
                 (A) (A) (A) (A) (A) (A) (A) (A) (A) (A) (A) (A)
                 (A) (A) (A) (A) (A) (A) (A) (A) (A) (A) (A) (A)
                 (A) (A) (A) (A) (A) (A) (A) (A) (A) (A) (A) (A)
                 (A) (A) (A) (A) (A) (A) (A) (A) (A) (A) (A) (A)
                 (A) (A) (A) (A) (A) (A) (A) (A) (A) (A) (A) (A)
                 (A) (A) (A) (A) (A) (A) (A) (A) (A) (A) (A) (A)
                 (A) (A) (A) (A) (A) (A) (A) (A) (A) (A) (A) (A)
                 (A) (A) (A) (A) (A) (A) (A) (A) (A) (A) (A) (A)
                 (A) (A) (A) (A) (A) (A) (A) (A) (A) (A) (A) (A)
                 (A) (A) (A) (A) (A) (A) (A) (A) (A) (A) (A) (A)
                 (A) (A) (A) (A) (A) (A) (A) (A) (A) (A) (A) (A)
                 (A) (A) (A) (A) (A) (A) (A) (A) (A) (A) (A) (A)
                 (A) (A) (A) (A) (A) (A) (A) (A) (A) (A) (A) (A)
                 (A) (A) (A) (A) (A) (A) (A) (A) (A) (A) (A) (A)
                 (A) (A) (A) (A) (A) (A) (A) (A) (A) (A) (A) (A)
                 (A) (A) (A) (A) (A) (A) (A) (A) (A) (A) (A) (A)
                 (A) (A) (A) (A) (A) (A) (A) (A) (A) (A) (A) (A)
                 (A) (A) (A) (A) (A) (A) (A) (A) (A) (A) (A) (A)
                 (A) (A) (A) (A) (A) (A) (A) (A) (A) (A) (A) (A)
                 (A) (A) (A) (A) (A) (A) (A) (A) (A) (A) (A) (A)
                 (A) (A) (A) (A) (A) (A) (A) (A) (A) (A) (A) (A)
                 (A) (A) (A) (A) (A) (A) (A) (A) (A) (A) (A) (A)
                 (A) (A) (A) (A) (A) (A) (A) (A) (A) (A) (A) (A)
                 (A) (A) (A) (A) (A) (A) (A) (A) (A) (A) (A) (A)
                 (A) (A) (A) (A) (A) (A) (A) (A) (A) (A) (A) (A)
                 (A) (A) (A) (A) (A) (A) (A) (A) (A) (A) (A) (A)
                 (A) (A) (A) (A) (A) (A) (A) (A) (A) (A) (A) (A)
                 (A) (A) (A) (A) (A) (A) (A) (A) (A) (A) (A) (A)
                 (A) (A) (A) (A) (A) (A) (A) (A) (A) (A) (A) (A)
                 (A) (A) (A) (A) (A) (A) (A) (A) (A) (A) (A) (A)
                 (A) (A) (A) (A) (A) (A) (A) (A) (A) (A) (A) (A)
                 (A) (A) (A) (A) (A) (A) (A) (A) (A) (A) (A) (A)
                 (A) (A) (A) (A) (A) (A) (A) (A) (A) (A) (A) (A)
                 (A) (A) (A) (A) (A) (A) (A) (A) (A) (A) (A) (A)
                 (A) (A) (A) (A) (A) (A) (A) (A) (A) (A) (A) (A)
                 (A) (A) (A) (A) (A) (A) (A) (A) (A) (A) (A) (A)
                 (A) (A) (A) (A) (A) (A) (A) (A) (A) (A) (A) (A)
                 (A) (A) (A) (A) (A) (A) (A) (A) (A) (A) (A) (A)
                 (A) (A) (A) (A) (A) (A) (A) (A) (A) (A) (A) (A)
                 (A) (A) (A) (A) (A) (A) (A) (A) (A) (A) (A) (A)
                 (A) (A) (A) (A) (A) (A) (A) (A) (A) (A) (A) (A)
                 (A) (A) (A) (A) (A) (A) (A) (A) (A) (A) (A) (A)
                 (A) (A) (A) (A) (A) (A) (A) (A) (A) (A) (A) (A)
                 (A) (A) (A) (A) (A) (A) (A) (A) (A) (A) (A) (A)
                 (A) (A) (A) (A) (A) (A) (A) (A) (A) (A) (A) (A)
                 (A) (A) (A) (A) (A) (A) (A) (A) (A) (A) (A) (A)
                 (A) (A) (A) (A) (A) (A) (A) (A) (A) (A) (A) (A)
                 (A) (A) (A) (A) (A) (A) (A) (A) (A) (A) (A) (A)
                 (A) (A) (A) (A) (A) (A) (A) (A) (A) (A) (A) (A)
                 (A) (A) (A) (A) (A) (A) (A) (A) (A) (A) (A) (A)
                 (A) (A) (A) (A) (A) (A) (A) (A) (A) (A) (A) (A)
                 (A) (A) (A) (A) (A) (A) (A) (A) (A) (A) (A) (A)
                 (A) (A) (A) (A) (A) (A) (A) (A) (A) (A) (A) (A)
                 (A) (A) (A) (A) (A) (A) (A) (A) (A) (A) (A) (A)
                 (A) (A) (A) (A) (A) (A) (A) (A) (A) (A) (A) (A)
                 (A) (A) (A) (A) (A) (A) (A) (A) (A) (A) (A) (A)
                 (A) (A) (A) (A) (A) (A) (A) (A) (A) (A) (A) (A)
                 (A) (A) (A) (A) (A) (A) (A) (A) (A) (A) (A) (A)
                 (A) (A) (A) (A) (A) (A) (A) (A) (A) (A) (A) (A)
                 (A) (A) (A) (A) (A) (A) (A) (A) (A) (A) (A) (A)
                 (A) (A) (A) (A) (A) (A) (A) (A) (A) (A) (A) (A)
                 (A) (A) (A) (A) (A) (A) (A) (A) (A) (A) (A) (A)
                 (A) (A) (A) (A) (A) (A) (A) (A) (A) (A) (A) (A)
                 (A) (A) (A) (A) (A) (A) (A) (A) (A) (A) (A) (A)
                 (A) (A) (A)
 The electronic state is 1-A.
 Alpha  occ. eigenvalues -- -145.46166 -19.24149 -19.17229 -19.15451 -19.12576
 Alpha  occ. eigenvalues --  -19.10681 -19.09960 -19.09788 -19.09763 -19.09554
 Alpha  occ. eigenvalues --  -19.09288 -19.08876 -19.08368 -19.07656 -19.07082
 Alpha  occ. eigenvalues --  -19.06736 -19.06712 -19.06124 -19.05147 -19.05132
 Alpha  occ. eigenvalues --  -19.05009 -19.04390 -18.97330 -18.96859 -15.52179
 Alpha  occ. eigenvalues --  -14.56747 -14.39125 -14.36560 -14.36510 -14.35733
 Alpha  occ. eigenvalues --  -14.35338 -14.35213 -14.35165 -14.34944 -14.33955
 Alpha  occ. eigenvalues --  -14.33679 -14.32246 -14.30913 -14.30712 -14.30376
 Alpha  occ. eigenvalues --  -12.65804 -12.65724 -12.65669 -10.33695 -10.31553
 Alpha  occ. eigenvalues --  -10.29469 -10.28804 -10.28614 -10.28467 -10.28269
 Alpha  occ. eigenvalues --  -10.28072 -10.27822 -10.27584 -10.26814 -10.26517
 Alpha  occ. eigenvalues --  -10.26292 -10.25722 -10.25670 -10.25599 -10.25491
 Alpha  occ. eigenvalues --  -10.25403 -10.25274 -10.24293 -10.24290 -10.23736
 Alpha  occ. eigenvalues --  -10.23660 -10.23555 -10.23531 -10.23473 -10.23192
 Alpha  occ. eigenvalues --  -10.23077 -10.22937 -10.21832 -10.21715 -10.20614
 Alpha  occ. eigenvalues --  -10.20609 -10.20537 -10.20427 -10.20409 -10.20353
 Alpha  occ. eigenvalues --  -10.20231 -10.20130 -10.19196 -10.19100 -10.18793
 Alpha  occ. eigenvalues --  -10.18408 -10.17602 -10.17548 -10.17270 -10.17021
 Alpha  occ. eigenvalues --  -10.16757 -10.16647 -10.16431 -10.16367 -10.16206
 Alpha  occ. eigenvalues --  -10.15712 -10.10395  -1.88986  -1.16737  -1.16210
 Alpha  occ. eigenvalues --   -1.15816  -1.12191  -1.10327  -1.06029  -1.05509
 Alpha  occ. eigenvalues --   -1.04709  -1.04209  -1.03223  -1.03124  -1.03010
 Alpha  occ. eigenvalues --   -1.02519  -1.02472  -1.02027  -1.01968  -1.01155
 Alpha  occ. eigenvalues --   -1.00334  -1.00069  -0.99161  -0.98780  -0.97869
 Alpha  occ. eigenvalues --   -0.97041  -0.95802  -0.93243  -0.93176  -0.92820
 Alpha  occ. eigenvalues --   -0.92250  -0.92079  -0.91674  -0.91462  -0.91102
 Alpha  occ. eigenvalues --   -0.90646  -0.90461  -0.90177  -0.89579  -0.89398
 Alpha  occ. eigenvalues --   -0.88529  -0.88080  -0.86983  -0.86776  -0.86368
 Alpha  occ. eigenvalues --   -0.81839  -0.81464  -0.80603  -0.80587  -0.79629
 Alpha  occ. eigenvalues --   -0.78719  -0.78665  -0.76799  -0.76423  -0.76198
 Alpha  occ. eigenvalues --   -0.75618  -0.75424  -0.74358  -0.74139  -0.73007
 Alpha  occ. eigenvalues --   -0.72854  -0.72638  -0.71262  -0.70979  -0.70278
 Alpha  occ. eigenvalues --   -0.69523  -0.69138  -0.68314  -0.67988  -0.67339
 Alpha  occ. eigenvalues --   -0.66985  -0.66729  -0.65974  -0.64344  -0.64154
 Alpha  occ. eigenvalues --   -0.63792  -0.63602  -0.62830  -0.62484  -0.62034
 Alpha  occ. eigenvalues --   -0.61752  -0.61183  -0.60477  -0.59929  -0.59767
 Alpha  occ. eigenvalues --   -0.59559  -0.59050  -0.58892  -0.58834  -0.58575
 Alpha  occ. eigenvalues --   -0.58004  -0.57370  -0.57218  -0.57113  -0.56413
 Alpha  occ. eigenvalues --   -0.56229  -0.56002  -0.55557  -0.55528  -0.55010
 Alpha  occ. eigenvalues --   -0.54860  -0.54365  -0.54281  -0.53807  -0.53523
 Alpha  occ. eigenvalues --   -0.53285  -0.53093  -0.52714  -0.51925  -0.51632
 Alpha  occ. eigenvalues --   -0.51245  -0.50910  -0.50585  -0.50425  -0.50109
 Alpha  occ. eigenvalues --   -0.49421  -0.49283  -0.49019  -0.48890  -0.48773
 Alpha  occ. eigenvalues --   -0.48531  -0.48477  -0.48313  -0.47802  -0.47675
 Alpha  occ. eigenvalues --   -0.47490  -0.46986  -0.46703  -0.46489  -0.46234
 Alpha  occ. eigenvalues --   -0.46161  -0.45983  -0.45914  -0.45648  -0.45412
 Alpha  occ. eigenvalues --   -0.45282  -0.45160  -0.45101  -0.44464  -0.44310
 Alpha  occ. eigenvalues --   -0.44201  -0.44122  -0.43825  -0.43483  -0.43364
 Alpha  occ. eigenvalues --   -0.43158  -0.43088  -0.42939  -0.42878  -0.42660
 Alpha  occ. eigenvalues --   -0.42577  -0.42528  -0.42240  -0.42193  -0.42012
 Alpha  occ. eigenvalues --   -0.41910  -0.41838  -0.41734  -0.41666  -0.41428
 Alpha  occ. eigenvalues --   -0.41278  -0.41147  -0.41009  -0.40868  -0.40807
 Alpha  occ. eigenvalues --   -0.40582  -0.40535  -0.40297  -0.40230  -0.40063
 Alpha  occ. eigenvalues --   -0.39993  -0.39982  -0.39514  -0.39447  -0.39260
 Alpha  occ. eigenvalues --   -0.39171  -0.39137  -0.39111  -0.38955  -0.38949
 Alpha  occ. eigenvalues --   -0.38797  -0.38505  -0.38062  -0.37979  -0.37851
 Alpha  occ. eigenvalues --   -0.37605  -0.37445  -0.37266  -0.36994  -0.36859
 Alpha  occ. eigenvalues --   -0.36742  -0.36655  -0.36588  -0.36507  -0.36392
 Alpha  occ. eigenvalues --   -0.36061  -0.36033  -0.35812  -0.35712  -0.35599
 Alpha  occ. eigenvalues --   -0.35541  -0.35507  -0.35137  -0.34988  -0.34896
 Alpha  occ. eigenvalues --   -0.34817  -0.34741  -0.34706  -0.34493  -0.34439
 Alpha  occ. eigenvalues --   -0.33974  -0.33267  -0.32776  -0.32744  -0.32596
 Alpha  occ. eigenvalues --   -0.32475  -0.32418  -0.31343  -0.31005  -0.30583
 Alpha  occ. eigenvalues --   -0.30549  -0.29811  -0.29661  -0.29231  -0.28336
 Alpha  occ. eigenvalues --   -0.28290  -0.28031  -0.27551  -0.27313  -0.27106
 Alpha  occ. eigenvalues --   -0.26881  -0.26612  -0.26393  -0.26215  -0.26202
 Alpha  occ. eigenvalues --   -0.26153  -0.25694  -0.25358  -0.25219  -0.25101
 Alpha  occ. eigenvalues --   -0.24712  -0.24692  -0.24601  -0.24464  -0.24335
 Alpha  occ. eigenvalues --   -0.24048  -0.23871  -0.23498  -0.23407  -0.23134
 Alpha  occ. eigenvalues --   -0.23004  -0.22863  -0.22328  -0.21955  -0.21808
 Alpha  occ. eigenvalues --   -0.21643  -0.20782  -0.20715  -0.20402  -0.19709
 Alpha  occ. eigenvalues --   -0.14367  -0.13963  -0.11693
 Alpha virt. eigenvalues --   -0.10844  -0.08681  -0.03389  -0.02810  -0.02438
 Alpha virt. eigenvalues --   -0.02035  -0.01874  -0.01580  -0.00550   0.00043
 Alpha virt. eigenvalues --    0.00328   0.00427   0.00935   0.01159   0.01192
 Alpha virt. eigenvalues --    0.01507   0.02026   0.02345   0.02409   0.02598
 Alpha virt. eigenvalues --    0.03049   0.03073   0.03415   0.03627   0.03892
 Alpha virt. eigenvalues --    0.04048   0.04322   0.04423   0.04589   0.05176
 Alpha virt. eigenvalues --    0.05337   0.05471   0.05561   0.05597   0.06103
 Alpha virt. eigenvalues --    0.06200   0.06558   0.06573   0.06776   0.06919
 Alpha virt. eigenvalues --    0.06966   0.07374   0.07721   0.07870   0.08037
 Alpha virt. eigenvalues --    0.08497   0.08816   0.08912   0.09102   0.09242
 Alpha virt. eigenvalues --    0.09317   0.09389   0.09559   0.09766   0.10282
 Alpha virt. eigenvalues --    0.10743   0.10880   0.10956   0.11208   0.11278
 Alpha virt. eigenvalues --    0.11501   0.11728   0.11966   0.12020   0.12335
 Alpha virt. eigenvalues --    0.12406   0.12526   0.12719   0.13201   0.13312
 Alpha virt. eigenvalues --    0.13377   0.13506   0.13592   0.13598   0.13748
 Alpha virt. eigenvalues --    0.13930   0.14156   0.14322   0.14423   0.14592
 Alpha virt. eigenvalues --    0.14684   0.14855   0.15002   0.15075   0.15142
 Alpha virt. eigenvalues --    0.15226   0.15366   0.15475   0.15775   0.16032
 Alpha virt. eigenvalues --    0.16082   0.16220   0.16333   0.16410   0.16727
 Alpha virt. eigenvalues --    0.16783   0.16935   0.17006   0.17097   0.17295
 Alpha virt. eigenvalues --    0.17345   0.17715   0.17759   0.17881   0.18007
 Alpha virt. eigenvalues --    0.18079   0.18169   0.18222   0.18338   0.18551
 Alpha virt. eigenvalues --    0.19043   0.19476   0.19687   0.20205   0.20370
 Alpha virt. eigenvalues --    0.20558   0.20751   0.20892   0.21303   0.21624
 Alpha virt. eigenvalues --    0.21711   0.22049   0.22274   0.22457   0.22687
 Alpha virt. eigenvalues --    0.22927   0.23259   0.23531   0.23710   0.23836
 Alpha virt. eigenvalues --    0.24049   0.24093   0.24311   0.24530   0.24729
 Alpha virt. eigenvalues --    0.24928   0.25024   0.25100   0.25256   0.25478
 Alpha virt. eigenvalues --    0.25810   0.26209   0.26370   0.26859   0.27116
 Alpha virt. eigenvalues --    0.27343   0.27382   0.27789   0.27894   0.27970
 Alpha virt. eigenvalues --    0.28186   0.28497   0.28552   0.29134   0.29280
 Alpha virt. eigenvalues --    0.29509   0.29609   0.29639   0.29743   0.30011
 Alpha virt. eigenvalues --    0.30102   0.30333   0.30737   0.30837   0.31677
 Alpha virt. eigenvalues --    0.31824   0.31909   0.32041   0.32814   0.33046
 Alpha virt. eigenvalues --    0.33165   0.33437   0.33573   0.33896   0.34185
 Alpha virt. eigenvalues --    0.34286   0.34906   0.35062   0.35356   0.35495
 Alpha virt. eigenvalues --    0.35842   0.36325   0.36995   0.37152   0.37313
 Alpha virt. eigenvalues --    0.37664   0.38287   0.38724   0.38754   0.38819
 Alpha virt. eigenvalues --    0.38963   0.39075   0.39910   0.40162   0.40562
 Alpha virt. eigenvalues --    0.40801   0.41223   0.41322   0.41458   0.41778
 Alpha virt. eigenvalues --    0.42019   0.42188   0.42248   0.42676   0.43009
 Alpha virt. eigenvalues --    0.43047   0.43257   0.43412   0.43528   0.43844
 Alpha virt. eigenvalues --    0.44050   0.44174   0.44613   0.44817   0.44891
 Alpha virt. eigenvalues --    0.45241   0.45478   0.45641   0.45786   0.45898
 Alpha virt. eigenvalues --    0.46149   0.46315   0.46462   0.46739   0.46817
 Alpha virt. eigenvalues --    0.46940   0.46985   0.47419   0.47498   0.47577
 Alpha virt. eigenvalues --    0.47718   0.47962   0.48049   0.48176   0.48331
 Alpha virt. eigenvalues --    0.48482   0.48653   0.48762   0.49009   0.49172
 Alpha virt. eigenvalues --    0.49525   0.49539   0.49747   0.50002   0.50238
 Alpha virt. eigenvalues --    0.50447   0.50513   0.50851   0.51250   0.51597
 Alpha virt. eigenvalues --    0.51650   0.51769   0.51962   0.52267   0.52471
 Alpha virt. eigenvalues --    0.52656   0.52820   0.52984   0.53045   0.53168
 Alpha virt. eigenvalues --    0.53249   0.53592   0.53976   0.54048   0.54480
 Alpha virt. eigenvalues --    0.54544   0.54654   0.54757   0.54867   0.55048
 Alpha virt. eigenvalues --    0.55215   0.55274   0.55626   0.55769   0.56016
 Alpha virt. eigenvalues --    0.56313   0.56438   0.56582   0.56685   0.56699
 Alpha virt. eigenvalues --    0.56928   0.57356   0.57397   0.57441   0.57668
 Alpha virt. eigenvalues --    0.57921   0.58213   0.58266   0.58525   0.58605
 Alpha virt. eigenvalues --    0.59014   0.59091   0.59112   0.59204   0.59369
 Alpha virt. eigenvalues --    0.59667   0.59873   0.59995   0.60260   0.60417
 Alpha virt. eigenvalues --    0.60509   0.60680   0.60795   0.60957   0.61004
 Alpha virt. eigenvalues --    0.61174   0.61251   0.61416   0.61536   0.61681
 Alpha virt. eigenvalues --    0.61730   0.62015   0.62095   0.62299   0.62604
 Alpha virt. eigenvalues --    0.62855   0.62972   0.63081   0.63320   0.63366
 Alpha virt. eigenvalues --    0.63389   0.63586   0.63737   0.63942   0.64012
 Alpha virt. eigenvalues --    0.64112   0.64224   0.64276   0.64353   0.64541
 Alpha virt. eigenvalues --    0.64565   0.64625   0.64679   0.64887   0.64965
 Alpha virt. eigenvalues --    0.65163   0.65214   0.65369   0.65533   0.65549
 Alpha virt. eigenvalues --    0.65708   0.65778   0.65921   0.65967   0.66029
 Alpha virt. eigenvalues --    0.66204   0.66322   0.66454   0.66627   0.66786
 Alpha virt. eigenvalues --    0.66959   0.66987   0.67086   0.67117   0.67318
 Alpha virt. eigenvalues --    0.67403   0.67630   0.67756   0.67783   0.67815
 Alpha virt. eigenvalues --    0.67926   0.67945   0.67961   0.68024   0.68140
 Alpha virt. eigenvalues --    0.68335   0.68453   0.68497   0.68653   0.68699
 Alpha virt. eigenvalues --    0.68785   0.68910   0.69027   0.69080   0.69206
 Alpha virt. eigenvalues --    0.69235   0.69256   0.69475   0.69544   0.69602
 Alpha virt. eigenvalues --    0.69671   0.69753   0.69796   0.69839   0.69975
 Alpha virt. eigenvalues --    0.70168   0.70259   0.70375   0.70498   0.70604
 Alpha virt. eigenvalues --    0.70674   0.70855   0.70929   0.71126   0.71330
 Alpha virt. eigenvalues --    0.71449   0.71624   0.71667   0.71771   0.71973
 Alpha virt. eigenvalues --    0.72148   0.72381   0.72568   0.72865   0.73013
 Alpha virt. eigenvalues --    0.73168   0.73379   0.73412   0.73547   0.73621
 Alpha virt. eigenvalues --    0.74033   0.74264   0.74370   0.74695   0.74762
 Alpha virt. eigenvalues --    0.74863   0.75047   0.75125   0.75214   0.75537
 Alpha virt. eigenvalues --    0.75724   0.76034   0.76174   0.76482   0.76687
 Alpha virt. eigenvalues --    0.76838   0.77023   0.77539   0.77603   0.77950
 Alpha virt. eigenvalues --    0.78298   0.78482   0.78535   0.78786   0.79016
 Alpha virt. eigenvalues --    0.79489   0.79735   0.80006   0.80259   0.80540
 Alpha virt. eigenvalues --    0.80573   0.81024   0.81102   0.81412   0.81594
 Alpha virt. eigenvalues --    0.81790   0.81976   0.82138   0.82316   0.82602
 Alpha virt. eigenvalues --    0.82793   0.83531   0.83671   0.83870   0.84035
 Alpha virt. eigenvalues --    0.84387   0.84849   0.84991   0.85630   0.86002
 Alpha virt. eigenvalues --    0.86202   0.86451   0.86511   0.86842   0.87119
 Alpha virt. eigenvalues --    0.87272   0.87651   0.87723   0.87934   0.88290
 Alpha virt. eigenvalues --    0.88676   0.88957   0.89783   0.89883   0.90001
 Alpha virt. eigenvalues --    0.90219   0.90497   0.90825   0.91126   0.91539
 Alpha virt. eigenvalues --    0.91864   0.92088   0.92793   0.92927   0.93113
 Alpha virt. eigenvalues --    0.93360   0.93451   0.93691   0.93817   0.94179
 Alpha virt. eigenvalues --    0.94504   0.94878   0.95186   0.95262   0.95843
 Alpha virt. eigenvalues --    0.96033   0.96293   0.96712   0.97080   0.97258
 Alpha virt. eigenvalues --    0.97510   0.97715   0.98028   0.98246   0.98391
 Alpha virt. eigenvalues --    0.98780   0.99042   0.99272   0.99490   0.99952
 Alpha virt. eigenvalues --    1.00447   1.00655   1.00804   1.00927   1.01075
 Alpha virt. eigenvalues --    1.01413   1.02222   1.02524   1.02619   1.03103
 Alpha virt. eigenvalues --    1.03365   1.03406   1.03711   1.04316   1.04596
 Alpha virt. eigenvalues --    1.04683   1.05042   1.05244   1.05561   1.05914
 Alpha virt. eigenvalues --    1.06295   1.06562   1.06775   1.07127   1.07604
 Alpha virt. eigenvalues --    1.07709   1.07863   1.08173   1.08313   1.08471
 Alpha virt. eigenvalues --    1.08896   1.09082   1.09130   1.09355   1.09574
 Alpha virt. eigenvalues --    1.09900   1.10279   1.10590   1.10767   1.11034
 Alpha virt. eigenvalues --    1.11244   1.11600   1.11889   1.12197   1.12309
 Alpha virt. eigenvalues --    1.12559   1.12803   1.13348   1.13447   1.13820
 Alpha virt. eigenvalues --    1.14121   1.14355   1.14530   1.15381   1.15471
 Alpha virt. eigenvalues --    1.15898   1.16043   1.16223   1.16621   1.16854
 Alpha virt. eigenvalues --    1.17039   1.17196   1.17270   1.17433   1.17792
 Alpha virt. eigenvalues --    1.18534   1.18726   1.18913   1.19054   1.19328
 Alpha virt. eigenvalues --    1.19414   1.19574   1.19879   1.20258   1.20701
 Alpha virt. eigenvalues --    1.20964   1.21005   1.21357   1.21456   1.21870
 Alpha virt. eigenvalues --    1.21993   1.22281   1.22822   1.22942   1.23298
 Alpha virt. eigenvalues --    1.23429   1.23800   1.23963   1.24348   1.24564
 Alpha virt. eigenvalues --    1.24677   1.24980   1.25212   1.25498   1.25624
 Alpha virt. eigenvalues --    1.25875   1.26049   1.26172   1.26314   1.26377
 Alpha virt. eigenvalues --    1.26915   1.27205   1.27544   1.27828   1.27907
 Alpha virt. eigenvalues --    1.28188   1.28338   1.28504   1.28835   1.29035
 Alpha virt. eigenvalues --    1.29315   1.29545   1.29719   1.30211   1.30749
 Alpha virt. eigenvalues --    1.31241   1.31810   1.32203   1.32616   1.33039
 Alpha virt. eigenvalues --    1.33158   1.33510   1.33682   1.34333   1.34497
 Alpha virt. eigenvalues --    1.34681   1.34755   1.34977   1.35349   1.35651
 Alpha virt. eigenvalues --    1.36406   1.36633   1.36782   1.36962   1.37439
 Alpha virt. eigenvalues --    1.37523   1.37655   1.38122   1.38413   1.38588
 Alpha virt. eigenvalues --    1.39332   1.39501   1.39741   1.39977   1.40184
 Alpha virt. eigenvalues --    1.40767   1.40831   1.41309   1.41470   1.41849
 Alpha virt. eigenvalues --    1.42158   1.42476   1.42795   1.43116   1.43420
 Alpha virt. eigenvalues --    1.43490   1.43629   1.44049   1.44557   1.44752
 Alpha virt. eigenvalues --    1.44929   1.45441   1.45541   1.45689   1.45885
 Alpha virt. eigenvalues --    1.46185   1.46215   1.46652   1.46773   1.47424
 Alpha virt. eigenvalues --    1.47670   1.47818   1.48057   1.48267   1.48557
 Alpha virt. eigenvalues --    1.49838   1.50086   1.50255   1.50413   1.50939
 Alpha virt. eigenvalues --    1.51266   1.51481   1.51861   1.51882   1.52420
 Alpha virt. eigenvalues --    1.52513   1.52689   1.52775   1.53110   1.53537
 Alpha virt. eigenvalues --    1.54085   1.54166   1.54393   1.54826   1.55226
 Alpha virt. eigenvalues --    1.55646   1.56227   1.56251   1.56591   1.56793
 Alpha virt. eigenvalues --    1.56960   1.58471   1.58731   1.59381   1.59697
 Alpha virt. eigenvalues --    1.60270   1.60616   1.61115   1.61625   1.62019
 Alpha virt. eigenvalues --    1.62055   1.62477   1.62719   1.63083   1.63127
 Alpha virt. eigenvalues --    1.63677   1.64035   1.64272   1.64428   1.64844
 Alpha virt. eigenvalues --    1.64998   1.65305   1.65357   1.65522   1.66464
 Alpha virt. eigenvalues --    1.66543   1.66598   1.67131   1.67283   1.67364
 Alpha virt. eigenvalues --    1.67511   1.67722   1.67936   1.68165   1.68565
 Alpha virt. eigenvalues --    1.68660   1.69040   1.69227   1.69589   1.69624
 Alpha virt. eigenvalues --    1.70055   1.70104   1.70293   1.70711   1.71014
 Alpha virt. eigenvalues --    1.71220   1.71340   1.71584   1.71806   1.72401
 Alpha virt. eigenvalues --    1.72537   1.72739   1.72952   1.73277   1.73359
 Alpha virt. eigenvalues --    1.73423   1.73770   1.74072   1.74111   1.74181
 Alpha virt. eigenvalues --    1.74576   1.74655   1.75094   1.75156   1.75214
 Alpha virt. eigenvalues --    1.75387   1.75684   1.76001   1.76122   1.76466
 Alpha virt. eigenvalues --    1.76644   1.76689   1.77063   1.77171   1.77204
 Alpha virt. eigenvalues --    1.77354   1.77440   1.77590   1.77956   1.78026
 Alpha virt. eigenvalues --    1.78151   1.78383   1.78509   1.78600   1.78805
 Alpha virt. eigenvalues --    1.78833   1.78945   1.78969   1.79316   1.79575
 Alpha virt. eigenvalues --    1.79964   1.80032   1.80051   1.80239   1.80363
 Alpha virt. eigenvalues --    1.80484   1.80594   1.80651   1.80897   1.81051
 Alpha virt. eigenvalues --    1.81129   1.81364   1.81551   1.81734   1.81906
 Alpha virt. eigenvalues --    1.82097   1.82144   1.82206   1.82766   1.82901
 Alpha virt. eigenvalues --    1.82998   1.83056   1.83293   1.83590   1.83717
 Alpha virt. eigenvalues --    1.83789   1.83929   1.84263   1.84494   1.84637
 Alpha virt. eigenvalues --    1.84783   1.85074   1.85122   1.85408   1.85753
 Alpha virt. eigenvalues --    1.85793   1.86013   1.86085   1.86514   1.86620
 Alpha virt. eigenvalues --    1.86708   1.87246   1.87323   1.87650   1.87804
 Alpha virt. eigenvalues --    1.87858   1.88005   1.88300   1.88424   1.88544
 Alpha virt. eigenvalues --    1.88652   1.88916   1.89199   1.89228   1.89318
 Alpha virt. eigenvalues --    1.90008   1.90122   1.90160   1.90224   1.90451
 Alpha virt. eigenvalues --    1.90621   1.90676   1.90993   1.91022   1.91395
 Alpha virt. eigenvalues --    1.91604   1.91660   1.91835   1.92220   1.92326
 Alpha virt. eigenvalues --    1.92505   1.92836   1.93216   1.93552   1.93789
 Alpha virt. eigenvalues --    1.93911   1.94108   1.94250   1.94342   1.94844
 Alpha virt. eigenvalues --    1.94933   1.95183   1.95459   1.95574   1.96059
 Alpha virt. eigenvalues --    1.96623   1.96817   1.96857   1.97056   1.97255
 Alpha virt. eigenvalues --    1.97440   1.97566   1.97878   1.98024   1.98228
 Alpha virt. eigenvalues --    1.98489   1.98663   1.98687   1.99040   1.99341
 Alpha virt. eigenvalues --    1.99942   2.00039   2.00349   2.00655   2.01082
 Alpha virt. eigenvalues --    2.01146   2.01215   2.01360   2.01624   2.01744
 Alpha virt. eigenvalues --    2.02080   2.02259   2.02818   2.03080   2.03327
 Alpha virt. eigenvalues --    2.03383   2.03610   2.03665   2.04099   2.04354
 Alpha virt. eigenvalues --    2.04651   2.05684   2.05866   2.06009   2.06209
 Alpha virt. eigenvalues --    2.06325   2.06434   2.06570   2.07026   2.07040
 Alpha virt. eigenvalues --    2.07284   2.07594   2.07660   2.07865   2.08443
 Alpha virt. eigenvalues --    2.09168   2.09585   2.09995   2.10032   2.10306
 Alpha virt. eigenvalues --    2.10653   2.10813   2.11395   2.11430   2.11474
 Alpha virt. eigenvalues --    2.11715   2.12332   2.12485   2.12731   2.12902
 Alpha virt. eigenvalues --    2.13015   2.13278   2.13476   2.13919   2.14022
 Alpha virt. eigenvalues --    2.14119   2.14231   2.14487   2.15136   2.15183
 Alpha virt. eigenvalues --    2.15202   2.15537   2.15569   2.15807   2.15994
 Alpha virt. eigenvalues --    2.16048   2.16340   2.16918   2.17171   2.17485
 Alpha virt. eigenvalues --    2.17751   2.18430   2.18571   2.18921   2.19119
 Alpha virt. eigenvalues --    2.20036   2.20056   2.20392   2.20574   2.20757
 Alpha virt. eigenvalues --    2.21107   2.21729   2.22040   2.22435   2.22987
 Alpha virt. eigenvalues --    2.23398   2.23615   2.23949   2.24536   2.24838
 Alpha virt. eigenvalues --    2.24950   2.25170   2.25850   2.25883   2.25951
 Alpha virt. eigenvalues --    2.26072   2.26393   2.26867   2.27391   2.27932
 Alpha virt. eigenvalues --    2.28078   2.28236   2.28816   2.28969   2.29003
 Alpha virt. eigenvalues --    2.29476   2.30177   2.30290   2.30629   2.30988
 Alpha virt. eigenvalues --    2.31506   2.31539   2.32034   2.32300   2.32568
 Alpha virt. eigenvalues --    2.32750   2.32935   2.33591   2.33814   2.34411
 Alpha virt. eigenvalues --    2.34552   2.35088   2.35104   2.35537   2.35883
 Alpha virt. eigenvalues --    2.36188   2.36449   2.36820   2.36967   2.37278
 Alpha virt. eigenvalues --    2.37675   2.37950   2.38141   2.38584   2.39119
 Alpha virt. eigenvalues --    2.39400   2.39509   2.39738   2.40097   2.40825
 Alpha virt. eigenvalues --    2.40878   2.41113   2.41613   2.42080   2.42198
 Alpha virt. eigenvalues --    2.43050   2.43202   2.43605   2.43967   2.44214
 Alpha virt. eigenvalues --    2.44531   2.44953   2.45485   2.45641   2.45766
 Alpha virt. eigenvalues --    2.46530   2.47089   2.47176   2.47388   2.47521
 Alpha virt. eigenvalues --    2.47602   2.48039   2.48781   2.49112   2.49607
 Alpha virt. eigenvalues --    2.49731   2.49961   2.50236   2.50998   2.51317
 Alpha virt. eigenvalues --    2.51550   2.52017   2.52226   2.52855   2.53839
 Alpha virt. eigenvalues --    2.54048   2.54213   2.54613   2.54722   2.54845
 Alpha virt. eigenvalues --    2.54869   2.55223   2.55572   2.56060   2.56378
 Alpha virt. eigenvalues --    2.56950   2.56967   2.57127   2.57805   2.57993
 Alpha virt. eigenvalues --    2.58310   2.58688   2.59059   2.59218   2.59481
 Alpha virt. eigenvalues --    2.59752   2.60058   2.60135   2.60459   2.61076
 Alpha virt. eigenvalues --    2.61333   2.61472   2.61798   2.62173   2.62310
 Alpha virt. eigenvalues --    2.62508   2.62768   2.63376   2.63557   2.63631
 Alpha virt. eigenvalues --    2.64009   2.64272   2.64813   2.64861   2.65554
 Alpha virt. eigenvalues --    2.65943   2.66086   2.66305   2.66552   2.66796
 Alpha virt. eigenvalues --    2.66965   2.67106   2.67824   2.68557   2.69177
 Alpha virt. eigenvalues --    2.69242   2.69380   2.70176   2.70232   2.70328
 Alpha virt. eigenvalues --    2.70553   2.70882   2.71260   2.71564   2.72135
 Alpha virt. eigenvalues --    2.72471   2.72619   2.72825   2.72839   2.73062
 Alpha virt. eigenvalues --    2.73235   2.73283   2.73478   2.73687   2.73697
 Alpha virt. eigenvalues --    2.74296   2.74848   2.75109   2.75947   2.76274
 Alpha virt. eigenvalues --    2.76304   2.76560   2.76891   2.77135   2.77249
 Alpha virt. eigenvalues --    2.77533   2.77815   2.77905   2.78118   2.78370
 Alpha virt. eigenvalues --    2.78764   2.79265   2.79532   2.79734   2.79853
 Alpha virt. eigenvalues --    2.80428   2.80471   2.80536   2.80798   2.81022
 Alpha virt. eigenvalues --    2.81199   2.81381   2.81574   2.81903   2.82304
 Alpha virt. eigenvalues --    2.83108   2.83605   2.83907   2.83961   2.84007
 Alpha virt. eigenvalues --    2.84482   2.84726   2.85003   2.85290   2.85617
 Alpha virt. eigenvalues --    2.86168   2.86255   2.86487   2.86789   2.86849
 Alpha virt. eigenvalues --    2.87047   2.87888   2.88147   2.88294   2.88631
 Alpha virt. eigenvalues --    2.89203   2.89249   2.89754   2.89802   2.90554
 Alpha virt. eigenvalues --    2.90709   2.91269   2.91809   2.92170   2.92273
 Alpha virt. eigenvalues --    2.92348   2.92445   2.92717   2.92847   2.93126
 Alpha virt. eigenvalues --    2.93721   2.94140   2.94163   2.94406   2.94763
 Alpha virt. eigenvalues --    2.95110   2.95439   2.95675   2.95697   2.95892
 Alpha virt. eigenvalues --    2.96116   2.97036   2.97192   2.97634   2.97879
 Alpha virt. eigenvalues --    2.98036   2.98228   2.98256   2.99485   2.99826
 Alpha virt. eigenvalues --    2.99917   2.99952   3.00025   3.00465   3.00636
 Alpha virt. eigenvalues --    3.00785   3.00814   3.01466   3.02273   3.02362
 Alpha virt. eigenvalues --    3.02454   3.02659   3.03166   3.03632   3.04030
 Alpha virt. eigenvalues --    3.05084   3.05276   3.05369   3.06430   3.06822
 Alpha virt. eigenvalues --    3.07328   3.07596   3.08103   3.08242   3.08296
 Alpha virt. eigenvalues --    3.08446   3.09476   3.09507   3.10604   3.10899
 Alpha virt. eigenvalues --    3.11701   3.12756   3.12898   3.13674   3.14070
 Alpha virt. eigenvalues --    3.14679   3.14779   3.15020   3.15294   3.15669
 Alpha virt. eigenvalues --    3.15869   3.15976   3.16361   3.16841   3.16876
 Alpha virt. eigenvalues --    3.17015   3.17217   3.17960   3.18822   3.18881
 Alpha virt. eigenvalues --    3.19248   3.19703   3.19841   3.20131   3.20495
 Alpha virt. eigenvalues --    3.20777   3.21105   3.21487   3.21906   3.22662
 Alpha virt. eigenvalues --    3.22725   3.22941   3.23630   3.23732   3.23976
 Alpha virt. eigenvalues --    3.24152   3.24623   3.25469   3.25535   3.25698
 Alpha virt. eigenvalues --    3.25739   3.25766   3.26165   3.26969   3.27479
 Alpha virt. eigenvalues --    3.28547   3.29662   3.30276   3.31392   3.31824
 Alpha virt. eigenvalues --    3.32155   3.32941   3.32977   3.34726   3.35471
 Alpha virt. eigenvalues --    3.36164   3.36673   3.40136   3.45172   3.46510
 Alpha virt. eigenvalues --    3.53660   3.53900   3.53928   3.55236   3.55532
 Alpha virt. eigenvalues --    3.56146   3.56765   3.56923   3.57380   3.59208
 Alpha virt. eigenvalues --    3.60200   3.60416   3.62326   3.62918   3.63465
 Alpha virt. eigenvalues --    3.64126   3.64294   3.66727   3.66844   3.67356
 Alpha virt. eigenvalues --    3.67577   3.67864   3.68054   3.68387   3.69112
 Alpha virt. eigenvalues --    3.69716   3.70153   3.70192   3.70601   3.70702
 Alpha virt. eigenvalues --    3.70895   3.71189   3.71740   3.72671   3.74121
 Alpha virt. eigenvalues --    3.74597   3.77102   3.78176   3.80731
          Condensed to atoms (all electrons):
 Mulliken charges:
               1
     1  C    0.056595
     2  C    0.005540
     3  O   -0.305671
     4  H    0.024525
     5  H    0.015189
     6  H    0.009388
     7  N   -0.134725
     8  C    0.135568
     9  C    0.061853
    10  O   -0.302758
    11  C    0.074372
    12  C    0.066604
    13  O   -0.393468
    14  O   -0.322209
    15  H    0.115721
    16  H   -0.030578
    17  H    0.017317
    18  H    0.001214
    19  N   -0.127437
    20  C    0.083953
    21  C    0.081991
    22  O   -0.224138
    23  C    0.049665
    24  C   -0.028193
    25  C   -0.042336
    26  C    0.049098
    27  N    0.067327
    28  H    0.111326
    29  H   -0.006731
    30  H    0.020156
    31  H    0.023697
    32  H    0.004395
    33  H   -0.018098
    34  H    0.046540
    35  H    0.068879
    36  H    0.059135
    37  H    0.082662
    38  H    0.186297
    39  H    0.192182
    40  H    0.197758
    41  N   -0.152867
    42  C    0.141108
    43  C    0.087735
    44  O   -0.242173
    45  C    0.050201
    46  C    0.160331
    47  O   -0.496967
    48  O   -0.367704
    49  H    0.116369
    50  H    0.000644
    51  H    0.004387
    52  H    0.006516
    53  N   -0.169765
    54  C    0.196014
    55  C    0.017965
    56  O   -0.274269
    57  H    0.124043
    58  H    0.053197
    59  H    0.021524
    60  N   -0.101380
    61  C    0.104315
    62  C    0.041724
    63  O   -0.292617
    64  C    0.157322
    65  C   -0.039377
    66  N   -0.044690
    67  O   -0.275743
    68  H    0.121287
    69  H    0.017779
    70  H   -0.002212
    71  H    0.067451
    72  H    0.119272
    73  H    0.120013
    74  N   -0.123457
    75  C    0.201687
    76  C    0.056318
    77  O   -0.261867
    78  H    0.128468
    79  H    0.035283
    80  H    0.012169
    81  N   -0.130159
    82  C    0.122559
    83  C    0.043239
    84  O   -0.311816
    85  C    0.136628
    86  C   -0.060637
    87  C    0.012699
    88  C   -0.023300
    89  C   -0.019871
    90  C   -0.048673
    91  C    0.182573
    92  O   -0.211963
    93  H    0.126007
    94  H    0.016224
    95  H   -0.003300
    96  H    0.039089
    97  H   -0.011900
    98  H   -0.028695
    99  H   -0.006002
   100  H   -0.037902
   101  H    0.183484
   102  N   -0.098925
   103  C    0.195049
   104  C    0.032795
   105  O   -0.283148
   106  C   -0.106216
   107  C   -0.002691
   108  C    0.083217
   109  C    0.038223
   110  H    0.123353
   111  H   -0.007049
   112  H    0.003104
   113  H    0.006745
   114  H   -0.010971
   115  H    0.008883
   116  H   -0.039525
   117  H    0.030366
   118  H   -0.001704
   119  H    0.006934
   120  H    0.014059
   121  N   -0.155078
   122  C    0.132620
   123  C    0.036589
   124  O   -0.276058
   125  C    0.205841
   126  O   -0.302988
   127  H    0.157035
   128  H    0.015391
   129  H    0.024481
   130  H   -0.000477
   131  H    0.170154
   132  N   -0.130198
   133  C    0.060321
   134  C    0.053978
   135  O   -0.291770
   136  C    0.088335
   137  H    0.126101
   138  H    0.032132
   139  H    0.020792
   140  H   -0.002748
   141  H    0.033575
   142  N   -0.127597
   143  C    0.065129
   144  C    0.071162
   145  O   -0.260587
   146  C    0.060733
   147  H    0.130197
   148  H    0.003341
   149  H    0.050981
   150  H    0.021883
   151  H   -0.014847
   152  N   -0.158477
   153  C    0.131161
   154  C    0.083374
   155  O   -0.284837
   156  C   -0.034744
   157  C    0.150299
   158  C    0.046178
   159  O   -0.447087
   160  O   -0.388117
   161  H    0.121681
   162  H    0.008365
   163  H    0.004156
   164  H    0.038597
   165  H   -0.000316
   166  H   -0.039651
   167  N   -0.146037
   168  C    0.132477
   169  H    0.031489
   170  H    0.014251
   171  H    0.025475
   172  H    0.117850
   173  Ca   1.271651
   174  O   -0.288094
   175  H    0.164891
   176  H    0.195621
 Sum of Mulliken charges =  -0.00000
 Mulliken charges with hydrogens summed into heavy atoms:
               1
     1  C    0.105697
     2  C    0.005540
     3  O   -0.305671
     7  N   -0.019005
     8  C    0.104990
     9  C    0.061853
    10  O   -0.302758
    11  C    0.092904
    12  C    0.066604
    13  O   -0.393468
    14  O   -0.322209
    19  N   -0.016112
    20  C    0.077222
    21  C    0.081991
    22  O   -0.224138
    23  C    0.093518
    24  C   -0.041897
    25  C    0.073083
    26  C    0.190894
    27  N    0.643564
    41  N   -0.036498
    42  C    0.141752
    43  C    0.087735
    44  O   -0.242173
    45  C    0.061105
    46  C    0.160331
    47  O   -0.496967
    48  O   -0.367704
    53  N   -0.045722
    54  C    0.270736
    55  C    0.017965
    56  O   -0.274269
    60  N    0.019907
    61  C    0.122094
    62  C    0.041724
    63  O   -0.292617
    64  C    0.222560
    65  C   -0.039377
    66  N    0.194595
    67  O   -0.275743
    74  N    0.005010
    75  C    0.249140
    76  C    0.056318
    77  O   -0.261867
    81  N   -0.004152
    82  C    0.138783
    83  C    0.043239
    84  O   -0.311816
    85  C    0.172417
    86  C   -0.060637
    87  C    0.000799
    88  C   -0.051995
    89  C   -0.025873
    90  C   -0.086575
    91  C    0.182573
    92  O   -0.028478
   102  N    0.024428
   103  C    0.188001
   104  C    0.032795
   105  O   -0.283148
   106  C   -0.103113
   107  C   -0.006917
   108  C    0.082941
   109  C    0.057512
   121  N    0.001957
   122  C    0.148011
   123  C    0.036589
   124  O   -0.276058
   125  C    0.229845
   126  O   -0.132834
   132  N   -0.004097
   133  C    0.092453
   134  C    0.053978
   135  O   -0.291770
   136  C    0.139953
   142  N    0.002600
   143  C    0.068470
   144  C    0.071162
   145  O   -0.260587
   146  C    0.118751
   152  N   -0.036796
   153  C    0.139526
   154  C    0.083374
   155  O   -0.284837
   156  C    0.008009
   157  C    0.110332
   158  C    0.046178
   159  O   -0.447087
   160  O   -0.388117
   167  N   -0.028187
   168  C    0.203693
   173  Ca   1.271651
   174  O    0.072418
 DipInt: DoE/N= T F RetVal/Mat= T F Init=T NMatP=  1 IDeriv=0 Min/MaxMlt=  0  4
 Entering OneElI...
 OneElI was handed  1333951383 working-precision words.
 Multipole integrals L=0 to 4 MinM= 0 MaxM= 0.
 Requested accuracy = 0.1000D-12
 ShPair: Thresh= 1.00D-13 NBox=     0 BxSize= 0.00D+00 RnKept= 3.12D+01
         NSMCal=               327645 NSMKep=              119476
 PrmmSu-InSpLW:  IPartL=    0 NPrtUS=    1 NPrtUL=    1 DoSpLW=F IThBeg=    0 IThEnd=    0 NThAct=    1.
 PrsmSu:  NPrtUS=   1 ThrOK=F IAlg=1 NPAlg=1 LenDen=           0 ISkipM=0 DoSpLW=F IThBeg=    0 IThEnd=    0.
 Prism:   IPart=     0 DynPar=F LinDyn=F Incr=         512.
 PRISM was handed  1325487865 working-precision words and119476 shell-pairs
 IPart=  0 NShTot=      119476 NBatch=         280 AvBLen=       426.7
 PrsmSu-ThDecC:  IPartSL=    0    0 NPrtUSL=    1    1 IThBeg=    0 IThEnd=    0 CPU=   -1 GPU=   -1 NThAct=    1.
 PrSmSu:  NxtVal=            513.
 Electronic moments (au):
       -716.00000000         -7.26466005         11.23538393          7.45541650
     -81866.50552563     -52040.32649491     -14106.41863674        241.85639661
        -15.59824809         -0.24260783    -248140.31467699     -12938.88456429
     -31169.77012841     159669.10910099     163370.33300699     174325.60944617
     -46414.86163108     -27541.37566353      -6914.10849985     -45066.69861460
  -19995037.50485861   -7331013.20283112   -1062885.60357419      93582.72010439
    1633592.15576214    -942524.66911520     603994.39784742     240299.10903942
    -295723.19990865   -4485749.85438163   -1399958.82989489    -760247.68000410
    -356766.12973867    -212206.74629818     143578.73325148
 Electronic spatial extent (au):  <R**2>=         148013.2507
 DipInt: DoE/N= F T RetVal/Mat= T F Init=T NMatP=  1 IDeriv=0 Min/MaxMlt=  0  4
 Nuclear    moments (au):
        716.00000000         -0.00000000         -0.00000000          0.00000000
      81458.04784019      51574.37580355      13795.06504910         -0.00000000
          0.00000000          0.00000000     245209.47018468      13896.39423195
      32692.80078363    -159844.10128796    -160323.71888572    -173865.64074262
      46328.80201699      27918.37494835       7457.79321636      45202.85761485
   19703633.25217949    7137741.90810499    1037020.39585536     -13279.95606909
   -1628197.92980550     961399.80438490    -606828.29310815    -240969.77709301
     300821.10465065    4409383.21520508    1343835.78232895     726346.91681655
     354269.73821857     207798.88267567    -143722.26141481
 Total      moments (au):
         -0.00000000         -7.26466005         11.23538393          7.45541650
       -408.45768544       -465.95069136       -311.35358764        241.85639661
        -15.59824809         -0.24260783      -2930.84449231        957.50966766
       1523.03065523       -174.99218697       3046.61412127        459.96870355
        -86.05961409        376.99928482        543.68471651        136.15900025
    -291404.25267912    -193271.29472613     -25865.20771882      80302.76403530
       5394.22595663      18875.13526970      -2833.89526073       -670.66805359
       5097.90474200     -76366.63917655     -56123.04756594     -33900.76318755
      -2496.39152010      -4407.86362251       -143.52816333
 Traceless Quadrup. (au):
        -13.20369729        -70.69670321         83.90040051        241.85639661
        -15.59824809         -0.24260783
 Charge=             -0.0000 electrons
 Dipole moment (field-independent basis, Debye):
    X=            -18.4649    Y=             28.5575    Z=             18.9498  Tot=             38.9304
 Quadrupole moment (field-independent basis, Debye-Ang):
   XX=           -549.3896   YY=           -626.7196   ZZ=           -418.7812
   XY=            325.3051   XZ=            -20.9802   YZ=             -0.3263
 Traceless Quadrupole moment (field-independent basis, Debye-Ang):
   XX=            -17.7594   YY=            -95.0895   ZZ=            112.8489
   XY=            325.3051   XZ=            -20.9802   YZ=             -0.3263
 Octapole moment (field-independent basis, Debye-Ang**2):
  XXX=          -2086.0622  YYY=            681.5185  ZZZ=           1084.0345  XYY=           -124.5527
  XXY=           2168.4626  XXZ=            327.3880  XZZ=            -61.2539  YZZ=            268.3336
  YYZ=            386.9738  XYZ=             96.9127
 Hexadecapole moment (field-independent basis, Debye-Ang**3):
 XXXX=        -109756.8149 YYYY=         -72795.2373 ZZZZ=          -9742.0775 XXXY=          30245.8716
 XXXZ=           2031.7242 YYYX=           7109.2810 YYYZ=          -1067.3808 ZZZX=           -252.6057
 ZZZY=           1920.1154 XXYY=         -28763.3382 XXZZ=         -21138.6309 YYZZ=         -12768.6530
 XXYZ=           -940.2608 YYXZ=          -1660.2128 ZZXY=            -54.0596
 N-N= 1.852980762657D+04 E-N=-4.954033108307D+04  KE= 5.290523059093D+03
 Leave Link  601 at Tue Sep 17 10:22:32 2019, MaxMem=  1342177280 cpu:              47.9 elap:               1.2
 FitSet:  NAtFit=   176 NAtPot=   176 NAtFrz=     0 MDM=   180 TotChg=   0.00000
 Merz-Kollman atomic radii used.
 Read replacement radii for each type of atom:
 Rad(20) =   1.700000000000D+00
 Atom Element Radius
    1     6    1.50
    2     6    1.50
    3     8    1.40
    4     1    1.20
    5     1    1.20
    6     1    1.20
    7     7    1.50
    8     6    1.50
    9     6    1.50
   10     8    1.40
   11     6    1.50
   12     6    1.50
   13     8    1.40
   14     8    1.40
   15     1    1.20
   16     1    1.20
   17     1    1.20
   18     1    1.20
   19     7    1.50
   20     6    1.50
   21     6    1.50
   22     8    1.40
   23     6    1.50
   24     6    1.50
   25     6    1.50
   26     6    1.50
   27     7    1.50
   28     1    1.20
   29     1    1.20
   30     1    1.20
   31     1    1.20
   32     1    1.20
   33     1    1.20
   34     1    1.20
   35     1    1.20
   36     1    1.20
   37     1    1.20
   38     1    1.20
   39     1    1.20
   40     1    1.20
   41     7    1.50
   42     6    1.50
   43     6    1.50
   44     8    1.40
   45     6    1.50
   46     6    1.50
   47     8    1.40
   48     8    1.40
   49     1    1.20
   50     1    1.20
   51     1    1.20
   52     1    1.20
   53     7    1.50
   54     6    1.50
   55     6    1.50
   56     8    1.40
   57     1    1.20
   58     1    1.20
   59     1    1.20
   60     7    1.50
   61     6    1.50
   62     6    1.50
   63     8    1.40
   64     6    1.50
   65     6    1.50
   66     7    1.50
   67     8    1.40
   68     1    1.20
   69     1    1.20
   70     1    1.20
   71     1    1.20
   72     1    1.20
   73     1    1.20
   74     7    1.50
   75     6    1.50
   76     6    1.50
   77     8    1.40
   78     1    1.20
   79     1    1.20
   80     1    1.20
   81     7    1.50
   82     6    1.50
   83     6    1.50
   84     8    1.40
   85     6    1.50
   86     6    1.50
   87     6    1.50
   88     6    1.50
   89     6    1.50
   90     6    1.50
   91     6    1.50
   92     8    1.40
   93     1    1.20
   94     1    1.20
   95     1    1.20
   96     1    1.20
   97     1    1.20
   98     1    1.20
   99     1    1.20
  100     1    1.20
  101     1    1.20
  102     7    1.50
  103     6    1.50
  104     6    1.50
  105     8    1.40
  106     6    1.50
  107     6    1.50
  108     6    1.50
  109     6    1.50
  110     1    1.20
  111     1    1.20
  112     1    1.20
[...]
 **** Fit       0.065385
 **** Fit       0.066075
 **** Fit       0.066822
 **** Fit       0.062638
 **** Fit       0.062658
 **** Fit       0.062097
 **** Fit       0.061033
 **** Fit       0.059702
 **** Fit       0.058508
 **** Fit       0.080005
 **** Fit       0.076690
 **** Fit       0.073330
 **** Fit       0.069932
 **** Fit       0.066643
 **** Fit       0.063684
 **** Fit       0.061287
 **** Fit       0.059634
 **** Fit       0.058798
 **** Fit       0.058727
 **** Fit       0.059261
 **** Fit       0.060173
 **** Fit       0.061204
 **** Fit       0.062100
 **** Fit       0.057818
 **** Fit       0.057748
 **** Fit       0.056876
 **** Fit       0.055196
 **** Fit       0.052836
 **** Fit       0.050067
 **** Fit       0.047274
 **** Fit       0.077034
 **** Fit       0.074144
 **** Fit       0.070941
 **** Fit       0.067442
 **** Fit       0.063780
 **** Fit       0.060178
 **** Fit       0.056904
 **** Fit       0.054234
 **** Fit       0.052384
 **** Fit       0.051454
 **** Fit       0.051406
 **** Fit       0.052084
 **** Fit       0.053259
 **** Fit       0.054676
 **** Fit       0.056073
 **** Fit       0.057198
 **** Fit       0.052760
 **** Fit       0.052723
 **** Fit       0.051716
 **** Fit       0.049672
 **** Fit       0.046641
 **** Fit       0.042811
 **** Fit       0.038518
 **** Fit       0.034207
 **** Fit       0.074221
 **** Fit       0.071591
 **** Fit       0.068500
 **** Fit       0.064930
 **** Fit       0.060979
 **** Fit       0.056827
 **** Fit       0.052730
 **** Fit       0.048997
 **** Fit       0.045942
 **** Fit       0.043822
 **** Fit       0.042766
 **** Fit       0.042742
 **** Fit       0.043583
 **** Fit       0.045044
 **** Fit       0.046865
 **** Fit       0.048790
 **** Fit       0.050575
 **** Fit       0.051976
 **** Fit       0.047305
 **** Fit       0.047409
 **** Fit       0.046406
 **** Fit       0.044181
 **** Fit       0.040712
 **** Fit       0.036101
 **** Fit       0.030611
 **** Fit       0.071485
 **** Fit       0.068981
 **** Fit       0.065943
 **** Fit       0.062313
 **** Fit       0.058133
 **** Fit       0.053529
 **** Fit       0.048703
 **** Fit       0.043939
 **** Fit       0.039586
 **** Fit       0.036014
 **** Fit       0.033541
 **** Fit       0.032333
 **** Fit       0.032358
 **** Fit       0.033415
 **** Fit       0.035213
 **** Fit       0.037464
 **** Fit       0.039916
 **** Fit       0.042349
 **** Fit       0.044546
 **** Fit       0.046277
 **** Fit       0.041282
 **** Fit       0.041628
 **** Fit       0.040643
 **** Fit       0.038152
 **** Fit       0.034062
 **** Fit       0.028404
 **** Fit       0.070541
 **** Fit       0.068342
 **** Fit       0.065724
 **** Fit       0.062459
 **** Fit       0.058462
 **** Fit       0.053747
 **** Fit       0.048406
 **** Fit       0.042620
 **** Fit       0.036667
 **** Fit       0.030945
 **** Fit       0.022704
 **** Fit       0.025463
 **** Fit       0.028541
 **** Fit       0.031713
 **** Fit       0.034798
 **** Fit       0.037591
 **** Fit       0.039845
 **** Fit       0.034492
 **** Fit       0.035238
 **** Fit       0.034434
 **** Fit       0.031836
 **** Fit       0.027273
 **** Fit       0.067051
 **** Fit       0.064868
 **** Fit       0.062139
 **** Fit       0.058649
 **** Fit       0.054290
 **** Fit       0.049040
 **** Fit       0.042946
 **** Fit       0.036136
 **** Fit       0.028844
 **** Fit       0.018490
 **** Fit       0.022359
 **** Fit       0.026119
 **** Fit       0.029592
 **** Fit       0.032496
 **** Fit       0.026669
 **** Fit       0.028046
 **** Fit       0.027575
 **** Fit       0.024937
 **** Fit       0.019872
 **** Fit       0.065505
 **** Fit       0.063806
 **** Fit       0.061874
 **** Fit       0.059358
 **** Fit       0.056009
 **** Fit       0.051663
 **** Fit       0.046229
 **** Fit       0.039675
 **** Fit       0.032033
 **** Fit       0.011093
 **** Fit       0.015619
 **** Fit       0.019994
 **** Fit       0.023834
 **** Fit       0.017451
 **** Fit       0.019802
 **** Fit       0.019975
 **** Fit       0.017597
 **** Fit       0.060648
 **** Fit       0.059498
 **** Fit       0.057985
 **** Fit       0.055836
 **** Fit       0.052804
 **** Fit       0.048685
 **** Fit       0.043326
 **** Fit       0.036624
 **** Fit       0.028510
 **** Fit       0.008252
 **** Fit       0.013398
 **** Fit       0.006343
 **** Fit       0.010276
 **** Fit       0.011403
 **** Fit       0.009322
 **** Fit       0.054460
 **** Fit       0.054363
 **** Fit       0.053855
 **** Fit       0.052829
 **** Fit       0.051062
 **** Fit       0.048295
 **** Fit       0.044277
 **** Fit       0.038792
 **** Fit       0.031658
 **** Fit       0.022710
 **** Fit      -0.000886
 **** Fit       0.001809
 **** Fit       0.000546
 **** Fit       0.041977
 **** Fit       0.044461
 **** Fit       0.045887
 **** Fit       0.046605
 **** Fit       0.046770
 **** Fit       0.046342
 **** Fit       0.045127
 **** Fit       0.042849
 **** Fit       0.039208
 **** Fit       0.033922
 **** Fit       0.026733
 **** Fit      -0.008857
 **** Fit       0.035063
 **** Fit       0.036708
 **** Fit       0.037760
 **** Fit       0.038271
 **** Fit       0.038122
 **** Fit       0.037046
 **** Fit       0.034688
 **** Fit       0.030673
 **** Fit       0.024650
 **** Fit       0.016277
 **** Fit       0.026283
 **** Fit       0.027608
 **** Fit       0.028478
 **** Fit       0.028672
 **** Fit       0.027827
 **** Fit       0.025502
 **** Fit       0.021249
 **** Fit       0.014656
 **** Fit       0.015731
 **** Fit       0.017210
 **** Fit       0.017914
 **** Fit       0.017329
 **** Fit       0.014875
 **** Fit       0.010005
 **** Fit       0.005803
 **** Fit       0.005707
 **** Fit       0.003292
 **** Fit      -0.002004
 **** Fit      -0.009066
 **** Fit       0.063276
 **** Fit       0.051640
 **** Fit       0.054345
 **** Fit       0.058047
 **** Fit       0.044454
 **** Fit       0.043475
 **** Fit       0.044114
 **** Fit       0.046199
 **** Fit       0.049516
 **** Fit       0.071147
 **** Fit       0.071613
 **** Fit       0.041880
 **** Fit       0.038433
 **** Fit       0.036752
 **** Fit       0.036711
 **** Fit       0.038139
 **** Fit       0.040853
 **** Fit       0.044668
 **** Fit       0.069575
 **** Fit       0.070468
 **** Fit       0.072550
 **** Fit       0.050317
 **** Fit       0.042076
 **** Fit       0.035892
 **** Fit       0.031791
 **** Fit       0.029658
 **** Fit       0.029291
 **** Fit       0.030459
 **** Fit       0.032937
 **** Fit       0.036532
 **** Fit       0.041076
 **** Fit       0.068231
 **** Fit       0.069414
 **** Fit       0.071919
 **** Fit       0.075803
 **** Fit       0.081048
 **** Fit       0.045469
 **** Fit       0.035330
 **** Fit       0.028067
 **** Fit       0.023540
 **** Fit       0.021451
 **** Fit       0.021422
 **** Fit       0.023072
 **** Fit       0.026069
 **** Fit       0.030160
 **** Fit       0.035154
 **** Fit       0.066922
 **** Fit       0.067675
 **** Fit       0.069914
 **** Fit       0.073813
 **** Fit       0.013561
 **** Fit       0.011782
 **** Fit       0.012425
 **** Fit       0.014875
 **** Fit       0.018639
 **** Fit       0.023374
 **** Fit       0.028862
 **** Fit       0.034965
 **** Fit       0.066365
 **** Fit       0.068362
 **** Fit       0.072199
 **** Fit       0.006144
 **** Fit       0.011447
 **** Fit       0.017412
 **** Fit       0.023819
 **** Fit       0.030566
 **** Fit       0.066181
 **** Fit       0.069280
 **** Fit       0.005172
 **** Fit       0.012942
 **** Fit       0.020597
 **** Fit       0.028157
 **** Fit       0.065423
 **** Fit       0.069202
 **** Fit       0.008927
 **** Fit       0.017772
 **** Fit       0.025951
 **** Fit       0.064421
 **** Fit       0.011173
 **** Fit       0.020680
 **** Fit       0.029008
 **** Fit       0.060142
 **** Fit       0.063822
 **** Fit       0.018586
 **** Fit       0.027419
 **** Fit       0.056243
 **** Fit       0.026846
 **** Fit       0.033898
 **** Fit       0.039438
 **** Fit       0.047349
 **** Fit       0.050965
 **** Fit       0.036541
 **** Fit       0.041729
 **** Fit       0.063421
 **** Fit       0.063016
 **** Fit       0.061886
 **** Fit       0.062636
 **** Fit       0.064093
 **** Fit       0.064763
 **** Fit       0.064443
 **** Fit       0.062855
 **** Fit       0.061044
 **** Fit       0.060096
 **** Fit       0.060522
 **** Fit       0.062073
 **** Fit       0.063864
 **** Fit       0.065094
 **** Fit       0.065677
 **** Fit       0.065971
 **** Fit       0.066094
 **** Fit       0.065763
 **** Fit       0.064649
 **** Fit       0.062952
 **** Fit       0.060708
 **** Fit       0.058893
 **** Fit       0.057982
 **** Fit       0.058241
 **** Fit       0.059627
 **** Fit       0.061751
 **** Fit       0.063967
 **** Fit       0.065648
 **** Fit       0.066532
 **** Fit       0.066818
 **** Fit       0.066914
 **** Fit       0.067106
 **** Fit       0.067423
 **** Fit       0.067658
 **** Fit       0.067497
 **** Fit       0.066665
 **** Fit       0.065084
 **** Fit       0.063367
 **** Fit       0.060567
 **** Fit       0.058044
 **** Fit       0.056217
 **** Fit       0.055402
 **** Fit       0.055770
 **** Fit       0.057308
 **** Fit       0.059781
 **** Fit       0.062715
 **** Fit       0.065474
 **** Fit       0.067466
 **** Fit       0.068430
 **** Fit       0.068549
 **** Fit       0.068275
 **** Fit       0.068053
 **** Fit       0.068134
 **** Fit       0.068552
 **** Fit       0.069164
 **** Fit       0.069707
 **** Fit       0.069874
 **** Fit       0.069386
 **** Fit       0.068085
 **** Fit       0.066001
 **** Fit       0.064216
 **** Fit       0.060646
 **** Fit       0.057304
 **** Fit       0.054595
 **** Fit       0.052848
 **** Fit       0.052293
 **** Fit       0.053046
 **** Fit       0.055088
 **** Fit       0.058233
 **** Fit       0.062073
 **** Fit       0.065974
 **** Fit       0.071098
 **** Fit       0.070193
 **** Fit       0.069444
 **** Fit       0.069169
 **** Fit       0.069460
 **** Fit       0.070230
 **** Fit       0.071277
 **** Fit       0.072315
 **** Fit       0.073015
 **** Fit       0.073055
 **** Fit       0.072189
 **** Fit       0.070329
 **** Fit       0.067577
 **** Fit       0.065696
 **** Fit       0.061168
 **** Fit       0.056858
 **** Fit       0.053162
 **** Fit       0.050405
 **** Fit       0.048829
 **** Fit       0.048591
 **** Fit       0.049775
 **** Fit       0.071313
 **** Fit       0.070494
 **** Fit       0.070473
 **** Fit       0.071198
 **** Fit       0.072506
 **** Fit       0.074159
 **** Fit       0.075858
 **** Fit       0.077254
 **** Fit       0.077983
 **** Fit       0.077724
 **** Fit       0.076280
 **** Fit       0.073641
 **** Fit       0.069997
 **** Fit       0.068135
 **** Fit       0.061989
 **** Fit       0.056164
 **** Fit       0.051126
 **** Fit       0.047237
 **** Fit       0.044753
 **** Fit       0.071809
 **** Fit       0.072678
 **** Fit       0.074465
 **** Fit       0.076906
 **** Fit       0.079671
 **** Fit       0.082355
 **** Fit       0.084478
 **** Fit       0.085536
 **** Fit       0.082957
 **** Fit       0.079163
 **** Fit       0.074051
 **** Fit       0.072089
 **** Fit       0.063656
 **** Fit       0.055764
 **** Fit       0.048949
 **** Fit       0.076845
 **** Fit       0.080299
 **** Fit       0.064937
 **** Fit       0.065713
 **** Fit       0.067657
 **** Fit       0.070830
 **** Fit       0.060963
 **** Fit       0.061214
 **** Fit       0.062152
 **** Fit       0.063499
 **** Fit       0.065201
 **** Fit       0.067390
 **** Fit       0.070385
 **** Fit       0.056842
 **** Fit       0.057462
 **** Fit       0.058512
 **** Fit       0.059757
 **** Fit       0.061096
 **** Fit       0.062523
 **** Fit       0.064107
 **** Fit       0.065993
 **** Fit       0.068429
 **** Fit       0.071795
 **** Fit       0.052806
 **** Fit       0.054060
 **** Fit       0.055486
 **** Fit       0.056933
 **** Fit       0.058339
 **** Fit       0.059694
 **** Fit       0.061031
 **** Fit       0.062415
 **** Fit       0.063953
 **** Fit       0.065809
 **** Fit       0.068230
 **** Fit       0.048937
 **** Fit       0.050759
 **** Fit       0.052546
 **** Fit       0.054221
 **** Fit       0.055758
 **** Fit       0.057165
 **** Fit       0.058467
 **** Fit       0.059705
 **** Fit       0.060936
 **** Fit       0.062237
 **** Fit       0.063721
 **** Fit       0.065550
 **** Fit       0.067956
 **** Fit       0.043963
 **** Fit       0.046485
 **** Fit       0.048819
 **** Fit       0.050914
 **** Fit       0.052767
 **** Fit       0.054402
 **** Fit       0.055856
 **** Fit       0.057171
 **** Fit       0.058394
 **** Fit       0.059582
 **** Fit       0.060805
 **** Fit       0.062162
 **** Fit       0.063790
 **** Fit       0.065893
 **** Fit       0.041666
 **** Fit       0.044657
 **** Fit       0.047256
 **** Fit       0.049494
 **** Fit       0.051417
 **** Fit       0.053080
 **** Fit       0.054540
 **** Fit       0.055848
 **** Fit       0.057056
 **** Fit       0.058218
 **** Fit       0.059402
 **** Fit       0.060693
 **** Fit       0.062218
 **** Fit       0.064156
 **** Fit       0.037240
 **** Fit       0.040943
 **** Fit       0.044062
 **** Fit       0.046676
 **** Fit       0.048871
 **** Fit       0.050730
 **** Fit       0.052328
 **** Fit       0.053734
 **** Fit       0.055007
 **** Fit       0.056207
 **** Fit       0.057396
 **** Fit       0.058651
 **** Fit       0.060080
 **** Fit       0.061840
 **** Fit       0.064169
 **** Fit       0.034976
 **** Fit       0.039200
 **** Fit       0.042632
 **** Fit       0.045424
 **** Fit       0.047714
 **** Fit       0.049622
 **** Fit       0.051251
 **** Fit       0.052690
 **** Fit       0.054016
 **** Fit       0.055305
 **** Fit       0.056646
 **** Fit       0.058156
 **** Fit       0.060008
 **** Fit       0.062473
 **** Fit       0.034607
 **** Fit       0.038982
 **** Fit       0.042422
 **** Fit       0.045153
 **** Fit       0.047361
 **** Fit       0.049201
 **** Fit       0.050802
 **** Fit       0.052274
 **** Fit       0.053727
 **** Fit       0.055288
 **** Fit       0.057131
 **** Fit       0.059523
 **** Fit       0.062900
 **** Fit       0.029393
 **** Fit       0.034919
 **** Fit       0.039139
 **** Fit       0.042392
 **** Fit       0.044949
 **** Fit       0.047027
 **** Fit       0.048807
 **** Fit       0.050444
 **** Fit       0.052095
 **** Fit       0.053945
 **** Fit       0.056253
 **** Fit       0.059428
 **** Fit       0.033791
 **** Fit       0.038345
 **** Fit       0.041758
 **** Fit       0.044401
 **** Fit       0.046578
 **** Fit       0.048551
 **** Fit       0.050587
 **** Fit       0.053014
 **** Fit       0.056311
 **** Fit       0.033469
 **** Fit       0.038124
 **** Fit       0.041587
 **** Fit       0.044325
 **** Fit       0.046762
 **** Fit       0.049341
 **** Fit       0.052629
 **** Fit       0.035880
 **** Fit       0.040149
 **** Fit       0.043561
 **** Fit       0.046832
 **** Fit       0.050866
 -----------------------------------------------------------------
 Leave Link  602 at Tue Sep 17 10:22:34 2019, MaxMem=  1342177280 cpu:             119.3 elap:               2.6

 Test job not archived.
 1\1\GINC-C490-134\SP\RB3LYP\SVP\C54H83Ca1N15O23\PENGZHI\17-Sep-2019\0\
 \#b3lyp/svp scf=(tight,noincore) Test #IOP(5/87=12) Density=Current Po
 p=(MK,readradii) iop(6/33=2) iop(6/42=6)\\Ng-293_loop3_49.0\\0,1\C,0,3
 9.64,81.66,66.73\C,0,39.58,81.64,65.21\O,0,40.01,82.6,64.57\H,0,39.802
 ,82.682,67.073\H,0,38.7,81.286,67.136\H,0,40.461,81.029,67.07\N,0,38.8
 7,80.65,64.66\C,0,38.64,80.63,63.23\C,0,38.47,79.19,62.76\O,0,38.1,78.
 36,63.59\C,0,37.36,81.44,63.05\C,0,36.95,81.69,61.6\O,0,37.85,81.61,60
 .74\O,0,35.77,81.98,61.3\H,0,38.53,79.92,65.28\H,0,39.49,81.04,62.69\H
 ,0,37.54,82.4,63.53\H,0,36.47,80.95,63.44\N,0,38.7,78.87,61.48\C,0,38.
 68,77.57,60.83\C,0,37.28,76.98,60.78\O,0,36.34,77.58,61.28\C,0,39.86,7
 6.7,61.25\C,0,41.29,77.23,61.21\C,0,41.84,77.48,59.8\C,0,43.31,77.87,5
 9.72\N,0,43.75,78.77,60.8\H,0,38.75,79.67,60.87\H,0,39.05,77.78,59.83\
 H,0,39.93,75.82,60.62\H,0,39.62,76.47,62.29\H,0,41.98,76.53,61.67\H,0,
 41.3,78.11,61.85\H,0,41.24,78.28,59.37\H,0,41.68,76.57,59.22\H,0,43.49
 ,78.47,58.83\H,0,43.96,76.99,59.68\H,0,43.76,78.33,61.71\H,0,44.71,79.
 04,60.62\H,0,43.13,79.54,60.96\N,0,37.11,75.9,60.02\C,0,35.89,75.24,59
 .57\C,0,34.77,75.2,60.6\O,0,33.7,75.74,60.33\C,0,36.31,73.94,58.9\C,0,
 37.53,73.78,58.01\O,0,37.42,72.94,57.09\O,0,38.62,74.37,58.21\H,0,37.9
 5,75.65,59.51\H,0,35.54,75.92,58.79\H,0,35.49,73.53,58.31\H,0,36.47,73
 .2,59.69\N,0,34.97,74.4,61.65\C,0,34.1,74.43,62.82\C,0,32.64,74.07,62.
 63\O,0,31.8,74.37,63.47\H,0,35.91,74.11,61.84\H,0,34.15,75.4,63.31\H,0
 ,34.53,73.72,63.53\N,0,32.33,73.38,61.53\C,0,31.13,72.62,61.23\C,0,31.
 53,71.29,60.62\O,0,32.5,71.17,59.87\C,0,30.26,73.4,60.25\C,0,28.95,72.
 68,59.97\N,0,28.64,72.45,58.69\O,0,28.17,72.28,60.83\H,0,33.14,73.14,6
 0.99\H,0,30.57,72.44,62.14\H,0,30.86,73.4,59.34\H,0,30.02,74.37,60.69\
 H,0,29.25,72.76,57.94\H,0,27.87,71.83,58.5\N,0,30.8,70.19,60.83\C,0,31
 .16,68.84,60.43\C,0,32.09,68.12,61.39\O,0,32.81,68.75,62.17\H,0,29.94,
 70.3,61.34\H,0,31.49,68.78,59.39\H,0,30.22,68.29,60.37\N,0,32.09,66.79
 ,61.34\C,0,32.55,65.87,62.36\C,0,34.03,65.95,62.69\O,0,34.57,65.19,63.
 49\C,0,31.71,65.89,63.64\C,0,30.23,65.75,63.41\C,0,29.31,66.75,63.77\C
 ,0,29.79,64.52,62.92\C,0,27.95,66.57,63.51\C,0,28.42,64.32,62.71\C,0,2
 7.49,65.35,62.96\O,0,26.18,65.17,62.63\H,0,31.67,66.36,60.53\H,0,32.52
 ,64.84,62.\H,0,31.82,66.9,64.04\H,0,32.07,65.25,64.45\H,0,29.74,67.7,6
 4.06\H,0,30.53,63.75,62.73\H,0,27.26,67.4,63.5\H,0,28.08,63.32,62.46\H
 ,0,25.87,64.3,62.35\N,0,34.78,66.91,62.15\C,0,36.2,67.15,62.31\C,0,37.
 09,66.07,61.71\O,0,38.02,66.43,60.99\C,0,36.5,67.67,63.72\C,0,35.83,69
 .02,63.98\C,0,37.97,68.02,63.92\C,0,35.54,69.31,65.45\H,0,34.29,67.51,
 61.5\H,0,36.28,68.,61.63\H,0,36.27,66.93,64.49\H,0,34.86,69.02,63.5\H,
 0,36.43,69.82,63.56\H,0,38.2,68.55,64.84\H,0,38.44,67.04,63.88\H,0,38.
 38,68.62,63.1\H,0,36.4,69.22,66.11\H,0,35.25,70.35,65.37\H,0,34.7,68.7
 4,65.86\N,0,36.93,64.78,62.01\C,0,37.65,63.63,61.5\C,0,39.09,63.58,61.
 98\O,0,39.95,62.92,61.41\C,0,36.88,62.39,61.94\O,0,36.55,62.54,63.3\H,
 0,36.19,64.58,62.67\H,0,37.7,63.67,60.41\H,0,37.46,61.49,61.73\H,0,35.
 92,62.36,61.42\H,0,36.76,61.68,63.68\N,0,39.37,64.27,63.09\C,0,40.64,6
 4.47,63.76\C,0,41.72,65.09,62.9\O,0,42.9,64.8,63.11\C,0,40.97,63.17,64
 .49\H,0,38.56,64.69,63.52\H,0,40.55,65.27,64.5\H,0,41.89,63.4,65.03\H,
 0,40.12,62.94,65.13\H,0,41.17,62.38,63.77\N,0,41.39,65.95,61.93\C,0,42
 .26,66.46,60.89\C,0,42.4,67.97,60.88\O,0,41.6,68.69,61.49\C,0,41.84,65
 .85,59.55\H,0,40.42,66.17,61.79\H,0,43.22,66.02,61.19\H,0,41.73,64.76,
 59.6\H,0,40.93,66.33,59.19\H,0,42.6,66.1,58.81\N,0,43.5,68.46,60.31\C,
 0,43.82,69.87,60.18\C,0,44.19,70.55,61.49\O,0,44.39,71.76,61.53\C,0,42
 .74,70.63,59.43\C,0,42.29,69.99,58.11\C,0,41.29,70.91,57.42\O,0,41.54,
 71.24,56.24\O,0,40.24,71.26,57.99\H,0,44.22,67.78,60.09\H,0,44.7,69.94
 ,59.53\H,0,43.18,71.61,59.29\H,0,41.81,70.8,59.98\H,0,41.84,69.01,58.2
 9\H,0,43.18,69.84,57.51\N,0,44.57,69.75,62.48\C,0,44.49,70.23,63.85\H,
 0,43.463,70.519,64.074\H,0,44.8,69.438,64.532\H,0,45.145,71.093,63.972
 \H,0,44.59,68.74,62.39\Ca,0,39.08,71.6,55.65\O,0,39.78,69.75,53.96\H,0
 ,39.58,70.1,53.1\H,0,39.76,68.8,53.84\\Version=ES64L-G16RevA.03\State=
 1-A\HF=-5333.3578338\RMSD=2.594e-10\Dipole=7.2594042,-10.8585569,-7.99
 90728\Quadrupole=94.8609641,-177.8671138,83.0061497,202.6816717,1.0371
 113,-0.3125198\PG=C01 [X(C54H83Ca1N15O23)]\\@


 THERE ARE PEOPLE SO ADDICTED TO EXAGERATING THEY
 CAN'T TELL THE TRUTH WITHOUT LYING. -- FORTUNE COOKIE
 Job cpu time:       0 days 11 hours 30 minutes 24.2 seconds.
 Elapsed time:       0 days  0 hours 14 minutes 35.4 seconds.
 File lengths (MBytes):  RWF=   1517 Int=      0 D2E=      0 Chk=    171 Scr=      1
 Normal termination of Gaussian 16 at Tue Sep 17 10:22:36 2019.
