 Entering Gaussian System, Link 0=g16
 Initial command:
 /home1/apps/gaussian/16rA.03/g16/l1.exe "/scratch/01990/pengzhi/4350474/Gau-399827.inp" -scrdir="/scratch/01990/pengzhi/4350474/"
 Entering Link 1 = /home1/apps/gaussian/16rA.03/g16/l1.exe PID=    399828.
  
 Copyright (c) 1988,1990,1992,1993,1995,1998,2003,2009,2016,
            Gaussian, Inc.  All Rights Reserved.
  
 This is part of the Gaussian(R) 16 program.  It is based on
 the Gaussian(R) 09 system (copyright 2009, Gaussian, Inc.),
 the Gaussian(R) 03 system (copyright 2003, Gaussian, Inc.),
 the Gaussian(R) 98 system (copyright 1998, Gaussian, Inc.),
 the Gaussian(R) 94 system (copyright 1995, Gaussian, Inc.),
 the Gaussian 92(TM) system (copyright 1992, Gaussian, Inc.),
 the Gaussian 90(TM) system (copyright 1990, Gaussian, Inc.),
 the Gaussian 88(TM) system (copyright 1988, Gaussian, Inc.),
 the Gaussian 86(TM) system (copyright 1986, Carnegie Mellon
 University), and the Gaussian 82(TM) system (copyright 1983,
 Carnegie Mellon University). Gaussian is a federally registered
 trademark of Gaussian, Inc.
  
 This software contains proprietary and confidential information,
 including trade secrets, belonging to Gaussian, Inc.
  
 This software is provided under written license and may be
 used, copied, transmitted, or stored only in accord with that
 written license.
  
 The following legend is applicable only to US Government
 contracts under FAR:
  
                    RESTRICTED RIGHTS LEGEND
  
 Use, reproduction and disclosure by the US Government is
 subject to restrictions as set forth in subparagraphs (a)
 and (c) of the Commercial Computer Software - Restricted
 Rights clause in FAR 52.227-19.
  
 Gaussian, Inc.
 340 Quinnipiac St., Bldg. 40, Wallingford CT 06492
  
  
 ---------------------------------------------------------------
 Warning -- This program may not be used in any manner that
 competes with the business of Gaussian, Inc. or will provide
 assistance to any competitor of Gaussian, Inc.  The licensee
 of this program is prohibited from giving any competitor of
 Gaussian, Inc. access to this program.  By using this program,
 the user acknowledges that Gaussian, Inc. is engaged in the
 business of creating and licensing software in the field of
 computational chemistry and represents and warrants to the
 licensee that it is not a competitor of Gaussian, Inc. and that
 it will not use this program in any manner prohibited above.
 ---------------------------------------------------------------
  

 Cite this work as:
 Gaussian 16, Revision A.03,
 M. J. Frisch, G. W. Trucks, H. B. Schlegel, G. E. Scuseria, 
 M. A. Robb, J. R. Cheeseman, G. Scalmani, V. Barone, 
 G. A. Petersson, H. Nakatsuji, X. Li, M. Caricato, A. V. Marenich, 
 J. Bloino, B. G. Janesko, R. Gomperts, B. Mennucci, H. P. Hratchian, 
 J. V. Ortiz, A. F. Izmaylov, J. L. Sonnenberg, D. Williams-Young, 
 F. Ding, F. Lipparini, F. Egidi, J. Goings, B. Peng, A. Petrone, 
 T. Henderson, D. Ranasinghe, V. G. Zakrzewski, J. Gao, N. Rega, 
 G. Zheng, W. Liang, M. Hada, M. Ehara, K. Toyota, R. Fukuda, 
 J. Hasegawa, M. Ishida, T. Nakajima, Y. Honda, O. Kitao, H. Nakai, 
 T. Vreven, K. Throssell, J. A. Montgomery, Jr., J. E. Peralta, 
 F. Ogliaro, M. J. Bearpark, J. J. Heyd, E. N. Brothers, K. N. Kudin, 
 V. N. Staroverov, T. A. Keith, R. Kobayashi, J. Normand, 
 K. Raghavachari, A. P. Rendell, J. C. Burant, S. S. Iyengar, 
 J. Tomasi, M. Cossi, J. M. Millam, M. Klene, C. Adamo, R. Cammi, 
 J. W. Ochterski, R. L. Martin, K. Morokuma, O. Farkas, 
 J. B. Foresman, and D. J. Fox, Gaussian, Inc., Wallingford CT, 2016.
 
 ******************************************
 Gaussian 16:  ES64L-G16RevA.03 25-Dec-2016
                17-Sep-2019 
 ******************************************
 %chk=Ng-295_loop3_14.0.chk
 %nprocshared=48
 Will use up to   48 processors via shared memory.
 %mem=10GB
 %nosave
 ----------------------------------------------------------------------
 #b3lyp/svp scf=(tight,noincore) Test #IOP(5/87=12) Density=Current Pop
 =(MK,readradii) iop(6/33=2) iop(6/42=6)
 ----------------------------------------------------------------------
 1/30=1,38=1,172=1/1;
 2/12=2,17=6,18=5,40=1/2;
 3/5=18,7=101,11=2,25=1,30=1,74=-5/1,2,3;
 4//1;
 5/5=4,32=2,38=5,87=12/2;
 6/7=2,8=2,9=2,10=2,15=8,20=101,22=-1,28=1,33=2,42=6/1,2;
 99/5=1,9=1/99;
 -----------------
 Ng-295_loop3_14.0
 -----------------
 Symbolic Z-matrix:
 Charge =  0 Multiplicity = 1
 C                    -4.128     58.6      27.52 
 C                    -3.578     57.18     27.43 
 O                    -4.138     56.23     27.97 
 H                    -5.094     58.584    28.024 
 H                    -3.435     59.224    28.084 
 H                    -4.25      59.007    26.516 
 N                    -2.418     57.01     26.79 
 C                    -1.678     55.79     26.51 
 C                    -0.298     55.79     27.15 
 O                     0.602     56.46     26.66 
 C                    -1.498     55.59     25.01 
 C                    -0.738     54.37     24.5 
 O                    -0.438     53.41     25.25 
 O                    -0.278     54.38     23.34 
 H                    -2.088     57.84     26.31 
 H                    -2.238     54.93     26.87 
 H                    -1.118     56.52     24.6 
 H                    -2.548     55.43     24.74 
 N                    -0.168     55.04     28.25 
 C                     0.822     55.22     29.29 
 C                     2.252     54.95     28.83 
 O                     3.182     55.31     29.56 
 C                     0.502     54.43     30.55 
 C                     0.892     52.96     30.43 
 C                     0.542     52.2      31.71 
 C                     0.972     50.76     31.46 
 N                     1.022     50.01     32.73 
 H                    -1.008     54.55     28.52 
 H                     0.732     56.26     29.6 
 H                    -0.518     54.68     30.84 
 H                     1.112     54.76     31.4 
 H                     1.942     52.84     30.19 
 H                     0.342     52.53     29.59 
 H                    -0.528     52.35     31.81 
 H                     1.142     52.6      32.54 
 H                     1.992     50.86     31.09 
 H                     0.312     50.22     30.77 
 H                     1.132     49.03     32.51 
 H                     1.762     50.31     33.35 
 H                     0.132     50.05     33.21 
 N                     2.482     54.32     27.68 
 C                     3.802     54.06     27.14 
 C                     4.102     55.19     26.16 
 O                     5.232     55.18     25.66 
 C                     3.862     52.73     26.4 
 C                     2.722     52.54     25.41 
 O                     2.422     53.45     24.62 
 O                     2.042     51.49     25.35 
 H                     1.692     54.08     27.1 
 H                     4.562     54.14     27.91 
 H                     3.712     51.92     27.11 
 H                     4.792     52.55     25.84 
 N                     3.292     56.22     25.89 
 C                     3.572     57.37     25.06 
 C                     3.802     57.09     23.58 
 O                     4.432     57.87     22.88 
 H                     2.362     56.15     26.28 
 H                     4.452     57.87     25.46 
 H                     2.672     57.98     25.15 
 N                     3.372     55.95     23.04 
 C                     3.642     55.51     21.68 
 C                     2.352     55.04     21.03 
 O                     1.822     53.98     21.33 
 C                     4.712     54.43     21.77 
 C                     5.132     53.93     20.39 
 N                     6.142     54.6      19.82 
 O                     4.582     53.03     19.77 
 H                     2.982     55.27     23.68 
 H                     4.042     56.3      21.04 
 H                     4.322     53.62     22.38 
 H                     5.562     54.9      22.26 
 H                     6.662     55.28     20.36 
 H                     6.212     54.63     18.82 
 N                     1.822     55.77     20.04 
 C                     0.452     55.61     19.58 
 C                     0.142     54.37     18.75 
 O                    -0.838     54.4      18. 
 H                     2.222     56.65     19.75 
 H                     0.152     56.5      19.04 
 H                    -0.148     55.53     20.49 
 N                     0.822     53.24     18.95 
 C                     0.652     51.93     18.36 
 C                     0.362     50.85     19.4 
 O                     0.692     50.99     20.58 
 C                     1.852     51.73     17.44 
 C                     2.072     52.66     16.27 
 C                     1.702     52.39     14.94 
 C                     2.892     53.76     16.57 
 C                     2.142     53.25     13.93 
 C                     3.252     54.68     15.58 
 C                     2.892     54.4      14.25 
 O                     3.242     55.3      13.28 
 H                     1.522     53.31     19.68 
 H                    -0.258     52.03     17.76 
 H                     1.662     50.73     17.06 
 H                     2.722     51.59     18.08 
 H                     1.192     51.49     14.64 
 H                     3.262     53.87     17.58 
 H                     1.962     53.02     12.89 
 H                     3.882     55.53     15.8 
 H                     3.812     55.98     13.66 
 N                    -0.408     49.87     18.93 
 C                    -0.868     48.72     19.68 
 C                     0.242     47.73     19.99 
 O                     1.202     48.08     20.68 
 C                    -1.818     49.07     20.83 
 C                    -2.288     47.79     21.51 
 C                    -2.948     50.01     20.42 
 C                    -3.188     47.96     22.73 
 H                    -0.448     49.88     17.92 
 H                    -1.528     48.21     18.97 
 H                    -1.188     49.56     21.58 
 H                    -1.468     47.17     21.9 
 H                    -2.728     47.2      20.71 
 H                    -2.488     50.9      19.99 
 H                    -3.538     49.59     19.61 
 H                    -3.448     50.35     21.33 
 H                    -4.168     48.26     22.36 
 H                    -3.228     46.98     23.21 
 H                    -2.798     48.71     23.41 
 N                     0.152     46.45     19.62 
 C                     1.102     45.42     20.01 
 C                     1.052     44.16     19.16 
 O                     1.852     43.27     19.41 
 C                     0.732     45.11     21.46 
 O                    -0.498     44.42     21.53 
 H                    -0.708     46.19     19.15 
 H                     2.132     45.78     19.97 
 H                     0.652     46.08     21.94 
 H                     1.502     44.51     21.94 
 H                    -0.678     44.21     22.45 
 N                     0.142     44.02     18.19 
 C                     0.002     42.84     17.36 
 C                     0.252     41.45     17.95 
 O                     1.162     40.74     17.54 
 C                     0.762     43.03     16.06 
 H                    -0.468     44.79     17.97 
 H                    -1.028     42.75     17. 
 H                     0.642     42.28     15.27 
 H                     0.532     44.       15.62 
 H                     1.812     42.97     16.36 
 N                    -0.458     40.98     18.98 
 C                    -1.508     41.54     19.8 
 C                    -2.898     41.27     19.24 
 O                    -3.138     40.15     18.8 
 C                    -1.398     40.88     21.17 
 H                    -0.198     40.03     19.2 
 H                    -1.348     42.61     19.88 
 H                    -1.558     39.81     21.11 
 H                    -0.458     41.07     21.69 
 H                    -2.248     41.07     21.82 
 N                    -3.898     42.15     19.29 
 C                    -4.018     43.44     19.94 
 C                    -4.788     44.38     19.02 
 O                    -4.328     45.47     18.7 
 C                    -4.718     43.37     21.3 
 C                    -4.738     44.74     21.96 
 C                    -5.718     44.83     23.12 
 O                    -6.728     45.56     23.07 
 O                    -5.498     44.06     24.08 
 H                    -4.778     41.77     18.96 
 H                    -3.028     43.86     20.1 
 H                    -4.178     42.75     22.01 
 H                    -5.748     43.03     21.15 
 H                    -4.968     45.53     21.24 
 H                    -3.698     44.77     22.3 
 N                    -5.928     43.85     18.58 
 C                    -6.798     44.44     17.58 
 H                    -7.687     44.843    18.065 
 H                    -6.27      45.243    17.066 
 H                    -7.092     43.678    16.858 
 H                    -6.378     43.16     19.16 
 Ca                    0.9       52.09     23.11 
 O                     3.17      50.88     22.27 
 H                     3.2       50.17     21.63 
 H                     4.09      51.01     22.53 
 
 Stoichiometry    C54H83CaN15O23
 Framework group  C1[X(C54H83CaN15O23)]
 Deg. of freedom   522
 Full point group                 C1      NOp   1
 Largest Abelian subgroup         C1      NOp   1
 Largest concise Abelian subgroup C1      NOp   1
                         Standard orientation:                         
 ---------------------------------------------------------------------
 Center     Atomic      Atomic             Coordinates (Angstroms)
 Number     Number       Type             X           Y           Z
 ---------------------------------------------------------------------
      1          6           0        8.129359   -3.351361    5.826183
      2          6           0        7.045461   -3.566573    4.774589
      3          8           0        6.373216   -4.593281    4.733894
      4          1           0        8.112007   -4.175041    6.539399
      5          1           0        9.104603   -3.311965    5.341344
      6          1           0        7.945579   -2.413733    6.351186
      7          7           0        6.891715   -2.617156    3.847729
      8          6           0        5.930716   -2.522806    2.760540
      9          6           0        6.601669   -2.491932    1.395670
     10          8           0        7.153378   -1.469325    1.009804
     11          6           0        5.077173   -1.267053    2.890723
     12          6           0        4.008865   -0.972126    1.842947
     13          8           0        3.654057   -1.825282    0.994221
     14          8           0        3.569123    0.190457    1.731909
     15          1           0        7.433722   -1.778611    4.024559
     16          1           0        5.245379   -3.366250    2.801958
     17          1           0        5.749663   -0.430194    3.048282
     18          1           0        4.539541   -1.530163    3.808724
     19          7           0        6.548841   -3.631244    0.696687
     20          6           0        7.464187   -4.029509   -0.350990
     21          6           0        7.385233   -3.156219   -1.600202
     22          8           0        8.283289   -3.254390   -2.443563
     23          6           0        7.339595   -5.501805   -0.712820
     24          6           0        6.157888   -5.775742   -1.637983
     25          6           0        6.060280   -7.266169   -1.966005
     26          6           0        4.850345   -7.404059   -2.881452
     27          7           0        4.859918   -8.718381   -3.552546
     28          1           0        6.054985   -4.379801    1.159687
     29          1           0        8.458546   -3.947702    0.085311
     30          1           0        7.425082   -6.071965    0.211630
     31          1           0        8.188366   -5.842534   -1.318618
     32          1           0        6.212897   -5.187841   -2.546744
     33          1           0        5.246292   -5.455108   -1.128878
     34          1           0        5.956590   -7.734275   -0.992595
     35          1           0        6.954969   -7.568830   -2.528879
     36          1           0        5.017196   -6.639770   -3.639952
     37          1           0        3.891983   -7.293997   -2.359217
     38          1           0        3.964733   -8.845450   -4.003541
     39          1           0        5.604927   -8.824307   -4.227632
     40          1           0        4.897174   -9.470453   -2.876454
     41          7           0        6.357760   -2.328987   -1.779886
     42          6           0        6.219474   -1.430281   -2.908958
     43          6           0        6.758971   -0.076800   -2.456926
     44          8           0        6.799163    0.801368   -3.325375
     45          6           0        4.765512   -1.270151   -3.333757
     46          6           0        3.827390   -0.978882   -2.171480
     47          8           0        4.120995   -0.110443   -1.333739
     48          8           0        2.747275   -1.589330   -2.000587
     49          1           0        5.669313   -2.255222   -1.045924
     50          1           0        6.859829   -1.733427   -3.730510
     51          1           0        4.399342   -2.219951   -3.716510
     52          1           0        4.582915   -0.485643   -4.083494
     53          7           0        7.274575    0.191090   -1.251817
     54          6           0        7.898908    1.418175   -0.811055
     55          6           0        7.001494    2.648636   -0.762942
     56          8           0        7.472066    3.776096   -0.814858
     57          1           0        7.165832   -0.542098   -0.564424
     58          1           0        8.739175    1.626389   -1.470599
     59          1           0        8.217491    1.195378    0.208292
     60          7           0        5.676495    2.509514   -0.729464
     61          6           0        4.714907    3.597861   -0.812826
     62          6           0        3.671006    3.441441    0.279559
     63          8           0        2.797550    2.587794    0.226071
     64          6           0        4.137057    3.569018   -2.221605
     65          6           0        3.154625    4.713825   -2.456221
     66          7           0        3.695735    5.848473   -2.918469
     67          8           0        1.959237    4.679617   -2.197812
     68          1           0        5.322099    1.567049   -0.830778
     69          1           0        5.163500    4.584410   -0.674319
     70          1           0        3.659729    2.604394   -2.369785
     71          1           0        4.988581    3.678744   -2.889713
     72          1           0        4.661006    5.857320   -3.222730
     73          1           0        3.249757    6.724496   -2.719757
     74          7           0        3.657238    4.317372    1.292700
     75          6           0        2.943677    4.081892    2.537482
     76          6           0        1.424681    4.198211    2.496025
     77          8           0        0.828652    4.434352    3.550912
     78          1           0        4.351971    5.043894    1.382206
     79          1           0        3.342906    4.733961    3.305024
     80          1           0        3.166536    3.045529    2.803537
     81          7           0        0.757845    3.899186    1.380133
     82          6           0       -0.665747    3.846763    1.127668
     83          6           0       -1.131665    2.465375    0.672930
     84          8           0       -0.352331    1.664698    0.150958
     85          6           0       -0.971054    5.035878    0.222576
     86          6           0       -0.711790    6.442757    0.708036
     87          6           0       -1.683126    7.305232    1.247801
     88          6           0        0.563661    6.928081    0.376247
     89          6           0       -1.346838    8.643103    1.472100
     90          6           0        0.938949    8.238212    0.690599
     91          6           0       -0.038120    9.101154    1.217445
     92          8           0        0.327701   10.383184    1.527241
     93          1           0        1.354747    3.601245    0.616759
     94          1           0       -1.111958    4.011606    2.113479
     95          1           0       -2.038962    4.912283    0.065102
     96          1           0       -0.548963    4.806628   -0.754862
     97          1           0       -2.711623    7.019786    1.392074
     98          1           0        1.245237    6.275099   -0.151170
     99          1           0       -2.093740    9.355511    1.790709
    100          1           0        1.917802    8.621627    0.440320
    101          1           0        1.227680   10.546369    1.218846
    102          7           0       -2.377367    2.186370    1.053171
    103          6           0       -3.087515    0.952349    0.789574
    104          6           0       -3.472435    0.788622   -0.671018
    105          8           0       -2.594491    0.732580   -1.534889
    106          6           0       -2.479955   -0.272050    1.481831
    107          6           0       -3.335194   -1.498877    1.190007
    108          6           0       -2.190772   -0.051062    2.963768
    109          6           0       -2.830326   -2.826736    1.746064
    110          1           0       -2.873422    3.018358    1.342178
    111          1           0       -4.030676    1.090043    1.329285
    112          1           0       -1.541666   -0.462777    0.950102
    113          1           0       -3.448077   -1.714008    0.117684
    114          1           0       -4.331937   -1.224726    1.526227
    115          1           0       -1.540626    0.820807    3.039626
    116          1           0       -3.089741    0.231704    3.504600
    117          1           0       -1.592216   -0.893738    3.317784
    118          1           0       -3.015643   -2.810288    2.819697
    119          1           0       -3.422034   -3.600825    1.253045
    120          1           0       -1.772003   -2.962876    1.550061
    121          7           0       -4.742689    0.595916   -1.035324
    122          6           0       -5.163289    0.285095   -2.392522
    123          6           0       -6.641289    0.517542   -2.664703
    124          8           0       -7.052682    0.313163   -3.797657
    125          6           0       -4.808190   -1.192162   -2.557193
    126          8           0       -5.667573   -2.006138   -1.787256
    127          1           0       -5.412143    0.541690   -0.275725
    128          1           0       -4.615917    0.871979   -3.132827
    129          1           0       -3.786381   -1.273884   -2.200923
    130          1           0       -4.873365   -1.495813   -3.599713
    131          1           0       -5.439151   -2.925805   -1.945171
    132          7           0       -7.468338    0.904619   -1.687584
    133          6           0       -8.893277    1.112492   -1.852617
    134          6           0       -9.697401    0.216352   -2.797613
    135          8           0      -10.253184    0.674552   -3.788299
    136          6           0       -9.173790    2.580677   -2.116145
    137          1           0       -7.092925    1.118240   -0.778281
    138          1           0       -9.411450    0.958307   -0.900606
    139          1           0      -10.215889    2.919593   -2.128992
    140          1           0       -8.640873    3.206903   -1.401134
    141          1           0       -8.804692    2.738730   -3.133438
    142          7           0       -9.769156   -1.107265   -2.627934
    143          6           0       -9.174061   -2.020348   -1.678913
    144          6           0      -10.033324   -2.220376   -0.437843
    145          8           0      -11.243478   -2.357917   -0.586870
    146          6           0       -9.025066   -3.360981   -2.389620
    147          1           0      -10.385243   -1.529905   -3.306397
    148          1           0       -8.202376   -1.632698   -1.391762
    149          1           0       -9.986968   -3.765359   -2.681718
    150          1           0       -8.368701   -3.341196   -3.260765
    151          1           0       -8.769371   -4.184309   -1.727916
    152          7           0       -9.535396   -2.352605    0.791581
    153          6           0       -8.174327   -2.476614    1.274399
    154          6           0       -8.041224   -1.681365    2.567753
    155          8           0       -7.170722   -0.828805    2.699918
    156          6           0       -7.748974   -3.926749    1.520738
    157          6           0       -6.290457   -3.989016    1.947059
    158          6           0       -5.902306   -5.328591    2.554496
    159          8           0       -5.580798   -5.435804    3.754762
    160          8           0       -6.016923   -6.321152    1.803108
    161          1           0      -10.241493   -2.575750    1.483921
    162          1           0       -7.489540   -2.051612    0.544646
    163          1           0       -7.777961   -4.524403    0.614057
    164          1           0       -8.372623   -4.347447    2.316398
    165          1           0       -6.044390   -3.194024    2.656170
    166          1           0       -5.829439   -3.835809    0.966197
    167          7           0       -8.993471   -1.973697    3.451985
    168          6           0       -9.216901   -1.279780    4.706400
    169          1           0       -8.874647   -1.903682    5.531969
    170          1           0       -8.662655   -0.341377    4.707254
    171          1           0      -10.280862   -1.073487    4.823849
    172          1           0       -9.401104   -2.894228    3.413796
    173         20           0        1.855122    0.033765   -0.197426
    174          8           0        1.025368    1.227845   -2.479592
    175          1           0        0.128851    1.517381   -2.643989
    176          1           0        1.499409    1.435079   -3.293986
 ---------------------------------------------------------------------
 Rotational constants (GHZ):           0.0191742           0.0095174           0.0077045
 Standard basis: SVP (5D, 7F)
 There are  1809 symmetry adapted cartesian basis functions of A   symmetry.
 There are  1717 symmetry adapted basis functions of A   symmetry.
  1717 basis functions,  2922 primitive gaussians,  1809 cartesian basis functions
   358 alpha electrons      358 beta electrons
       nuclear repulsion energy     19486.1681922401 Hartrees.
 NAtoms=  176 NActive=  176 NUniq=  176 SFac= 1.00D+00 NAtFMM=   60 NAOKFM=T Big=T
 Integral buffers will be    131072 words long.
 Raffenetti 2 integral format.
 Two-electron integral symmetry is turned on.
 One-electron integrals computed using PRISM.
 NBasis=  1717 RedAO= T EigKep=  2.80D-04  NBF=  1717
 NBsUse=  1717 1.00D-06 EigRej= -1.00D+00 NBFU=  1717
 ExpMin= 1.98D-02 ExpMax= 3.51D+04 ExpMxC= 5.28D+03 IAcc=3 IRadAn=         5 AccDes= 0.00D+00
 Harris functional with IExCor=  402 and IRadAn=       5 diagonalized for initial guess.
 HarFok:  IExCor=  402 AccDes= 0.00D+00 IRadAn=         5 IDoV= 1 UseB2=F ITyADJ=14
 ICtDFT=  3500011 ScaDFX=  1.000000  1.000000  1.000000  1.000000
 FoFCou: FMM=F IPFlag=           0 FMFlag=      100000 FMFlg1=        2001
         NFxFlg=           0 DoJE=T BraDBF=F KetDBF=T FulRan=T
         wScrn=  0.000000 ICntrl=       500 IOpCl=  0 I1Cent=   200000004 NGrid=           0
         NMat0=    1 NMatS0=      1 NMatT0=    0 NMatD0=    1 NMtDS0=    0 NMtDT0=    0
 Petite list used in FoFCou.
 Requested convergence on RMS density matrix=1.00D-08 within 128 cycles.
 Requested convergence on MAX density matrix=1.00D-06.
 Requested convergence on             energy=1.00D-06.
 No special actions if energy rises.
 EnCoef did     2 forward-backward iterations
 EnCoef did     3 forward-backward iterations
 EnCoef did     5 forward-backward iterations
 EnCoef did     2 forward-backward iterations
 EnCoef did    12 forward-backward iterations
 EnCoef did   100 forward-backward iterations
 Rare condition: small coef for last iteration:  0.000D+00
 EnCoef did   100 forward-backward iterations
 EnCoef did   100 forward-backward iterations
 EnCoef did   100 forward-backward iterations
 EnCoef did   100 forward-backward iterations
 Rare condition: small coef for last iteration:  0.118D-15
 EnCoef did   100 forward-backward iterations
 EnCoef did   100 forward-backward iterations
 Rare condition: small coef for last iteration: -0.353D-14
 Restarting incremental Fock formation.
 Rare condition: small coef for last iteration:  0.000D+00
 Rare condition: small coef for last iteration:  0.000D+00
 Rare condition: small coef for last iteration:  0.000D+00
 Rare condition: small coef for last iteration:  0.000D+00
 EnCoef did   100 forward-backward iterations
 Rare condition: small coef for last iteration:  0.000D+00
 Rare condition: small coef for last iteration:  0.000D+00
 EnCoef did   100 forward-backward iterations
 Rare condition: small coef for last iteration:  0.000D+00
 EnCoef did   100 forward-backward iterations
 EnCoef did   100 forward-backward iterations
 Rare condition: small coef for last iteration:  0.666D-16
 EnCoef did   100 forward-backward iterations
 Rare condition: small coef for last iteration:  0.000D+00
 EnCoef did   100 forward-backward iterations
 EnCoef did   100 forward-backward iterations
 Rare condition: small coef for last iteration: -0.135D-15
 EnCoef did   100 forward-backward iterations
 Restarting incremental Fock formation.
 EnCoef did   100 forward-backward iterations
 Rare condition: small coef for last iteration:  0.000D+00
 SCF Done:  E(RB3LYP) =  -5333.45346012     A.U. after   55 cycles
            NFock= 55  Conv=0.48D-09     -V/T= 2.0081
 SCF density gives NOpUse=  1 NOpAll=  1.
 Hyperfine terms turned off by default for NAtoms > 100.

 **********************************************************************

            Population analysis using the SCF density.

 **********************************************************************

 Orbital symmetries:
 BldTbl:  Degeneracy threshold= 1.00D-02
       Occupied  (A) (A) (A) (A) (A) (A) (A) (A) (A) (A) (A) (A)
                 (A) (A) (A) (A) (A) (A) (A) (A) (A) (A) (A) (A)
                 (A) (A) (A) (A) (A) (A) (A) (A) (A) (A) (A) (A)
                 (A) (A) (A) (A) (A) (A) (A) (A) (A) (A) (A) (A)
                 (A) (A) (A) (A) (A) (A) (A) (A) (A) (A) (A) (A)
                 (A) (A) (A) (A) (A) (A) (A) (A) (A) (A) (A) (A)
                 (A) (A) (A) (A) (A) (A) (A) (A) (A) (A) (A) (A)
                 (A) (A) (A) (A) (A) (A) (A) (A) (A) (A) (A) (A)
                 (A) (A) (A) (A) (A) (A) (A) (A) (A) (A) (A) (A)
                 (A) (A) (A) (A) (A) (A) (A) (A) (A) (A) (A) (A)
                 (A) (A) (A) (A) (A) (A) (A) (A) (A) (A) (A) (A)
                 (A) (A) (A) (A) (A) (A) (A) (A) (A) (A) (A) (A)
                 (A) (A) (A) (A) (A) (A) (A) (A) (A) (A) (A) (A)
                 (A) (A) (A) (A) (A) (A) (A) (A) (A) (A) (A) (A)
                 (A) (A) (A) (A) (A) (A) (A) (A) (A) (A) (A) (A)
                 (A) (A) (A) (A) (A) (A) (A) (A) (A) (A) (A) (A)
                 (A) (A) (A) (A) (A) (A) (A) (A) (A) (A) (A) (A)
                 (A) (A) (A) (A) (A) (A) (A) (A) (A) (A) (A) (A)
                 (A) (A) (A) (A) (A) (A) (A) (A) (A) (A) (A) (A)
                 (A) (A) (A) (A) (A) (A) (A) (A) (A) (A) (A) (A)
                 (A) (A) (A) (A) (A) (A) (A) (A) (A) (A) (A) (A)
                 (A) (A) (A) (A) (A) (A) (A) (A) (A) (A) (A) (A)
                 (A) (A) (A) (A) (A) (A) (A) (A) (A) (A) (A) (A)
                 (A) (A) (A) (A) (A) (A) (A) (A) (A) (A) (A) (A)
                 (A) (A) (A) (A) (A) (A) (A) (A) (A) (A) (A) (A)
                 (A) (A) (A) (A) (A) (A) (A) (A) (A) (A) (A) (A)
                 (A) (A) (A) (A) (A) (A) (A) (A) (A) (A) (A) (A)
                 (A) (A) (A) (A) (A) (A) (A) (A) (A) (A) (A) (A)
                 (A) (A) (A) (A) (A) (A) (A) (A) (A) (A) (A) (A)
                 (A) (A) (A) (A) (A) (A) (A) (A) (A) (A)
       Virtual   (A) (A) (A) (A) (A) (A) (A) (A) (A) (A) (A) (A)
                 (A) (A) (A) (A) (A) (A) (A) (A) (A) (A) (A) (A)
                 (A) (A) (A) (A) (A) (A) (A) (A) (A) (A) (A) (A)
                 (A) (A) (A) (A) (A) (A) (A) (A) (A) (A) (A) (A)
                 (A) (A) (A) (A) (A) (A) (A) (A) (A) (A) (A) (A)
                 (A) (A) (A) (A) (A) (A) (A) (A) (A) (A) (A) (A)
                 (A) (A) (A) (A) (A) (A) (A) (A) (A) (A) (A) (A)
                 (A) (A) (A) (A) (A) (A) (A) (A) (A) (A) (A) (A)
                 (A) (A) (A) (A) (A) (A) (A) (A) (A) (A) (A) (A)
                 (A) (A) (A) (A) (A) (A) (A) (A) (A) (A) (A) (A)
                 (A) (A) (A) (A) (A) (A) (A) (A) (A) (A) (A) (A)
                 (A) (A) (A) (A) (A) (A) (A) (A) (A) (A) (A) (A)
                 (A) (A) (A) (A) (A) (A) (A) (A) (A) (A) (A) (A)
                 (A) (A) (A) (A) (A) (A) (A) (A) (A) (A) (A) (A)
                 (A) (A) (A) (A) (A) (A) (A) (A) (A) (A) (A) (A)
                 (A) (A) (A) (A) (A) (A) (A) (A) (A) (A) (A) (A)
                 (A) (A) (A) (A) (A) (A) (A) (A) (A) (A) (A) (A)
                 (A) (A) (A) (A) (A) (A) (A) (A) (A) (A) (A) (A)
                 (A) (A) (A) (A) (A) (A) (A) (A) (A) (A) (A) (A)
                 (A) (A) (A) (A) (A) (A) (A) (A) (A) (A) (A) (A)
                 (A) (A) (A) (A) (A) (A) (A) (A) (A) (A) (A) (A)
                 (A) (A) (A) (A) (A) (A) (A) (A) (A) (A) (A) (A)
                 (A) (A) (A) (A) (A) (A) (A) (A) (A) (A) (A) (A)
                 (A) (A) (A) (A) (A) (A) (A) (A) (A) (A) (A) (A)
                 (A) (A) (A) (A) (A) (A) (A) (A) (A) (A) (A) (A)
                 (A) (A) (A) (A) (A) (A) (A) (A) (A) (A) (A) (A)
                 (A) (A) (A) (A) (A) (A) (A) (A) (A) (A) (A) (A)
                 (A) (A) (A) (A) (A) (A) (A) (A) (A) (A) (A) (A)
                 (A) (A) (A) (A) (A) (A) (A) (A) (A) (A) (A) (A)
                 (A) (A) (A) (A) (A) (A) (A) (A) (A) (A) (A) (A)
                 (A) (A) (A) (A) (A) (A) (A) (A) (A) (A) (A) (A)
                 (A) (A) (A) (A) (A) (A) (A) (A) (A) (A) (A) (A)
                 (A) (A) (A) (A) (A) (A) (A) (A) (A) (A) (A) (A)
                 (A) (A) (A) (A) (A) (A) (A) (A) (A) (A) (A) (A)
                 (A) (A) (A) (A) (A) (A) (A) (A) (A) (A) (A) (A)
                 (A) (A) (A) (A) (A) (A) (A) (A) (A) (A) (A) (A)
                 (A) (A) (A) (A) (A) (A) (A) (A) (A) (A) (A) (A)
                 (A) (A) (A) (A) (A) (A) (A) (A) (A) (A) (A) (A)
                 (A) (A) (A) (A) (A) (A) (A) (A) (A) (A) (A) (A)
                 (A) (A) (A) (A) (A) (A) (A) (A) (A) (A) (A) (A)
                 (A) (A) (A) (A) (A) (A) (A) (A) (A) (A) (A) (A)
                 (A) (A) (A) (A) (A) (A) (A) (A) (A) (A) (A) (A)
                 (A) (A) (A) (A) (A) (A) (A) (A) (A) (A) (A) (A)
                 (A) (A) (A) (A) (A) (A) (A) (A) (A) (A) (A) (A)
                 (A) (A) (A) (A) (A) (A) (A) (A) (A) (A) (A) (A)
                 (A) (A) (A) (A) (A) (A) (A) (A) (A) (A) (A) (A)
                 (A) (A) (A) (A) (A) (A) (A) (A) (A) (A) (A) (A)
                 (A) (A) (A) (A) (A) (A) (A) (A) (A) (A) (A) (A)
                 (A) (A) (A) (A) (A) (A) (A) (A) (A) (A) (A) (A)
                 (A) (A) (A) (A) (A) (A) (A) (A) (A) (A) (A) (A)
                 (A) (A) (A) (A) (A) (A) (A) (A) (A) (A) (A) (A)
                 (A) (A) (A) (A) (A) (A) (A) (A) (A) (A) (A) (A)
                 (A) (A) (A) (A) (A) (A) (A) (A) (A) (A) (A) (A)
                 (A) (A) (A) (A) (A) (A) (A) (A) (A) (A) (A) (A)
                 (A) (A) (A) (A) (A) (A) (A) (A) (A) (A) (A) (A)
                 (A) (A) (A) (A) (A) (A) (A) (A) (A) (A) (A) (A)
                 (A) (A) (A) (A) (A) (A) (A) (A) (A) (A) (A) (A)
                 (A) (A) (A) (A) (A) (A) (A) (A) (A) (A) (A) (A)
                 (A) (A) (A) (A) (A) (A) (A) (A) (A) (A) (A) (A)
                 (A) (A) (A) (A) (A) (A) (A) (A) (A) (A) (A) (A)
                 (A) (A) (A) (A) (A) (A) (A) (A) (A) (A) (A) (A)
                 (A) (A) (A) (A) (A) (A) (A) (A) (A) (A) (A) (A)
                 (A) (A) (A) (A) (A) (A) (A) (A) (A) (A) (A) (A)
                 (A) (A) (A) (A) (A) (A) (A) (A) (A) (A) (A) (A)
                 (A) (A) (A) (A) (A) (A) (A) (A) (A) (A) (A) (A)
                 (A) (A) (A) (A) (A) (A) (A) (A) (A) (A) (A) (A)
                 (A) (A) (A) (A) (A) (A) (A) (A) (A) (A) (A) (A)
                 (A) (A) (A) (A) (A) (A) (A) (A) (A) (A) (A) (A)
                 (A) (A) (A) (A) (A) (A) (A) (A) (A) (A) (A) (A)
                 (A) (A) (A) (A) (A) (A) (A) (A) (A) (A) (A) (A)
                 (A) (A) (A) (A) (A) (A) (A) (A) (A) (A) (A) (A)
                 (A) (A) (A) (A) (A) (A) (A) (A) (A) (A) (A) (A)
                 (A) (A) (A) (A) (A) (A) (A) (A) (A) (A) (A) (A)
                 (A) (A) (A) (A) (A) (A) (A) (A) (A) (A) (A) (A)
                 (A) (A) (A) (A) (A) (A) (A) (A) (A) (A) (A) (A)
                 (A) (A) (A) (A) (A) (A) (A) (A) (A) (A) (A) (A)
                 (A) (A) (A) (A) (A) (A) (A) (A) (A) (A) (A) (A)
                 (A) (A) (A) (A) (A) (A) (A) (A) (A) (A) (A) (A)
                 (A) (A) (A) (A) (A) (A) (A) (A) (A) (A) (A) (A)
                 (A) (A) (A) (A) (A) (A) (A) (A) (A) (A) (A) (A)
                 (A) (A) (A) (A) (A) (A) (A) (A) (A) (A) (A) (A)
                 (A) (A) (A) (A) (A) (A) (A) (A) (A) (A) (A) (A)
                 (A) (A) (A) (A) (A) (A) (A) (A) (A) (A) (A) (A)
                 (A) (A) (A) (A) (A) (A) (A) (A) (A) (A) (A) (A)
                 (A) (A) (A) (A) (A) (A) (A) (A) (A) (A) (A) (A)
                 (A) (A) (A) (A) (A) (A) (A) (A) (A) (A) (A) (A)
                 (A) (A) (A) (A) (A) (A) (A) (A) (A) (A) (A) (A)
                 (A) (A) (A) (A) (A) (A) (A) (A) (A) (A) (A) (A)
                 (A) (A) (A) (A) (A) (A) (A) (A) (A) (A) (A) (A)
                 (A) (A) (A) (A) (A) (A) (A) (A) (A) (A) (A) (A)
                 (A) (A) (A) (A) (A) (A) (A) (A) (A) (A) (A) (A)
                 (A) (A) (A) (A) (A) (A) (A) (A) (A) (A) (A) (A)
                 (A) (A) (A) (A) (A) (A) (A) (A) (A) (A) (A) (A)
                 (A) (A) (A) (A) (A) (A) (A) (A) (A) (A) (A) (A)
                 (A) (A) (A) (A) (A) (A) (A) (A) (A) (A) (A) (A)
                 (A) (A) (A) (A) (A) (A) (A) (A) (A) (A) (A) (A)
                 (A) (A) (A) (A) (A) (A) (A) (A) (A) (A) (A) (A)
                 (A) (A) (A) (A) (A) (A) (A) (A) (A) (A) (A) (A)
                 (A) (A) (A) (A) (A) (A) (A) (A) (A) (A) (A) (A)
                 (A) (A) (A) (A) (A) (A) (A) (A) (A) (A) (A) (A)
                 (A) (A) (A) (A) (A) (A) (A) (A) (A) (A) (A) (A)
                 (A) (A) (A) (A) (A) (A) (A) (A) (A) (A) (A) (A)
                 (A) (A) (A) (A) (A) (A) (A) (A) (A) (A) (A) (A)
                 (A) (A) (A) (A) (A) (A) (A) (A) (A) (A) (A) (A)
                 (A) (A) (A) (A) (A) (A) (A) (A) (A) (A) (A) (A)
                 (A) (A) (A) (A) (A) (A) (A) (A) (A) (A) (A) (A)
                 (A) (A) (A) (A) (A) (A) (A) (A) (A) (A) (A) (A)
                 (A) (A) (A) (A) (A) (A) (A) (A) (A) (A) (A) (A)
                 (A) (A) (A) (A) (A) (A) (A) (A) (A) (A) (A) (A)
                 (A) (A) (A) (A) (A) (A) (A) (A) (A) (A) (A) (A)
                 (A) (A) (A) (A) (A) (A) (A) (A) (A) (A) (A) (A)
                 (A) (A) (A) (A) (A) (A) (A) (A) (A) (A) (A) (A)
                 (A) (A) (A) (A) (A) (A) (A) (A) (A) (A) (A) (A)
                 (A) (A) (A)
 The electronic state is 1-A.
 Alpha  occ. eigenvalues -- -145.40293 -19.16727 -19.16578 -19.14499 -19.14105
 Alpha  occ. eigenvalues --  -19.13305 -19.13010 -19.11245 -19.11113 -19.10465
 Alpha  occ. eigenvalues --  -19.09717 -19.09537 -19.08798 -19.08328 -19.08071
 Alpha  occ. eigenvalues --  -19.07550 -19.07237 -19.07132 -19.06526 -19.06510
 Alpha  occ. eigenvalues --  -19.06244 -19.06124 -18.96868 -18.96596 -15.46060
 Alpha  occ. eigenvalues --  -14.57238 -14.39309 -14.38545 -14.38460 -14.37903
 Alpha  occ. eigenvalues --  -14.36911 -14.36754 -14.36673 -14.36546 -14.34612
 Alpha  occ. eigenvalues --  -14.34227 -14.34017 -14.33416 -14.33070 -14.32442
 Alpha  occ. eigenvalues --  -12.59686 -12.59629 -12.59603 -10.35171 -10.32107
 Alpha  occ. eigenvalues --  -10.31383 -10.30837 -10.30223 -10.30063 -10.29749
 Alpha  occ. eigenvalues --  -10.29253 -10.29092 -10.28419 -10.27952 -10.27231
 Alpha  occ. eigenvalues --  -10.26936 -10.26727 -10.26572 -10.26414 -10.26310
 Alpha  occ. eigenvalues --  -10.25832 -10.25761 -10.25730 -10.25537 -10.25336
 Alpha  occ. eigenvalues --  -10.25149 -10.24842 -10.24403 -10.24359 -10.24222
 Alpha  occ. eigenvalues --  -10.24074 -10.23923 -10.23919 -10.23208 -10.22357
 Alpha  occ. eigenvalues --  -10.21836 -10.21246 -10.20836 -10.20625 -10.20433
 Alpha  occ. eigenvalues --  -10.20176 -10.20097 -10.20062 -10.19753 -10.19480
 Alpha  occ. eigenvalues --  -10.19343 -10.19327 -10.19178 -10.18598 -10.18326
 Alpha  occ. eigenvalues --  -10.17291 -10.17243 -10.16858 -10.16264 -10.15915
 Alpha  occ. eigenvalues --  -10.15212 -10.11589  -1.82793  -1.12891  -1.10477
 Alpha  occ. eigenvalues --   -1.10102  -1.09871  -1.06900  -1.06394  -1.06162
 Alpha  occ. eigenvalues --   -1.05101  -1.04705  -1.04061  -1.03702  -1.03405
 Alpha  occ. eigenvalues --   -1.03067  -1.02884  -1.02410  -1.02191  -1.01960
 Alpha  occ. eigenvalues --   -1.01531  -1.01347  -1.01211  -1.00604  -1.00390
 Alpha  occ. eigenvalues --   -0.99863  -0.96235  -0.96061  -0.94567  -0.94252
 Alpha  occ. eigenvalues --   -0.93302  -0.93000  -0.92564  -0.91925  -0.91908
 Alpha  occ. eigenvalues --   -0.91715  -0.91627  -0.91272  -0.91222  -0.90314
 Alpha  occ. eigenvalues --   -0.89970  -0.89583  -0.89493  -0.89254  -0.85209
 Alpha  occ. eigenvalues --   -0.83773  -0.83139  -0.81234  -0.80015  -0.79836
 Alpha  occ. eigenvalues --   -0.79191  -0.78717  -0.78446  -0.77028  -0.76507
 Alpha  occ. eigenvalues --   -0.76259  -0.75350  -0.74903  -0.74888  -0.74650
 Alpha  occ. eigenvalues --   -0.73599  -0.72966  -0.72709  -0.72388  -0.72198
 Alpha  occ. eigenvalues --   -0.71265  -0.70829  -0.69487  -0.68437  -0.67345
 Alpha  occ. eigenvalues --   -0.66857  -0.66503  -0.66291  -0.66196  -0.64992
 Alpha  occ. eigenvalues --   -0.64437  -0.64406  -0.64207  -0.62862  -0.62659
 Alpha  occ. eigenvalues --   -0.62259  -0.61783  -0.61367  -0.60969  -0.60443
 Alpha  occ. eigenvalues --   -0.60409  -0.60251  -0.59490  -0.59463  -0.59156
 Alpha  occ. eigenvalues --   -0.58685  -0.58594  -0.58198  -0.58121  -0.58003
 Alpha  occ. eigenvalues --   -0.57338  -0.56460  -0.56404  -0.56211  -0.56055
 Alpha  occ. eigenvalues --   -0.55793  -0.55709  -0.55462  -0.55091  -0.55034
 Alpha  occ. eigenvalues --   -0.54529  -0.53383  -0.53192  -0.52543  -0.52421
 Alpha  occ. eigenvalues --   -0.52345  -0.51614  -0.51163  -0.51140  -0.50986
 Alpha  occ. eigenvalues --   -0.50818  -0.50673  -0.50591  -0.50254  -0.49964
 Alpha  occ. eigenvalues --   -0.49826  -0.49617  -0.49224  -0.48819  -0.48529
 Alpha  occ. eigenvalues --   -0.48251  -0.48056  -0.47588  -0.47556  -0.47047
 Alpha  occ. eigenvalues --   -0.46906  -0.46504  -0.46404  -0.46250  -0.46141
 Alpha  occ. eigenvalues --   -0.46003  -0.45816  -0.45810  -0.45740  -0.45443
 Alpha  occ. eigenvalues --   -0.45355  -0.45320  -0.45057  -0.44903  -0.44629
 Alpha  occ. eigenvalues --   -0.44552  -0.44293  -0.44075  -0.44046  -0.43938
 Alpha  occ. eigenvalues --   -0.43829  -0.43576  -0.43353  -0.43209  -0.43017
 Alpha  occ. eigenvalues --   -0.42910  -0.42872  -0.42634  -0.42485  -0.42434
 Alpha  occ. eigenvalues --   -0.42261  -0.42159  -0.41823  -0.41670  -0.41589
 Alpha  occ. eigenvalues --   -0.41515  -0.41311  -0.41252  -0.41140  -0.40827
 Alpha  occ. eigenvalues --   -0.40700  -0.40658  -0.40601  -0.40493  -0.40282
 Alpha  occ. eigenvalues --   -0.40225  -0.40139  -0.39810  -0.39624  -0.39562
 Alpha  occ. eigenvalues --   -0.39474  -0.39316  -0.39047  -0.38899  -0.38867
 Alpha  occ. eigenvalues --   -0.38704  -0.38673  -0.38291  -0.38228  -0.38035
 Alpha  occ. eigenvalues --   -0.37870  -0.37817  -0.37340  -0.37205  -0.36985
 Alpha  occ. eigenvalues --   -0.36955  -0.36608  -0.36590  -0.36571  -0.36333
 Alpha  occ. eigenvalues --   -0.36182  -0.36137  -0.35911  -0.35781  -0.35759
 Alpha  occ. eigenvalues --   -0.35705  -0.35367  -0.34823  -0.34752  -0.34728
 Alpha  occ. eigenvalues --   -0.34618  -0.34368  -0.34183  -0.33896  -0.33363
 Alpha  occ. eigenvalues --   -0.33350  -0.32943  -0.32635  -0.31908  -0.31556
 Alpha  occ. eigenvalues --   -0.31243  -0.30915  -0.30572  -0.30043  -0.29860
 Alpha  occ. eigenvalues --   -0.29654  -0.29347  -0.28933  -0.28852  -0.28117
 Alpha  occ. eigenvalues --   -0.28090  -0.27913  -0.27414  -0.27033  -0.26824
 Alpha  occ. eigenvalues --   -0.26662  -0.26421  -0.26313  -0.26139  -0.26048
 Alpha  occ. eigenvalues --   -0.25932  -0.25680  -0.25386  -0.25278  -0.25159
 Alpha  occ. eigenvalues --   -0.25152  -0.25050  -0.24738  -0.24573  -0.24122
 Alpha  occ. eigenvalues --   -0.23889  -0.23633  -0.23093  -0.22878  -0.22856
 Alpha  occ. eigenvalues --   -0.22619  -0.22602  -0.22100  -0.21709  -0.21626
 Alpha  occ. eigenvalues --   -0.14122  -0.14060  -0.11440
 Alpha virt. eigenvalues --   -0.10616  -0.04702  -0.03863  -0.03118  -0.02377
 Alpha virt. eigenvalues --   -0.02051  -0.01867  -0.01681  -0.01567  -0.00567
 Alpha virt. eigenvalues --   -0.00388  -0.00232  -0.00083   0.00446   0.01170
 Alpha virt. eigenvalues --    0.01488   0.01727   0.01790   0.02091   0.02267
 Alpha virt. eigenvalues --    0.02426   0.02716   0.02978   0.03159   0.03301
 Alpha virt. eigenvalues --    0.03435   0.03861   0.04107   0.04126   0.04391
 Alpha virt. eigenvalues --    0.04442   0.04567   0.04730   0.05042   0.05593
 Alpha virt. eigenvalues --    0.05827   0.05938   0.06254   0.06605   0.06946
 Alpha virt. eigenvalues --    0.07159   0.07419   0.07628   0.08103   0.08312
 Alpha virt. eigenvalues --    0.08473   0.08895   0.08928   0.09129   0.09222
 Alpha virt. eigenvalues --    0.09534   0.09744   0.10063   0.10124   0.10243
 Alpha virt. eigenvalues --    0.10420   0.10540   0.10752   0.11089   0.11390
 Alpha virt. eigenvalues --    0.11427   0.11581   0.11729   0.11868   0.12023
 Alpha virt. eigenvalues --    0.12285   0.12362   0.12519   0.12700   0.12958
 Alpha virt. eigenvalues --    0.13140   0.13160   0.13241   0.13384   0.13504
 Alpha virt. eigenvalues --    0.13637   0.13835   0.13925   0.14001   0.14123
 Alpha virt. eigenvalues --    0.14243   0.14436   0.14639   0.14702   0.14795
 Alpha virt. eigenvalues --    0.14888   0.15065   0.15186   0.15277   0.15409
 Alpha virt. eigenvalues --    0.15498   0.15729   0.15752   0.15777   0.15923
 Alpha virt. eigenvalues --    0.16172   0.16407   0.16583   0.16695   0.16973
 Alpha virt. eigenvalues --    0.17222   0.17439   0.17509   0.17730   0.18055
 Alpha virt. eigenvalues --    0.18303   0.18348   0.18625   0.18792   0.18974
 Alpha virt. eigenvalues --    0.19460   0.19537   0.19748   0.19939   0.20140
 Alpha virt. eigenvalues --    0.20475   0.20566   0.20885   0.20951   0.21148
 Alpha virt. eigenvalues --    0.21311   0.21350   0.21651   0.22041   0.22412
 Alpha virt. eigenvalues --    0.22583   0.22925   0.22971   0.23219   0.23329
 Alpha virt. eigenvalues --    0.23360   0.23531   0.23653   0.23893   0.23989
 Alpha virt. eigenvalues --    0.24205   0.24236   0.24582   0.24809   0.24911
 Alpha virt. eigenvalues --    0.25080   0.25402   0.25759   0.25827   0.25996
 Alpha virt. eigenvalues --    0.26378   0.26524   0.26807   0.26892   0.27175
 Alpha virt. eigenvalues --    0.27426   0.27830   0.28068   0.28162   0.28308
 Alpha virt. eigenvalues --    0.28414   0.28628   0.29190   0.29555   0.29577
 Alpha virt. eigenvalues --    0.29796   0.29986   0.30356   0.30852   0.30914
 Alpha virt. eigenvalues --    0.30983   0.31196   0.31492   0.31736   0.32009
 Alpha virt. eigenvalues --    0.32247   0.32610   0.32717   0.33148   0.33394
 Alpha virt. eigenvalues --    0.34102   0.34411   0.34569   0.35092   0.35345
 Alpha virt. eigenvalues --    0.35898   0.35936   0.36122   0.36218   0.36458
 Alpha virt. eigenvalues --    0.36762   0.37094   0.37245   0.37385   0.37626
 Alpha virt. eigenvalues --    0.38010   0.38183   0.38254   0.38788   0.39159
 Alpha virt. eigenvalues --    0.39281   0.39607   0.40637   0.40803   0.40844
 Alpha virt. eigenvalues --    0.41104   0.41264   0.41551   0.41761   0.42054
 Alpha virt. eigenvalues --    0.42108   0.42158   0.42440   0.42611   0.43024
 Alpha virt. eigenvalues --    0.43193   0.43470   0.43616   0.43923   0.43969
 Alpha virt. eigenvalues --    0.44166   0.44252   0.44375   0.44487   0.44580
 Alpha virt. eigenvalues --    0.44662   0.44850   0.45063   0.45426   0.45818
 Alpha virt. eigenvalues --    0.45940   0.46179   0.46376   0.46789   0.46889
 Alpha virt. eigenvalues --    0.46974   0.47174   0.47382   0.47598   0.47735
 Alpha virt. eigenvalues --    0.47909   0.48242   0.48394   0.48610   0.49008
 Alpha virt. eigenvalues --    0.49219   0.49495   0.49875   0.49895   0.50045
 Alpha virt. eigenvalues --    0.50308   0.50771   0.50828   0.50881   0.51061
 Alpha virt. eigenvalues --    0.51121   0.51401   0.51655   0.51871   0.52054
 Alpha virt. eigenvalues --    0.52195   0.52231   0.52387   0.52747   0.52881
 Alpha virt. eigenvalues --    0.53154   0.53263   0.53347   0.53534   0.53794
 Alpha virt. eigenvalues --    0.53862   0.53910   0.54219   0.54431   0.54511
 Alpha virt. eigenvalues --    0.54774   0.54847   0.54914   0.55199   0.55317
 Alpha virt. eigenvalues --    0.55821   0.55950   0.56060   0.56380   0.56737
 Alpha virt. eigenvalues --    0.56884   0.56886   0.57231   0.57380   0.57413
 Alpha virt. eigenvalues --    0.57863   0.58142   0.58277   0.58376   0.58472
 Alpha virt. eigenvalues --    0.58686   0.58925   0.59016   0.59194   0.59311
 Alpha virt. eigenvalues --    0.59502   0.59624   0.59759   0.59849   0.59880
 Alpha virt. eigenvalues --    0.60030   0.60143   0.60254   0.60447   0.60500
 Alpha virt. eigenvalues --    0.61059   0.61278   0.61318   0.61386   0.61612
 Alpha virt. eigenvalues --    0.61759   0.61862   0.62108   0.62170   0.62329
 Alpha virt. eigenvalues --    0.62457   0.62499   0.62615   0.62685   0.63016
 Alpha virt. eigenvalues --    0.63099   0.63313   0.63403   0.63571   0.63605
 Alpha virt. eigenvalues --    0.63662   0.63799   0.63856   0.63999   0.64067
 Alpha virt. eigenvalues --    0.64210   0.64269   0.64319   0.64454   0.64582
 Alpha virt. eigenvalues --    0.64688   0.64745   0.64783   0.64873   0.65121
 Alpha virt. eigenvalues --    0.65256   0.65264   0.65348   0.65454   0.65542
 Alpha virt. eigenvalues --    0.65592   0.65624   0.65836   0.66031   0.66061
 Alpha virt. eigenvalues --    0.66138   0.66164   0.66297   0.66413   0.66489
 Alpha virt. eigenvalues --    0.66607   0.66736   0.66882   0.66956   0.67084
 Alpha virt. eigenvalues --    0.67163   0.67284   0.67424   0.67509   0.67659
 Alpha virt. eigenvalues --    0.67768   0.67814   0.67860   0.68086   0.68238
 Alpha virt. eigenvalues --    0.68347   0.68464   0.68576   0.68763   0.68833
 Alpha virt. eigenvalues --    0.68949   0.69028   0.69104   0.69312   0.69315
 Alpha virt. eigenvalues --    0.69410   0.69530   0.69807   0.69987   0.70019
 Alpha virt. eigenvalues --    0.70254   0.70398   0.70497   0.70600   0.70680
 Alpha virt. eigenvalues --    0.70888   0.71075   0.71091   0.71141   0.71283
 Alpha virt. eigenvalues --    0.71377   0.71645   0.71744   0.71790   0.71938
 Alpha virt. eigenvalues --    0.72220   0.72323   0.72477   0.72618   0.72924
 Alpha virt. eigenvalues --    0.73028   0.73179   0.73398   0.73565   0.73842
 Alpha virt. eigenvalues --    0.74162   0.74268   0.74426   0.74762   0.74883
 Alpha virt. eigenvalues --    0.75164   0.75392   0.75572   0.75931   0.76005
 Alpha virt. eigenvalues --    0.76163   0.76410   0.76553   0.76674   0.77140
 Alpha virt. eigenvalues --    0.77291   0.77563   0.77775   0.78046   0.78159
 Alpha virt. eigenvalues --    0.78746   0.79021   0.79243   0.79379   0.79722
 Alpha virt. eigenvalues --    0.80199   0.80563   0.80626   0.80911   0.81283
 Alpha virt. eigenvalues --    0.81461   0.81531   0.81564   0.81848   0.81960
 Alpha virt. eigenvalues --    0.82442   0.82759   0.83022   0.83283   0.83671
 Alpha virt. eigenvalues --    0.83795   0.84078   0.84536   0.84811   0.85084
 Alpha virt. eigenvalues --    0.85222   0.85578   0.85934   0.86142   0.86199
 Alpha virt. eigenvalues --    0.86528   0.86637   0.87219   0.87490   0.87701
 Alpha virt. eigenvalues --    0.88132   0.88489   0.88545   0.88890   0.89062
 Alpha virt. eigenvalues --    0.89288   0.89419   0.90195   0.90351   0.90487
 Alpha virt. eigenvalues --    0.90977   0.91063   0.91363   0.91467   0.91841
 Alpha virt. eigenvalues --    0.92229   0.92844   0.92903   0.93278   0.93599
 Alpha virt. eigenvalues --    0.93768   0.94049   0.94504   0.94663   0.94982
 Alpha virt. eigenvalues --    0.95012   0.95396   0.95564   0.95860   0.96273
 Alpha virt. eigenvalues --    0.96572   0.96654   0.96701   0.97085   0.97565
 Alpha virt. eigenvalues --    0.97619   0.97763   0.98085   0.98311   0.98793
 Alpha virt. eigenvalues --    0.99068   0.99488   0.99706   1.00158   1.00347
 Alpha virt. eigenvalues --    1.00793   1.01100   1.01287   1.01409   1.01842
 Alpha virt. eigenvalues --    1.02481   1.02816   1.03081   1.03377   1.03601
 Alpha virt. eigenvalues --    1.03684   1.04103   1.04357   1.04503   1.04722
 Alpha virt. eigenvalues --    1.05026   1.05185   1.05360   1.05662   1.05905
 Alpha virt. eigenvalues --    1.06109   1.06305   1.06686   1.06862   1.07261
 Alpha virt. eigenvalues --    1.07693   1.08226   1.08395   1.08615   1.08660
 Alpha virt. eigenvalues --    1.08853   1.08955   1.09648   1.10241   1.10565
 Alpha virt. eigenvalues --    1.10655   1.11087   1.11325   1.11782   1.11994
 Alpha virt. eigenvalues --    1.12158   1.12524   1.12922   1.13114   1.13348
 Alpha virt. eigenvalues --    1.13918   1.14043   1.14350   1.14498   1.14740
 Alpha virt. eigenvalues --    1.14842   1.15422   1.15741   1.15820   1.16115
 Alpha virt. eigenvalues --    1.16570   1.16688   1.17079   1.17221   1.17700
 Alpha virt. eigenvalues --    1.17794   1.17832   1.17950   1.18124   1.18441
 Alpha virt. eigenvalues --    1.18567   1.18868   1.19228   1.19973   1.20266
 Alpha virt. eigenvalues --    1.20524   1.20922   1.20959   1.21271   1.21384
 Alpha virt. eigenvalues --    1.21808   1.21985   1.22045   1.22268   1.22489
 Alpha virt. eigenvalues --    1.22769   1.23131   1.23231   1.23349   1.23454
 Alpha virt. eigenvalues --    1.23671   1.23949   1.24669   1.24943   1.25030
 Alpha virt. eigenvalues --    1.25202   1.25505   1.25629   1.25796   1.25979
 Alpha virt. eigenvalues --    1.26199   1.26312   1.26506   1.26897   1.27102
 Alpha virt. eigenvalues --    1.27583   1.27674   1.27979   1.28297   1.28527
 Alpha virt. eigenvalues --    1.28744   1.28917   1.29346   1.29843   1.30280
 Alpha virt. eigenvalues --    1.30611   1.30866   1.31047   1.31161   1.31364
 Alpha virt. eigenvalues --    1.31601   1.31861   1.32321   1.32428   1.33019
 Alpha virt. eigenvalues --    1.33121   1.33692   1.33816   1.34091   1.34290
 Alpha virt. eigenvalues --    1.34806   1.34896   1.35230   1.35316   1.35743
 Alpha virt. eigenvalues --    1.35777   1.36162   1.36437   1.36604   1.36859
 Alpha virt. eigenvalues --    1.37062   1.37283   1.37564   1.37931   1.38491
 Alpha virt. eigenvalues --    1.38900   1.39135   1.39258   1.39363   1.39732
 Alpha virt. eigenvalues --    1.40313   1.40410   1.40606   1.40892   1.41019
 Alpha virt. eigenvalues --    1.41438   1.41914   1.42321   1.42538   1.42674
 Alpha virt. eigenvalues --    1.42735   1.43316   1.43724   1.43858   1.44219
 Alpha virt. eigenvalues --    1.44445   1.44640   1.45045   1.45413   1.45718
 Alpha virt. eigenvalues --    1.46369   1.46789   1.46948   1.47347   1.47411
 Alpha virt. eigenvalues --    1.47602   1.47823   1.48462   1.49244   1.49998
 Alpha virt. eigenvalues --    1.50061   1.50446   1.50470   1.50512   1.50994
 Alpha virt. eigenvalues --    1.51444   1.52153   1.52367   1.52426   1.52499
 Alpha virt. eigenvalues --    1.53082   1.53164   1.53568   1.54228   1.54576
 Alpha virt. eigenvalues --    1.54926   1.55010   1.55319   1.55346   1.55891
 Alpha virt. eigenvalues --    1.56005   1.56068   1.56710   1.56730   1.57293
 Alpha virt. eigenvalues --    1.57460   1.57751   1.57781   1.58016   1.58191
 Alpha virt. eigenvalues --    1.58429   1.58691   1.58865   1.59044   1.59545
 Alpha virt. eigenvalues --    1.59875   1.59940   1.60525   1.60696   1.61449
 Alpha virt. eigenvalues --    1.61617   1.61957   1.62153   1.62368   1.62820
 Alpha virt. eigenvalues --    1.63183   1.63897   1.64355   1.64531   1.64636
 Alpha virt. eigenvalues --    1.64883   1.65155   1.65733   1.65837   1.66296
 Alpha virt. eigenvalues --    1.66613   1.66749   1.67296   1.67898   1.67953
 Alpha virt. eigenvalues --    1.68392   1.68568   1.68793   1.68927   1.69259
 Alpha virt. eigenvalues --    1.69529   1.70002   1.70054   1.70469   1.70507
 Alpha virt. eigenvalues --    1.70568   1.70734   1.70831   1.71031   1.71851
 Alpha virt. eigenvalues --    1.71877   1.72386   1.72868   1.73104   1.73211
 Alpha virt. eigenvalues --    1.73310   1.73643   1.73891   1.74074   1.74099
 Alpha virt. eigenvalues --    1.74499   1.74513   1.74633   1.74670   1.75007
 Alpha virt. eigenvalues --    1.75300   1.75379   1.75441   1.75492   1.76055
 Alpha virt. eigenvalues --    1.76259   1.76481   1.76490   1.76731   1.76770
 Alpha virt. eigenvalues --    1.77065   1.77109   1.77132   1.77388   1.77501
 Alpha virt. eigenvalues --    1.77700   1.77819   1.78070   1.78164   1.78232
 Alpha virt. eigenvalues --    1.78519   1.78658   1.78726   1.79040   1.79169
 Alpha virt. eigenvalues --    1.79279   1.79405   1.79630   1.79820   1.80132
 Alpha virt. eigenvalues --    1.80310   1.80586   1.80798   1.80985   1.81104
 Alpha virt. eigenvalues --    1.81203   1.81575   1.81739   1.81917   1.81996
 Alpha virt. eigenvalues --    1.82237   1.82570   1.82664   1.82779   1.82910
 Alpha virt. eigenvalues --    1.83016   1.83214   1.83450   1.83577   1.83688
 Alpha virt. eigenvalues --    1.83717   1.84226   1.84592   1.84721   1.84763
 Alpha virt. eigenvalues --    1.84842   1.84971   1.85410   1.85453   1.85631
 Alpha virt. eigenvalues --    1.86153   1.86569   1.86695   1.86785   1.87047
 Alpha virt. eigenvalues --    1.87170   1.87575   1.87800   1.87909   1.88110
 Alpha virt. eigenvalues --    1.88163   1.88361   1.88406   1.88521   1.88851
 Alpha virt. eigenvalues --    1.88892   1.89123   1.89391   1.89485   1.89833
 Alpha virt. eigenvalues --    1.89962   1.90053   1.90302   1.90317   1.90523
 Alpha virt. eigenvalues --    1.90768   1.90845   1.91059   1.91135   1.91228
 Alpha virt. eigenvalues --    1.91394   1.91534   1.91655   1.91715   1.92002
 Alpha virt. eigenvalues --    1.92297   1.92451   1.92636   1.92732   1.92855
 Alpha virt. eigenvalues --    1.93175   1.93588   1.94000   1.94196   1.94368
 Alpha virt. eigenvalues --    1.94389   1.94510   1.94930   1.95109   1.95489
 Alpha virt. eigenvalues --    1.95646   1.96019   1.96216   1.96281   1.96541
 Alpha virt. eigenvalues --    1.96811   1.97463   1.97486   1.97721   1.98011
 Alpha virt. eigenvalues --    1.98210   1.98288   1.98407   1.98570   1.98995
 Alpha virt. eigenvalues --    1.99059   1.99443   1.99788   2.00139   2.00353
 Alpha virt. eigenvalues --    2.00617   2.00764   2.01015   2.01124   2.01395
 Alpha virt. eigenvalues --    2.01800   2.02075   2.02134   2.02303   2.02536
 Alpha virt. eigenvalues --    2.02645   2.03025   2.03452   2.03804   2.04357
 Alpha virt. eigenvalues --    2.04753   2.04795   2.05061   2.05349   2.05504
 Alpha virt. eigenvalues --    2.05541   2.05879   2.05903   2.06176   2.06504
 Alpha virt. eigenvalues --    2.06770   2.06962   2.07174   2.07632   2.07736
 Alpha virt. eigenvalues --    2.08001   2.08198   2.08568   2.08587   2.08964
 Alpha virt. eigenvalues --    2.09062   2.09468   2.09552   2.09874   2.10261
 Alpha virt. eigenvalues --    2.10638   2.10900   2.11222   2.11476   2.11722
 Alpha virt. eigenvalues --    2.11784   2.12015   2.12286   2.12680   2.13128
 Alpha virt. eigenvalues --    2.13328   2.13996   2.14098   2.14290   2.14411
 Alpha virt. eigenvalues --    2.14663   2.15152   2.15653   2.15802   2.15894
 Alpha virt. eigenvalues --    2.15975   2.16106   2.16578   2.17002   2.17290
 Alpha virt. eigenvalues --    2.17388   2.17660   2.18574   2.18723   2.18795
 Alpha virt. eigenvalues --    2.19095   2.19218   2.19550   2.20072   2.20434
 Alpha virt. eigenvalues --    2.20722   2.20895   2.21138   2.21746   2.21879
 Alpha virt. eigenvalues --    2.21972   2.22461   2.22632   2.24009   2.24339
 Alpha virt. eigenvalues --    2.24524   2.24564   2.24742   2.24785   2.25198
 Alpha virt. eigenvalues --    2.25403   2.25843   2.26744   2.26868   2.27031
 Alpha virt. eigenvalues --    2.27206   2.27944   2.28353   2.28911   2.28995
 Alpha virt. eigenvalues --    2.29071   2.29393   2.29845   2.30049   2.30317
 Alpha virt. eigenvalues --    2.30602   2.31305   2.31542   2.31629   2.32072
 Alpha virt. eigenvalues --    2.32510   2.32531   2.32778   2.32906   2.33623
 Alpha virt. eigenvalues --    2.33851   2.34775   2.34985   2.35123   2.35285
 Alpha virt. eigenvalues --    2.35537   2.35849   2.36245   2.36325   2.37013
 Alpha virt. eigenvalues --    2.37318   2.37738   2.37739   2.38607   2.38777
 Alpha virt. eigenvalues --    2.38995   2.39820   2.39943   2.40421   2.40610
 Alpha virt. eigenvalues --    2.40881   2.41368   2.41481   2.41879   2.42143
 Alpha virt. eigenvalues --    2.42527   2.43122   2.43213   2.43878   2.44053
 Alpha virt. eigenvalues --    2.44239   2.44443   2.44469   2.44861   2.45144
 Alpha virt. eigenvalues --    2.45351   2.46051   2.46188   2.46804   2.46935
 Alpha virt. eigenvalues --    2.47610   2.47756   2.48267   2.48503   2.48558
 Alpha virt. eigenvalues --    2.48951   2.49158   2.49423   2.50318   2.50369
 Alpha virt. eigenvalues --    2.50516   2.50905   2.51314   2.52286   2.52374
 Alpha virt. eigenvalues --    2.52581   2.53428   2.53487   2.54327   2.54785
 Alpha virt. eigenvalues --    2.54983   2.55351   2.55592   2.55868   2.56508
 Alpha virt. eigenvalues --    2.56624   2.56732   2.57292   2.57890   2.58116
 Alpha virt. eigenvalues --    2.58178   2.58274   2.58598   2.59050   2.59239
 Alpha virt. eigenvalues --    2.59536   2.59830   2.59836   2.60195   2.60286
 Alpha virt. eigenvalues --    2.60338   2.60934   2.61587   2.61678   2.61799
 Alpha virt. eigenvalues --    2.62183   2.62619   2.63004   2.63216   2.63608
 Alpha virt. eigenvalues --    2.63850   2.63927   2.63976   2.64267   2.64582
 Alpha virt. eigenvalues --    2.64935   2.65807   2.66404   2.66758   2.66786
 Alpha virt. eigenvalues --    2.66876   2.67758   2.67798   2.67976   2.68129
 Alpha virt. eigenvalues --    2.68443   2.68935   2.69000   2.69314   2.69454
 Alpha virt. eigenvalues --    2.69813   2.70344   2.70454   2.70636   2.70676
 Alpha virt. eigenvalues --    2.71035   2.71316   2.71631   2.72094   2.72435
 Alpha virt. eigenvalues --    2.72844   2.73086   2.73294   2.73791   2.73853
 Alpha virt. eigenvalues --    2.74316   2.74349   2.74618   2.74626   2.75085
 Alpha virt. eigenvalues --    2.75436   2.75662   2.76007   2.76908   2.77050
 Alpha virt. eigenvalues --    2.77132   2.77278   2.77470   2.77754   2.78108
 Alpha virt. eigenvalues --    2.78134   2.78382   2.78812   2.78893   2.79193
 Alpha virt. eigenvalues --    2.79495   2.79661   2.79807   2.80272   2.80486
 Alpha virt. eigenvalues --    2.80501   2.80810   2.81090   2.81177   2.81355
 Alpha virt. eigenvalues --    2.82199   2.82230   2.82678   2.82947   2.83033
 Alpha virt. eigenvalues --    2.83369   2.83946   2.84022   2.84270   2.84635
 Alpha virt. eigenvalues --    2.85321   2.86372   2.86721   2.87007   2.87444
 Alpha virt. eigenvalues --    2.87744   2.87872   2.87965   2.88286   2.88402
 Alpha virt. eigenvalues --    2.88880   2.89127   2.89506   2.89562   2.89747
 Alpha virt. eigenvalues --    2.90358   2.90542   2.90868   2.91011   2.91170
 Alpha virt. eigenvalues --    2.91445   2.91776   2.91996   2.92025   2.92309
 Alpha virt. eigenvalues --    2.92549   2.93014   2.93321   2.93562   2.93717
 Alpha virt. eigenvalues --    2.94408   2.94861   2.95003   2.95197   2.95592
 Alpha virt. eigenvalues --    2.95776   2.95993   2.96313   2.96402   2.96579
 Alpha virt. eigenvalues --    2.97040   2.97422   2.97645   2.97687   2.98192
 Alpha virt. eigenvalues --    2.98438   2.99063   2.99536   2.99786   3.00135
 Alpha virt. eigenvalues --    3.00515   3.00548   3.00924   3.01013   3.01093
 Alpha virt. eigenvalues --    3.01893   3.02155   3.02273   3.02968   3.03143
 Alpha virt. eigenvalues --    3.03689   3.04989   3.05105   3.05624   3.05913
 Alpha virt. eigenvalues --    3.06742   3.07207   3.07315   3.07829   3.08091
 Alpha virt. eigenvalues --    3.08903   3.09292   3.09868   3.09992   3.10540
 Alpha virt. eigenvalues --    3.10567   3.11183   3.12303   3.12393   3.12648
 Alpha virt. eigenvalues --    3.13031   3.13173   3.13569   3.14260   3.14378
 Alpha virt. eigenvalues --    3.14470   3.15043   3.15230   3.15627   3.15706
 Alpha virt. eigenvalues --    3.15937   3.16922   3.17441   3.17464   3.17545
 Alpha virt. eigenvalues --    3.17625   3.17865   3.18060   3.18176   3.18780
 Alpha virt. eigenvalues --    3.18911   3.19216   3.19549   3.19947   3.20217
 Alpha virt. eigenvalues --    3.20562   3.21029   3.21483   3.21887   3.22490
 Alpha virt. eigenvalues --    3.22608   3.23401   3.23521   3.23839   3.24559
 Alpha virt. eigenvalues --    3.25400   3.26191   3.26584   3.27284   3.27952
 Alpha virt. eigenvalues --    3.29497   3.30848   3.31071   3.32377   3.32970
 Alpha virt. eigenvalues --    3.33059   3.33257   3.37077   3.37784   3.38040
 Alpha virt. eigenvalues --    3.40057   3.47294   3.47933   3.48479   3.50152
 Alpha virt. eigenvalues --    3.51056   3.53318   3.53350   3.54612   3.54693
 Alpha virt. eigenvalues --    3.55432   3.55520   3.55815   3.56083   3.56709
 Alpha virt. eigenvalues --    3.57169   3.57189   3.59393   3.59595   3.60592
 Alpha virt. eigenvalues --    3.61785   3.64986   3.65390   3.66147   3.67068
 Alpha virt. eigenvalues --    3.67168   3.67533   3.67794   3.68552   3.68967
 Alpha virt. eigenvalues --    3.69315   3.69696   3.69728   3.70238   3.70442
 Alpha virt. eigenvalues --    3.71136   3.71483   3.72149   3.72820   3.74738
 Alpha virt. eigenvalues --    3.77152   3.79998   3.80159   3.82575
          Condensed to atoms (all electrons):
 Mulliken charges:
               1
     1  C    0.040549
     2  C    0.000637
     3  O   -0.283180
     4  H    0.038238
     5  H    0.033990
     6  H    0.030848
     7  N   -0.123558
     8  C    0.114933
     9  C    0.107786
    10  O   -0.293287
    11  C    0.084186
    12  C    0.110513
    13  O   -0.408917
    14  O   -0.430970
    15  H    0.114281
    16  H    0.001311
    17  H    0.008827
    18  H    0.019291
    19  N   -0.124874
    20  C    0.161967
    21  C    0.022422
    22  O   -0.293027
    23  C    0.026971
    24  C   -0.064570
    25  C   -0.011185
    26  C    0.042696
    27  N    0.136505
    28  H    0.129045
    29  H    0.021446
    30  H    0.016473
    31  H    0.018998
    32  H    0.045868
    33  H    0.023319
    34  H    0.038009
    35  H    0.019711
    36  H    0.061483
    37  H    0.081783
    38  H    0.132021
    39  H    0.135663
    40  H    0.136337
    41  N   -0.155503
    42  C    0.145203
    43  C    0.031299
    44  O   -0.318991
    45  C    0.159244
    46  C    0.049979
    47  O   -0.423774
    48  O   -0.424469
    49  H    0.162508
    50  H    0.027986
    51  H   -0.020552
    52  H    0.036254
    53  N   -0.154451
    54  C    0.256246
    55  C    0.006194
    56  O   -0.298645
    57  H    0.127174
    58  H    0.031709
    59  H    0.026165
    60  N   -0.131603
    61  C    0.114635
    62  C    0.161623
    63  O   -0.350059
    64  C    0.130327
    65  C   -0.014154
    66  N   -0.049092
    67  O   -0.259500
    68  H    0.158633
    69  H   -0.018971
    70  H   -0.004441
    71  H    0.024694
    72  H    0.124802
    73  H    0.124563
    74  N   -0.147300
    75  C    0.182245
    76  C    0.029586
    77  O   -0.294190
    78  H    0.130538
    79  H    0.025632
    80  H    0.062467
    81  N   -0.150606
    82  C    0.085472
    83  C    0.164425
    84  O   -0.346661
    85  C    0.139840
    86  C    0.023293
    87  C    0.010325
    88  C   -0.001767
    89  C   -0.022440
    90  C   -0.035983
    91  C    0.165919
    92  O   -0.199387
    93  H    0.147262
    94  H    0.007274
    95  H   -0.051676
    96  H    0.023375
    97  H   -0.034939
    98  H   -0.031499
    99  H   -0.022508
   100  H   -0.056808
   101  H    0.173115
   102  N   -0.119729
   103  C    0.152466
   104  C    0.062102
   105  O   -0.295430
   106  C   -0.082611
   107  C   -0.044293
   108  C    0.095280
   109  C    0.057398
   110  H    0.135189
   111  H   -0.020022
   112  H   -0.043074
   113  H   -0.003431
   114  H    0.009918
   115  H   -0.002336
   116  H    0.019145
   117  H    0.028899
   118  H    0.040068
   119  H    0.040634
   120  H   -0.017075
   121  N   -0.144170
   122  C    0.109566
   123  C    0.082962
   124  O   -0.257188
   125  C    0.229468
   126  O   -0.311637
   127  H    0.134531
   128  H    0.042728
   129  H    0.009772
   130  H    0.009915
   131  H    0.187128
   132  N   -0.123343
   133  C    0.037934
   134  C    0.060396
   135  O   -0.259371
   136  C    0.067507
   137  H    0.107528
   138  H    0.017611
   139  H    0.022018
   140  H   -0.021094
   141  H    0.031886
   142  N   -0.085712
   143  C    0.076982
   144  C    0.024897
   145  O   -0.286277
   146  C    0.045040
   147  H    0.124999
   148  H    0.004146
   149  H    0.008858
   150  H    0.028416
   151  H    0.010937
   152  N   -0.069092
   153  C    0.065728
   154  C    0.076633
   155  O   -0.272861
   156  C    0.055438
   157  C    0.019520
   158  C    0.037585
   159  O   -0.347157
   160  O   -0.377218
   161  H    0.104502
   162  H   -0.010106
   163  H    0.006168
   164  H   -0.021787
   165  H   -0.002686
   166  H   -0.039866
   167  N   -0.176423
   168  C    0.120873
   169  H    0.036610
   170  H    0.036794
   171  H    0.020593
   172  H    0.131618
   173  Ca   1.355047
   174  O   -0.295446
   175  H    0.187648
   176  H    0.185779
 Sum of Mulliken charges =  -0.00000
 Mulliken charges with hydrogens summed into heavy atoms:
               1
     1  C    0.143625
     2  C    0.000637
     3  O   -0.283180
     7  N   -0.009277
     8  C    0.116244
     9  C    0.107786
    10  O   -0.293287
    11  C    0.112304
    12  C    0.110513
    13  O   -0.408917
    14  O   -0.430970
    19  N    0.004171
    20  C    0.183413
    21  C    0.022422
    22  O   -0.293027
    23  C    0.062442
    24  C    0.004616
    25  C    0.046536
    26  C    0.185961
    27  N    0.540525
    41  N    0.007005
    42  C    0.173188
    43  C    0.031299
    44  O   -0.318991
    45  C    0.174945
    46  C    0.049979
    47  O   -0.423774
    48  O   -0.424469
    53  N   -0.027277
    54  C    0.314120
    55  C    0.006194
    56  O   -0.298645
    60  N    0.027030
    61  C    0.095664
    62  C    0.161623
    63  O   -0.350059
    64  C    0.150581
    65  C   -0.014154
    66  N    0.200273
    67  O   -0.259500
    74  N   -0.016763
    75  C    0.270344
    76  C    0.029586
    77  O   -0.294190
    81  N   -0.003344
    82  C    0.092746
    83  C    0.164425
    84  O   -0.346661
    85  C    0.111539
    86  C    0.023293
    87  C   -0.024614
    88  C   -0.033267
    89  C   -0.044948
    90  C   -0.092791
    91  C    0.165919
    92  O   -0.026272
   102  N    0.015461
   103  C    0.132444
   104  C    0.062102
   105  O   -0.295430
   106  C   -0.125685
   107  C   -0.037806
   108  C    0.140988
   109  C    0.121026
   121  N   -0.009639
   122  C    0.152294
   123  C    0.082962
   124  O   -0.257188
   125  C    0.249155
   126  O   -0.124509
   132  N   -0.015815
   133  C    0.055546
   134  C    0.060396
   135  O   -0.259371
   136  C    0.100317
   142  N    0.039287
   143  C    0.081129
   144  C    0.024897
   145  O   -0.286277
   146  C    0.093251
   152  N    0.035410
   153  C    0.055622
   154  C    0.076633
   155  O   -0.272861
   156  C    0.039818
   157  C   -0.023032
   158  C    0.037585
   159  O   -0.347157
   160  O   -0.377218
   167  N   -0.044805
   168  C    0.214870
   173  Ca   1.355047
   174  O    0.077980
 DipInt: DoE/N= T F RetVal/Mat= T F Init=T NMatP=  1 IDeriv=0 Min/MaxMlt=  0  4
 Entering OneElI...
 OneElI was handed  1333951383 working-precision words.
 Multipole integrals L=0 to 4 MinM= 0 MaxM= 0.
 Requested accuracy = 0.1000D-12
 ShPair: Thresh= 1.00D-13 NBox=     0 BxSize= 0.00D+00 RnKept= 2.55D+01
         NSMCal=               327645 NSMKep=              127025
 PrmmSu-InSpLW:  IPartL=    0 NPrtUS=    1 NPrtUL=    1 DoSpLW=F IThBeg=    0 IThEnd=    0 NThAct=    1.
 PrsmSu:  NPrtUS=   1 ThrOK=F IAlg=1 NPAlg=1 LenDen=           0 ISkipM=0 DoSpLW=F IThBeg=    0 IThEnd=    0.
 Prism:   IPart=     0 DynPar=F LinDyn=F Incr=         512.
 PRISM was handed  1325136023 working-precision words and127025 shell-pairs
 IPart=  0 NShTot=      127025 NBatch=         300 AvBLen=       423.4
 PrsmSu-ThDecC:  IPartSL=    0    0 NPrtUSL=    1    1 IThBeg=    0 IThEnd=    0 CPU=   -1 GPU=   -1 NThAct=    1.
 PrSmSu:  NxtVal=            513.
 Electronic moments (au):
       -716.00000000         11.42358460         -3.53001625         -4.78260585
     -88423.05132512     -37702.94052069     -13882.03167131       -159.20942908
        -33.41477410        111.63624346     326185.81255438     -94484.92296940
     -20440.91416882     -85079.14877992     238852.31749385      35884.86403963
      -5451.87850187      31964.23151628     -15678.22501754     -20119.01769098
  -19564115.64577865   -6178574.47680101    -655891.82340122    -400261.81808522
    -702197.08537510     590052.47506695    -687214.10790563    -198423.21709607
     156414.39180077   -2975469.27961630   -2147815.23217122    -687862.77286349
     475252.75562742     429918.20262505     201654.49260582
 Electronic spatial extent (au):  <R**2>=         140008.0235
 DipInt: DoE/N= F T RetVal/Mat= T F Init=T NMatP=  1 IDeriv=0 Min/MaxMlt=  0  4
 Nuclear    moments (au):
        716.00000000          0.00000000          0.00000000          0.00000000
      87912.66732793      37418.75869023      13455.82786428         -0.00000000
          0.00000000          0.00000000    -324004.80642196      92620.55450968
      20178.56790360      88012.83740085    -239145.14389482     -34854.40380765
       6126.54344427     -32342.32306659      13588.52183124      20367.61073190
   19204634.58698932    6093314.11421017     608431.70291008     381183.20959196
     690704.68115481    -624448.88038072     712541.92805812     195045.88470462
    -151443.77419510    2912143.71701909    2087140.21215935     662462.82363478
    -464815.01535484    -438159.50576649    -205787.77429594
 Total      moments (au):
         -0.00000000         11.42358460         -3.53001625         -4.78260585
       -510.38399720       -284.18183046       -426.20380702       -159.20942908
        -33.41477410        111.63624346       2181.00613242      -1864.36845972
       -262.34626522       2933.68862093       -292.82640097       1030.46023198
        674.66494240       -378.09155032      -2089.70318630        248.59304092
    -359481.05878932     -85260.36259084     -47460.12049114     -19078.60849325
     -11492.40422029     -34396.40531378      25327.82015249      -3377.33239145
       4970.61760567     -63325.56259721     -60675.02001187     -25399.94922870
      10437.74027258      -8241.30314144      -4133.28169011
 Traceless Quadrup. (au):
       -103.46078564        122.74138110        -19.28059546       -159.20942908
        -33.41477410        111.63624346
 Charge=             -0.0000 electrons
 Dipole moment (field-independent basis, Debye):
    X=             29.0359    Y=             -8.9724    Z=            -12.1562  Tot=             32.7316
 Quadrupole moment (field-independent basis, Debye-Ang):
   XX=           -686.4840   YY=           -382.2343   ZZ=           -573.2587
   XY=           -214.1421   XZ=            -44.9440   YZ=            150.1546
 Traceless Quadrupole moment (field-independent basis, Debye-Ang):
   XX=           -139.1583   YY=            165.0914   ZZ=            -25.9331
   XY=           -214.1421   XZ=            -44.9440   YZ=            150.1546
 Octapole moment (field-independent basis, Debye-Ang**2):
  XXX=           1552.3561  YYY=          -1326.9856  ZZZ=           -186.7280  XYY=           2088.0865
  XXY=           -208.4226  XXZ=            733.4419  XZZ=            480.2005  YZZ=           -269.1110
  YYZ=          -1487.3702  XYZ=            176.9389
 Hexadecapole moment (field-independent basis, Debye-Ang**3):
 XXXX=        -135397.8044 YYYY=         -32113.1409 ZZZZ=         -17875.7572 XXXY=          -7185.9188
 XXXZ=          -4328.5905 YYYX=         -12955.3356 YYYZ=           9539.6716 ZZZX=          -1272.0653
 ZZZY=           1872.1729 XXYY=         -23851.4434 XXZZ=         -22853.1220 YYZZ=          -9566.8388
 XXYZ=           3931.3535 YYXZ=          -3104.0699 ZZXY=          -1556.7921
 N-N= 1.948616819224D+04 E-N=-5.144781318719D+04  KE= 5.290499635929D+03
 Leave Link  601 at Wed Sep 18 00:01:02 2019, MaxMem=  1342177280 cpu:              45.6 elap:               1.1
 FitSet:  NAtFit=   176 NAtPot=   176 NAtFrz=     0 MDM=   180 TotChg=   0.00000
 Merz-Kollman atomic radii used.
 Read replacement radii for each type of atom:
 Rad(20) =   1.700000000000D+00
 Atom Element Radius
    1     6    1.50
    2     6    1.50
    3     8    1.40
    4     1    1.20
    5     1    1.20
    6     1    1.20
    7     7    1.50
    8     6    1.50
    9     6    1.50
   10     8    1.40
   11     6    1.50
   12     6    1.50
   13     8    1.40
   14     8    1.40
   15     1    1.20
   16     1    1.20
   17     1    1.20
   18     1    1.20
   19     7    1.50
   20     6    1.50
   21     6    1.50
   22     8    1.40
   23     6    1.50
   24     6    1.50
   25     6    1.50
   26     6    1.50
   27     7    1.50
   28     1    1.20
   29     1    1.20
   30     1    1.20
   31     1    1.20
   32     1    1.20
   33     1    1.20
   34     1    1.20
   35     1    1.20
   36     1    1.20
   37     1    1.20
   38     1    1.20
   39     1    1.20
   40     1    1.20
   41     7    1.50
   42     6    1.50
   43     6    1.50
   44     8    1.40
   45     6    1.50
   46     6    1.50
   47     8    1.40
   48     8    1.40
   49     1    1.20
   50     1    1.20
   51     1    1.20
   52     1    1.20
   53     7    1.50
   54     6    1.50
   55     6    1.50
   56     8    1.40
   57     1    1.20
   58     1    1.20
   59     1    1.20
   60     7    1.50
   61     6    1.50
   62     6    1.50
   63     8    1.40
   64     6    1.50
   65     6    1.50
   66     7    1.50
   67     8    1.40
   68     1    1.20
   69     1    1.20
   70     1    1.20
   71     1    1.20
   72     1    1.20
   73     1    1.20
   74     7    1.50
   75     6    1.50
   76     6    1.50
   77     8    1.40
   78     1    1.20
   79     1    1.20
   80     1    1.20
   81     7    1.50
   82     6    1.50
   83     6    1.50
[...]
 **** Fit      -0.002012
 **** Fit      -0.001800
 **** Fit      -0.000298
 **** Fit      -0.000637
 **** Fit      -0.001252
 **** Fit      -0.002411
 **** Fit      -0.004389
 **** Fit      -0.031246
 **** Fit      -0.034237
 **** Fit      -0.002119
 **** Fit      -0.001891
 **** Fit       0.001430
 **** Fit       0.001417
 **** Fit       0.000901
 **** Fit      -0.041060
 **** Fit      -0.038477
 **** Fit      -0.036243
 **** Fit      -0.002449
 **** Fit      -0.002257
 **** Fit       0.003945
 **** Fit      -0.002937
 **** Fit      -0.002786
 **** Fit       0.005103
 **** Fit      -0.003576
 **** Fit      -0.003467
 **** Fit      -0.004412
 **** Fit      -0.004306
 **** Fit      -0.004256
 **** Fit      -0.005367
 **** Fit      -0.005236
 **** Fit      -0.005319
 **** Fit      -0.007454
 **** Fit      -0.006461
 **** Fit      -0.006301
 **** Fit      -0.006554
 **** Fit      -0.006932
 **** Fit      -0.007529
 **** Fit      -0.007624
 **** Fit      -0.008949
 **** Fit      -0.010512
 **** Fit      -0.008770
 **** Fit      -0.007409
 **** Fit      -0.007590
 **** Fit      -0.009180
 **** Fit      -0.010762
 **** Fit      -0.012329
 **** Fit      -0.010584
 **** Fit      -0.008647
 **** Fit      -0.007020
 **** Fit      -0.006036
 **** Fit      -0.005828
 **** Fit      -0.006381
 **** Fit      -0.007629
 **** Fit      -0.009445
 **** Fit      -0.011455
 **** Fit      -0.012956
 **** Fit      -0.013278
 **** Fit      -0.014441
 **** Fit      -0.012594
 **** Fit      -0.010557
 **** Fit      -0.008573
 **** Fit      -0.006845
 **** Fit      -0.004622
 **** Fit      -0.005252
 **** Fit      -0.006303
 **** Fit      -0.007790
 **** Fit      -0.009702
 **** Fit      -0.011900
 **** Fit      -0.014042
 **** Fit      -0.015636
 **** Fit      -0.016256
 **** Fit      -0.015783
 **** Fit      -0.016880
 **** Fit      -0.014781
 **** Fit      -0.012544
 **** Fit      -0.010304
 **** Fit      -0.004569
 **** Fit      -0.005706
 **** Fit      -0.007211
 **** Fit      -0.009144
 **** Fit      -0.011490
 **** Fit      -0.014094
 **** Fit      -0.016631
 **** Fit      -0.018650
 **** Fit      -0.019731
 **** Fit      -0.019680
 **** Fit      -0.018622
 **** Fit      -0.019667
 **** Fit      -0.017226
 **** Fit      -0.014706
 **** Fit      -0.004413
 **** Fit      -0.005797
 **** Fit      -0.007590
 **** Fit      -0.009881
 **** Fit      -0.012669
 **** Fit      -0.015813
 **** Fit      -0.019003
 **** Fit      -0.021774
 **** Fit      -0.023624
 **** Fit      -0.024209
 **** Fit      -0.023524
 **** Fit      -0.021872
 **** Fit      -0.022805
 **** Fit      -0.020059
 **** Fit      -0.017303
 **** Fit      -0.005732
 **** Fit      -0.007813
 **** Fit      -0.010486
 **** Fit      -0.013755
 **** Fit      -0.017495
 **** Fit      -0.021416
 **** Fit      -0.025057
 **** Fit      -0.027845
 **** Fit      -0.029281
 **** Fit      -0.029174
 **** Fit      -0.027740
 **** Fit      -0.025460
 **** Fit      -0.026274
 **** Fit      -0.023147
 **** Fit      -0.005823
 **** Fit      -0.008563
 **** Fit      -0.012106
 **** Fit      -0.016413
 **** Fit      -0.021278
 **** Fit      -0.026288
 **** Fit      -0.030800
 **** Fit      -0.034038
 **** Fit      -0.035377
 **** Fit      -0.034704
 **** Fit      -0.032491
 **** Fit      -0.029480
 **** Fit      -0.030025
 **** Fit      -0.005510
 **** Fit      -0.009116
 **** Fit      -0.013752
 **** Fit      -0.019308
 **** Fit      -0.025476
 **** Fit      -0.031692
 **** Fit      -0.037095
 **** Fit      -0.040674
 **** Fit      -0.041714
 **** Fit      -0.040289
 **** Fit      -0.037235
 **** Fit      -0.033582
 **** Fit      -0.007407
 **** Fit      -0.013162
 **** Fit      -0.020072
 **** Fit      -0.027727
 **** Fit      -0.035416
 **** Fit      -0.042042
 **** Fit      -0.046283
 **** Fit      -0.047259
 **** Fit      -0.045246
 **** Fit      -0.041536
 **** Fit      -0.037515
 **** Fit      -0.008158
 **** Fit      -0.006441
 **** Fit      -0.004996
 **** Fit      -0.012194
 **** Fit      -0.010129
 **** Fit      -0.008118
 **** Fit      -0.006365
 **** Fit      -0.004955
 **** Fit      -0.003873
 **** Fit      -0.003029
 **** Fit      -0.014767
 **** Fit      -0.012300
 **** Fit      -0.009903
 **** Fit      -0.007781
 **** Fit      -0.006036
 **** Fit      -0.004685
 **** Fit      -0.003681
 **** Fit      -0.002931
 **** Fit      -0.020619
 **** Fit      -0.017959
 **** Fit      -0.015055
 **** Fit      -0.012222
 **** Fit      -0.009674
 **** Fit      -0.007528
 **** Fit      -0.005820
 **** Fit      -0.004529
 **** Fit      -0.003592
 **** Fit      -0.002918
 **** Fit      -0.002393
 **** Fit      -0.025295
 **** Fit      -0.021963
 **** Fit      -0.018320
 **** Fit      -0.014774
 **** Fit      -0.011598
 **** Fit      -0.008931
 **** Fit      -0.006814
 **** Fit      -0.005217
 **** Fit      -0.004070
 **** Fit      -0.003279
 **** Fit      -0.002733
 **** Fit      -0.002301
 **** Fit      -0.023007
 **** Fit      -0.018480
 **** Fit      -0.014437
 **** Fit      -0.011055
 **** Fit      -0.008373
 **** Fit      -0.006346
 **** Fit      -0.004883
 **** Fit      -0.003877
 **** Fit      -0.003214
 **** Fit      -0.002771
 **** Fit      -0.002409
 **** Fit      -0.018194
 **** Fit      -0.013759
 **** Fit      -0.010300
 **** Fit      -0.007718
 **** Fit      -0.005869
 **** Fit      -0.004606
 **** Fit      -0.003785
 **** Fit      -0.003271
 **** Fit      -0.002923
 **** Fit      -0.016424
 **** Fit      -0.011977
 **** Fit      -0.008792
 **** Fit      -0.006600
 **** Fit      -0.005159
 **** Fit      -0.004263
 **** Fit      -0.003731
 **** Fit      -0.003390
 **** Fit      -0.013476
 **** Fit      -0.009686
 **** Fit      -0.007212
 **** Fit      -0.005673
 **** Fit      -0.004773
 **** Fit      -0.004269
 **** Fit      -0.010791
 **** Fit      -0.008037
 **** Fit      -0.006401
 **** Fit      -0.005494
 **** Fit      -0.010305
 **** Fit      -0.007922
 **** Fit      -0.001960
 **** Fit      -0.002150
 **** Fit      -0.001653
 **** Fit      -0.001681
 **** Fit      -0.001766
 **** Fit      -0.001931
 **** Fit      -0.002166
 **** Fit      -0.002428
 **** Fit      -0.001503
 **** Fit      -0.001496
 **** Fit      -0.001498
 **** Fit      -0.001544
 **** Fit      -0.001648
 **** Fit      -0.001808
 **** Fit      -0.002006
 **** Fit      -0.002214
 **** Fit      -0.001448
 **** Fit      -0.001438
 **** Fit      -0.001413
 **** Fit      -0.001409
 **** Fit      -0.001446
 **** Fit      -0.001524
 **** Fit      -0.001634
 **** Fit      -0.001756
 **** Fit      -0.001865
 **** Fit      -0.001935
 **** Fit      -0.001491
 **** Fit      -0.001493
 **** Fit      -0.001464
 **** Fit      -0.001440
 **** Fit      -0.001438
 **** Fit      -0.001464
 **** Fit      -0.001511
 **** Fit      -0.001560
 **** Fit      -0.001589
 **** Fit      -0.001568
 **** Fit      -0.001471
 **** Fit      -0.001274
 **** Fit      -0.001659
 **** Fit      -0.001653
 **** Fit      -0.001630
 **** Fit      -0.001615
 **** Fit      -0.001616
 **** Fit      -0.001630
 **** Fit      -0.001639
 **** Fit      -0.001620
 **** Fit      -0.001538
 **** Fit      -0.001353
 **** Fit      -0.001020
 **** Fit      -0.000497
 **** Fit      -0.001906
 **** Fit      -0.001949
 **** Fit      -0.001953
 **** Fit      -0.001953
 **** Fit      -0.001958
 **** Fit      -0.001969
 **** Fit      -0.001970
 **** Fit      -0.001937
 **** Fit      -0.001837
 **** Fit      -0.001623
 **** Fit      -0.001242
 **** Fit      -0.000629
 **** Fit       0.000292
 **** Fit       0.001596
 **** Fit      -0.002352
 **** Fit      -0.002395
 **** Fit      -0.002431
 **** Fit      -0.002468
 **** Fit      -0.002501
 **** Fit      -0.002511
 **** Fit      -0.002470
 **** Fit      -0.002337
 **** Fit      -0.002058
 **** Fit      -0.001564
 **** Fit      -0.000770
 **** Fit       0.000429
 **** Fit       0.002172
 **** Fit      -0.002924
 **** Fit      -0.003014
 **** Fit      -0.003106
 **** Fit      -0.003190
 **** Fit      -0.003242
 **** Fit      -0.003226
 **** Fit      -0.003088
 **** Fit      -0.002756
 **** Fit      -0.002137
 **** Fit      -0.001113
 **** Fit       0.000470
 **** Fit       0.002826
 **** Fit      -0.003574
 **** Fit      -0.003725
 **** Fit      -0.003892
 **** Fit      -0.004047
 **** Fit      -0.004148
 **** Fit      -0.004136
 **** Fit      -0.003927
 **** Fit      -0.003410
 **** Fit      -0.002436
 **** Fit      -0.000812
 **** Fit       0.001717
 **** Fit      -0.004547
 **** Fit      -0.004793
 **** Fit      -0.005031
 **** Fit      -0.005191
 **** Fit      -0.005183
 **** Fit      -0.004880
 **** Fit      -0.004111
 **** Fit      -0.002650
 **** Fit      -0.000204
 **** Fit      -0.005700
 **** Fit      -0.006036
 **** Fit      -0.006290
 **** Fit      -0.006306
 **** Fit      -0.005867
 **** Fit      -0.004668
 **** Fit      -0.002298
 **** Fit      -0.007401
 **** Fit      -0.007408
 **** Fit      -0.006747
 **** Fit      -0.001934
 **** Fit      -0.006136
 **** Fit      -0.011103
 **** Fit      -0.016523
 **** Fit       0.002422
 **** Fit      -0.000471
 **** Fit      -0.004153
 **** Fit      -0.008737
 **** Fit      -0.014243
 **** Fit      -0.020527
 **** Fit      -0.027121
 **** Fit       0.004886
 **** Fit       0.003039
 **** Fit       0.000662
 **** Fit      -0.002403
 **** Fit      -0.006287
 **** Fit      -0.011097
 **** Fit      -0.016888
 **** Fit      -0.023621
 **** Fit       0.004630
 **** Fit       0.003043
 **** Fit       0.000911
 **** Fit      -0.001904
 **** Fit      -0.005531
 **** Fit      -0.010082
 **** Fit      -0.015639
 **** Fit       0.005139
 **** Fit       0.004244
 **** Fit       0.002907
 **** Fit       0.001023
 **** Fit      -0.001515
 **** Fit      -0.004811
 **** Fit      -0.008958
 **** Fit       0.004318
 **** Fit       0.003351
 **** Fit       0.001847
 **** Fit      -0.000258
 **** Fit      -0.003045
 **** Fit      -0.006593
 **** Fit       0.000452
 **** Fit      -0.002252
 **** Fit      -0.005685
 **** Fit       0.006206
 **** Fit       0.006701
 **** Fit       0.004247
 **** Fit       0.012697
 **** Fit       0.012353
 **** Fit       0.016951
 **** Fit       0.010711
 **** Fit       0.020567
 **** Fit       0.014751
 **** Fit       0.020124
 **** Fit       0.013741
 **** Fit       0.012520
 **** Fit       0.011350
 **** Fit       0.014824
 **** Fit       0.006768
 **** Fit       0.017294
 **** Fit       0.010545
 **** Fit       0.001765
 **** Fit       0.014771
 **** Fit       0.007859
 **** Fit      -0.000938
 **** Fit       0.021144
 **** Fit       0.016930
 **** Fit       0.011249
 **** Fit       0.004028
 **** Fit      -0.004834
 **** Fit       0.022287
 **** Fit       0.019940
 **** Fit       0.015940
 **** Fit       0.010330
 **** Fit       0.003107
 **** Fit       0.019394
 **** Fit       0.019739
 **** Fit       0.017811
 **** Fit       0.013905
 **** Fit       0.008122
 **** Fit       0.013245
 **** Fit       0.016005
 **** Fit       0.015566
 **** Fit       0.012521
 **** Fit       0.010320
 **** Fit       0.011848
 **** Fit       0.010114
 **** Fit       0.007158
 **** Fit       0.006185
 **** Fit       0.002171
 **** Fit      -0.000051
 **** Fit      -0.001801
 **** Fit      -0.002820
 **** Fit      -0.001784
 **** Fit      -0.003495
 **** Fit      -0.000651
 **** Fit      -0.000622
 **** Fit      -0.002216
 **** Fit      -0.005860
 **** Fit       0.003003
 **** Fit       0.001944
 **** Fit      -0.000017
 **** Fit      -0.003179
 **** Fit       0.007617
 **** Fit       0.005972
 **** Fit       0.004099
 **** Fit       0.001772
 **** Fit      -0.000966
 **** Fit      -0.003580
 **** Fit       0.010617
 **** Fit       0.008742
 **** Fit       0.006977
 **** Fit       0.005427
 **** Fit       0.004581
 **** Fit       0.016391
 **** Fit       0.014260
 **** Fit       0.012612
 **** Fit       0.011566
 **** Fit       0.020911
 **** Fit       0.018726
 **** Fit       0.007017
 **** Fit       0.004842
 **** Fit       0.007569
 **** Fit       0.007575
 **** Fit       0.005809
 **** Fit       0.008712
 **** Fit       0.009477
 **** Fit       0.008172
 **** Fit       0.008543
 **** Fit       0.010727
 **** Fit       0.011605
 **** Fit       0.011049
 **** Fit       0.009103
 **** Fit       0.005970
 **** Fit       0.001701
 **** Fit       0.012550
 **** Fit       0.013352
 **** Fit       0.014024
 **** Fit       0.013914
 **** Fit       0.012833
 **** Fit       0.010908
 **** Fit       0.008551
 **** Fit       0.006456
 **** Fit       0.005362
 **** Fit       0.005527
 **** Fit       0.006458
 **** Fit       0.007336
 **** Fit       0.018161
 **** Fit       0.017335
 **** Fit       0.016837
 **** Fit       0.015999
 **** Fit       0.014670
 **** Fit       0.013082
 **** Fit       0.011707
 **** Fit       0.011002
 **** Fit       0.011058
 **** Fit       0.011546
 **** Fit       0.021745
 **** Fit       0.020009
 **** Fit       0.018702
 **** Fit       0.017382
 **** Fit       0.016170
 **** Fit       0.015434
 **** Fit       0.015399
 **** Fit       0.022876
 **** Fit       0.020900
 **** Fit       0.019625
 **** Fit       0.019260
 **** Fit       0.023251
 **** Fit       0.014439
 **** Fit       0.018508
 **** Fit       0.004668
 **** Fit       0.020182
 **** Fit       0.020324
 **** Fit       0.021265
 **** Fit       0.021922
 **** Fit       0.021415
 **** Fit       0.019651
 **** Fit       0.017565
 **** Fit       0.016493
 **** Fit       0.017105
 **** Fit       0.019115
 **** Fit       0.021748
 **** Fit       0.011923
 **** Fit       0.011275
 **** Fit       0.012017
 **** Fit       0.014388
 **** Fit       0.021957
 **** Fit       0.022112
 **** Fit       0.022532
 **** Fit       0.022553
 **** Fit       0.021838
 **** Fit       0.020790
 **** Fit       0.020239
 **** Fit       0.020693
 **** Fit       0.021977
 **** Fit       0.023473
 **** Fit       0.024474
 **** Fit       0.024470
 **** Fit       0.023368
 **** Fit       0.021521
 **** Fit       0.019481
 **** Fit       0.017714
 **** Fit       0.016534
 **** Fit       0.016210
 **** Fit       0.016959
 **** Fit       0.018693
 **** Fit       0.020742
 **** Fit       0.022215
 **** Fit       0.023136
 **** Fit       0.023316
 **** Fit       0.023423
 **** Fit       0.023158
 **** Fit       0.022688
 **** Fit       0.022569
 **** Fit       0.023059
 **** Fit       0.023817
 **** Fit       0.024211
 **** Fit       0.023810
 **** Fit       0.022670
 **** Fit       0.021257
 **** Fit       0.020112
 **** Fit       0.019641
 **** Fit       0.020045
 **** Fit       0.021154
 **** Fit       0.022332
 **** Fit       0.022957
 **** Fit       0.023847
 **** Fit       0.024032
 **** Fit       0.023975
 **** Fit       0.023830
 **** Fit       0.023976
 **** Fit       0.024201
 **** Fit       0.023902
 **** Fit       0.023019
 **** Fit       0.022182
 **** Fit       0.022039
 **** Fit       0.022657
 **** Fit       0.023421
 **** Fit       0.024182
 **** Fit       0.024357
 **** Fit       0.024345
 **** Fit       0.024097
 **** Fit       0.023530
 **** Fit       0.023669
 **** Fit       0.024232
 -----------------------------------------------------------------
 Leave Link  602 at Wed Sep 18 00:01:05 2019, MaxMem=  1342177280 cpu:             129.7 elap:               2.8

 Test job not archived.
 1\1\GINC-C498-083\SP\RB3LYP\SVP\C54H83Ca1N15O23\PENGZHI\18-Sep-2019\0\
 \#b3lyp/svp scf=(tight,noincore) Test #IOP(5/87=12) Density=Current Po
 p=(MK,readradii) iop(6/33=2) iop(6/42=6)\\Ng-295_loop3_14.0\\0,1\C,0,-
 4.128,58.6,27.52\C,0,-3.578,57.18,27.43\O,0,-4.138,56.23,27.97\H,0,-5.
 094,58.584,28.024\H,0,-3.435,59.224,28.084\H,0,-4.25,59.007,26.516\N,0
 ,-2.418,57.01,26.79\C,0,-1.678,55.79,26.51\C,0,-0.298,55.79,27.15\O,0,
 0.602,56.46,26.66\C,0,-1.498,55.59,25.01\C,0,-0.738,54.37,24.5\O,0,-0.
 438,53.41,25.25\O,0,-0.278,54.38,23.34\H,0,-2.088,57.84,26.31\H,0,-2.2
 38,54.93,26.87\H,0,-1.118,56.52,24.6\H,0,-2.548,55.43,24.74\N,0,-0.168
 ,55.04,28.25\C,0,0.822,55.22,29.29\C,0,2.252,54.95,28.83\O,0,3.182,55.
 31,29.56\C,0,0.502,54.43,30.55\C,0,0.892,52.96,30.43\C,0,0.542,52.2,31
 .71\C,0,0.972,50.76,31.46\N,0,1.022,50.01,32.73\H,0,-1.008,54.55,28.52
 \H,0,0.732,56.26,29.6\H,0,-0.518,54.68,30.84\H,0,1.112,54.76,31.4\H,0,
 1.942,52.84,30.19\H,0,0.342,52.53,29.59\H,0,-0.528,52.35,31.81\H,0,1.1
 42,52.6,32.54\H,0,1.992,50.86,31.09\H,0,0.312,50.22,30.77\H,0,1.132,49
 .03,32.51\H,0,1.762,50.31,33.35\H,0,0.132,50.05,33.21\N,0,2.482,54.32,
 27.68\C,0,3.802,54.06,27.14\C,0,4.102,55.19,26.16\O,0,5.232,55.18,25.6
 6\C,0,3.862,52.73,26.4\C,0,2.722,52.54,25.41\O,0,2.422,53.45,24.62\O,0
 ,2.042,51.49,25.35\H,0,1.692,54.08,27.1\H,0,4.562,54.14,27.91\H,0,3.71
 2,51.92,27.11\H,0,4.792,52.55,25.84\N,0,3.292,56.22,25.89\C,0,3.572,57
 .37,25.06\C,0,3.802,57.09,23.58\O,0,4.432,57.87,22.88\H,0,2.362,56.15,
 26.28\H,0,4.452,57.87,25.46\H,0,2.672,57.98,25.15\N,0,3.372,55.95,23.0
 4\C,0,3.642,55.51,21.68\C,0,2.352,55.04,21.03\O,0,1.822,53.98,21.33\C,
 0,4.712,54.43,21.77\C,0,5.132,53.93,20.39\N,0,6.142,54.6,19.82\O,0,4.5
 82,53.03,19.77\H,0,2.982,55.27,23.68\H,0,4.042,56.3,21.04\H,0,4.322,53
 .62,22.38\H,0,5.562,54.9,22.26\H,0,6.662,55.28,20.36\H,0,6.212,54.63,1
 8.82\N,0,1.822,55.77,20.04\C,0,0.452,55.61,19.58\C,0,0.142,54.37,18.75
 \O,0,-0.838,54.4,18.\H,0,2.222,56.65,19.75\H,0,0.152,56.5,19.04\H,0,-0
 .148,55.53,20.49\N,0,0.822,53.24,18.95\C,0,0.652,51.93,18.36\C,0,0.362
 ,50.85,19.4\O,0,0.692,50.99,20.58\C,0,1.852,51.73,17.44\C,0,2.072,52.6
 6,16.27\C,0,1.702,52.39,14.94\C,0,2.892,53.76,16.57\C,0,2.142,53.25,13
 .93\C,0,3.252,54.68,15.58\C,0,2.892,54.4,14.25\O,0,3.242,55.3,13.28\H,
 0,1.522,53.31,19.68\H,0,-0.258,52.03,17.76\H,0,1.662,50.73,17.06\H,0,2
 .722,51.59,18.08\H,0,1.192,51.49,14.64\H,0,3.262,53.87,17.58\H,0,1.962
 ,53.02,12.89\H,0,3.882,55.53,15.8\H,0,3.812,55.98,13.66\N,0,-0.408,49.
 87,18.93\C,0,-0.868,48.72,19.68\C,0,0.242,47.73,19.99\O,0,1.202,48.08,
 20.68\C,0,-1.818,49.07,20.83\C,0,-2.288,47.79,21.51\C,0,-2.948,50.01,2
 0.42\C,0,-3.188,47.96,22.73\H,0,-0.448,49.88,17.92\H,0,-1.528,48.21,18
 .97\H,0,-1.188,49.56,21.58\H,0,-1.468,47.17,21.9\H,0,-2.728,47.2,20.71
 \H,0,-2.488,50.9,19.99\H,0,-3.538,49.59,19.61\H,0,-3.448,50.35,21.33\H
 ,0,-4.168,48.26,22.36\H,0,-3.228,46.98,23.21\H,0,-2.798,48.71,23.41\N,
 0,0.152,46.45,19.62\C,0,1.102,45.42,20.01\C,0,1.052,44.16,19.16\O,0,1.
 852,43.27,19.41\C,0,0.732,45.11,21.46\O,0,-0.498,44.42,21.53\H,0,-0.70
 8,46.19,19.15\H,0,2.132,45.78,19.97\H,0,0.652,46.08,21.94\H,0,1.502,44
 .51,21.94\H,0,-0.678,44.21,22.45\N,0,0.142,44.02,18.19\C,0,0.002,42.84
 ,17.36\C,0,0.252,41.45,17.95\O,0,1.162,40.74,17.54\C,0,0.762,43.03,16.
 06\H,0,-0.468,44.79,17.97\H,0,-1.028,42.75,17.\H,0,0.642,42.28,15.27\H
 ,0,0.532,44.,15.62\H,0,1.812,42.97,16.36\N,0,-0.458,40.98,18.98\C,0,-1
 .508,41.54,19.8\C,0,-2.898,41.27,19.24\O,0,-3.138,40.15,18.8\C,0,-1.39
 8,40.88,21.17\H,0,-0.198,40.03,19.2\H,0,-1.348,42.61,19.88\H,0,-1.558,
 39.81,21.11\H,0,-0.458,41.07,21.69\H,0,-2.248,41.07,21.82\N,0,-3.898,4
 2.15,19.29\C,0,-4.018,43.44,19.94\C,0,-4.788,44.38,19.02\O,0,-4.328,45
 .47,18.7\C,0,-4.718,43.37,21.3\C,0,-4.738,44.74,21.96\C,0,-5.718,44.83
 ,23.12\O,0,-6.728,45.56,23.07\O,0,-5.498,44.06,24.08\H,0,-4.778,41.77,
 18.96\H,0,-3.028,43.86,20.1\H,0,-4.178,42.75,22.01\H,0,-5.748,43.03,21
 .15\H,0,-4.968,45.53,21.24\H,0,-3.698,44.77,22.3\N,0,-5.928,43.85,18.5
 8\C,0,-6.798,44.44,17.58\H,0,-7.687,44.843,18.065\H,0,-6.27,45.243,17.
 066\H,0,-7.092,43.678,16.858\H,0,-6.378,43.16,19.16\Ca,0,0.9,52.09,23.
 11\O,0,3.17,50.88,22.27\H,0,3.2,50.17,21.63\H,0,4.09,51.01,22.53\\Vers
 ion=ES64L-G16RevA.03\State=1-A\HF=-5333.4534601\RMSD=4.771e-10\Dipole=
 5.6960376,6.2328713,9.7231214\Quadrupole=-99.8538163,-144.6291119,244.
 4829283,-62.0475298,29.914382,-43.8474827\PG=C01 [X(C54H83Ca1N15O23)]\
 \@


 A DANDELION FROM A LOVER MEANS MORE THAN AN ORCHID FROM A FRIEND.
 Job cpu time:       0 days 17 hours 18 minutes 35.7 seconds.
 Elapsed time:       0 days  0 hours 21 minutes 55.1 seconds.
 File lengths (MBytes):  RWF=   1517 Int=      0 D2E=      0 Chk=    171 Scr=      1
 Normal termination of Gaussian 16 at Wed Sep 18 00:01:06 2019.
