 Entering Gaussian System, Link 0=g16
 Initial command:
 /home1/apps/gaussian/16rA.03/g16/l1.exe "/scratch/01990/pengzhi/4353707/Gau-405292.inp" -scrdir="/scratch/01990/pengzhi/4353707/"
 Entering Link 1 = /home1/apps/gaussian/16rA.03/g16/l1.exe PID=    405293.
  
 Copyright (c) 1988,1990,1992,1993,1995,1998,2003,2009,2016,
            Gaussian, Inc.  All Rights Reserved.
  
 This is part of the Gaussian(R) 16 program.  It is based on
 the Gaussian(R) 09 system (copyright 2009, Gaussian, Inc.),
 the Gaussian(R) 03 system (copyright 2003, Gaussian, Inc.),
 the Gaussian(R) 98 system (copyright 1998, Gaussian, Inc.),
 the Gaussian(R) 94 system (copyright 1995, Gaussian, Inc.),
 the Gaussian 92(TM) system (copyright 1992, Gaussian, Inc.),
 the Gaussian 90(TM) system (copyright 1990, Gaussian, Inc.),
 the Gaussian 88(TM) system (copyright 1988, Gaussian, Inc.),
 the Gaussian 86(TM) system (copyright 1986, Carnegie Mellon
 University), and the Gaussian 82(TM) system (copyright 1983,
 Carnegie Mellon University). Gaussian is a federally registered
 trademark of Gaussian, Inc.
  
 This software contains proprietary and confidential information,
 including trade secrets, belonging to Gaussian, Inc.
  
 This software is provided under written license and may be
 used, copied, transmitted, or stored only in accord with that
 written license.
  
 The following legend is applicable only to US Government
 contracts under FAR:
  
                    RESTRICTED RIGHTS LEGEND
  
 Use, reproduction and disclosure by the US Government is
 subject to restrictions as set forth in subparagraphs (a)
 and (c) of the Commercial Computer Software - Restricted
 Rights clause in FAR 52.227-19.
  
 Gaussian, Inc.
 340 Quinnipiac St., Bldg. 40, Wallingford CT 06492
  
  
 ---------------------------------------------------------------
 Warning -- This program may not be used in any manner that
 competes with the business of Gaussian, Inc. or will provide
 assistance to any competitor of Gaussian, Inc.  The licensee
 of this program is prohibited from giving any competitor of
 Gaussian, Inc. access to this program.  By using this program,
 the user acknowledges that Gaussian, Inc. is engaged in the
 business of creating and licensing software in the field of
 computational chemistry and represents and warrants to the
 licensee that it is not a competitor of Gaussian, Inc. and that
 it will not use this program in any manner prohibited above.
 ---------------------------------------------------------------
  

 Cite this work as:
 Gaussian 16, Revision A.03,
 M. J. Frisch, G. W. Trucks, H. B. Schlegel, G. E. Scuseria, 
 M. A. Robb, J. R. Cheeseman, G. Scalmani, V. Barone, 
 G. A. Petersson, H. Nakatsuji, X. Li, M. Caricato, A. V. Marenich, 
 J. Bloino, B. G. Janesko, R. Gomperts, B. Mennucci, H. P. Hratchian, 
 J. V. Ortiz, A. F. Izmaylov, J. L. Sonnenberg, D. Williams-Young, 
 F. Ding, F. Lipparini, F. Egidi, J. Goings, B. Peng, A. Petrone, 
 T. Henderson, D. Ranasinghe, V. G. Zakrzewski, J. Gao, N. Rega, 
 G. Zheng, W. Liang, M. Hada, M. Ehara, K. Toyota, R. Fukuda, 
 J. Hasegawa, M. Ishida, T. Nakajima, Y. Honda, O. Kitao, H. Nakai, 
 T. Vreven, K. Throssell, J. A. Montgomery, Jr., J. E. Peralta, 
 F. Ogliaro, M. J. Bearpark, J. J. Heyd, E. N. Brothers, K. N. Kudin, 
 V. N. Staroverov, T. A. Keith, R. Kobayashi, J. Normand, 
 K. Raghavachari, A. P. Rendell, J. C. Burant, S. S. Iyengar, 
 J. Tomasi, M. Cossi, J. M. Millam, M. Klene, C. Adamo, R. Cammi, 
 J. W. Ochterski, R. L. Martin, K. Morokuma, O. Farkas, 
 J. B. Foresman, and D. J. Fox, Gaussian, Inc., Wallingford CT, 2016.
 
 ******************************************
 Gaussian 16:  ES64L-G16RevA.03 25-Dec-2016
                18-Sep-2019 
 ******************************************
 %chk=Ng-295_loop3_6.0.chk
 %nprocshared=48
 Will use up to   48 processors via shared memory.
 %mem=10GB
 %nosave
 ----------------------------------------------------------------------
 #b3lyp/svp scf=(tight,noincore) Test #IOP(5/87=12) Density=Current Pop
 =(MK,readradii) iop(6/33=2) iop(6/42=6)
 ----------------------------------------------------------------------
 1/30=1,38=1,172=1/1;
 2/12=2,17=6,18=5,40=1/2;
 3/5=18,7=101,11=2,25=1,30=1,74=-5/1,2,3;
 4//1;
 5/5=4,32=2,38=5,87=12/2;
 6/7=2,8=2,9=2,10=2,15=8,20=101,22=-1,28=1,33=2,42=6/1,2;
 99/5=1,9=1/99;
 ----------------
 Ng-295_loop3_6.0
 ----------------
 Symbolic Z-matrix:
 Charge =  0 Multiplicity = 1
 C                     54.29     53.49     48.08 
 C                     54.45     53.1      49.55 
 O                     53.89     53.8      50.39 
 H                     53.668    54.382    48.007 
 H                     55.27     53.695    47.649 
 H                     53.817    52.672    47.536 
 N                     55.19     52.05     49.91 
 C                     55.78     51.76     51.2 
 C                     56.97     52.7      51.36 
 O                     57.75     52.88     50.44 
 C                     56.25     50.31     51.22 
 C                     56.49     49.78     52.63 
 O                     57.21     48.75     52.68 
 O                     56.15     50.28     53.72 
 H                     55.5      51.53     49.1 
 H                     55.11     51.9      52.05 
 H                     57.12     50.11     50.6 
 H                     55.45     49.71     50.77 
 N                     57.22     53.2      52.58 
 C                     58.1      54.35     52.72 
 C                     59.26     54.15     53.68 
 O                     60.12     55.03     53.76 
 C                     57.25     55.59     52.98 
 C                     55.85     55.62     52.37 
 C                     55.18     56.99     52.39 
 C                     53.89     57.07     51.58 
 N                     53.43     58.46     51.45 
 H                     56.67     53.01     53.4 
 H                     58.59     54.58     51.77 
 H                     57.76     56.48     52.62 
 H                     57.01     55.63     54.04 
 H                     55.24     54.86     52.87 
 H                     55.95     55.24     51.35 
 H                     55.87     57.66     51.88 
 H                     54.99     57.36     53.4 
 H                     53.04     56.56     52.02 
 H                     54.       56.74     50.55 
 H                     54.1      59.01     50.93 
 H                     52.56     58.51     50.95 
 H                     53.35     58.87     52.37 
 N                     59.18     53.08     54.47 
 C                     60.21     52.82     55.46 
 C                     61.49     52.14     54.97 
 O                     62.55     52.24     55.57 
 C                     59.63     51.85     56.48 
 C                     58.82     50.62     56.1 
 O                     59.04     50.11     54.97 
 O                     57.99     50.14     56.9 
 H                     58.29     52.6      54.54 
 H                     60.46     53.74     55.98 
 H                     59.05     52.41     57.22 
 H                     60.4      51.43     57.13 
 N                     61.51     51.54     53.78 
 C                     62.62     50.78     53.24 
 C                     62.75     49.33     53.67 
 O                     63.74     48.68     53.33 
 H                     60.67     51.54     53.23 
 H                     63.6      51.2      53.47 
 H                     62.45     50.75     52.17 
 N                     61.76     48.77     54.38 
 C                     61.61     47.34     54.54 
 C                     60.3      46.77     54. 
 O                     59.27     47.44     54.08 
 C                     61.71     47.04     56.03 
 C                     61.74     45.56     56.41 
 N                     62.79     44.79     56.12 
 O                     60.77     45.11     57.01 
 H                     60.99     49.39     54.57 
 H                     62.42     46.8      54.05 
 H                     60.88     47.49     56.57 
 H                     62.6      47.38     56.56 
 H                     63.55     45.18     55.58 
 H                     62.96     43.87     56.51 
 N                     60.33     45.57     53.42 
 C                     59.29     45.13     52.52 
 C                     57.97     44.66     53.11 
 O                     56.96     44.77     52.41 
 H                     61.22     45.1      53.38 
 H                     59.57     44.2      52.01 
 H                     59.2      45.95     51.81 
 N                     57.96     44.25     54.38 
 C                     56.78     43.64     54.96 
 C                     55.67     44.66     55.17 
 O                     55.94     45.85     55.24 
 C                     57.13     42.95     56.27 
 C                     58.05     41.76     56.22 
 C                     59.42     41.89     56.5 
 C                     57.48     40.56     55.78 
 C                     60.26     40.79     56.3 
 C                     58.3      39.43     55.63 
 C                     59.68     39.58     55.87 
 O                     60.52     38.56     55.55 
 H                     58.81     44.19     54.92 
 H                     56.39     42.95     54.21 
 H                     56.16     42.68     56.69 
 H                     57.5      43.69     56.99 
 H                     59.85     42.84     56.78 
 H                     56.44     40.46     55.49 
 H                     61.32     40.9      56.45 
 H                     57.88     38.53     55.21 
 H                     60.08     37.79     55.2 
 N                     54.46     44.09     55.15 
 C                     53.14     44.65     55.31 
 C                     53.07     45.62     56.49 
 O                     53.98     45.82     57.29 
 C                     52.67     45.15     53.94 
 C                     52.57     43.93     53.03 
 C                     53.27     46.36     53.25 
 C                     51.88     44.12     51.68 
 H                     54.48     43.08     55.2 
 H                     52.49     43.83     55.61 
 H                     51.64     45.47     54.14 
 H                     51.9      43.23     53.53 
 H                     53.56     43.5      52.87 
 H                     53.43     47.22     53.9 
 H                     54.22     46.02     52.83 
 H                     52.61     46.61     52.42 
 H                     50.91     44.55     51.92 
 H                     52.53     44.72     51.04 
 H                     51.85     43.14     51.21 
 N                     51.86     46.11     56.76 
 C                     51.45     46.77     57.98 
 C                     50.19     46.22     58.63 
 O                     50.       46.3      59.84 
 C                     51.32     48.27     57.75 
 O                     50.47     48.46     56.64 
 H                     51.23     46.07     55.97 
 H                     52.19     46.63     58.78 
 H                     52.27     48.78     57.58 
 H                     50.75     48.67     58.59 
 H                     50.38     49.38     56.4 
 N                     49.37     45.54     57.83 
 C                     48.05     44.97     58.06 
 C                     47.23     45.7      59.11 
 O                     46.69     45.09     60.03 
 C                     48.18     43.47     58.29 
 H                     49.65     45.52     56.86 
 H                     47.53     45.15     57.12 
 H                     48.73     43.31     59.22 
 H                     47.23     42.94     58.34 
 H                     48.87     43.07     57.54 
 N                     47.01     47.02     59.08 
 C                     47.17     47.94     57.97 
 C                     45.98     47.95     57.02 
 O                     44.83     47.82     57.43 
 C                     47.47     49.31     58.55 
 H                     46.42     47.29     59.85 
 H                     48.05     47.68     57.38 
 H                     48.48     49.33     58.95 
 H                     47.49     50.11     57.8 
 H                     46.72     49.53     59.3 
 N                     46.03     48.17     55.7 
 C                     47.2      48.23     54.84 
 C                     47.54     46.94     54.12 
 O                     48.7      46.66     53.84 
 C                     47.18     49.33     53.78 
 C                     47.43     50.72     54.36 
 C                     47.57     51.8      53.3 
 O                     46.54     52.19     52.69 
 O                     48.67     52.24     52.9 
 H                     45.15     48.18     55.21 
 H                     48.1      48.45     55.42 
 H                     46.21     49.24     53.29 
 H                     47.94     49.09     53.04 
 H                     48.3      50.81     55.02 
 H                     46.57     51.04     54.94 
 N                     46.52     46.21     53.66 
 C                     46.65     45.22     52.61 
 H                     47.695    44.924    52.517 
 H                     46.046    44.346    52.857 
 H                     46.308    45.644    51.666 
 H                     45.59     46.57     53.81 
 Ca                    57.06     48.35     55.26 
 O                     54.51     48.93     55.44 
 H                     53.97     49.21     54.7 
 H                     54.19     49.46     56.18 
 
 Stoichiometry    C54H83CaN15O23
 Framework group  C1[X(C54H83CaN15O23)]
 Deg. of freedom   522
 Full point group                 C1      NOp   1
 Largest Abelian subgroup         C1      NOp   1
 Largest concise Abelian subgroup C1      NOp   1
                         Standard orientation:                         
 ---------------------------------------------------------------------
 Center     Atomic      Atomic             Coordinates (Angstroms)
 Number     Number       Type             X           Y           Z
 ---------------------------------------------------------------------
      1          6           0       -1.325809    6.993253    4.507370
      2          6           0       -1.175243    6.151250    3.239711
      3          8           0       -0.602976    6.662240    2.280233
      4          1           0       -0.875389    7.972814    4.347812
      5          1           0       -2.383724    7.114201    4.740552
      6          1           0       -0.824904    6.494114    5.337275
      7          7           0       -1.667595    4.913361    3.169562
      8          6           0       -1.981313    4.131012    1.992357
      9          6           0       -3.263136    4.713450    1.406699
     10          8           0       -4.203555    5.000563    2.128072
     11          6           0       -2.203335    2.679435    2.401539
     12          6           0       -2.118167    1.708994    1.227831
     13          8           0       -2.645684    0.587937    1.444063
     14          8           0       -1.686504    1.912923    0.076406
     15          1           0       -2.020417    4.611949    4.068042
     16          1           0       -1.210746    4.140397    1.219609
     17          1           0       -3.120762    2.503431    2.957101
     18          1           0       -1.403520    2.421569    3.106026
     19          7           0       -3.384023    4.757092    0.070892
     20          6           0       -4.401112    5.604491   -0.532387
     21          6           0       -5.338627    4.889369   -1.489918
     22          8           0       -6.303006    5.507839   -1.945843
     23          6           0       -3.729270    6.853454   -1.094900
     24          6           0       -2.472954    7.353262   -0.384363
     25          6           0       -2.036881    8.759206   -0.783564
     26          6           0       -0.928782    9.343741    0.086513
     27          7           0       -0.725138   10.770838   -0.200756
     28          1           0       -2.682401    4.443940   -0.577692
     29          1           0       -5.072315    6.006623    0.231338
     30          1           0       -4.427664    7.686496   -1.104271
     31          1           0       -3.326289    6.617973   -2.077221
     32          1           0       -1.674829    6.619157   -0.538592
     33          1           0       -2.678667    7.288887    0.687243
     34          1           0       -2.900111    9.396218   -0.598767
     35          1           0       -1.743650    8.835741   -1.832973
     36          1           0        0.052927    8.909630   -0.068390
     37          1           0       -1.153885    9.326881    1.149972
     38          1           0       -1.551364   11.303319    0.035071
     39          1           0        0.030495   11.147329    0.343923
     40          1           0       -0.560275   10.889396   -1.190535
     41          7           0       -4.958524    3.670221   -1.870179
     42          6           0       -5.754962    2.916778   -2.822340
     43          6           0       -6.972983    2.170693   -2.273996
     44          8           0       -7.920912    1.864512   -2.982010
     45          6           0       -4.866166    1.823232   -3.398448
     46          6           0       -3.944206    0.959928   -2.551042
     47          8           0       -4.264135    0.783412   -1.346099
     48          8           0       -2.927038    0.440331   -3.055710
     49          1           0       -4.004070    3.384559   -1.683586
     50          1           0       -6.059173    3.563782   -3.639739
     51          1           0       -4.268626    2.238407   -4.215867
     52          1           0       -5.440406    1.077379   -3.951396
     53          7           0       -7.093850    1.969601   -0.961955
     54          6           0       -8.141943    1.199066   -0.322362
     55          6           0       -7.965105   -0.307377   -0.261891
     56          8           0       -8.880851   -1.011707    0.166511
     57          1           0       -6.367705    2.308604   -0.357067
     58          1           0       -9.124606    1.319378   -0.780181
     59          1           0       -8.149221    1.530845    0.709418
     60          7           0       -6.794374   -0.841326   -0.638838
     61          6           0       -6.393064   -2.189843   -0.302013
     62          6           0       -5.116711   -2.288034    0.530982
     63          8           0       -4.208373   -1.477959    0.344164
     64          6           0       -6.195196   -2.941886   -1.611738
     65          6           0       -5.924544   -4.440586   -1.483894
     66          7           0       -6.871180   -5.284047   -1.069220
     67          8           0       -4.809123   -4.842874   -1.795987
     68          1           0       -6.112789   -0.164417   -0.939894
     69          1           0       -7.176140   -2.709412    0.249929
     70          1           0       -5.369964   -2.517150   -2.178828
     71          1           0       -7.027715   -2.968676   -2.315154
     72          1           0       -7.762700   -4.912807   -0.771441
     73          1           0       -6.824702   -6.293357   -1.150046
     74          7           0       -5.050113   -3.234704    1.467295
     75          6           0       -4.117011   -3.157908    2.566669
     76          6           0       -2.659473   -3.504100    2.307570
     77          8           0       -1.810388   -2.982384    3.034940
     78          1           0       -5.847586   -3.842151    1.565508
     79          1           0       -4.325272   -3.925781    3.321915
     80          1           0       -4.278419   -2.160870    2.972210
     81          7           0       -2.373461   -4.269177    1.252130
     82          6           0       -1.031411   -4.771274    1.033724
     83          6           0       -0.079663   -3.658605    0.618100
     84          8           0       -0.521187   -2.627822    0.131847
     85          6           0       -1.044271   -5.882761   -0.005089
     86          6           0       -1.757391   -7.163294    0.336518
     87          6           0       -3.064859   -7.407877   -0.113935
     88          6           0       -1.083723   -8.029609    1.204947
     89          6           0       -3.739417   -8.542736    0.347222
     90          6           0       -1.725725   -9.203470    1.631191
     91          6           0       -3.052759   -9.419345    1.210621
     92          8           0       -3.760024  -10.443327    1.758012
     93          1           0       -3.101396   -4.663023    0.675332
     94          1           0       -0.665925   -5.105755    2.005960
     95          1           0        0.012489   -6.062901   -0.207595
     96          1           0       -1.403272   -5.488550   -0.963533
     97          1           0       -3.588837   -6.696944   -0.735081
     98          1           0       -0.103830   -7.821649    1.619992
     99          1           0       -4.763596   -8.702979    0.058121
    100          1           0       -1.242702   -9.827416    2.366161
    101          1           0       -3.266728  -10.963463    2.386596
    102          7           0        1.185645   -3.935161    0.952632
    103          6           0        2.407047   -3.192351    0.757669
    104          6           0        2.515707   -2.633690   -0.661588
    105          8           0        1.730917   -2.876829   -1.574324
    106          6           0        2.557123   -2.214874    1.928060
    107          6           0        2.698677   -3.053336    3.194332
    108          6           0        1.665208   -1.002295    2.113372
    109          6           0        3.115749   -2.325345    4.471352
    110          1           0        1.336082   -4.894269    1.236323
    111          1           0        3.220517   -3.913370    0.815084
    112          1           0        3.541369   -1.766918    1.743953
    113          1           0        3.545586   -3.719322    3.026684
    114          1           0        1.777590   -3.607603    3.381378
    115          1           0        1.479739   -0.432165    1.203288
    116          1           0        0.725512   -1.385681    2.518943
    117          1           0        2.129750   -0.382503    2.879570
    118          1           0        4.030645   -1.799463    4.207132
    119          1           0        2.281077   -1.705807    4.805412
    120          1           0        3.223778   -3.088411    5.238333
    121          7           0        3.659519   -2.011940   -0.948333
    122          6           0        4.155262   -1.684265   -2.267033
    123          6           0        5.577170   -2.135403   -2.562418
    124          8           0        5.949980   -2.389447   -3.703941
    125          6           0        4.003601   -0.192022   -2.531622
    126          8           0        4.616179    0.495862   -1.462854
    127          1           0        4.147905   -1.680289   -0.127306
    128          1           0        3.590297   -2.208972   -3.049782
    129          1           0        2.969374    0.139632   -2.640621
    130          1           0        4.633600    0.041859   -3.391216
    131          1           0        4.516739    1.443246   -1.531227
    132          7           0        6.351185   -2.357346   -1.501079
    133          6           0        7.765004   -2.687284   -1.389469
    134          6           0        8.620308   -2.158900   -2.528357
    135          8           0        9.395990   -2.895284   -3.133465
    136          6           0        7.916665   -4.179528   -1.124879
    137          1           0        5.921011   -2.138772   -0.614018
    138          1           0        8.086267   -2.127898   -0.511815
    139          1           0        7.561350   -4.723411   -2.002913
    140          1           0        8.934185   -4.493357   -0.896704
    141          1           0        7.184826   -4.465308   -0.362421
    142          7           0        8.618202   -0.876447   -2.911777
    143          6           0        8.131169    0.283902   -2.190329
    144          6           0        9.129936    0.825331   -1.176417
    145          8           0       10.337790    0.815360   -1.396619
    146          6           0        7.716255    1.321186   -3.217552
    147          1           0        9.276851   -0.738186   -3.660753
    148          1           0        7.218587    0.040909   -1.644207
    149          1           0        6.796603    1.011527   -3.706276
    150          1           0        7.444374    2.289234   -2.779529
    151          1           0        8.535279    1.451757   -3.914367
    152          7           0        8.827108    1.420599   -0.015705
    153          6           0        7.536342    1.497971    0.647649
    154          6           0        7.292461    0.446584    1.712171
    155          8           0        6.162044    0.033520    1.944409
    156          6           0        7.203957    2.847492    1.281930
    157          6           0        6.834497    3.913626    0.253407
    158          6           0        6.349619    5.211773    0.877352
    159          8           0        7.188294    5.970805    1.430157
    160          8           0        5.142476    5.517409    0.991340
    161          1           0        9.600530    1.758881    0.533825
    162          1           0        6.721588    1.342289   -0.064206
    163          1           0        8.080956    3.111150    1.873923
    164          1           0        6.380061    2.693227    1.974893
    165          1           0        6.083006    3.618828   -0.487508
    166          1           0        7.716358    4.211391   -0.305214
    167          7           0        8.325494    0.115835    2.492138
    168          6           0        8.183215   -0.513195    3.789665
    169          1           0        7.198283   -0.974377    3.863889
    170          1           0        8.951772   -1.277790    3.909730
    171          1           0        8.291566    0.238006    4.571863
    172          1           0        9.197738    0.595716    2.331187
    173         20           0       -2.007727   -0.536922   -0.828954
    174          8           0        0.410678    0.470293   -0.919158
    175          1           0        0.768580    1.066102   -0.259978
    176          1           0        0.760018    0.804313   -1.754198
 ---------------------------------------------------------------------
 Rotational constants (GHZ):           0.0167141           0.0121879           0.0081862
 Standard basis: SVP (5D, 7F)
 There are  1809 symmetry adapted cartesian basis functions of A   symmetry.
 There are  1717 symmetry adapted basis functions of A   symmetry.
  1717 basis functions,  2922 primitive gaussians,  1809 cartesian basis functions
   358 alpha electrons      358 beta electrons
       nuclear repulsion energy     19679.0075180525 Hartrees.
 NAtoms=  176 NActive=  176 NUniq=  176 SFac= 1.00D+00 NAtFMM=   60 NAOKFM=T Big=T
 Integral buffers will be    131072 words long.
 Raffenetti 2 integral format.
 Two-electron integral symmetry is turned on.
 One-electron integrals computed using PRISM.
 NBasis=  1717 RedAO= T EigKep=  2.85D-04  NBF=  1717
 NBsUse=  1717 1.00D-06 EigRej= -1.00D+00 NBFU=  1717
 ExpMin= 1.98D-02 ExpMax= 3.51D+04 ExpMxC= 5.28D+03 IAcc=3 IRadAn=         5 AccDes= 0.00D+00
 Harris functional with IExCor=  402 and IRadAn=       5 diagonalized for initial guess.
 HarFok:  IExCor=  402 AccDes= 0.00D+00 IRadAn=         5 IDoV= 1 UseB2=F ITyADJ=14
 ICtDFT=  3500011 ScaDFX=  1.000000  1.000000  1.000000  1.000000
 FoFCou: FMM=F IPFlag=           0 FMFlag=      100000 FMFlg1=        2001
         NFxFlg=           0 DoJE=T BraDBF=F KetDBF=T FulRan=T
         wScrn=  0.000000 ICntrl=       500 IOpCl=  0 I1Cent=   200000004 NGrid=           0
         NMat0=    1 NMatS0=      1 NMatT0=    0 NMatD0=    1 NMtDS0=    0 NMtDT0=    0
 Petite list used in FoFCou.
 Requested convergence on RMS density matrix=1.00D-08 within 128 cycles.
 Requested convergence on MAX density matrix=1.00D-06.
 Requested convergence on             energy=1.00D-06.
 No special actions if energy rises.
 EnCoef did     2 forward-backward iterations
 EnCoef did     3 forward-backward iterations
 EnCoef did     3 forward-backward iterations
 EnCoef did     7 forward-backward iterations
 EnCoef did   100 forward-backward iterations
 EnCoef did   100 forward-backward iterations
 EnCoef did    12 forward-backward iterations
 Rare condition: small coef for last iteration:  0.000D+00
 EnCoef did   100 forward-backward iterations
 Rare condition: small coef for last iteration:  0.000D+00
 Restarting incremental Fock formation.
 EnCoef did   100 forward-backward iterations
 Rare condition: small coef for last iteration:  0.000D+00
 EnCoef did   100 forward-backward iterations
 Rare condition: small coef for last iteration:  0.000D+00
 Rare condition: small coef for last iteration:  0.000D+00
 EnCoef did   100 forward-backward iterations
 EnCoef did   100 forward-backward iterations
 Rare condition: small coef for last iteration: -0.361D-15
 EnCoef did   100 forward-backward iterations
 EnCoef did   100 forward-backward iterations
 Rare condition: small coef for last iteration: -0.257D-14
 EnCoef did    33 forward-backward iterations
 EnCoef did   100 forward-backward iterations
 EnCoef did   100 forward-backward iterations
 Rare condition: small coef for last iteration: -0.679D-15
 EnCoef did   100 forward-backward iterations
 EnCoef did   100 forward-backward iterations
 EnCoef did     9 forward-backward iterations
 Restarting incremental Fock formation.
 SCF Done:  E(RB3LYP) =  -5333.45181542     A.U. after   45 cycles
            NFock= 45  Conv=0.17D-08     -V/T= 2.0081
 SCF density gives NOpUse=  1 NOpAll=  1.
 Hyperfine terms turned off by default for NAtoms > 100.

 **********************************************************************

            Population analysis using the SCF density.

 **********************************************************************

 Orbital symmetries:
 BldTbl:  Degeneracy threshold= 1.00D-02
       Occupied  (A) (A) (A) (A) (A) (A) (A) (A) (A) (A) (A) (A)
                 (A) (A) (A) (A) (A) (A) (A) (A) (A) (A) (A) (A)
                 (A) (A) (A) (A) (A) (A) (A) (A) (A) (A) (A) (A)
                 (A) (A) (A) (A) (A) (A) (A) (A) (A) (A) (A) (A)
                 (A) (A) (A) (A) (A) (A) (A) (A) (A) (A) (A) (A)
                 (A) (A) (A) (A) (A) (A) (A) (A) (A) (A) (A) (A)
                 (A) (A) (A) (A) (A) (A) (A) (A) (A) (A) (A) (A)
                 (A) (A) (A) (A) (A) (A) (A) (A) (A) (A) (A) (A)
                 (A) (A) (A) (A) (A) (A) (A) (A) (A) (A) (A) (A)
                 (A) (A) (A) (A) (A) (A) (A) (A) (A) (A) (A) (A)
                 (A) (A) (A) (A) (A) (A) (A) (A) (A) (A) (A) (A)
                 (A) (A) (A) (A) (A) (A) (A) (A) (A) (A) (A) (A)
                 (A) (A) (A) (A) (A) (A) (A) (A) (A) (A) (A) (A)
                 (A) (A) (A) (A) (A) (A) (A) (A) (A) (A) (A) (A)
                 (A) (A) (A) (A) (A) (A) (A) (A) (A) (A) (A) (A)
                 (A) (A) (A) (A) (A) (A) (A) (A) (A) (A) (A) (A)
                 (A) (A) (A) (A) (A) (A) (A) (A) (A) (A) (A) (A)
                 (A) (A) (A) (A) (A) (A) (A) (A) (A) (A) (A) (A)
                 (A) (A) (A) (A) (A) (A) (A) (A) (A) (A) (A) (A)
                 (A) (A) (A) (A) (A) (A) (A) (A) (A) (A) (A) (A)
                 (A) (A) (A) (A) (A) (A) (A) (A) (A) (A) (A) (A)
                 (A) (A) (A) (A) (A) (A) (A) (A) (A) (A) (A) (A)
                 (A) (A) (A) (A) (A) (A) (A) (A) (A) (A) (A) (A)
                 (A) (A) (A) (A) (A) (A) (A) (A) (A) (A) (A) (A)
                 (A) (A) (A) (A) (A) (A) (A) (A) (A) (A) (A) (A)
                 (A) (A) (A) (A) (A) (A) (A) (A) (A) (A) (A) (A)
                 (A) (A) (A) (A) (A) (A) (A) (A) (A) (A) (A) (A)
                 (A) (A) (A) (A) (A) (A) (A) (A) (A) (A) (A) (A)
                 (A) (A) (A) (A) (A) (A) (A) (A) (A) (A) (A) (A)
                 (A) (A) (A) (A) (A) (A) (A) (A) (A) (A)
       Virtual   (A) (A) (A) (A) (A) (A) (A) (A) (A) (A) (A) (A)
                 (A) (A) (A) (A) (A) (A) (A) (A) (A) (A) (A) (A)
                 (A) (A) (A) (A) (A) (A) (A) (A) (A) (A) (A) (A)
                 (A) (A) (A) (A) (A) (A) (A) (A) (A) (A) (A) (A)
                 (A) (A) (A) (A) (A) (A) (A) (A) (A) (A) (A) (A)
                 (A) (A) (A) (A) (A) (A) (A) (A) (A) (A) (A) (A)
                 (A) (A) (A) (A) (A) (A) (A) (A) (A) (A) (A) (A)
                 (A) (A) (A) (A) (A) (A) (A) (A) (A) (A) (A) (A)
                 (A) (A) (A) (A) (A) (A) (A) (A) (A) (A) (A) (A)
                 (A) (A) (A) (A) (A) (A) (A) (A) (A) (A) (A) (A)
                 (A) (A) (A) (A) (A) (A) (A) (A) (A) (A) (A) (A)
                 (A) (A) (A) (A) (A) (A) (A) (A) (A) (A) (A) (A)
                 (A) (A) (A) (A) (A) (A) (A) (A) (A) (A) (A) (A)
                 (A) (A) (A) (A) (A) (A) (A) (A) (A) (A) (A) (A)
                 (A) (A) (A) (A) (A) (A) (A) (A) (A) (A) (A) (A)
                 (A) (A) (A) (A) (A) (A) (A) (A) (A) (A) (A) (A)
                 (A) (A) (A) (A) (A) (A) (A) (A) (A) (A) (A) (A)
                 (A) (A) (A) (A) (A) (A) (A) (A) (A) (A) (A) (A)
                 (A) (A) (A) (A) (A) (A) (A) (A) (A) (A) (A) (A)
                 (A) (A) (A) (A) (A) (A) (A) (A) (A) (A) (A) (A)
                 (A) (A) (A) (A) (A) (A) (A) (A) (A) (A) (A) (A)
                 (A) (A) (A) (A) (A) (A) (A) (A) (A) (A) (A) (A)
                 (A) (A) (A) (A) (A) (A) (A) (A) (A) (A) (A) (A)
                 (A) (A) (A) (A) (A) (A) (A) (A) (A) (A) (A) (A)
                 (A) (A) (A) (A) (A) (A) (A) (A) (A) (A) (A) (A)
                 (A) (A) (A) (A) (A) (A) (A) (A) (A) (A) (A) (A)
                 (A) (A) (A) (A) (A) (A) (A) (A) (A) (A) (A) (A)
                 (A) (A) (A) (A) (A) (A) (A) (A) (A) (A) (A) (A)
                 (A) (A) (A) (A) (A) (A) (A) (A) (A) (A) (A) (A)
                 (A) (A) (A) (A) (A) (A) (A) (A) (A) (A) (A) (A)
                 (A) (A) (A) (A) (A) (A) (A) (A) (A) (A) (A) (A)
                 (A) (A) (A) (A) (A) (A) (A) (A) (A) (A) (A) (A)
                 (A) (A) (A) (A) (A) (A) (A) (A) (A) (A) (A) (A)
                 (A) (A) (A) (A) (A) (A) (A) (A) (A) (A) (A) (A)
                 (A) (A) (A) (A) (A) (A) (A) (A) (A) (A) (A) (A)
                 (A) (A) (A) (A) (A) (A) (A) (A) (A) (A) (A) (A)
                 (A) (A) (A) (A) (A) (A) (A) (A) (A) (A) (A) (A)
                 (A) (A) (A) (A) (A) (A) (A) (A) (A) (A) (A) (A)
                 (A) (A) (A) (A) (A) (A) (A) (A) (A) (A) (A) (A)
                 (A) (A) (A) (A) (A) (A) (A) (A) (A) (A) (A) (A)
                 (A) (A) (A) (A) (A) (A) (A) (A) (A) (A) (A) (A)
                 (A) (A) (A) (A) (A) (A) (A) (A) (A) (A) (A) (A)
                 (A) (A) (A) (A) (A) (A) (A) (A) (A) (A) (A) (A)
                 (A) (A) (A) (A) (A) (A) (A) (A) (A) (A) (A) (A)
                 (A) (A) (A) (A) (A) (A) (A) (A) (A) (A) (A) (A)
                 (A) (A) (A) (A) (A) (A) (A) (A) (A) (A) (A) (A)
                 (A) (A) (A) (A) (A) (A) (A) (A) (A) (A) (A) (A)
                 (A) (A) (A) (A) (A) (A) (A) (A) (A) (A) (A) (A)
                 (A) (A) (A) (A) (A) (A) (A) (A) (A) (A) (A) (A)
                 (A) (A) (A) (A) (A) (A) (A) (A) (A) (A) (A) (A)
                 (A) (A) (A) (A) (A) (A) (A) (A) (A) (A) (A) (A)
                 (A) (A) (A) (A) (A) (A) (A) (A) (A) (A) (A) (A)
                 (A) (A) (A) (A) (A) (A) (A) (A) (A) (A) (A) (A)
                 (A) (A) (A) (A) (A) (A) (A) (A) (A) (A) (A) (A)
                 (A) (A) (A) (A) (A) (A) (A) (A) (A) (A) (A) (A)
                 (A) (A) (A) (A) (A) (A) (A) (A) (A) (A) (A) (A)
                 (A) (A) (A) (A) (A) (A) (A) (A) (A) (A) (A) (A)
                 (A) (A) (A) (A) (A) (A) (A) (A) (A) (A) (A) (A)
                 (A) (A) (A) (A) (A) (A) (A) (A) (A) (A) (A) (A)
                 (A) (A) (A) (A) (A) (A) (A) (A) (A) (A) (A) (A)
                 (A) (A) (A) (A) (A) (A) (A) (A) (A) (A) (A) (A)
                 (A) (A) (A) (A) (A) (A) (A) (A) (A) (A) (A) (A)
                 (A) (A) (A) (A) (A) (A) (A) (A) (A) (A) (A) (A)
                 (A) (A) (A) (A) (A) (A) (A) (A) (A) (A) (A) (A)
                 (A) (A) (A) (A) (A) (A) (A) (A) (A) (A) (A) (A)
                 (A) (A) (A) (A) (A) (A) (A) (A) (A) (A) (A) (A)
                 (A) (A) (A) (A) (A) (A) (A) (A) (A) (A) (A) (A)
                 (A) (A) (A) (A) (A) (A) (A) (A) (A) (A) (A) (A)
                 (A) (A) (A) (A) (A) (A) (A) (A) (A) (A) (A) (A)
                 (A) (A) (A) (A) (A) (A) (A) (A) (A) (A) (A) (A)
                 (A) (A) (A) (A) (A) (A) (A) (A) (A) (A) (A) (A)
                 (A) (A) (A) (A) (A) (A) (A) (A) (A) (A) (A) (A)
                 (A) (A) (A) (A) (A) (A) (A) (A) (A) (A) (A) (A)
                 (A) (A) (A) (A) (A) (A) (A) (A) (A) (A) (A) (A)
                 (A) (A) (A) (A) (A) (A) (A) (A) (A) (A) (A) (A)
                 (A) (A) (A) (A) (A) (A) (A) (A) (A) (A) (A) (A)
                 (A) (A) (A) (A) (A) (A) (A) (A) (A) (A) (A) (A)
                 (A) (A) (A) (A) (A) (A) (A) (A) (A) (A) (A) (A)
                 (A) (A) (A) (A) (A) (A) (A) (A) (A) (A) (A) (A)
                 (A) (A) (A) (A) (A) (A) (A) (A) (A) (A) (A) (A)
                 (A) (A) (A) (A) (A) (A) (A) (A) (A) (A) (A) (A)
                 (A) (A) (A) (A) (A) (A) (A) (A) (A) (A) (A) (A)
                 (A) (A) (A) (A) (A) (A) (A) (A) (A) (A) (A) (A)
                 (A) (A) (A) (A) (A) (A) (A) (A) (A) (A) (A) (A)
                 (A) (A) (A) (A) (A) (A) (A) (A) (A) (A) (A) (A)
                 (A) (A) (A) (A) (A) (A) (A) (A) (A) (A) (A) (A)
                 (A) (A) (A) (A) (A) (A) (A) (A) (A) (A) (A) (A)
                 (A) (A) (A) (A) (A) (A) (A) (A) (A) (A) (A) (A)
                 (A) (A) (A) (A) (A) (A) (A) (A) (A) (A) (A) (A)
                 (A) (A) (A) (A) (A) (A) (A) (A) (A) (A) (A) (A)
                 (A) (A) (A) (A) (A) (A) (A) (A) (A) (A) (A) (A)
                 (A) (A) (A) (A) (A) (A) (A) (A) (A) (A) (A) (A)
                 (A) (A) (A) (A) (A) (A) (A) (A) (A) (A) (A) (A)
                 (A) (A) (A) (A) (A) (A) (A) (A) (A) (A) (A) (A)
                 (A) (A) (A) (A) (A) (A) (A) (A) (A) (A) (A) (A)
                 (A) (A) (A) (A) (A) (A) (A) (A) (A) (A) (A) (A)
                 (A) (A) (A) (A) (A) (A) (A) (A) (A) (A) (A) (A)
                 (A) (A) (A) (A) (A) (A) (A) (A) (A) (A) (A) (A)
                 (A) (A) (A) (A) (A) (A) (A) (A) (A) (A) (A) (A)
                 (A) (A) (A) (A) (A) (A) (A) (A) (A) (A) (A) (A)
                 (A) (A) (A) (A) (A) (A) (A) (A) (A) (A) (A) (A)
                 (A) (A) (A) (A) (A) (A) (A) (A) (A) (A) (A) (A)
                 (A) (A) (A) (A) (A) (A) (A) (A) (A) (A) (A) (A)
                 (A) (A) (A) (A) (A) (A) (A) (A) (A) (A) (A) (A)
                 (A) (A) (A) (A) (A) (A) (A) (A) (A) (A) (A) (A)
                 (A) (A) (A) (A) (A) (A) (A) (A) (A) (A) (A) (A)
                 (A) (A) (A) (A) (A) (A) (A) (A) (A) (A) (A) (A)
                 (A) (A) (A) (A) (A) (A) (A) (A) (A) (A) (A) (A)
                 (A) (A) (A) (A) (A) (A) (A) (A) (A) (A) (A) (A)
                 (A) (A) (A) (A) (A) (A) (A) (A) (A) (A) (A) (A)
                 (A) (A) (A) (A) (A) (A) (A) (A) (A) (A) (A) (A)
                 (A) (A) (A) (A) (A) (A) (A) (A) (A) (A) (A) (A)
                 (A) (A) (A) (A) (A) (A) (A) (A) (A) (A) (A) (A)
                 (A) (A) (A)
 The electronic state is 1-A.
 Alpha  occ. eigenvalues -- -145.39307 -19.17818 -19.17492 -19.14714 -19.13428
 Alpha  occ. eigenvalues --  -19.13409 -19.11971 -19.10939 -19.10671 -19.10432
 Alpha  occ. eigenvalues --  -19.09979 -19.09879 -19.09512 -19.08896 -19.08838
 Alpha  occ. eigenvalues --  -19.08374 -19.08016 -19.07436 -19.07205 -19.07124
 Alpha  occ. eigenvalues --  -19.06612 -19.04435 -18.95721 -18.95240 -15.45122
 Alpha  occ. eigenvalues --  -14.55115 -14.39643 -14.38666 -14.38314 -14.37264
 Alpha  occ. eigenvalues --  -14.36766 -14.36423 -14.36252 -14.35975 -14.35902
 Alpha  occ. eigenvalues --  -14.35144 -14.34955 -14.34389 -14.34119 -14.33098
 Alpha  occ. eigenvalues --  -12.58715 -12.58696 -12.58677 -10.32074 -10.31945
 Alpha  occ. eigenvalues --  -10.31449 -10.31203 -10.29936 -10.29747 -10.29023
 Alpha  occ. eigenvalues --  -10.28825 -10.28605 -10.28599 -10.27811 -10.27178
 Alpha  occ. eigenvalues --  -10.27096 -10.27051 -10.27037 -10.26709 -10.26663
 Alpha  occ. eigenvalues --  -10.26573 -10.26210 -10.25797 -10.25389 -10.25327
 Alpha  occ. eigenvalues --  -10.25261 -10.25109 -10.24360 -10.23853 -10.23813
 Alpha  occ. eigenvalues --  -10.23618 -10.23329 -10.22827 -10.22491 -10.22425
 Alpha  occ. eigenvalues --  -10.21929 -10.21703 -10.21525 -10.21377 -10.21311
 Alpha  occ. eigenvalues --  -10.21126 -10.20933 -10.20922 -10.20760 -10.20571
 Alpha  occ. eigenvalues --  -10.20420 -10.20378 -10.18872 -10.18723 -10.18443
 Alpha  occ. eigenvalues --  -10.18163 -10.17955 -10.17796 -10.17765 -10.15961
 Alpha  occ. eigenvalues --  -10.15586 -10.12323  -1.81910  -1.11008  -1.09483
 Alpha  occ. eigenvalues --   -1.09286  -1.09184  -1.06533  -1.06467  -1.06012
 Alpha  occ. eigenvalues --   -1.04983  -1.04337  -1.04286  -1.03558  -1.03433
 Alpha  occ. eigenvalues --   -1.03065  -1.03004  -1.02728  -1.02528  -1.02422
 Alpha  occ. eigenvalues --   -1.02163  -1.02159  -1.01427  -1.01402  -1.00982
 Alpha  occ. eigenvalues --   -1.00521  -0.96091  -0.95925  -0.94107  -0.93981
 Alpha  occ. eigenvalues --   -0.93892  -0.93159  -0.92867  -0.92618  -0.92274
 Alpha  occ. eigenvalues --   -0.92226  -0.92140  -0.91679  -0.90346  -0.90311
 Alpha  occ. eigenvalues --   -0.90001  -0.89618  -0.89591  -0.86767  -0.86722
 Alpha  occ. eigenvalues --   -0.83568  -0.81254  -0.81106  -0.80445  -0.79305
 Alpha  occ. eigenvalues --   -0.79301  -0.78907  -0.78218  -0.76870  -0.76674
 Alpha  occ. eigenvalues --   -0.76494  -0.76345  -0.75762  -0.75424  -0.75156
 Alpha  occ. eigenvalues --   -0.73506  -0.73358  -0.73179  -0.71762  -0.71548
 Alpha  occ. eigenvalues --   -0.71229  -0.69990  -0.69340  -0.68160  -0.67569
 Alpha  occ. eigenvalues --   -0.66912  -0.66627  -0.66332  -0.65573  -0.65499
 Alpha  occ. eigenvalues --   -0.65118  -0.64499  -0.63920  -0.63521  -0.62703
 Alpha  occ. eigenvalues --   -0.62422  -0.62328  -0.61807  -0.61278  -0.61057
 Alpha  occ. eigenvalues --   -0.60894  -0.60182  -0.60032  -0.59295  -0.59151
 Alpha  occ. eigenvalues --   -0.58768  -0.58200  -0.58198  -0.57828  -0.57725
 Alpha  occ. eigenvalues --   -0.57630  -0.57574  -0.56981  -0.56795  -0.56639
 Alpha  occ. eigenvalues --   -0.56532  -0.55735  -0.55187  -0.54653  -0.54556
 Alpha  occ. eigenvalues --   -0.54032  -0.53421  -0.53277  -0.53108  -0.52678
 Alpha  occ. eigenvalues --   -0.52440  -0.51750  -0.51367  -0.51008  -0.50873
 Alpha  occ. eigenvalues --   -0.50810  -0.50474  -0.50190  -0.49881  -0.49778
 Alpha  occ. eigenvalues --   -0.49520  -0.49410  -0.49050  -0.48990  -0.48947
 Alpha  occ. eigenvalues --   -0.48500  -0.47938  -0.47746  -0.47729  -0.47342
 Alpha  occ. eigenvalues --   -0.47171  -0.47108  -0.46816  -0.46695  -0.46521
 Alpha  occ. eigenvalues --   -0.46355  -0.46301  -0.46156  -0.46113  -0.45636
 Alpha  occ. eigenvalues --   -0.45632  -0.45552  -0.45507  -0.45321  -0.45051
 Alpha  occ. eigenvalues --   -0.44768  -0.44549  -0.44445  -0.44276  -0.44083
 Alpha  occ. eigenvalues --   -0.43693  -0.43340  -0.43285  -0.43115  -0.42976
 Alpha  occ. eigenvalues --   -0.42852  -0.42836  -0.42644  -0.42430  -0.42370
 Alpha  occ. eigenvalues --   -0.42257  -0.42227  -0.42073  -0.41959  -0.41676
 Alpha  occ. eigenvalues --   -0.41562  -0.41434  -0.41433  -0.41203  -0.41067
 Alpha  occ. eigenvalues --   -0.40868  -0.40859  -0.40814  -0.40553  -0.40289
 Alpha  occ. eigenvalues --   -0.40250  -0.40152  -0.40070  -0.39731  -0.39603
 Alpha  occ. eigenvalues --   -0.39577  -0.39454  -0.39300  -0.39259  -0.39085
 Alpha  occ. eigenvalues --   -0.38964  -0.38868  -0.38747  -0.38694  -0.38558
 Alpha  occ. eigenvalues --   -0.38083  -0.37827  -0.37772  -0.37743  -0.37455
 Alpha  occ. eigenvalues --   -0.37278  -0.37074  -0.36769  -0.36642  -0.36470
 Alpha  occ. eigenvalues --   -0.36434  -0.36289  -0.36193  -0.36115  -0.36108
 Alpha  occ. eigenvalues --   -0.35605  -0.35454  -0.35340  -0.35293  -0.34940
 Alpha  occ. eigenvalues --   -0.34810  -0.34765  -0.34615  -0.34400  -0.34228
 Alpha  occ. eigenvalues --   -0.33857  -0.33184  -0.33086  -0.32949  -0.31534
 Alpha  occ. eigenvalues --   -0.30964  -0.30869  -0.30385  -0.29993  -0.29619
 Alpha  occ. eigenvalues --   -0.29348  -0.29142  -0.28712  -0.28305  -0.28086
 Alpha  occ. eigenvalues --   -0.27940  -0.27648  -0.27523  -0.27245  -0.27088
 Alpha  occ. eigenvalues --   -0.26926  -0.26668  -0.26524  -0.26422  -0.26290
 Alpha  occ. eigenvalues --   -0.26135  -0.25992  -0.25936  -0.25772  -0.25636
 Alpha  occ. eigenvalues --   -0.25604  -0.25339  -0.24859  -0.24855  -0.24717
 Alpha  occ. eigenvalues --   -0.24377  -0.24217  -0.23851  -0.23576  -0.23258
 Alpha  occ. eigenvalues --   -0.23101  -0.22881  -0.22550  -0.22380  -0.20769
 Alpha  occ. eigenvalues --   -0.13915  -0.12740  -0.09704
 Alpha virt. eigenvalues --   -0.08526  -0.03762  -0.02851  -0.02460  -0.02157
 Alpha virt. eigenvalues --   -0.02000  -0.01787  -0.01082  -0.00577  -0.00210
 Alpha virt. eigenvalues --   -0.00085   0.00260   0.00735   0.00850   0.00996
 Alpha virt. eigenvalues --    0.01303   0.01507   0.01792   0.01838   0.01954
 Alpha virt. eigenvalues --    0.02414   0.02641   0.02749   0.02955   0.03165
 Alpha virt. eigenvalues --    0.03344   0.03610   0.03739   0.03840   0.04192
 Alpha virt. eigenvalues --    0.04551   0.04605   0.05305   0.05427   0.05670
 Alpha virt. eigenvalues --    0.05925   0.06353   0.06489   0.06754   0.07094
 Alpha virt. eigenvalues --    0.07257   0.07627   0.07711   0.07958   0.08017
 Alpha virt. eigenvalues --    0.08149   0.08250   0.08423   0.08685   0.08885
 Alpha virt. eigenvalues --    0.08943   0.09411   0.09745   0.09846   0.09956
 Alpha virt. eigenvalues --    0.10199   0.10346   0.10567   0.10616   0.10707
 Alpha virt. eigenvalues --    0.11035   0.11170   0.11345   0.11525   0.11703
 Alpha virt. eigenvalues --    0.11964   0.12140   0.12293   0.12382   0.12539
 Alpha virt. eigenvalues --    0.12689   0.12790   0.12925   0.13010   0.13232
 Alpha virt. eigenvalues --    0.13411   0.13470   0.13630   0.13929   0.14006
 Alpha virt. eigenvalues --    0.14115   0.14205   0.14492   0.14568   0.14713
 Alpha virt. eigenvalues --    0.14812   0.14880   0.14954   0.15043   0.15415
 Alpha virt. eigenvalues --    0.15501   0.15583   0.15953   0.16137   0.16229
 Alpha virt. eigenvalues --    0.16420   0.16504   0.16596   0.16961   0.17168
 Alpha virt. eigenvalues --    0.17274   0.17578   0.17787   0.17874   0.17988
 Alpha virt. eigenvalues --    0.18070   0.18200   0.18661   0.18749   0.18892
 Alpha virt. eigenvalues --    0.19008   0.19092   0.19254   0.19310   0.19500
 Alpha virt. eigenvalues --    0.19787   0.20149   0.20275   0.20548   0.20920
 Alpha virt. eigenvalues --    0.20969   0.21458   0.21539   0.21906   0.21968
 Alpha virt. eigenvalues --    0.22298   0.22365   0.22432   0.22601   0.22869
 Alpha virt. eigenvalues --    0.23071   0.23343   0.23397   0.23452   0.23572
 Alpha virt. eigenvalues --    0.23698   0.23799   0.24089   0.24512   0.24574
 Alpha virt. eigenvalues --    0.24802   0.24826   0.24983   0.25643   0.25986
 Alpha virt. eigenvalues --    0.26136   0.26349   0.26414   0.26676   0.26901
 Alpha virt. eigenvalues --    0.27366   0.27404   0.27815   0.28016   0.28217
 Alpha virt. eigenvalues --    0.28554   0.28673   0.28885   0.28991   0.29451
 Alpha virt. eigenvalues --    0.29581   0.29945   0.30355   0.30559   0.31073
 Alpha virt. eigenvalues --    0.31307   0.31450   0.31527   0.32011   0.32427
 Alpha virt. eigenvalues --    0.32597   0.32778   0.32995   0.33421   0.33621
 Alpha virt. eigenvalues --    0.33967   0.34213   0.34268   0.34419   0.34626
 Alpha virt. eigenvalues --    0.35174   0.35328   0.35628   0.35854   0.36345
 Alpha virt. eigenvalues --    0.36418   0.36657   0.37271   0.37527   0.37757
 Alpha virt. eigenvalues --    0.38018   0.38375   0.38898   0.39077   0.39422
 Alpha virt. eigenvalues --    0.39479   0.39660   0.39889   0.40295   0.40678
 Alpha virt. eigenvalues --    0.40937   0.41035   0.41247   0.41365   0.41856
 Alpha virt. eigenvalues --    0.42033   0.42255   0.42405   0.42449   0.42794
 Alpha virt. eigenvalues --    0.42913   0.43309   0.43370   0.43620   0.43685
 Alpha virt. eigenvalues --    0.43867   0.44319   0.44441   0.44536   0.44735
 Alpha virt. eigenvalues --    0.44775   0.44909   0.45203   0.45280   0.45476
 Alpha virt. eigenvalues --    0.45605   0.45878   0.46112   0.46412   0.46414
 Alpha virt. eigenvalues --    0.46574   0.46954   0.47073   0.47338   0.47390
 Alpha virt. eigenvalues --    0.47675   0.47966   0.48276   0.48400   0.48680
 Alpha virt. eigenvalues --    0.48757   0.48894   0.49019   0.49337   0.49512
 Alpha virt. eigenvalues --    0.49654   0.49948   0.50167   0.50278   0.50476
 Alpha virt. eigenvalues --    0.50732   0.50940   0.51138   0.51295   0.51410
 Alpha virt. eigenvalues --    0.51605   0.51724   0.51900   0.52151   0.52274
 Alpha virt. eigenvalues --    0.52564   0.52759   0.52829   0.52962   0.53298
 Alpha virt. eigenvalues --    0.53336   0.53759   0.53993   0.54566   0.54825
 Alpha virt. eigenvalues --    0.54945   0.54991   0.55191   0.55370   0.55635
 Alpha virt. eigenvalues --    0.56088   0.56158   0.56330   0.56768   0.56984
 Alpha virt. eigenvalues --    0.57009   0.57228   0.57384   0.57502   0.57809
 Alpha virt. eigenvalues --    0.57883   0.57996   0.58220   0.58300   0.58453
 Alpha virt. eigenvalues --    0.58585   0.58666   0.58805   0.59028   0.59152
 Alpha virt. eigenvalues --    0.59227   0.59515   0.59746   0.59805   0.60106
 Alpha virt. eigenvalues --    0.60152   0.60398   0.60464   0.60654   0.60812
 Alpha virt. eigenvalues --    0.60929   0.61091   0.61118   0.61265   0.61370
 Alpha virt. eigenvalues --    0.61592   0.61808   0.61839   0.61887   0.62052
 Alpha virt. eigenvalues --    0.62169   0.62261   0.62447   0.62494   0.62590
 Alpha virt. eigenvalues --    0.62740   0.62857   0.62969   0.63153   0.63237
 Alpha virt. eigenvalues --    0.63344   0.63493   0.63579   0.63726   0.63889
 Alpha virt. eigenvalues --    0.63926   0.63968   0.64067   0.64156   0.64295
 Alpha virt. eigenvalues --    0.64441   0.64471   0.64554   0.64659   0.64687
 Alpha virt. eigenvalues --    0.64811   0.64867   0.65092   0.65158   0.65175
 Alpha virt. eigenvalues --    0.65317   0.65475   0.65667   0.65685   0.65891
 Alpha virt. eigenvalues --    0.66052   0.66213   0.66282   0.66367   0.66548
 Alpha virt. eigenvalues --    0.66621   0.66745   0.66878   0.67037   0.67245
 Alpha virt. eigenvalues --    0.67318   0.67472   0.67542   0.67574   0.67817
 Alpha virt. eigenvalues --    0.67922   0.67957   0.68163   0.68183   0.68270
 Alpha virt. eigenvalues --    0.68458   0.68515   0.68718   0.68755   0.68900
 Alpha virt. eigenvalues --    0.69141   0.69255   0.69443   0.69465   0.69510
 Alpha virt. eigenvalues --    0.69633   0.69827   0.69940   0.70052   0.70361
 Alpha virt. eigenvalues --    0.70393   0.70437   0.70645   0.70682   0.71020
 Alpha virt. eigenvalues --    0.71045   0.71185   0.71264   0.71380   0.71575
 Alpha virt. eigenvalues --    0.71693   0.71792   0.72052   0.72158   0.72254
 Alpha virt. eigenvalues --    0.72329   0.72561   0.72701   0.72833   0.73023
 Alpha virt. eigenvalues --    0.73233   0.73420   0.73544   0.73772   0.73964
 Alpha virt. eigenvalues --    0.74142   0.74254   0.74494   0.74531   0.74602
 Alpha virt. eigenvalues --    0.74799   0.75003   0.75129   0.75179   0.75214
 Alpha virt. eigenvalues --    0.75657   0.75845   0.76022   0.76204   0.76402
 Alpha virt. eigenvalues --    0.76581   0.76887   0.77064   0.77342   0.77664
 Alpha virt. eigenvalues --    0.77990   0.78129   0.78363   0.78454   0.78524
 Alpha virt. eigenvalues --    0.78674   0.79228   0.79423   0.79469   0.79773
 Alpha virt. eigenvalues --    0.80302   0.80540   0.80586   0.80800   0.81041
 Alpha virt. eigenvalues --    0.81427   0.81974   0.82479   0.82630   0.82964
 Alpha virt. eigenvalues --    0.83255   0.83299   0.83913   0.83932   0.84462
 Alpha virt. eigenvalues --    0.84675   0.84783   0.85078   0.85373   0.85497
 Alpha virt. eigenvalues --    0.85560   0.86159   0.86515   0.86976   0.87018
 Alpha virt. eigenvalues --    0.87655   0.87806   0.87905   0.88131   0.88383
 Alpha virt. eigenvalues --    0.88780   0.88995   0.89157   0.89808   0.90047
 Alpha virt. eigenvalues --    0.90208   0.90571   0.91022   0.91124   0.91488
 Alpha virt. eigenvalues --    0.92002   0.92177   0.92352   0.92744   0.93022
 Alpha virt. eigenvalues --    0.93254   0.93466   0.93819   0.94201   0.94568
 Alpha virt. eigenvalues --    0.94974   0.95316   0.95532   0.95979   0.96262
 Alpha virt. eigenvalues --    0.96497   0.96650   0.96782   0.97098   0.97244
 Alpha virt. eigenvalues --    0.97504   0.97743   0.97821   0.98346   0.98629
 Alpha virt. eigenvalues --    0.98690   0.98822   0.98979   0.99289   0.99677
 Alpha virt. eigenvalues --    1.00304   1.00456   1.00797   1.01363   1.01507
 Alpha virt. eigenvalues --    1.01676   1.01823   1.02202   1.02698   1.02981
 Alpha virt. eigenvalues --    1.03150   1.03371   1.03804   1.04299   1.04426
 Alpha virt. eigenvalues --    1.04775   1.05134   1.05415   1.05425   1.05853
 Alpha virt. eigenvalues --    1.05926   1.06117   1.06517   1.06737   1.07021
 Alpha virt. eigenvalues --    1.07164   1.07602   1.07938   1.08395   1.08711
 Alpha virt. eigenvalues --    1.09094   1.09394   1.09808   1.10141   1.10570
 Alpha virt. eigenvalues --    1.11059   1.11263   1.11530   1.11840   1.11878
 Alpha virt. eigenvalues --    1.12215   1.12258   1.12556   1.12664   1.13234
 Alpha virt. eigenvalues --    1.13630   1.13679   1.13971   1.14029   1.14121
 Alpha virt. eigenvalues --    1.14289   1.14417   1.14896   1.15408   1.15611
 Alpha virt. eigenvalues --    1.15673   1.15910   1.16236   1.16402   1.16570
 Alpha virt. eigenvalues --    1.16809   1.16930   1.17045   1.17448   1.17753
 Alpha virt. eigenvalues --    1.18160   1.18323   1.18540   1.18730   1.19193
 Alpha virt. eigenvalues --    1.19513   1.19631   1.19955   1.20493   1.20761
 Alpha virt. eigenvalues --    1.20795   1.21409   1.21576   1.21704   1.21847
 Alpha virt. eigenvalues --    1.21968   1.22356   1.22580   1.23167   1.23289
 Alpha virt. eigenvalues --    1.23604   1.23888   1.23996   1.24217   1.24528
 Alpha virt. eigenvalues --    1.24623   1.24934   1.25488   1.25703   1.25805
 Alpha virt. eigenvalues --    1.25929   1.26075   1.26534   1.27076   1.27209
 Alpha virt. eigenvalues --    1.27297   1.27701   1.27799   1.28124   1.28185
 Alpha virt. eigenvalues --    1.28390   1.28611   1.28884   1.29150   1.29586
 Alpha virt. eigenvalues --    1.30091   1.30336   1.30794   1.30827   1.30937
 Alpha virt. eigenvalues --    1.31554   1.31794   1.32237   1.32318   1.32691
 Alpha virt. eigenvalues --    1.32772   1.33030   1.33262   1.33402   1.33698
 Alpha virt. eigenvalues --    1.34330   1.34657   1.34772   1.35127   1.35229
 Alpha virt. eigenvalues --    1.35565   1.35690   1.36003   1.36337   1.36762
 Alpha virt. eigenvalues --    1.36890   1.37019   1.37790   1.38201   1.38560
 Alpha virt. eigenvalues --    1.38853   1.38998   1.39477   1.39497   1.40010
 Alpha virt. eigenvalues --    1.40383   1.40446   1.40866   1.41107   1.41170
 Alpha virt. eigenvalues --    1.41621   1.41759   1.42072   1.42091   1.42361
 Alpha virt. eigenvalues --    1.42510   1.42661   1.42718   1.43072   1.43826
 Alpha virt. eigenvalues --    1.43951   1.44127   1.44335   1.44360   1.44476
 Alpha virt. eigenvalues --    1.45110   1.45548   1.46176   1.46439   1.46702
 Alpha virt. eigenvalues --    1.46972   1.47367   1.47514   1.47859   1.47954
 Alpha virt. eigenvalues --    1.48308   1.48437   1.48672   1.50125   1.50185
 Alpha virt. eigenvalues --    1.50523   1.50682   1.50728   1.50994   1.51283
 Alpha virt. eigenvalues --    1.51775   1.52224   1.52377   1.52509   1.52828
 Alpha virt. eigenvalues --    1.52978   1.53214   1.53688   1.54783   1.55026
 Alpha virt. eigenvalues --    1.55056   1.55468   1.55838   1.56356   1.56529
 Alpha virt. eigenvalues --    1.56854   1.57079   1.57367   1.57563   1.58150
 Alpha virt. eigenvalues --    1.58262   1.58543   1.59012   1.59253   1.59412
 Alpha virt. eigenvalues --    1.59422   1.60270   1.60794   1.61366   1.61669
 Alpha virt. eigenvalues --    1.62772   1.62872   1.63179   1.63303   1.63433
 Alpha virt. eigenvalues --    1.63625   1.64028   1.64476   1.65083   1.65302
 Alpha virt. eigenvalues --    1.65396   1.65527   1.65546   1.65898   1.66015
 Alpha virt. eigenvalues --    1.66111   1.66504   1.67509   1.67925   1.68209
 Alpha virt. eigenvalues --    1.68526   1.68817   1.69041   1.69450   1.69920
 Alpha virt. eigenvalues --    1.70374   1.70916   1.71171   1.71379   1.71485
 Alpha virt. eigenvalues --    1.71530   1.71833   1.72007   1.72295   1.72579
 Alpha virt. eigenvalues --    1.72657   1.72910   1.73125   1.73399   1.73450
 Alpha virt. eigenvalues --    1.73600   1.73734   1.74022   1.74387   1.74667
 Alpha virt. eigenvalues --    1.74726   1.74812   1.74984   1.75112   1.75176
 Alpha virt. eigenvalues --    1.75400   1.75607   1.75727   1.75797   1.75817
 Alpha virt. eigenvalues --    1.75936   1.76261   1.76400   1.76499   1.76783
 Alpha virt. eigenvalues --    1.76867   1.76959   1.77083   1.77169   1.77350
 Alpha virt. eigenvalues --    1.77559   1.77715   1.77792   1.78017   1.78170
 Alpha virt. eigenvalues --    1.78307   1.78378   1.78445   1.78621   1.78751
 Alpha virt. eigenvalues --    1.78899   1.79000   1.79384   1.79668   1.79755
 Alpha virt. eigenvalues --    1.79879   1.80004   1.80215   1.80302   1.80465
 Alpha virt. eigenvalues --    1.80663   1.80986   1.81087   1.81189   1.81485
 Alpha virt. eigenvalues --    1.81821   1.81987   1.82043   1.82113   1.82239
 Alpha virt. eigenvalues --    1.82320   1.82724   1.82831   1.82978   1.83073
 Alpha virt. eigenvalues --    1.83105   1.83420   1.83747   1.83839   1.84122
 Alpha virt. eigenvalues --    1.84328   1.84623   1.84711   1.85122   1.85215
 Alpha virt. eigenvalues --    1.85290   1.85544   1.85746   1.86004   1.86099
 Alpha virt. eigenvalues --    1.86195   1.86334   1.86651   1.86857   1.87041
 Alpha virt. eigenvalues --    1.87331   1.87380   1.87886   1.88012   1.88065
 Alpha virt. eigenvalues --    1.88455   1.88606   1.88808   1.89169   1.89420
 Alpha virt. eigenvalues --    1.89470   1.89655   1.89798   1.89895   1.90118
 Alpha virt. eigenvalues --    1.90450   1.90591   1.90666   1.90790   1.90874
 Alpha virt. eigenvalues --    1.91009   1.91046   1.91126   1.91254   1.91501
 Alpha virt. eigenvalues --    1.91733   1.91857   1.92408   1.92565   1.92697
 Alpha virt. eigenvalues --    1.92912   1.93131   1.93177   1.93823   1.93982
 Alpha virt. eigenvalues --    1.94103   1.94202   1.94486   1.94582   1.94786
 Alpha virt. eigenvalues --    1.95033   1.95332   1.95552   1.95674   1.95924
 Alpha virt. eigenvalues --    1.96019   1.96435   1.96526   1.96744   1.96933
 Alpha virt. eigenvalues --    1.97200   1.97236   1.97328   1.98003   1.98202
 Alpha virt. eigenvalues --    1.98341   1.98781   1.98819   1.99352   1.99670
 Alpha virt. eigenvalues --    1.99808   1.99960   1.99999   2.00241   2.01036
 Alpha virt. eigenvalues --    2.01218   2.01500   2.02111   2.02207   2.02334
 Alpha virt. eigenvalues --    2.02993   2.03108   2.03519   2.03748   2.04099
 Alpha virt. eigenvalues --    2.04339   2.04637   2.04933   2.04988   2.05022
 Alpha virt. eigenvalues --    2.05243   2.05487   2.05554   2.05736   2.06081
 Alpha virt. eigenvalues --    2.06376   2.06477   2.07011   2.07138   2.07244
 Alpha virt. eigenvalues --    2.07561   2.07868   2.07947   2.08245   2.08435
 Alpha virt. eigenvalues --    2.08616   2.08815   2.09727   2.10069   2.10187
 Alpha virt. eigenvalues --    2.10400   2.10675   2.11192   2.11410   2.11458
 Alpha virt. eigenvalues --    2.11970   2.12043   2.12551   2.12782   2.12978
 Alpha virt. eigenvalues --    2.13447   2.13803   2.14233   2.14307   2.14629
 Alpha virt. eigenvalues --    2.14889   2.15400   2.15721   2.15855   2.15914
 Alpha virt. eigenvalues --    2.16112   2.16396   2.16536   2.16904   2.17150
 Alpha virt. eigenvalues --    2.17223   2.17502   2.17634   2.17981   2.18514
 Alpha virt. eigenvalues --    2.18736   2.19088   2.19165   2.19577   2.19662
 Alpha virt. eigenvalues --    2.20511   2.20683   2.21387   2.21505   2.22196
 Alpha virt. eigenvalues --    2.22298   2.22503   2.23254   2.23493   2.23521
 Alpha virt. eigenvalues --    2.24052   2.24793   2.24911   2.25137   2.25306
 Alpha virt. eigenvalues --    2.25372   2.26506   2.26759   2.27162   2.27344
 Alpha virt. eigenvalues --    2.27700   2.27877   2.28036   2.28323   2.28924
 Alpha virt. eigenvalues --    2.29209   2.30000   2.30288   2.30500   2.30940
 Alpha virt. eigenvalues --    2.31209   2.31676   2.31764   2.32071   2.32197
 Alpha virt. eigenvalues --    2.32340   2.32560   2.33217   2.33340   2.33426
 Alpha virt. eigenvalues --    2.33655   2.33922   2.34461   2.34556   2.34609
 Alpha virt. eigenvalues --    2.35395   2.36172   2.36615   2.36752   2.36921
 Alpha virt. eigenvalues --    2.37535   2.37941   2.38269   2.38579   2.38846
 Alpha virt. eigenvalues --    2.39124   2.39165   2.39380   2.39677   2.39868
 Alpha virt. eigenvalues --    2.40663   2.40736   2.41097   2.41451   2.41529
 Alpha virt. eigenvalues --    2.41625   2.41764   2.42203   2.42561   2.42999
 Alpha virt. eigenvalues --    2.43415   2.43519   2.43841   2.44356   2.44624
 Alpha virt. eigenvalues --    2.45231   2.45513   2.46326   2.46411   2.46743
 Alpha virt. eigenvalues --    2.46906   2.47212   2.47668   2.48173   2.48213
 Alpha virt. eigenvalues --    2.48309   2.48643   2.48898   2.49344   2.49704
 Alpha virt. eigenvalues --    2.50080   2.50845   2.51089   2.51230   2.52022
 Alpha virt. eigenvalues --    2.52727   2.53344   2.53403   2.53691   2.54330
 Alpha virt. eigenvalues --    2.54638   2.54745   2.55186   2.55319   2.55502
 Alpha virt. eigenvalues --    2.55674   2.55770   2.55884   2.56758   2.57132
 Alpha virt. eigenvalues --    2.57488   2.57626   2.58100   2.58337   2.58560
 Alpha virt. eigenvalues --    2.58978   2.59183   2.59586   2.59763   2.60019
 Alpha virt. eigenvalues --    2.60110   2.60258   2.60715   2.60776   2.61445
 Alpha virt. eigenvalues --    2.61858   2.61959   2.62151   2.62954   2.63095
 Alpha virt. eigenvalues --    2.63309   2.63543   2.63938   2.64033   2.64839
 Alpha virt. eigenvalues --    2.65230   2.65899   2.66146   2.66412   2.66773
 Alpha virt. eigenvalues --    2.67362   2.67487   2.67762   2.68250   2.68698
 Alpha virt. eigenvalues --    2.68784   2.69396   2.69494   2.69783   2.69905
 Alpha virt. eigenvalues --    2.70252   2.70393   2.70643   2.70666   2.71140
 Alpha virt. eigenvalues --    2.71430   2.71480   2.71510   2.71713   2.71788
 Alpha virt. eigenvalues --    2.72216   2.72299   2.72665   2.72927   2.73495
 Alpha virt. eigenvalues --    2.74117   2.74396   2.74718   2.74844   2.75194
 Alpha virt. eigenvalues --    2.75294   2.75486   2.75667   2.75744   2.76243
 Alpha virt. eigenvalues --    2.76507   2.76890   2.77262   2.77450   2.78052
 Alpha virt. eigenvalues --    2.78330   2.78613   2.78819   2.79294   2.79395
 Alpha virt. eigenvalues --    2.79767   2.79823   2.79945   2.80127   2.80344
 Alpha virt. eigenvalues --    2.80551   2.80885   2.81148   2.81246   2.81371
 Alpha virt. eigenvalues --    2.82375   2.82468   2.82720   2.82831   2.83168
 Alpha virt. eigenvalues --    2.83880   2.83887   2.84104   2.84596   2.84932
 Alpha virt. eigenvalues --    2.85502   2.85812   2.85953   2.86374   2.86469
 Alpha virt. eigenvalues --    2.86519   2.87164   2.87681   2.87825   2.87932
 Alpha virt. eigenvalues --    2.88050   2.88131   2.88508   2.88856   2.89426
 Alpha virt. eigenvalues --    2.89565   2.89917   2.89986   2.90298   2.90390
 Alpha virt. eigenvalues --    2.90673   2.91177   2.91500   2.91881   2.92403
 Alpha virt. eigenvalues --    2.92821   2.92917   2.93138   2.93279   2.93696
 Alpha virt. eigenvalues --    2.94142   2.94220   2.94342   2.94747   2.95432
 Alpha virt. eigenvalues --    2.95600   2.96226   2.96367   2.96803   2.97217
 Alpha virt. eigenvalues --    2.97559   2.97822   2.98158   2.98415   2.98517
 Alpha virt. eigenvalues --    2.98779   2.98921   2.99386   2.99641   2.99676
 Alpha virt. eigenvalues --    2.99862   3.00029   3.00208   3.00439   3.00672
 Alpha virt. eigenvalues --    3.00929   3.01989   3.02159   3.02292   3.04278
 Alpha virt. eigenvalues --    3.04779   3.05023   3.05102   3.05526   3.05560
 Alpha virt. eigenvalues --    3.05806   3.06270   3.06705   3.06969   3.07179
 Alpha virt. eigenvalues --    3.08040   3.08339   3.08412   3.09650   3.10033
 Alpha virt. eigenvalues --    3.10411   3.10689   3.11105   3.11586   3.12007
 Alpha virt. eigenvalues --    3.12143   3.13381   3.13813   3.14069   3.14222
 Alpha virt. eigenvalues --    3.14395   3.15299   3.15535   3.15837   3.15976
 Alpha virt. eigenvalues --    3.16436   3.16603   3.16806   3.16852   3.17055
 Alpha virt. eigenvalues --    3.17709   3.17828   3.17868   3.18478   3.19031
 Alpha virt. eigenvalues --    3.19671   3.19831   3.20078   3.20335   3.20385
 Alpha virt. eigenvalues --    3.20540   3.20580   3.20890   3.21206   3.21585
 Alpha virt. eigenvalues --    3.21957   3.22641   3.22920   3.24239   3.24392
 Alpha virt. eigenvalues --    3.24942   3.26772   3.26984   3.27393   3.28087
 Alpha virt. eigenvalues --    3.28813   3.29463   3.29821   3.31052   3.32508
 Alpha virt. eigenvalues --    3.34044   3.34269   3.35787   3.37433   3.39398
 Alpha virt. eigenvalues --    3.39659   3.43268   3.45435   3.47890   3.49386
 Alpha virt. eigenvalues --    3.51331   3.52259   3.52687   3.53561   3.53730
 Alpha virt. eigenvalues --    3.53905   3.55330   3.55496   3.56318   3.56444
 Alpha virt. eigenvalues --    3.57278   3.58698   3.58873   3.59497   3.60071
 Alpha virt. eigenvalues --    3.60628   3.64577   3.65472   3.65951   3.66217
 Alpha virt. eigenvalues --    3.66753   3.67666   3.67843   3.68306   3.68816
 Alpha virt. eigenvalues --    3.69146   3.69240   3.69395   3.69478   3.69862
 Alpha virt. eigenvalues --    3.70949   3.71285   3.72000   3.73086   3.75573
 Alpha virt. eigenvalues --    3.77578   3.79596   3.79791   3.79925
          Condensed to atoms (all electrons):
 Mulliken charges:
               1
     1  C    0.044910
     2  C    0.016083
     3  O   -0.311618
     4  H    0.015720
     5  H    0.035401
     6  H    0.037946
     7  N   -0.098254
     8  C    0.131254
     9  C    0.073546
    10  O   -0.272275
    11  C    0.082200
    12  C    0.108077
    13  O   -0.426832
    14  O   -0.436661
    15  H    0.117091
    16  H   -0.000058
    17  H    0.020087
    18  H    0.024074
    19  N   -0.146368
    20  C    0.103826
    21  C    0.077503
    22  O   -0.272144
    23  C    0.042093
    24  C    0.009802
    25  C   -0.014981
    26  C    0.065421
    27  N    0.116204
    28  H    0.125879
    29  H    0.032621
    30  H    0.010790
    31  H   -0.017100
    32  H    0.016392
    33  H    0.022819
    34  H   -0.002299
    35  H    0.019772
    36  H    0.080233
    37  H    0.057046
    38  H    0.130445
    39  H    0.147255
    40  H    0.139884
    41  N   -0.135850
    42  C    0.202618
    43  C    0.039355
    44  O   -0.266984
    45  C    0.021879
    46  C    0.094083
    47  O   -0.414816
    48  O   -0.430737
    49  H    0.136416
    50  H    0.015781
    51  H    0.003172
    52  H    0.032805
    53  N   -0.146298
    54  C    0.233122
    55  C    0.002494
    56  O   -0.302194
    57  H    0.126442
    58  H    0.047068
    59  H    0.030078
    60  N   -0.127796
    61  C    0.131454
    62  C    0.108660
    63  O   -0.289942
    64  C    0.118753
    65  C   -0.049553
    66  N   -0.050983
    67  O   -0.260440
    68  H    0.146014
    69  H   -0.013358
    70  H    0.018587
    71  H    0.035527
    72  H    0.125295
    73  H    0.138589
    74  N   -0.135900
    75  C    0.190060
    76  C    0.044902
    77  O   -0.277612
    78  H    0.123906
    79  H    0.036304
    80  H    0.063681
    81  N   -0.110322
    82  C    0.045662
    83  C    0.178954
    84  O   -0.339948
    85  C    0.116336
    86  C    0.033730
    87  C   -0.017431
    88  C   -0.026096
    89  C   -0.016325
    90  C   -0.036143
    91  C    0.178181
    92  O   -0.197408
    93  H    0.123209
    94  H    0.001806
    95  H   -0.012782
    96  H    0.017354
    97  H   -0.018999
    98  H   -0.034407
    99  H   -0.034867
   100  H   -0.036992
   101  H    0.170434
   102  N   -0.124076
   103  C    0.083352
   104  C    0.103462
   105  O   -0.264224
   106  C   -0.100619
   107  C   -0.041994
   108  C    0.082527
   109  C    0.045196
   110  H    0.127998
   111  H    0.014454
   112  H   -0.001953
   113  H   -0.025279
   114  H    0.006863
   115  H   -0.023948
   116  H    0.040340
   117  H    0.024963
   118  H    0.035452
   119  H    0.019619
   120  H    0.003447
   121  N   -0.161792
   122  C    0.110381
   123  C    0.053831
   124  O   -0.254562
   125  C    0.243641
   126  O   -0.317021
   127  H    0.143588
   128  H    0.044025
   129  H   -0.020517
   130  H    0.008331
   131  H    0.185491
   132  N   -0.140434
   133  C    0.054429
   134  C    0.053211
   135  O   -0.257054
   136  C    0.109222
   137  H    0.106294
   138  H    0.013805
   139  H    0.025689
   140  H    0.032095
   141  H   -0.026681
   142  N   -0.086793
   143  C    0.031496
   144  C    0.063121
   145  O   -0.277030
   146  C    0.056491
   147  H    0.127643
   148  H    0.007747
   149  H    0.014991
   150  H    0.020418
   151  H    0.019885
   152  N   -0.088615
   153  C    0.046601
   154  C    0.050507
   155  O   -0.291434
   156  C    0.071594
   157  C    0.098737
   158  C    0.003832
   159  O   -0.385970
   160  O   -0.373358
   161  H    0.118902
   162  H   -0.003424
   163  H   -0.022091
   164  H    0.010550
   165  H   -0.061866
   166  H   -0.025070
   167  N   -0.147486
   168  C    0.116001
   169  H    0.040618
   170  H    0.019655
   171  H    0.030141
   172  H    0.104397
   173  Ca   1.345986
   174  O   -0.285494
   175  H    0.193069
   176  H    0.190391
 Sum of Mulliken charges =  -0.00000
 Mulliken charges with hydrogens summed into heavy atoms:
               1
     1  C    0.133977
     2  C    0.016083
     3  O   -0.311618
     7  N    0.018837
     8  C    0.131196
     9  C    0.073546
    10  O   -0.272275
    11  C    0.126361
    12  C    0.108077
    13  O   -0.426832
    14  O   -0.436661
    19  N   -0.020489
    20  C    0.136447
    21  C    0.077503
    22  O   -0.272144
    23  C    0.035783
    24  C    0.049013
    25  C    0.002492
    26  C    0.202700
    27  N    0.533788
    41  N    0.000566
    42  C    0.218399
    43  C    0.039355
    44  O   -0.266984
    45  C    0.057856
    46  C    0.094083
    47  O   -0.414816
    48  O   -0.430737
    53  N   -0.019857
    54  C    0.310267
    55  C    0.002494
    56  O   -0.302194
    60  N    0.018219
    61  C    0.118095
    62  C    0.108660
    63  O   -0.289942
    64  C    0.172867
    65  C   -0.049553
    66  N    0.212900
    67  O   -0.260440
    74  N   -0.011994
    75  C    0.290045
    76  C    0.044902
    77  O   -0.277612
    81  N    0.012887
    82  C    0.047468
    83  C    0.178954
    84  O   -0.339948
    85  C    0.120907
    86  C    0.033730
    87  C   -0.036429
    88  C   -0.060503
    89  C   -0.051192
    90  C   -0.073135
    91  C    0.178181
    92  O   -0.026974
   102  N    0.003922
   103  C    0.097805
   104  C    0.103462
   105  O   -0.264224
   106  C   -0.102572
   107  C   -0.060410
   108  C    0.123883
   109  C    0.103713
   121  N   -0.018204
   122  C    0.154406
   123  C    0.053831
   124  O   -0.254562
   125  C    0.231455
   126  O   -0.131530
   132  N   -0.034140
   133  C    0.068235
   134  C    0.053211
   135  O   -0.257054
   136  C    0.140324
   142  N    0.040850
   143  C    0.039243
   144  C    0.063121
   145  O   -0.277030
   146  C    0.111785
   152  N    0.030287
   153  C    0.043177
   154  C    0.050507
   155  O   -0.291434
   156  C    0.060052
   157  C    0.011801
   158  C    0.003832
   159  O   -0.385970
   160  O   -0.373358
   167  N   -0.043090
   168  C    0.206414
   173  Ca   1.345986
   174  O    0.097966
 DipInt: DoE/N= T F RetVal/Mat= T F Init=T NMatP=  1 IDeriv=0 Min/MaxMlt=  0  4
 Entering OneElI...
 OneElI was handed  1333951383 working-precision words.
 Multipole integrals L=0 to 4 MinM= 0 MaxM= 0.
 Requested accuracy = 0.1000D-12
 ShPair: Thresh= 1.00D-13 NBox=     0 BxSize= 0.00D+00 RnKept= 2.55D+01
         NSMCal=               327645 NSMKep=              130042
 PrmmSu-InSpLW:  IPartL=    0 NPrtUS=    1 NPrtUL=    1 DoSpLW=F IThBeg=    0 IThEnd=    0 NThAct=    1.
 PrsmSu:  NPrtUS=   1 ThrOK=F IAlg=1 NPAlg=1 LenDen=           0 ISkipM=0 DoSpLW=F IThBeg=    0 IThEnd=    0.
 Prism:   IPart=     0 DynPar=F LinDyn=F Incr=         512.
 PRISM was handed  1325055551 working-precision words and130042 shell-pairs
 IPart=  0 NShTot=      130042 NBatch=         302 AvBLen=       430.6
 PrsmSu-ThDecC:  IPartSL=    0    0 NPrtUSL=    1    1 IThBeg=    0 IThEnd=    0 CPU=   -1 GPU=   -1 NThAct=    1.
 PrSmSu:  NxtVal=            513.
 Electronic moments (au):
       -716.00000000         -6.34654985          1.98260123          2.72816584
     -69633.71491356     -48954.58237228     -10196.44204942        -35.00311158
          4.25171332        -55.78321100    -257087.58513802     -34352.57650641
      -7493.01959016     133575.26367019      -3262.73381448      82756.41189922
     -20332.94271599      -6126.49902237     -50959.41293175     -32880.55942396
  -13281101.67236680   -9724887.11540077    -366923.76495370    -106362.97890030
     192746.20618592    -688471.75596479     245745.25728991      -1578.62678575
     -59175.76232971   -2489468.50854523   -1036737.83054482    -531978.15400764
    -114663.82403596      68829.82815650     156107.44215453
 Electronic spatial extent (au):  <R**2>=         128784.7393
 DipInt: DoE/N= F T RetVal/Mat= T F Init=T NMatP=  1 IDeriv=0 Min/MaxMlt=  0  4
 Nuclear    moments (au):
        716.00000000          0.00000000          0.00000000          0.00000000
      69038.19382695      48770.52575447       9772.43262087          0.00000000
         -0.00000000         -0.00000000     255805.11844529      38318.03244922
       7779.75234349    -135237.10049984       1781.55055613     -81816.65374043
      20272.84993980       6255.08894603      51111.20635993      32284.91339231
   12981252.25234358    9677899.84802302     331890.32721162     110858.64627688
    -184106.36915252     673572.60043068    -257040.35486703       2006.25519963
      59048.29017002    2406996.38732594     986994.90958210     499328.51610131
     110348.86990953     -72244.99095169    -153925.63965398
 Total      moments (au):
         -0.00000000         -6.34654985          1.98260123          2.72816584
       -595.52108661       -184.05661782       -424.00942856        -35.00311158
          4.25171332        -55.78321100      -1282.46669273       3965.45594281
        286.73275333      -1661.83682965      -1481.18325835        939.75815879
        -60.09277619        128.58992366        151.79342819       -595.64603165
    -299849.42002323     -46987.26737775     -35033.43774208       4495.66737658
       8639.83703340     -14899.15553410     -11295.09757712        427.62841388
       -127.47215969     -82472.12121930     -49742.92096272     -32649.63790634
      -4314.95412643      -3415.16279519       2181.80250055
 Traceless Quadrup. (au):
       -194.32537561        217.13909318        -22.81371757        -35.00311158
          4.25171332        -55.78321100
 Charge=             -0.0000 electrons
 Dipole moment (field-independent basis, Debye):
    X=            -16.1313    Y=              5.0393    Z=              6.9343  Tot=             18.2674
 Quadrupole moment (field-independent basis, Debye-Ang):
   XX=           -800.9963   YY=           -247.5625   ZZ=           -570.3072
   XY=            -47.0804   XZ=              5.7187   YZ=            -75.0303
 Traceless Quadrupole moment (field-independent basis, Debye-Ang):
   XX=           -261.3743   YY=            292.0595   ZZ=            -30.6852
   XY=            -47.0804   XZ=              5.7187   YZ=            -75.0303
 Octapole moment (field-independent basis, Debye-Ang**2):
  XXX=           -912.8104  YYY=           2822.4588  ZZZ=            204.0853  XYY=          -1182.8314
  XXY=          -1054.2492  XXZ=            668.8837  XZZ=            -42.7717  YZZ=             91.5254
  YYZ=            108.0407  XYZ=           -423.9579
 Hexadecapole moment (field-independent basis, Debye-Ang**3):
 XXXX=        -112937.6698 YYYY=         -17697.6580 ZZZZ=         -13195.2726 XXXY=           1693.2839
 XXXZ=           3254.1769 YYYX=          -5611.7364 YYYZ=          -4254.2754 ZZZX=            161.0654
 ZZZY=            -48.0121 XXYY=         -31062.9555 XXZZ=         -18735.5693 YYZZ=         -12297.4192
 XXYZ=          -1625.2186 YYXZ=          -1286.3141 ZZXY=            821.7714
 N-N= 1.967900751805D+04 E-N=-5.183276289035D+04  KE= 5.290543808334D+03
 Leave Link  601 at Wed Sep 18 11:24:05 2019, MaxMem=  1342177280 cpu:              43.5 elap:               1.1
 FitSet:  NAtFit=   176 NAtPot=   176 NAtFrz=     0 MDM=   180 TotChg=   0.00000
 Merz-Kollman atomic radii used.
 Read replacement radii for each type of atom:
 Rad(20) =   1.700000000000D+00
 Atom Element Radius
    1     6    1.50
    2     6    1.50
    3     8    1.40
    4     1    1.20
    5     1    1.20
    6     1    1.20
    7     7    1.50
    8     6    1.50
    9     6    1.50
   10     8    1.40
   11     6    1.50
   12     6    1.50
   13     8    1.40
   14     8    1.40
   15     1    1.20
   16     1    1.20
   17     1    1.20
   18     1    1.20
   19     7    1.50
   20     6    1.50
   21     6    1.50
   22     8    1.40
   23     6    1.50
   24     6    1.50
   25     6    1.50
   26     6    1.50
   27     7    1.50
   28     1    1.20
   29     1    1.20
   30     1    1.20
   31     1    1.20
   32     1    1.20
   33     1    1.20
   34     1    1.20
   35     1    1.20
   36     1    1.20
   37     1    1.20
   38     1    1.20
   39     1    1.20
   40     1    1.20
   41     7    1.50
   42     6    1.50
   43     6    1.50
   44     8    1.40
   45     6    1.50
   46     6    1.50
   47     8    1.40
   48     8    1.40
   49     1    1.20
   50     1    1.20
   51     1    1.20
   52     1    1.20
   53     7    1.50
   54     6    1.50
   55     6    1.50
   56     8    1.40
   57     1    1.20
   58     1    1.20
   59     1    1.20
   60     7    1.50
   61     6    1.50
   62     6    1.50
   63     8    1.40
   64     6    1.50
   65     6    1.50
   66     7    1.50
   67     8    1.40
   68     1    1.20
   69     1    1.20
   70     1    1.20
   71     1    1.20
   72     1    1.20
   73     1    1.20
   74     7    1.50
   75     6    1.50
   76     6    1.50
   77     8    1.40
   78     1    1.20
   79     1    1.20
   80     1    1.20
   81     7    1.50
   82     6    1.50
   83     6    1.50
   84     8    1.40
   85     6    1.50
   86     6    1.50
   87     6    1.50
   88     6    1.50
   89     6    1.50
   90     6    1.50
   91     6    1.50
   92     8    1.40
   93     1    1.20
   94     1    1.20
   95     1    1.20
   96     1    1.20
   97     1    1.20
   98     1    1.20
   99     1    1.20
  100     1    1.20
  101     1    1.20
  102     7    1.50
  103     6    1.50
[...]
 **** Fit       0.000286
 **** Fit      -0.000234
 **** Fit      -0.000274
 **** Fit       0.000280
 **** Fit       0.002147
 **** Fit       0.000192
 **** Fit      -0.001476
 **** Fit      -0.002728
 **** Fit      -0.003454
 **** Fit      -0.003537
 **** Fit      -0.001637
 **** Fit      -0.004193
 **** Fit      -0.006157
 **** Fit      -0.007452
 **** Fit      -0.007913
 **** Fit      -0.007632
 **** Fit      -0.010761
 **** Fit       0.003574
 **** Fit       0.004013
 **** Fit       0.002011
 **** Fit       0.002984
 **** Fit       0.003893
 **** Fit       0.004438
 **** Fit       0.004598
 **** Fit       0.004468
 **** Fit       0.001125
 **** Fit       0.002293
 **** Fit       0.003438
 **** Fit       0.004318
 **** Fit       0.004868
 **** Fit       0.005134
 **** Fit       0.005172
 **** Fit       0.005021
 **** Fit       0.004745
 **** Fit       0.004666
 **** Fit      -0.000514
 **** Fit       0.000839
 **** Fit       0.002312
 **** Fit       0.003616
 **** Fit       0.004585
 **** Fit       0.005209
 **** Fit       0.005566
 **** Fit       0.005742
 **** Fit       0.005770
 **** Fit       0.005641
 **** Fit       0.005364
 **** Fit       0.005006
 **** Fit       0.004922
 **** Fit      -0.003047
 **** Fit      -0.001773
 **** Fit      -0.000147
 **** Fit       0.004358
 **** Fit       0.005207
 **** Fit       0.005731
 **** Fit       0.006039
 **** Fit       0.006229
 **** Fit       0.006350
 **** Fit       0.005693
 **** Fit       0.005286
 **** Fit       0.005273
 **** Fit       0.004974
 **** Fit      -0.006062
 **** Fit      -0.004943
 **** Fit      -0.003252
 **** Fit       0.006066
 **** Fit       0.006404
 **** Fit       0.006593
 **** Fit       0.006741
 **** Fit       0.005754
 **** Fit       0.005488
 **** Fit      -0.009463
 **** Fit      -0.008668
 **** Fit      -0.007158
 **** Fit       0.007006
 **** Fit       0.007078
 **** Fit       0.007187
 **** Fit       0.006382
 **** Fit       0.006224
 **** Fit       0.006114
 **** Fit      -0.013126
 **** Fit      -0.012531
 **** Fit       0.007526
 **** Fit       0.007477
 **** Fit       0.007514
 **** Fit       0.007213
 **** Fit       0.007341
 **** Fit       0.007354
 **** Fit       0.007055
 **** Fit      -0.016804
 **** Fit      -0.017341
 **** Fit      -0.017263
 **** Fit      -0.016241
 **** Fit       0.008000
 **** Fit       0.007821
 **** Fit       0.007754
 **** Fit       0.008480
 **** Fit       0.009018
 **** Fit       0.009438
 **** Fit       0.009475
 **** Fit       0.008876
 **** Fit      -0.019699
 **** Fit      -0.021220
 **** Fit       0.008167
 **** Fit       0.007940
 **** Fit       0.010087
 **** Fit       0.011314
 **** Fit       0.008308
 **** Fit       0.007988
 **** Fit       0.012056
 **** Fit       0.008300
 **** Fit       0.007910
 **** Fit       0.008155
 **** Fit       0.007725
 **** Fit       0.008065
 **** Fit       0.007749
 **** Fit       0.007229
 **** Fit       0.007200
 **** Fit       0.007779
 **** Fit       0.007462
 **** Fit       0.006793
 **** Fit       0.006072
 **** Fit       0.006868
 **** Fit       0.007698
 **** Fit       0.007304
 **** Fit       0.006407
 **** Fit       0.005367
 **** Fit       0.002642
 **** Fit      -0.001653
 **** Fit      -0.000232
 **** Fit       0.001497
 **** Fit       0.003194
 **** Fit       0.004589
 **** Fit      -0.004136
 **** Fit      -0.002506
 **** Fit       0.003242
 **** Fit       0.004754
 **** Fit       0.005801
 **** Fit      -0.007916
 **** Fit       0.005858
 **** Fit       0.006659
 **** Fit       0.007093
 **** Fit      -0.011064
 **** Fit       0.006988
 **** Fit       0.007471
 **** Fit       0.007660
 **** Fit      -0.017576
 **** Fit       0.008121
 **** Fit       0.008171
 **** Fit       0.008834
 **** Fit       0.008737
 **** Fit       0.008488
 **** Fit       0.009299
 **** Fit       0.008980
 **** Fit       0.008572
 **** Fit       0.009385
 **** Fit       0.009119
 **** Fit       0.008652
 **** Fit       0.008408
 **** Fit       0.008804
 **** Fit       0.008601
 **** Fit       0.007035
 **** Fit       0.007835
 **** Fit       0.006036
 **** Fit       0.006124
 **** Fit       0.005886
 **** Fit       0.005655
 **** Fit       0.006466
 **** Fit       0.006243
 **** Fit       0.006002
 **** Fit       0.005786
 **** Fit       0.005644
 **** Fit       0.005696
 **** Fit       0.006832
 **** Fit       0.006632
 **** Fit       0.006404
 **** Fit       0.006160
 **** Fit       0.005925
 **** Fit       0.005738
 **** Fit       0.005687
 **** Fit       0.005823
 **** Fit       0.007232
 **** Fit       0.007031
 **** Fit       0.006810
 **** Fit       0.006568
 **** Fit       0.006313
 **** Fit       0.006064
 **** Fit       0.005851
 **** Fit       0.005710
 **** Fit       0.005765
 **** Fit       0.006045
 **** Fit       0.007414
 **** Fit       0.007176
 **** Fit       0.006925
 **** Fit       0.006661
 **** Fit       0.006392
 **** Fit       0.006131
 **** Fit       0.005902
 **** Fit       0.005737
 **** Fit       0.005676
 **** Fit       0.005858
 **** Fit       0.006374
 **** Fit       0.007208
 **** Fit       0.007690
 **** Fit       0.007397
 **** Fit       0.007096
 **** Fit       0.006787
 **** Fit       0.006477
 **** Fit       0.006177
 **** Fit       0.005906
 **** Fit       0.005693
 **** Fit       0.005578
 **** Fit       0.005613
 **** Fit       0.005948
 **** Fit       0.006771
 **** Fit       0.008053
 **** Fit       0.007578
 **** Fit       0.007220
 **** Fit       0.006857
 **** Fit       0.006495
 **** Fit       0.006146
 **** Fit       0.005825
 **** Fit       0.005557
 **** Fit       0.005377
 **** Fit       0.005336
 **** Fit       0.005500
 **** Fit       0.006013
 **** Fit       0.007243
 **** Fit       0.009155
 **** Fit       0.007813
 **** Fit       0.007405
 **** Fit       0.006976
 **** Fit       0.006544
 **** Fit       0.006124
 **** Fit       0.005729
 **** Fit       0.005381
 **** Fit       0.005109
 **** Fit       0.004960
 **** Fit       0.004998
 **** Fit       0.005312
 **** Fit       0.006025
 **** Fit       0.007838
 **** Fit       0.007348
 **** Fit       0.006838
 **** Fit       0.006315
 **** Fit       0.005805
 **** Fit       0.005327
 **** Fit       0.004909
 **** Fit       0.004592
 **** Fit       0.004436
 **** Fit       0.004530
 **** Fit       0.005001
 **** Fit       0.005936
 **** Fit       0.008510
 **** Fit       0.006797
 **** Fit       0.006178
 **** Fit       0.005554
 **** Fit       0.004960
 **** Fit       0.004431
 **** Fit       0.004021
 **** Fit       0.003811
 **** Fit       0.003925
 **** Fit       0.004543
 **** Fit       0.005667
 **** Fit       0.006059
 **** Fit       0.005336
 **** Fit       0.004619
 **** Fit       0.003960
 **** Fit       0.003428
 **** Fit       0.003127
 **** Fit       0.003215
 **** Fit       0.003935
 **** Fit       0.005567
 **** Fit       0.004706
 **** Fit       0.003834
 **** Fit       0.003055
 **** Fit       0.002507
 **** Fit       0.002402
 **** Fit       0.003074
 **** Fit       0.003955
 **** Fit       0.002925
 **** Fit       0.002053
 **** Fit       0.001416
 **** Fit       0.001926
 **** Fit       0.000783
 **** Fit       0.000154
 **** Fit       0.000801
 **** Fit       0.002032
 **** Fit       0.002525
 **** Fit       0.002368
 **** Fit       0.001300
 **** Fit       0.000101
 **** Fit      -0.000897
 **** Fit      -0.001318
 **** Fit      -0.000973
 **** Fit       0.000049
 **** Fit       0.001423
 **** Fit       0.002676
 **** Fit       0.003420
 **** Fit       0.003542
 **** Fit       0.003146
 **** Fit       0.002789
 **** Fit       0.001811
 **** Fit       0.000639
 **** Fit      -0.000637
 **** Fit      -0.001826
 **** Fit      -0.002693
 **** Fit      -0.003052
 **** Fit      -0.002835
 **** Fit      -0.002076
 **** Fit      -0.000871
 **** Fit       0.000616
 **** Fit       0.004164
 **** Fit       0.003569
 **** Fit       0.003249
 **** Fit       0.002305
 **** Fit       0.001152
 **** Fit      -0.000201
 **** Fit      -0.001660
 **** Fit      -0.003059
 **** Fit      -0.004195
 **** Fit      -0.004898
 **** Fit      -0.005083
 **** Fit      -0.004753
 **** Fit      -0.003955
 **** Fit      -0.002739
 **** Fit      -0.001169
 **** Fit       0.004030
 **** Fit       0.003829
 **** Fit       0.002898
 **** Fit       0.001741
 **** Fit       0.000324
 **** Fit      -0.001314
 **** Fit      -0.003055
 **** Fit      -0.004718
 **** Fit      -0.006095
 **** Fit      -0.007020
 **** Fit      -0.007411
 **** Fit      -0.007280
 **** Fit      -0.006685
 **** Fit      -0.005667
 **** Fit      -0.004232
 **** Fit       0.004612
 **** Fit       0.004637
 **** Fit       0.003750
 **** Fit       0.002626
 **** Fit       0.001202
 **** Fit      -0.000525
 **** Fit      -0.002488
 **** Fit      -0.004546
 **** Fit      -0.006504
 **** Fit      -0.008149
 **** Fit      -0.009314
 **** Fit      -0.009921
 **** Fit      -0.009994
 **** Fit      -0.009613
 **** Fit      -0.008842
 **** Fit      -0.007679
 **** Fit       0.004965
 **** Fit       0.003819
 **** Fit       0.002292
 **** Fit       0.000356
 **** Fit      -0.001938
 **** Fit      -0.004453
 **** Fit      -0.006980
 **** Fit      -0.009261
 **** Fit      -0.011055
 **** Fit      -0.012211
 **** Fit      -0.012720
 **** Fit      -0.012687
 **** Fit      -0.012248
 **** Fit      -0.011467
 **** Fit       0.005754
 **** Fit       0.004178
 **** Fit       0.002079
 **** Fit      -0.000508
 **** Fit      -0.003456
 **** Fit      -0.006551
 **** Fit      -0.009512
 **** Fit      -0.012036
 **** Fit      -0.013881
 **** Fit      -0.014961
 **** Fit      -0.015374
 **** Fit      -0.015338
 **** Fit      -0.015044
 **** Fit       0.007129
 **** Fit       0.004786
 **** Fit       0.001790
 **** Fit      -0.001709
 **** Fit      -0.005464
 **** Fit      -0.009153
 **** Fit      -0.012411
 **** Fit      -0.014915
 **** Fit      -0.016504
 **** Fit      -0.017286
 **** Fit      -0.017598
 **** Fit       0.010454
 **** Fit       0.008631
 **** Fit       0.012270
 **** Fit       0.011372
 **** Fit       0.010192
 **** Fit       0.008583
 **** Fit       0.006470
 **** Fit       0.003909
 **** Fit       0.011297
 **** Fit       0.010734
 **** Fit       0.009936
 **** Fit       0.008748
 **** Fit       0.007030
 **** Fit       0.004721
 **** Fit       0.001910
 **** Fit       0.011779
 **** Fit       0.010049
 **** Fit       0.009854
 **** Fit       0.009475
 **** Fit       0.008734
 **** Fit       0.007435
 **** Fit       0.005429
 **** Fit       0.002721
 **** Fit       0.010440
 **** Fit       0.010205
 **** Fit       0.008438
 **** Fit       0.008705
 **** Fit       0.008903
 **** Fit       0.008844
 **** Fit       0.008283
 **** Fit       0.006968
 **** Fit       0.004775
 **** Fit       0.008229
 **** Fit       0.008143
 **** Fit       0.008227
 **** Fit       0.006342
 **** Fit       0.007198
 **** Fit       0.008189
 **** Fit       0.009117
 **** Fit       0.005203
 **** Fit       0.005347
 **** Fit       0.005718
 **** Fit       0.003576
 **** Fit       0.005296
 **** Fit       0.001615
 **** Fit       0.001833
 **** Fit       0.002446
 **** Fit      -0.002642
 **** Fit      -0.002614
 **** Fit      -0.001889
 **** Fit      -0.008162
 **** Fit       0.012063
 **** Fit       0.012828
 **** Fit       0.010256
 **** Fit       0.009969
 **** Fit       0.012287
 **** Fit       0.012730
 **** Fit       0.010580
 **** Fit       0.005780
 **** Fit       0.008968
 **** Fit       0.010576
 **** Fit       0.012180
 **** Fit       0.012500
 **** Fit       0.010903
 **** Fit       0.007430
 **** Fit       0.007379
 **** Fit       0.009266
 **** Fit       0.010871
 **** Fit       0.011440
 **** Fit       0.010581
 **** Fit       0.008488
 **** Fit       0.005965
 **** Fit       0.004318
 **** Fit       0.004914
 **** Fit       0.008432
 **** Fit       0.014439
 **** Fit       0.015597
 **** Fit       0.004423
 **** Fit       0.007160
 **** Fit       0.008770
 **** Fit       0.009087
 **** Fit       0.008386
 **** Fit       0.007469
 **** Fit       0.007412
 **** Fit       0.008987
 **** Fit       0.012086
 **** Fit       0.003554
 **** Fit       0.005287
 **** Fit       0.005835
 **** Fit       0.005981
 **** Fit       0.006479
 **** Fit       0.007425
 **** Fit       0.013653
 **** Fit       0.001214
 **** Fit       0.001588
 **** Fit      -0.000722
 **** Fit      -0.000607
 **** Fit      -0.000185
 **** Fit      -0.001496
 **** Fit      -0.002200
 **** Fit      -0.002505
 **** Fit      -0.002257
 **** Fit      -0.001810
 **** Fit      -0.001361
 **** Fit      -0.002294
 **** Fit      -0.003172
 **** Fit      -0.003423
 **** Fit      -0.003088
 **** Fit      -0.002734
 **** Fit       0.000817
 **** Fit      -0.000269
 **** Fit      -0.001798
 **** Fit      -0.002692
 **** Fit      -0.002708
 **** Fit      -0.002409
 **** Fit       0.004824
 **** Fit       0.002480
 **** Fit       0.000621
 **** Fit      -0.000147
 **** Fit      -0.000231
 **** Fit      -0.000555
 **** Fit       0.009468
 **** Fit       0.006466
 **** Fit       0.004736
 **** Fit       0.003943
 **** Fit       0.003173
 **** Fit       0.001236
 **** Fit       0.017424
 **** Fit       0.013375
 **** Fit       0.010841
 **** Fit       0.009261
 **** Fit       0.007581
 **** Fit       0.004467
 **** Fit       0.024817
 **** Fit       0.020202
 **** Fit       0.017081
 **** Fit       0.014640
 **** Fit       0.011693
 **** Fit       0.028137
 **** Fit       0.030646
 **** Fit       0.026363
 **** Fit       0.023384
 **** Fit       0.020844
 **** Fit       0.017859
 **** Fit       0.013607
 **** Fit       0.031421
 **** Fit       0.027442
 **** Fit       0.024639
 **** Fit       0.022262
 **** Fit       0.019577
 **** Fit       0.015959
 **** Fit       0.010953
 **** Fit       0.030968
 **** Fit       0.027702
 **** Fit       0.025193
 **** Fit       0.022829
 **** Fit       0.020017
 **** Fit       0.016280
 **** Fit       0.011319
 **** Fit       0.005113
 **** Fit       0.030186
 **** Fit       0.027525
 **** Fit       0.025170
 **** Fit       0.022653
 **** Fit       0.019509
 **** Fit       0.015351
 **** Fit       0.009894
 **** Fit       0.030795
 **** Fit       0.028217
 **** Fit       0.025752
 **** Fit       0.023023
 **** Fit       0.019574
 **** Fit       0.014976
 **** Fit       0.008855
 **** Fit       0.028194
 **** Fit       0.025726
 **** Fit       0.022819
 **** Fit       0.019080
 **** Fit       0.014137
 **** Fit       0.007855
 **** Fit       0.015556
 **** Fit       0.013283
 **** Fit       0.027116
 **** Fit       0.024580
 **** Fit       0.021276
 **** Fit       0.016949
 **** Fit       0.011700
 **** Fit       0.012336
 **** Fit       0.015089
 **** Fit       0.015758
 **** Fit       0.025160
 **** Fit       0.022215
 **** Fit       0.018100
 **** Fit       0.013704
 **** Fit       0.011535
 **** Fit       0.013110
 **** Fit       0.015806
 **** Fit       0.017945
 **** Fit       0.023491
 **** Fit       0.022822
 **** Fit       0.019273
 **** Fit       0.016476
 **** Fit       0.017774
 **** Fit       0.020868
 **** Fit       0.020267
 -----------------------------------------------------------------
 Leave Link  602 at Wed Sep 18 11:24:08 2019, MaxMem=  1342177280 cpu:             123.2 elap:               2.6

 Test job not archived.
 1\1\GINC-C503-093\SP\RB3LYP\SVP\C54H83Ca1N15O23\PENGZHI\18-Sep-2019\0\
 \#b3lyp/svp scf=(tight,noincore) Test #IOP(5/87=12) Density=Current Po
 p=(MK,readradii) iop(6/33=2) iop(6/42=6)\\Ng-295_loop3_6.0\\0,1\C,0,54
 .29,53.49,48.08\C,0,54.45,53.1,49.55\O,0,53.89,53.8,50.39\H,0,53.668,5
 4.382,48.007\H,0,55.27,53.695,47.649\H,0,53.817,52.672,47.536\N,0,55.1
 9,52.05,49.91\C,0,55.78,51.76,51.2\C,0,56.97,52.7,51.36\O,0,57.75,52.8
 8,50.44\C,0,56.25,50.31,51.22\C,0,56.49,49.78,52.63\O,0,57.21,48.75,52
 .68\O,0,56.15,50.28,53.72\H,0,55.5,51.53,49.1\H,0,55.11,51.9,52.05\H,0
 ,57.12,50.11,50.6\H,0,55.45,49.71,50.77\N,0,57.22,53.2,52.58\C,0,58.1,
 54.35,52.72\C,0,59.26,54.15,53.68\O,0,60.12,55.03,53.76\C,0,57.25,55.5
 9,52.98\C,0,55.85,55.62,52.37\C,0,55.18,56.99,52.39\C,0,53.89,57.07,51
 .58\N,0,53.43,58.46,51.45\H,0,56.67,53.01,53.4\H,0,58.59,54.58,51.77\H
 ,0,57.76,56.48,52.62\H,0,57.01,55.63,54.04\H,0,55.24,54.86,52.87\H,0,5
 5.95,55.24,51.35\H,0,55.87,57.66,51.88\H,0,54.99,57.36,53.4\H,0,53.04,
 56.56,52.02\H,0,54.,56.74,50.55\H,0,54.1,59.01,50.93\H,0,52.56,58.51,5
 0.95\H,0,53.35,58.87,52.37\N,0,59.18,53.08,54.47\C,0,60.21,52.82,55.46
 \C,0,61.49,52.14,54.97\O,0,62.55,52.24,55.57\C,0,59.63,51.85,56.48\C,0
 ,58.82,50.62,56.1\O,0,59.04,50.11,54.97\O,0,57.99,50.14,56.9\H,0,58.29
 ,52.6,54.54\H,0,60.46,53.74,55.98\H,0,59.05,52.41,57.22\H,0,60.4,51.43
 ,57.13\N,0,61.51,51.54,53.78\C,0,62.62,50.78,53.24\C,0,62.75,49.33,53.
 67\O,0,63.74,48.68,53.33\H,0,60.67,51.54,53.23\H,0,63.6,51.2,53.47\H,0
 ,62.45,50.75,52.17\N,0,61.76,48.77,54.38\C,0,61.61,47.34,54.54\C,0,60.
 3,46.77,54.\O,0,59.27,47.44,54.08\C,0,61.71,47.04,56.03\C,0,61.74,45.5
 6,56.41\N,0,62.79,44.79,56.12\O,0,60.77,45.11,57.01\H,0,60.99,49.39,54
 .57\H,0,62.42,46.8,54.05\H,0,60.88,47.49,56.57\H,0,62.6,47.38,56.56\H,
 0,63.55,45.18,55.58\H,0,62.96,43.87,56.51\N,0,60.33,45.57,53.42\C,0,59
 .29,45.13,52.52\C,0,57.97,44.66,53.11\O,0,56.96,44.77,52.41\H,0,61.22,
 45.1,53.38\H,0,59.57,44.2,52.01\H,0,59.2,45.95,51.81\N,0,57.96,44.25,5
 4.38\C,0,56.78,43.64,54.96\C,0,55.67,44.66,55.17\O,0,55.94,45.85,55.24
 \C,0,57.13,42.95,56.27\C,0,58.05,41.76,56.22\C,0,59.42,41.89,56.5\C,0,
 57.48,40.56,55.78\C,0,60.26,40.79,56.3\C,0,58.3,39.43,55.63\C,0,59.68,
 39.58,55.87\O,0,60.52,38.56,55.55\H,0,58.81,44.19,54.92\H,0,56.39,42.9
 5,54.21\H,0,56.16,42.68,56.69\H,0,57.5,43.69,56.99\H,0,59.85,42.84,56.
 78\H,0,56.44,40.46,55.49\H,0,61.32,40.9,56.45\H,0,57.88,38.53,55.21\H,
 0,60.08,37.79,55.2\N,0,54.46,44.09,55.15\C,0,53.14,44.65,55.31\C,0,53.
 07,45.62,56.49\O,0,53.98,45.82,57.29\C,0,52.67,45.15,53.94\C,0,52.57,4
 3.93,53.03\C,0,53.27,46.36,53.25\C,0,51.88,44.12,51.68\H,0,54.48,43.08
 ,55.2\H,0,52.49,43.83,55.61\H,0,51.64,45.47,54.14\H,0,51.9,43.23,53.53
 \H,0,53.56,43.5,52.87\H,0,53.43,47.22,53.9\H,0,54.22,46.02,52.83\H,0,5
 2.61,46.61,52.42\H,0,50.91,44.55,51.92\H,0,52.53,44.72,51.04\H,0,51.85
 ,43.14,51.21\N,0,51.86,46.11,56.76\C,0,51.45,46.77,57.98\C,0,50.19,46.
 22,58.63\O,0,50.,46.3,59.84\C,0,51.32,48.27,57.75\O,0,50.47,48.46,56.6
 4\H,0,51.23,46.07,55.97\H,0,52.19,46.63,58.78\H,0,52.27,48.78,57.58\H,
 0,50.75,48.67,58.59\H,0,50.38,49.38,56.4\N,0,49.37,45.54,57.83\C,0,48.
 05,44.97,58.06\C,0,47.23,45.7,59.11\O,0,46.69,45.09,60.03\C,0,48.18,43
 .47,58.29\H,0,49.65,45.52,56.86\H,0,47.53,45.15,57.12\H,0,48.73,43.31,
 59.22\H,0,47.23,42.94,58.34\H,0,48.87,43.07,57.54\N,0,47.01,47.02,59.0
 8\C,0,47.17,47.94,57.97\C,0,45.98,47.95,57.02\O,0,44.83,47.82,57.43\C,
 0,47.47,49.31,58.55\H,0,46.42,47.29,59.85\H,0,48.05,47.68,57.38\H,0,48
 .48,49.33,58.95\H,0,47.49,50.11,57.8\H,0,46.72,49.53,59.3\N,0,46.03,48
 .17,55.7\C,0,47.2,48.23,54.84\C,0,47.54,46.94,54.12\O,0,48.7,46.66,53.
 84\C,0,47.18,49.33,53.78\C,0,47.43,50.72,54.36\C,0,47.57,51.8,53.3\O,0
 ,46.54,52.19,52.69\O,0,48.67,52.24,52.9\H,0,45.15,48.18,55.21\H,0,48.1
 ,48.45,55.42\H,0,46.21,49.24,53.29\H,0,47.94,49.09,53.04\H,0,48.3,50.8
 1,55.02\H,0,46.57,51.04,54.94\N,0,46.52,46.21,53.66\C,0,46.65,45.22,52
 .61\H,0,47.695,44.924,52.517\H,0,46.046,44.346,52.857\H,0,46.308,45.64
 4,51.666\H,0,45.59,46.57,53.81\Ca,0,57.06,48.35,55.26\O,0,54.51,48.93,
 55.44\H,0,53.97,49.21,54.7\H,0,54.19,49.46,56.18\\Version=ES64L-G16Rev
 A.03\State=1-A\HF=-5333.4518154\RMSD=1.735e-09\Dipole=5.4811152,1.9616
 14,-4.2144678\Quadrupole=-190.6437525,225.6359183,-34.9921658,-38.7148
 844,24.7501743,-26.8182745\PG=C01 [X(C54H83Ca1N15O23)]\\@


 A true friend is someone who is there for
 you when he'd rather be anywhere else.
                               -- Len Wein
 Job cpu time:       0 days 14 hours 49 minutes 49.9 seconds.
 Elapsed time:       0 days  0 hours 18 minutes 46.4 seconds.
 File lengths (MBytes):  RWF=   1517 Int=      0 D2E=      0 Chk=    171 Scr=      1
 Normal termination of Gaussian 16 at Wed Sep 18 11:24:11 2019.
