 Entering Gaussian System, Link 0=g16
 Initial command:
 /home1/apps/gaussian/16rA.03/g16/l1.exe "/scratch/01990/pengzhi/4345527/Gau-398627.inp" -scrdir="/scratch/01990/pengzhi/4345527/"
 Entering Link 1 = /home1/apps/gaussian/16rA.03/g16/l1.exe PID=    398628.
  
 Copyright (c) 1988,1990,1992,1993,1995,1998,2003,2009,2016,
            Gaussian, Inc.  All Rights Reserved.
  
 This is part of the Gaussian(R) 16 program.  It is based on
 the Gaussian(R) 09 system (copyright 2009, Gaussian, Inc.),
 the Gaussian(R) 03 system (copyright 2003, Gaussian, Inc.),
 the Gaussian(R) 98 system (copyright 1998, Gaussian, Inc.),
 the Gaussian(R) 94 system (copyright 1995, Gaussian, Inc.),
 the Gaussian 92(TM) system (copyright 1992, Gaussian, Inc.),
 the Gaussian 90(TM) system (copyright 1990, Gaussian, Inc.),
 the Gaussian 88(TM) system (copyright 1988, Gaussian, Inc.),
 the Gaussian 86(TM) system (copyright 1986, Carnegie Mellon
 University), and the Gaussian 82(TM) system (copyright 1983,
 Carnegie Mellon University). Gaussian is a federally registered
 trademark of Gaussian, Inc.
  
 This software contains proprietary and confidential information,
 including trade secrets, belonging to Gaussian, Inc.
  
 This software is provided under written license and may be
 used, copied, transmitted, or stored only in accord with that
 written license.
  
 The following legend is applicable only to US Government
 contracts under FAR:
  
                    RESTRICTED RIGHTS LEGEND
  
 Use, reproduction and disclosure by the US Government is
 subject to restrictions as set forth in subparagraphs (a)
 and (c) of the Commercial Computer Software - Restricted
 Rights clause in FAR 52.227-19.
  
 Gaussian, Inc.
 340 Quinnipiac St., Bldg. 40, Wallingford CT 06492
  
  
 ---------------------------------------------------------------
 Warning -- This program may not be used in any manner that
 competes with the business of Gaussian, Inc. or will provide
 assistance to any competitor of Gaussian, Inc.  The licensee
 of this program is prohibited from giving any competitor of
 Gaussian, Inc. access to this program.  By using this program,
 the user acknowledges that Gaussian, Inc. is engaged in the
 business of creating and licensing software in the field of
 computational chemistry and represents and warrants to the
 licensee that it is not a competitor of Gaussian, Inc. and that
 it will not use this program in any manner prohibited above.
 ---------------------------------------------------------------
  

 Cite this work as:
 Gaussian 16, Revision A.03,
 M. J. Frisch, G. W. Trucks, H. B. Schlegel, G. E. Scuseria, 
 M. A. Robb, J. R. Cheeseman, G. Scalmani, V. Barone, 
 G. A. Petersson, H. Nakatsuji, X. Li, M. Caricato, A. V. Marenich, 
 J. Bloino, B. G. Janesko, R. Gomperts, B. Mennucci, H. P. Hratchian, 
 J. V. Ortiz, A. F. Izmaylov, J. L. Sonnenberg, D. Williams-Young, 
 F. Ding, F. Lipparini, F. Egidi, J. Goings, B. Peng, A. Petrone, 
 T. Henderson, D. Ranasinghe, V. G. Zakrzewski, J. Gao, N. Rega, 
 G. Zheng, W. Liang, M. Hada, M. Ehara, K. Toyota, R. Fukuda, 
 J. Hasegawa, M. Ishida, T. Nakajima, Y. Honda, O. Kitao, H. Nakai, 
 T. Vreven, K. Throssell, J. A. Montgomery, Jr., J. E. Peralta, 
 F. Ogliaro, M. J. Bearpark, J. J. Heyd, E. N. Brothers, K. N. Kudin, 
 V. N. Staroverov, T. A. Keith, R. Kobayashi, J. Normand, 
 K. Raghavachari, A. P. Rendell, J. C. Burant, S. S. Iyengar, 
 J. Tomasi, M. Cossi, J. M. Millam, M. Klene, C. Adamo, R. Cammi, 
 J. W. Ochterski, R. L. Martin, K. Morokuma, O. Farkas, 
 J. B. Foresman, and D. J. Fox, Gaussian, Inc., Wallingford CT, 2016.
 
 ******************************************
 Gaussian 16:  ES64L-G16RevA.03 25-Dec-2016
                17-Sep-2019 
 ******************************************
 %chk=Ng-293_loop3_54.0.chk
 %nprocshared=48
 Will use up to   48 processors via shared memory.
 %mem=10GB
 %nosave
 ----------------------------------------------------------------------
 #b3lyp/svp scf=(tight,noincore) Test #IOP(5/87=12) Density=Current Pop
 =(MK,readradii) iop(6/33=2) iop(6/42=6)
 ----------------------------------------------------------------------
 1/30=1,38=1,172=1/1;
 2/12=2,17=6,18=5,40=1/2;
 3/5=18,7=101,11=2,25=1,30=1,74=-5/1,2,3;
 4//1;
 5/5=4,32=2,38=5,87=12/2;
 6/7=2,8=2,9=2,10=2,15=8,20=101,22=-1,28=1,33=2,42=6/1,2;
 99/5=1,9=1/99;
 -----------------
 Ng-293_loop3_54.0
 -----------------
 Symbolic Z-matrix:
 Charge =  0 Multiplicity = 1
 C                     24.31     75.51     76.21 
 C                     23.21     75.73     75.18 
 O                     22.3      74.93     74.99 
 H                     25.151    76.167    75.989 
 H                     23.927    75.734    77.205 
 H                     24.641    74.472    76.173 
 N                     23.09     76.95     74.64 
 C                     22.22     77.46     73.6 
 C                     20.74     77.43     73.97 
 O                     20.41     77.69     75.12 
 C                     22.71     78.86     73.24 
 C                     21.96     79.61     72.15 
 O                     22.33     80.77     71.88 
 O                     21.02     79.15     71.47 
 H                     23.91     77.5      74.86 
 H                     22.33     76.82     72.73 
 H                     23.75     78.76     72.91 
 H                     22.92     79.43     74.15 
 N                     19.91     77.03     73. 
 C                     18.48     76.84     72.96 
 C                     17.62     78.       73.43 
 O                     16.42     77.88     73.67 
 C                     18.05     75.57     73.7 
 C                     18.52     74.19     73.27 
 C                     17.83     72.9      73.72 
 C                     18.13     71.73     72.79 
 N                     19.57     71.44     72.74 
 H                     20.32     76.96     72.08 
 H                     18.26     76.8      71.89 
 H                     16.98     75.54     73.85 
 H                     18.46     75.68     74.71 
 H                     19.58     74.11     73.51 
 H                     18.44     74.22     72.18 
 H                     16.76     72.94     73.94 
 H                     18.29     72.61     74.66 
 H                     17.89     71.84     71.74 
 H                     17.63     70.81     73.11 
 H                     19.96     72.26     72.31 
 H                     19.97     71.2      73.64 
 H                     19.79     70.64     72.16 
 N                     18.25     79.17     73.6 
 C                     17.65     80.42     74. 
 C                     18.43     81.66     73.58 
 O                     19.65     81.69     73.67 
 C                     17.48     80.47     75.52 
 C                     16.62     81.61     76.04 
 O                     17.16     82.64     76.5 
 O                     15.37     81.47     76.02 
 H                     19.24     79.24     73.41 
 H                     16.69     80.54     73.48 
 H                     18.43     80.53     76.04 
 H                     17.03     79.51     75.74 
 N                     17.75     82.75     73.21 
 C                     18.32     84.01     72.76 
 C                     18.2      85.06     73.86 
 O                     17.16     85.21     74.5 
 H                     16.74     82.7      73.15 
 H                     17.74     84.39     71.92 
 H                     19.35     83.86     72.45 
 N                     19.21     85.91     74. 
 C                     19.34     86.98     74.98 
 C                     20.05     88.17     74.35 
 O                     20.11     89.15     75.09 
 C                     20.08     86.4      76.18 
 C                     19.41     85.2      76.83 
 N                     20.09     84.06     76.74 
 O                     18.23     85.15     77.19 
 H                     19.99     85.76     73.37 
 H                     18.36     87.33     75.29 
 H                     20.19     87.1      77.01 
 H                     21.11     86.21     75.88 
 H                     20.98     83.97     76.28 
 H                     19.55     83.3      77.12 
 N                     20.5      88.21     73.09 
 C                     20.98     89.37     72.37 
 C                     21.95     90.27     73.12 
 O                     23.04     89.88     73.53 
 H                     20.54     87.34     72.59 
 H                     20.1      89.95     72.09 
 H                     21.42     89.08     71.42 
 N                     21.66     91.56     73.3 
 C                     22.35     92.59     74.05 
 C                     22.54     92.18     75.51 
 O                     23.38     92.71     76.22 
 C                     23.65     92.96     73.34 
 C                     23.46     93.53     71.96 
 C                     23.49     92.71     70.82 
 C                     23.17     94.9      71.83 
 C                     23.38     93.32     69.57 
 C                     22.98     95.54     70.6 
 C                     23.03     94.68     69.49 
 O                     22.93     95.23     68.24 
 H                     20.72     91.82     73.04 
 H                     21.79     93.52     74.08 
 H                     24.2      92.03     73.2 
 H                     24.26     93.61     73.98 
 H                     23.76     91.67     70.83 
 H                     22.99     95.46     72.74 
 H                     23.43     92.79     68.63 
 H                     22.75     96.59     70.49 
 H                     22.71     96.17     68.3 
 N                     21.67     91.33     76.05 
 C                     21.54     91.       77.46 
 C                     21.06     92.16     78.31 
 O                     20.12     92.       79.08 
 C                     22.77     90.26     77.99 
 C                     23.11     89.       77.2 
 C                     22.64     89.93     79.47 
 C                     24.55     88.51     77.35 
 H                     20.92     90.99     75.47 
 H                     20.74     90.28     77.56 
 H                     23.63     90.92     77.97 
 H                     22.9      89.24     76.16 
 H                     22.54     88.12     77.49 
 H                     22.82     90.83     80.06 
 H                     21.6      89.62     79.62 
 H                     23.26     89.09     79.78 
 H                     25.24     89.27     76.98 
 H                     24.85     88.25     78.37 
 H                     24.74     87.66     76.7 
 N                     21.78     93.29     78.4 
 C                     21.58     94.52     79.13 
 C                     21.71     94.27     80.63 
 O                     21.05     95.03     81.34 
 C                     22.68     95.5      78.74 
 O                     22.99     95.73     77.39 
 H                     22.56     93.35     77.76 
 H                     20.55     94.87     79. 
 H                     23.59     95.03     79.12 
 H                     22.56     96.4      79.34 
 H                     23.83     96.21     77.36 
 N                     22.43     93.24     81.08 
 C                     22.37     92.67     82.41 
 C                     21.01     92.25     82.93 
 O                     20.78     92.45     84.12 
 C                     23.25     93.57     83.27 
 H                     23.12     92.88     80.43 
 H                     22.91     91.73     82.28 
 H                     24.18     93.82     82.75 
 H                     22.68     94.48     83.48 
 H                     23.41     93.19     84.28 
 N                     20.11     91.73     82.09 
 C                     18.81     91.28     82.52 
 C                     18.66     89.84     82.05 
 O                     19.43     89.24     81.31 
 C                     17.75     92.14     81.81 
 H                     20.36     91.68     81.11 
 H                     18.67     91.39     83.59 
 H                     17.99     93.18     82.02 
 H                     17.79     91.93     80.74 
 H                     16.74     91.95     82.17 
 N                     17.6      89.21     82.57 
 C                     17.34     87.78     82.55 
 C                     18.29     86.91     83.35 
 O                     18.4      85.7      83.16 
 C                     17.06     87.24     81.15 
 C                     16.05     86.1      81.19 
 C                     15.79     85.47     79.83 
 O                     15.17     86.12     78.96 
 O                     16.22     84.32     79.59 
 H                     16.99     89.85     83.05 
 H                     16.38     87.73     83.06 
 H                     17.96     86.84     80.7 
 H                     16.73     88.03     80.46 
 H                     15.13     86.37     81.71 
 H                     16.47     85.29     81.79 
 N                     19.12     87.53     84.2 
 C                     20.19     86.97     85. 
 H                     21.029    87.665    85.021 
 H                     19.834    86.8      86.016 
 H                     20.513    86.024    84.565 
 H                     18.97     88.53     84.21 
 Ca                    15.62     84.65     76.91 
 O                     14.22     84.23     74.84 
 H                     14.54     84.54     73.99 
 H                     13.39     83.79     74.63 
 
 Stoichiometry    C54H83CaN15O23
 Framework group  C1[X(C54H83CaN15O23)]
 Deg. of freedom   522
 Full point group                 C1      NOp   1
 Largest Abelian subgroup         C1      NOp   1
 Largest concise Abelian subgroup C1      NOp   1
                         Standard orientation:                         
 ---------------------------------------------------------------------
 Center     Atomic      Atomic             Coordinates (Angstroms)
 Number     Number       Type             X           Y           Z
 ---------------------------------------------------------------------
      1          6           0        9.610194   -0.281260    6.171607
      2          6           0        9.816690    0.295869    4.777482
      3          8           0       10.757185   -0.016985    4.055130
      4          1           0        8.921405    0.353364    6.728915
      5          1           0        9.194220   -1.285015    6.092042
      6          1           0       10.566538   -0.324302    6.693073
      7          7           0        8.804767    0.976411    4.223158
      8          6           0        8.704437    1.702202    2.973453
      9          6           0        8.844161    0.817414    1.738209
     10          8           0        8.346660   -0.301229    1.749663
     11          6           0        7.389368    2.476569    2.998956
     12          6           0        7.055588    3.337625    1.790538
     13          8           0        5.963719    3.940297    1.787707
     14          8           0        7.800594    3.524899    0.806926
     15          1           0        8.108240    1.181294    4.927553
     16          1           0        9.524273    2.412776    2.934063
     17          1           0        7.424941    3.138970    3.870999
     18          1           0        6.581733    1.833421    3.361153
     19          7           0        9.590790    1.320539    0.748659
     20          6           0        9.981674    0.796955   -0.538070
     21          6           0        8.871247    0.275152   -1.432929
     22          8           0        9.091431   -0.405846   -2.432809
     23          6           0       11.066668   -0.276725   -0.413981
     24          6           0       12.431529    0.023839    0.183528
     25          6           0       13.646130   -0.884770   -0.021099
     26          6           0       14.961888   -0.151045    0.211773
     27          7           0       15.051820    0.366618    1.584411
     28          1           0        9.836481    2.295250    0.843390
     29          1           0       10.324729    1.683247   -1.078163
     30          1           0       11.205745   -0.810975   -1.343247
     31          1           0       10.645604   -1.025428    0.266055
     32          1           0       12.299123    0.178254    1.254147
     33          1           0       12.693279    0.992975   -0.249672
     34          1           0       13.700311   -1.469421   -0.943133
     35          1           0       13.618670   -1.627699    0.770484
     36          1           0       15.159117    0.738315   -0.373324
     37          1           0       15.829454   -0.801095    0.058262
     38          1           0       14.323397    1.057487    1.623148
     39          1           0       14.995128   -0.352320    2.296811
     40          1           0       15.935091    0.822850    1.775424
     41          7           0        7.620897    0.574233   -1.056265
     42          6           0        6.406156    0.228581   -1.754427
     43          6           0        5.219177    1.133296   -1.446254
     44          8           0        4.997736    1.503907   -0.301260
     45          6           0        5.992462   -1.208488   -1.429634
     46          6           0        4.888353   -1.779643   -2.303891
     47          8           0        3.710123   -1.804346   -1.885246
     48          8           0        5.201250   -2.245976   -3.429560
     49          1           0        7.464935    1.123240   -0.222378
     50          1           0        6.558144    0.373433   -2.832535
     51          1           0        5.669687   -1.322672   -0.400422
     52          1           0        6.916961   -1.756778   -1.560705
     53          7           0        4.365929    1.429101   -2.432087
     54          6           0        3.196714    2.288036   -2.331251
     55          6           0        1.927144    1.442525   -2.316998
     56          8           0        1.764304    0.507328   -3.099678
     57          1           0        4.569606    1.104271   -3.369744
     58          1           0        3.129149    2.913102   -3.220705
     59          1           0        3.276381    2.919023   -1.450906
     60          7           0        0.937726    1.847080   -1.529859
     61          6           0       -0.354995    1.206243   -1.328862
     62          6           0       -1.430597    2.267040   -1.142072
     63          8           0       -2.565991    1.801978   -1.063352
     64          6           0       -0.210626    0.273765   -0.131514
     65          6           0        0.863853   -0.792503   -0.272820
     66          7           0        1.882806   -0.678900    0.575076
     67          8           0        0.983546   -1.562115   -1.230876
     68          1           0        1.134166    2.677938   -0.983153
     69          1           0       -0.632926    0.631716   -2.207311
     70          1           0       -1.108204   -0.308355    0.084103
     71          1           0       -0.095260    0.888016    0.760891
     72          1           0        1.962990    0.048865    1.264807
     73          1           0        2.587512   -1.367729    0.368908
     74          7           0       -1.208563    3.587037   -1.144900
     75          6           0       -2.200416    4.639836   -1.192251
     76          6           0       -3.388415    4.483719   -0.255402
     77          8           0       -3.272026    4.435168    0.966235
     78          1           0       -0.253799    3.891127   -1.078153
     79          1           0       -2.561070    4.683146   -2.220479
     80          1           0       -1.740769    5.610897   -1.031117
     81          7           0       -4.628156    4.459606   -0.748412
     82          6           0       -5.901563    4.225727   -0.097847
     83          6           0       -5.909939    2.887426    0.640179
     84          8           0       -6.715683    2.649554    1.526065
     85          6           0       -6.254353    5.419088    0.786704
     86          6           0       -6.419526    6.715045    0.039300
     87          6           0       -5.347194    7.607889   -0.121434
     88          6           0       -7.656352    6.988523   -0.571741
     89          6           0       -5.595069    8.822380   -0.761957
     90          6           0       -7.926922    8.161219   -1.286007
     91          6           0       -6.826798    9.026436   -1.409804
     92          8           0       -7.018671   10.233146   -2.027894
     93          1           0       -4.679494    4.401691   -1.754797
     94          1           0       -6.720956    4.170669   -0.808455
     95          1           0       -5.405381    5.570666    1.452490
     96          1           0       -7.124956    5.183612    1.411845
     97          1           0       -4.392497    7.499316    0.359570
     98          1           0       -8.400179    6.200620   -0.566159
     99          1           0       -4.854170    9.595711   -0.903477
    100          1           0       -8.871122    8.377424   -1.764799
    101          1           0       -7.902605   10.277207   -2.418175
    102          7           0       -5.114248    1.914841    0.202055
    103          6           0       -5.141828    0.520128    0.611829
    104          6           0       -6.402484   -0.208574    0.189647
    105          8           0       -6.316016   -1.284667   -0.390566
    106          6           0       -4.740869    0.346811    2.078319
    107          6           0       -3.380461    0.950516    2.413177
    108          6           0       -4.786387   -1.111655    2.510762
    109          6           0       -3.150470    1.247884    3.894689
    110          1           0       -4.536079    2.103520   -0.600828
    111          1           0       -4.367471   -0.001293    0.066952
    112          1           0       -5.486679    0.805905    2.717538
    113          1           0       -3.314319    1.866553    1.830251
    114          1           0       -2.533734    0.309779    2.176726
    115          1           0       -5.823509   -1.411410    2.668956
    116          1           0       -4.383649   -1.688321    1.670847
    117          1           0       -4.148556   -1.327109    3.366830
    118          1           0       -3.878601    1.982547    4.242103
    119          1           0       -3.204874    0.379213    4.558354
    120          1           0       -2.197261    1.747343    4.046458
    121          7           0       -7.606589    0.188702    0.632030
    122          6           0       -8.942397   -0.314802    0.413166
    123          6           0       -9.105725   -1.680992    1.073657
    124          8           0       -9.922851   -2.424411    0.528741
    125          6           0       -9.932867    0.630210    1.082808
    126          8           0       -9.850043    2.017135    0.880127
    127          1           0       -7.608463    1.068721    1.129186
    128          1           0       -9.100620   -0.506913   -0.653773
    129          1           0       -9.707232    0.527793    2.146763
    130          1           0      -10.930827    0.211464    0.968225
    131          1           0      -10.418329    2.443679    1.537401
    132          7           0       -8.335934   -2.023562    2.108967
    133          6           0       -8.123178   -3.365551    2.610166
    134          6           0       -7.665527   -4.417383    1.619911
    135          8           0       -8.129794   -5.547271    1.749555
    136          6           0       -9.326847   -3.654815    3.499832
    137          1           0       -7.920977   -1.247507    2.612702
    138          1           0       -7.265812   -3.228651    3.272195
    139          1           0       -9.562079   -2.792906    4.131955
    140          1           0      -10.171844   -3.881285    2.842724
    141          1           0       -9.244431   -4.588545    4.057915
    142          7           0       -6.827690   -4.081182    0.634518
    143          6           0       -6.326625   -5.034791   -0.323063
    144          6           0       -4.807889   -4.936332   -0.295709
    145          8           0       -4.151423   -4.094783    0.305413
    146          6           0       -6.819887   -4.612385   -1.717898
    147          1           0       -6.563501   -3.106615    0.558200
    148          1           0       -6.686569   -6.039591   -0.129626
    149          1           0       -7.901893   -4.517376   -1.658432
    150          1           0       -6.350380   -3.663285   -1.981287
    151          1           0       -6.589921   -5.346432   -2.488670
    152          7           0       -4.191088   -5.918335   -0.963637
    153          6           0       -2.781934   -6.268095   -0.893968
    154          6           0       -2.286871   -6.814667    0.431012
    155          8           0       -1.096055   -6.832118    0.737531
    156          6           0       -1.867694   -5.198598   -1.485864
    157          6           0       -0.647003   -5.822400   -2.150759
    158          6           0        0.340295   -4.799173   -2.691453
    159          8           0        0.027712   -4.109938   -3.686966
    160          8           0        1.442023   -4.642434   -2.119940
    161          1           0       -4.841442   -6.456855   -1.510568
    162          1           0       -2.731278   -7.093739   -1.601037
    163          1           0       -1.494933   -4.535405   -0.715329
    164          1           0       -2.400654   -4.540376   -2.187146
    165          1           0       -0.910569   -6.581466   -2.888357
    166          1           0       -0.084367   -6.369504   -1.391406
    167          7           0       -3.213189   -7.166542    1.333186
    168          6           0       -3.031346   -7.610035    2.700207
    169          1           0       -3.818221   -7.189297    3.325663
    170          1           0       -3.079576   -8.698174    2.739174
    171          1           0       -2.059902   -7.275982    3.065138
    172          1           0       -4.151439   -7.039861    0.977885
    173         20           0        1.896581   -2.358451   -3.612622
    174          8           0        3.023500   -1.066094   -5.478410
    175          1           0        2.900282   -0.115623   -5.527617
    176          1           0        3.613636   -1.262768   -6.213026
 ---------------------------------------------------------------------
 Rotational constants (GHZ):           0.0200996           0.0076140           0.0063501
 Standard basis: SVP (5D, 7F)
 There are  1809 symmetry adapted cartesian basis functions of A   symmetry.
 There are  1717 symmetry adapted basis functions of A   symmetry.
  1717 basis functions,  2922 primitive gaussians,  1809 cartesian basis functions
   358 alpha electrons      358 beta electrons
       nuclear repulsion energy     18720.8600238656 Hartrees.
 NAtoms=  176 NActive=  176 NUniq=  176 SFac= 1.00D+00 NAtFMM=   60 NAOKFM=T Big=T
 Integral buffers will be    131072 words long.
 Raffenetti 2 integral format.
 Two-electron integral symmetry is turned on.
 One-electron integrals computed using PRISM.
 NBasis=  1717 RedAO= T EigKep=  3.60D-04  NBF=  1717
 NBsUse=  1717 1.00D-06 EigRej= -1.00D+00 NBFU=  1717
 ExpMin= 1.98D-02 ExpMax= 3.51D+04 ExpMxC= 5.28D+03 IAcc=3 IRadAn=         5 AccDes= 0.00D+00
 Harris functional with IExCor=  402 and IRadAn=       5 diagonalized for initial guess.
 HarFok:  IExCor=  402 AccDes= 0.00D+00 IRadAn=         5 IDoV= 1 UseB2=F ITyADJ=14
 ICtDFT=  3500011 ScaDFX=  1.000000  1.000000  1.000000  1.000000
 FoFCou: FMM=F IPFlag=           0 FMFlag=      100000 FMFlg1=        2001
         NFxFlg=           0 DoJE=T BraDBF=F KetDBF=T FulRan=T
         wScrn=  0.000000 ICntrl=       500 IOpCl=  0 I1Cent=   200000004 NGrid=           0
         NMat0=    1 NMatS0=      1 NMatT0=    0 NMatD0=    1 NMtDS0=    0 NMtDT0=    0
 Petite list used in FoFCou.
 Requested convergence on RMS density matrix=1.00D-08 within 128 cycles.
 Requested convergence on MAX density matrix=1.00D-06.
 Requested convergence on             energy=1.00D-06.
 No special actions if energy rises.
 EnCoef did     4 forward-backward iterations
 EnCoef did     5 forward-backward iterations
 EnCoef did     4 forward-backward iterations
 Restarting incremental Fock formation.
 SCF Done:  E(RB3LYP) =  -5333.43169360     A.U. after   23 cycles
            NFock= 23  Conv=0.12D-08     -V/T= 2.0081
 SCF density gives NOpUse=  1 NOpAll=  1.
 Hyperfine terms turned off by default for NAtoms > 100.

 **********************************************************************

            Population analysis using the SCF density.

 **********************************************************************

 Orbital symmetries:
 BldTbl:  Degeneracy threshold= 1.00D-02
       Occupied  (A) (A) (A) (A) (A) (A) (A) (A) (A) (A) (A) (A)
                 (A) (A) (A) (A) (A) (A) (A) (A) (A) (A) (A) (A)
                 (A) (A) (A) (A) (A) (A) (A) (A) (A) (A) (A) (A)
                 (A) (A) (A) (A) (A) (A) (A) (A) (A) (A) (A) (A)
                 (A) (A) (A) (A) (A) (A) (A) (A) (A) (A) (A) (A)
                 (A) (A) (A) (A) (A) (A) (A) (A) (A) (A) (A) (A)
                 (A) (A) (A) (A) (A) (A) (A) (A) (A) (A) (A) (A)
                 (A) (A) (A) (A) (A) (A) (A) (A) (A) (A) (A) (A)
                 (A) (A) (A) (A) (A) (A) (A) (A) (A) (A) (A) (A)
                 (A) (A) (A) (A) (A) (A) (A) (A) (A) (A) (A) (A)
                 (A) (A) (A) (A) (A) (A) (A) (A) (A) (A) (A) (A)
                 (A) (A) (A) (A) (A) (A) (A) (A) (A) (A) (A) (A)
                 (A) (A) (A) (A) (A) (A) (A) (A) (A) (A) (A) (A)
                 (A) (A) (A) (A) (A) (A) (A) (A) (A) (A) (A) (A)
                 (A) (A) (A) (A) (A) (A) (A) (A) (A) (A) (A) (A)
                 (A) (A) (A) (A) (A) (A) (A) (A) (A) (A) (A) (A)
                 (A) (A) (A) (A) (A) (A) (A) (A) (A) (A) (A) (A)
                 (A) (A) (A) (A) (A) (A) (A) (A) (A) (A) (A) (A)
                 (A) (A) (A) (A) (A) (A) (A) (A) (A) (A) (A) (A)
                 (A) (A) (A) (A) (A) (A) (A) (A) (A) (A) (A) (A)
                 (A) (A) (A) (A) (A) (A) (A) (A) (A) (A) (A) (A)
                 (A) (A) (A) (A) (A) (A) (A) (A) (A) (A) (A) (A)
                 (A) (A) (A) (A) (A) (A) (A) (A) (A) (A) (A) (A)
                 (A) (A) (A) (A) (A) (A) (A) (A) (A) (A) (A) (A)
                 (A) (A) (A) (A) (A) (A) (A) (A) (A) (A) (A) (A)
                 (A) (A) (A) (A) (A) (A) (A) (A) (A) (A) (A) (A)
                 (A) (A) (A) (A) (A) (A) (A) (A) (A) (A) (A) (A)
                 (A) (A) (A) (A) (A) (A) (A) (A) (A) (A) (A) (A)
                 (A) (A) (A) (A) (A) (A) (A) (A) (A) (A) (A) (A)
                 (A) (A) (A) (A) (A) (A) (A) (A) (A) (A)
       Virtual   (A) (A) (A) (A) (A) (A) (A) (A) (A) (A) (A) (A)
                 (A) (A) (A) (A) (A) (A) (A) (A) (A) (A) (A) (A)
                 (A) (A) (A) (A) (A) (A) (A) (A) (A) (A) (A) (A)
                 (A) (A) (A) (A) (A) (A) (A) (A) (A) (A) (A) (A)
                 (A) (A) (A) (A) (A) (A) (A) (A) (A) (A) (A) (A)
                 (A) (A) (A) (A) (A) (A) (A) (A) (A) (A) (A) (A)
                 (A) (A) (A) (A) (A) (A) (A) (A) (A) (A) (A) (A)
                 (A) (A) (A) (A) (A) (A) (A) (A) (A) (A) (A) (A)
                 (A) (A) (A) (A) (A) (A) (A) (A) (A) (A) (A) (A)
                 (A) (A) (A) (A) (A) (A) (A) (A) (A) (A) (A) (A)
                 (A) (A) (A) (A) (A) (A) (A) (A) (A) (A) (A) (A)
                 (A) (A) (A) (A) (A) (A) (A) (A) (A) (A) (A) (A)
                 (A) (A) (A) (A) (A) (A) (A) (A) (A) (A) (A) (A)
                 (A) (A) (A) (A) (A) (A) (A) (A) (A) (A) (A) (A)
                 (A) (A) (A) (A) (A) (A) (A) (A) (A) (A) (A) (A)
                 (A) (A) (A) (A) (A) (A) (A) (A) (A) (A) (A) (A)
                 (A) (A) (A) (A) (A) (A) (A) (A) (A) (A) (A) (A)
                 (A) (A) (A) (A) (A) (A) (A) (A) (A) (A) (A) (A)
                 (A) (A) (A) (A) (A) (A) (A) (A) (A) (A) (A) (A)
                 (A) (A) (A) (A) (A) (A) (A) (A) (A) (A) (A) (A)
                 (A) (A) (A) (A) (A) (A) (A) (A) (A) (A) (A) (A)
                 (A) (A) (A) (A) (A) (A) (A) (A) (A) (A) (A) (A)
                 (A) (A) (A) (A) (A) (A) (A) (A) (A) (A) (A) (A)
                 (A) (A) (A) (A) (A) (A) (A) (A) (A) (A) (A) (A)
                 (A) (A) (A) (A) (A) (A) (A) (A) (A) (A) (A) (A)
                 (A) (A) (A) (A) (A) (A) (A) (A) (A) (A) (A) (A)
                 (A) (A) (A) (A) (A) (A) (A) (A) (A) (A) (A) (A)
                 (A) (A) (A) (A) (A) (A) (A) (A) (A) (A) (A) (A)
                 (A) (A) (A) (A) (A) (A) (A) (A) (A) (A) (A) (A)
                 (A) (A) (A) (A) (A) (A) (A) (A) (A) (A) (A) (A)
                 (A) (A) (A) (A) (A) (A) (A) (A) (A) (A) (A) (A)
                 (A) (A) (A) (A) (A) (A) (A) (A) (A) (A) (A) (A)
                 (A) (A) (A) (A) (A) (A) (A) (A) (A) (A) (A) (A)
                 (A) (A) (A) (A) (A) (A) (A) (A) (A) (A) (A) (A)
                 (A) (A) (A) (A) (A) (A) (A) (A) (A) (A) (A) (A)
                 (A) (A) (A) (A) (A) (A) (A) (A) (A) (A) (A) (A)
                 (A) (A) (A) (A) (A) (A) (A) (A) (A) (A) (A) (A)
                 (A) (A) (A) (A) (A) (A) (A) (A) (A) (A) (A) (A)
                 (A) (A) (A) (A) (A) (A) (A) (A) (A) (A) (A) (A)
                 (A) (A) (A) (A) (A) (A) (A) (A) (A) (A) (A) (A)
                 (A) (A) (A) (A) (A) (A) (A) (A) (A) (A) (A) (A)
                 (A) (A) (A) (A) (A) (A) (A) (A) (A) (A) (A) (A)
                 (A) (A) (A) (A) (A) (A) (A) (A) (A) (A) (A) (A)
                 (A) (A) (A) (A) (A) (A) (A) (A) (A) (A) (A) (A)
                 (A) (A) (A) (A) (A) (A) (A) (A) (A) (A) (A) (A)
                 (A) (A) (A) (A) (A) (A) (A) (A) (A) (A) (A) (A)
                 (A) (A) (A) (A) (A) (A) (A) (A) (A) (A) (A) (A)
                 (A) (A) (A) (A) (A) (A) (A) (A) (A) (A) (A) (A)
                 (A) (A) (A) (A) (A) (A) (A) (A) (A) (A) (A) (A)
                 (A) (A) (A) (A) (A) (A) (A) (A) (A) (A) (A) (A)
                 (A) (A) (A) (A) (A) (A) (A) (A) (A) (A) (A) (A)
                 (A) (A) (A) (A) (A) (A) (A) (A) (A) (A) (A) (A)
                 (A) (A) (A) (A) (A) (A) (A) (A) (A) (A) (A) (A)
                 (A) (A) (A) (A) (A) (A) (A) (A) (A) (A) (A) (A)
                 (A) (A) (A) (A) (A) (A) (A) (A) (A) (A) (A) (A)
                 (A) (A) (A) (A) (A) (A) (A) (A) (A) (A) (A) (A)
                 (A) (A) (A) (A) (A) (A) (A) (A) (A) (A) (A) (A)
                 (A) (A) (A) (A) (A) (A) (A) (A) (A) (A) (A) (A)
                 (A) (A) (A) (A) (A) (A) (A) (A) (A) (A) (A) (A)
                 (A) (A) (A) (A) (A) (A) (A) (A) (A) (A) (A) (A)
                 (A) (A) (A) (A) (A) (A) (A) (A) (A) (A) (A) (A)
                 (A) (A) (A) (A) (A) (A) (A) (A) (A) (A) (A) (A)
                 (A) (A) (A) (A) (A) (A) (A) (A) (A) (A) (A) (A)
                 (A) (A) (A) (A) (A) (A) (A) (A) (A) (A) (A) (A)
                 (A) (A) (A) (A) (A) (A) (A) (A) (A) (A) (A) (A)
                 (A) (A) (A) (A) (A) (A) (A) (A) (A) (A) (A) (A)
                 (A) (A) (A) (A) (A) (A) (A) (A) (A) (A) (A) (A)
                 (A) (A) (A) (A) (A) (A) (A) (A) (A) (A) (A) (A)
                 (A) (A) (A) (A) (A) (A) (A) (A) (A) (A) (A) (A)
                 (A) (A) (A) (A) (A) (A) (A) (A) (A) (A) (A) (A)
                 (A) (A) (A) (A) (A) (A) (A) (A) (A) (A) (A) (A)
                 (A) (A) (A) (A) (A) (A) (A) (A) (A) (A) (A) (A)
                 (A) (A) (A) (A) (A) (A) (A) (A) (A) (A) (A) (A)
                 (A) (A) (A) (A) (A) (A) (A) (A) (A) (A) (A) (A)
                 (A) (A) (A) (A) (A) (A) (A) (A) (A) (A) (A) (A)
                 (A) (A) (A) (A) (A) (A) (A) (A) (A) (A) (A) (A)
                 (A) (A) (A) (A) (A) (A) (A) (A) (A) (A) (A) (A)
                 (A) (A) (A) (A) (A) (A) (A) (A) (A) (A) (A) (A)
                 (A) (A) (A) (A) (A) (A) (A) (A) (A) (A) (A) (A)
                 (A) (A) (A) (A) (A) (A) (A) (A) (A) (A) (A) (A)
                 (A) (A) (A) (A) (A) (A) (A) (A) (A) (A) (A) (A)
                 (A) (A) (A) (A) (A) (A) (A) (A) (A) (A) (A) (A)
                 (A) (A) (A) (A) (A) (A) (A) (A) (A) (A) (A) (A)
                 (A) (A) (A) (A) (A) (A) (A) (A) (A) (A) (A) (A)
                 (A) (A) (A) (A) (A) (A) (A) (A) (A) (A) (A) (A)
                 (A) (A) (A) (A) (A) (A) (A) (A) (A) (A) (A) (A)
                 (A) (A) (A) (A) (A) (A) (A) (A) (A) (A) (A) (A)
                 (A) (A) (A) (A) (A) (A) (A) (A) (A) (A) (A) (A)
                 (A) (A) (A) (A) (A) (A) (A) (A) (A) (A) (A) (A)
                 (A) (A) (A) (A) (A) (A) (A) (A) (A) (A) (A) (A)
                 (A) (A) (A) (A) (A) (A) (A) (A) (A) (A) (A) (A)
                 (A) (A) (A) (A) (A) (A) (A) (A) (A) (A) (A) (A)
                 (A) (A) (A) (A) (A) (A) (A) (A) (A) (A) (A) (A)
                 (A) (A) (A) (A) (A) (A) (A) (A) (A) (A) (A) (A)
                 (A) (A) (A) (A) (A) (A) (A) (A) (A) (A) (A) (A)
                 (A) (A) (A) (A) (A) (A) (A) (A) (A) (A) (A) (A)
                 (A) (A) (A) (A) (A) (A) (A) (A) (A) (A) (A) (A)
                 (A) (A) (A) (A) (A) (A) (A) (A) (A) (A) (A) (A)
                 (A) (A) (A) (A) (A) (A) (A) (A) (A) (A) (A) (A)
                 (A) (A) (A) (A) (A) (A) (A) (A) (A) (A) (A) (A)
                 (A) (A) (A) (A) (A) (A) (A) (A) (A) (A) (A) (A)
                 (A) (A) (A) (A) (A) (A) (A) (A) (A) (A) (A) (A)
                 (A) (A) (A) (A) (A) (A) (A) (A) (A) (A) (A) (A)
                 (A) (A) (A) (A) (A) (A) (A) (A) (A) (A) (A) (A)
                 (A) (A) (A) (A) (A) (A) (A) (A) (A) (A) (A) (A)
                 (A) (A) (A) (A) (A) (A) (A) (A) (A) (A) (A) (A)
                 (A) (A) (A) (A) (A) (A) (A) (A) (A) (A) (A) (A)
                 (A) (A) (A) (A) (A) (A) (A) (A) (A) (A) (A) (A)
                 (A) (A) (A) (A) (A) (A) (A) (A) (A) (A) (A) (A)
                 (A) (A) (A) (A) (A) (A) (A) (A) (A) (A) (A) (A)
                 (A) (A) (A) (A) (A) (A) (A) (A) (A) (A) (A) (A)
                 (A) (A) (A) (A) (A) (A) (A) (A) (A) (A) (A) (A)
                 (A) (A) (A) (A) (A) (A) (A) (A) (A) (A) (A) (A)
                 (A) (A) (A)
 The electronic state is 1-A.
 Alpha  occ. eigenvalues -- -145.37649 -19.18895 -19.16190 -19.13524 -19.13147
 Alpha  occ. eigenvalues --  -19.12583 -19.10875 -19.09759 -19.08925 -19.08802
 Alpha  occ. eigenvalues --  -19.08201 -19.07888 -19.07183 -19.06654 -19.06370
 Alpha  occ. eigenvalues --  -19.06142 -19.05774 -19.05703 -19.02792 -19.01997
 Alpha  occ. eigenvalues --  -19.01273 -19.00379 -18.96894 -18.94837 -15.43540
 Alpha  occ. eigenvalues --  -14.56853 -14.40390 -14.38837 -14.37555 -14.34611
 Alpha  occ. eigenvalues --  -14.34554 -14.34286 -14.33741 -14.33410 -14.33395
 Alpha  occ. eigenvalues --  -14.32711 -14.32295 -14.32178 -14.32047 -14.30908
 Alpha  occ. eigenvalues --  -12.57168 -12.57107 -12.57049 -10.34347 -10.32306
 Alpha  occ. eigenvalues --  -10.31060 -10.30664 -10.28466 -10.28266 -10.27461
 Alpha  occ. eigenvalues --  -10.27344 -10.26930 -10.26889 -10.26842 -10.26339
 Alpha  occ. eigenvalues --  -10.26086 -10.25855 -10.25332 -10.25227 -10.25115
 Alpha  occ. eigenvalues --  -10.24948 -10.24909 -10.24580 -10.24252 -10.23949
 Alpha  occ. eigenvalues --  -10.23120 -10.22804 -10.22479 -10.22070 -10.22054
 Alpha  occ. eigenvalues --  -10.21549 -10.21006 -10.20916 -10.20737 -10.20313
 Alpha  occ. eigenvalues --  -10.19920 -10.19704 -10.19684 -10.19640 -10.19615
 Alpha  occ. eigenvalues --  -10.19595 -10.19327 -10.18978 -10.18817 -10.18718
 Alpha  occ. eigenvalues --  -10.18492 -10.17198 -10.16811 -10.16536 -10.15989
 Alpha  occ. eigenvalues --  -10.15984 -10.15816 -10.15564 -10.14193 -10.13432
 Alpha  occ. eigenvalues --  -10.12514 -10.11950  -1.80335  -1.12626  -1.08018
 Alpha  occ. eigenvalues --   -1.07778  -1.07370  -1.06794  -1.05472  -1.04782
 Alpha  occ. eigenvalues --   -1.04666  -1.04436  -1.03547  -1.02335  -1.01583
 Alpha  occ. eigenvalues --   -1.01491  -1.01306  -1.00963  -1.00489  -1.00080
 Alpha  occ. eigenvalues --   -0.99593  -0.99267  -0.98780  -0.98339  -0.96866
 Alpha  occ. eigenvalues --   -0.96704  -0.95630  -0.95113  -0.94137  -0.91903
 Alpha  occ. eigenvalues --   -0.91508  -0.91411  -0.90779  -0.90489  -0.90280
 Alpha  occ. eigenvalues --   -0.89937  -0.89318  -0.89182  -0.88474  -0.88056
 Alpha  occ. eigenvalues --   -0.87843  -0.87519  -0.86307  -0.85336  -0.85274
 Alpha  occ. eigenvalues --   -0.81350  -0.80500  -0.80431  -0.80069  -0.79487
 Alpha  occ. eigenvalues --   -0.77627  -0.76881  -0.76856  -0.76279  -0.75080
 Alpha  occ. eigenvalues --   -0.75071  -0.74762  -0.74368  -0.73769  -0.73340
 Alpha  occ. eigenvalues --   -0.73063  -0.72220  -0.72062  -0.70827  -0.70077
 Alpha  occ. eigenvalues --   -0.70026  -0.69421  -0.68997  -0.68031  -0.66529
 Alpha  occ. eigenvalues --   -0.66144  -0.64984  -0.64306  -0.63795  -0.63033
 Alpha  occ. eigenvalues --   -0.62779  -0.62599  -0.62298  -0.62142  -0.61600
 Alpha  occ. eigenvalues --   -0.60987  -0.60755  -0.59827  -0.59755  -0.59544
 Alpha  occ. eigenvalues --   -0.58839  -0.58040  -0.57739  -0.57735  -0.57635
 Alpha  occ. eigenvalues --   -0.57504  -0.57338  -0.56762  -0.56076  -0.55980
 Alpha  occ. eigenvalues --   -0.55824  -0.55367  -0.54842  -0.54551  -0.54318
 Alpha  occ. eigenvalues --   -0.54281  -0.54185  -0.53998  -0.53591  -0.53376
 Alpha  occ. eigenvalues --   -0.53000  -0.52580  -0.52156  -0.51673  -0.51459
 Alpha  occ. eigenvalues --   -0.51406  -0.51355  -0.50841  -0.50016  -0.49852
 Alpha  occ. eigenvalues --   -0.49754  -0.49295  -0.49094  -0.48789  -0.47831
 Alpha  occ. eigenvalues --   -0.47666  -0.47374  -0.47289  -0.47227  -0.46979
 Alpha  occ. eigenvalues --   -0.46552  -0.46506  -0.46334  -0.46192  -0.46022
 Alpha  occ. eigenvalues --   -0.45797  -0.45617  -0.45378  -0.45093  -0.44653
 Alpha  occ. eigenvalues --   -0.44588  -0.44507  -0.44427  -0.44274  -0.44062
 Alpha  occ. eigenvalues --   -0.43857  -0.43708  -0.43684  -0.43464  -0.43358
 Alpha  occ. eigenvalues --   -0.43182  -0.43138  -0.42984  -0.42597  -0.42579
 Alpha  occ. eigenvalues --   -0.42431  -0.42170  -0.42015  -0.41965  -0.41655
 Alpha  occ. eigenvalues --   -0.41484  -0.41426  -0.41282  -0.40988  -0.40784
 Alpha  occ. eigenvalues --   -0.40460  -0.40351  -0.40275  -0.40094  -0.39762
 Alpha  occ. eigenvalues --   -0.39680  -0.39611  -0.39420  -0.39309  -0.39261
 Alpha  occ. eigenvalues --   -0.38963  -0.38796  -0.38585  -0.38492  -0.38245
 Alpha  occ. eigenvalues --   -0.38153  -0.38079  -0.38008  -0.37707  -0.37570
 Alpha  occ. eigenvalues --   -0.37502  -0.37428  -0.37121  -0.37088  -0.37020
 Alpha  occ. eigenvalues --   -0.36914  -0.36776  -0.36533  -0.36292  -0.36179
 Alpha  occ. eigenvalues --   -0.36101  -0.35980  -0.35653  -0.35622  -0.35266
 Alpha  occ. eigenvalues --   -0.35243  -0.35138  -0.35100  -0.34964  -0.34801
 Alpha  occ. eigenvalues --   -0.34494  -0.34404  -0.34244  -0.34022  -0.34006
 Alpha  occ. eigenvalues --   -0.33706  -0.33677  -0.33269  -0.33093  -0.33052
 Alpha  occ. eigenvalues --   -0.32871  -0.32844  -0.32563  -0.32025  -0.31918
 Alpha  occ. eigenvalues --   -0.31030  -0.30873  -0.30788  -0.30545  -0.30357
 Alpha  occ. eigenvalues --   -0.30089  -0.30035  -0.28802  -0.28777  -0.28749
 Alpha  occ. eigenvalues --   -0.28210  -0.27815  -0.27626  -0.27043  -0.26605
 Alpha  occ. eigenvalues --   -0.26587  -0.26426  -0.26323  -0.25761  -0.25445
 Alpha  occ. eigenvalues --   -0.25144  -0.25009  -0.24823  -0.24406  -0.24024
 Alpha  occ. eigenvalues --   -0.23966  -0.23707  -0.23599  -0.23263  -0.22888
 Alpha  occ. eigenvalues --   -0.22821  -0.22672  -0.22513  -0.22360  -0.22341
 Alpha  occ. eigenvalues --   -0.21903  -0.21650  -0.21441  -0.20702  -0.20357
 Alpha  occ. eigenvalues --   -0.19559  -0.19487  -0.18599  -0.17382  -0.16279
 Alpha  occ. eigenvalues --   -0.15056  -0.13284  -0.10516
 Alpha virt. eigenvalues --   -0.09233  -0.03603  -0.02529  -0.02203  -0.02190
 Alpha virt. eigenvalues --   -0.02059  -0.01535  -0.00435  -0.00362  -0.00012
 Alpha virt. eigenvalues --    0.00529   0.00872   0.01942   0.02229   0.02570
 Alpha virt. eigenvalues --    0.02942   0.03070   0.03379   0.03434   0.03543
 Alpha virt. eigenvalues --    0.03564   0.03968   0.04228   0.04275   0.04329
 Alpha virt. eigenvalues --    0.04801   0.04932   0.05162   0.05625   0.05860
 Alpha virt. eigenvalues --    0.05977   0.06104   0.06186   0.06475   0.06569
 Alpha virt. eigenvalues --    0.07034   0.07442   0.07853   0.07939   0.08285
 Alpha virt. eigenvalues --    0.08540   0.08584   0.08639   0.08868   0.09586
 Alpha virt. eigenvalues --    0.09723   0.10150   0.10191   0.10343   0.10453
 Alpha virt. eigenvalues --    0.10602   0.10794   0.10975   0.11059   0.11210
 Alpha virt. eigenvalues --    0.11416   0.11537   0.11719   0.11803   0.12127
 Alpha virt. eigenvalues --    0.12285   0.12440   0.12542   0.12881   0.13403
 Alpha virt. eigenvalues --    0.13454   0.13502   0.13719   0.13787   0.13965
 Alpha virt. eigenvalues --    0.14011   0.14124   0.14206   0.14393   0.14767
 Alpha virt. eigenvalues --    0.14910   0.15015   0.15154   0.15271   0.15290
 Alpha virt. eigenvalues --    0.15470   0.15500   0.15594   0.15936   0.15984
 Alpha virt. eigenvalues --    0.16083   0.16392   0.16414   0.16616   0.16654
 Alpha virt. eigenvalues --    0.16916   0.17115   0.17221   0.17442   0.17517
 Alpha virt. eigenvalues --    0.17639   0.17901   0.18178   0.18274   0.18479
 Alpha virt. eigenvalues --    0.18636   0.18836   0.19147   0.19337   0.19417
 Alpha virt. eigenvalues --    0.19644   0.19810   0.20124   0.20288   0.20321
 Alpha virt. eigenvalues --    0.20579   0.20734   0.20817   0.21002   0.21449
 Alpha virt. eigenvalues --    0.21523   0.21764   0.21851   0.22286   0.22406
 Alpha virt. eigenvalues --    0.22454   0.22621   0.22906   0.23128   0.23143
 Alpha virt. eigenvalues --    0.23309   0.23587   0.24090   0.24361   0.24570
 Alpha virt. eigenvalues --    0.24641   0.24854   0.25086   0.25301   0.25316
 Alpha virt. eigenvalues --    0.25566   0.25770   0.25956   0.26139   0.26447
 Alpha virt. eigenvalues --    0.26756   0.26988   0.27650   0.27771   0.28114
 Alpha virt. eigenvalues --    0.28306   0.28363   0.28494   0.28527   0.29115
 Alpha virt. eigenvalues --    0.29545   0.29703   0.29816   0.29997   0.30078
 Alpha virt. eigenvalues --    0.30329   0.30492   0.30703   0.30847   0.31003
 Alpha virt. eigenvalues --    0.31077   0.31457   0.31693   0.32029   0.32326
 Alpha virt. eigenvalues --    0.32648   0.32685   0.33100   0.33289   0.33620
 Alpha virt. eigenvalues --    0.33845   0.34107   0.34531   0.34593   0.34653
 Alpha virt. eigenvalues --    0.35063   0.35485   0.35750   0.35805   0.36173
 Alpha virt. eigenvalues --    0.36670   0.37076   0.37470   0.37964   0.38404
 Alpha virt. eigenvalues --    0.38439   0.38683   0.38895   0.39248   0.39589
 Alpha virt. eigenvalues --    0.40146   0.40328   0.40478   0.40857   0.40929
 Alpha virt. eigenvalues --    0.41177   0.41379   0.41663   0.41767   0.41953
 Alpha virt. eigenvalues --    0.42415   0.42532   0.42672   0.42836   0.43344
 Alpha virt. eigenvalues --    0.43575   0.43889   0.44138   0.44227   0.44375
 Alpha virt. eigenvalues --    0.44468   0.44785   0.44933   0.45022   0.45267
 Alpha virt. eigenvalues --    0.45388   0.45494   0.45659   0.45784   0.45876
 Alpha virt. eigenvalues --    0.46076   0.46215   0.46565   0.46745   0.46826
 Alpha virt. eigenvalues --    0.46999   0.47095   0.47359   0.47676   0.47757
 Alpha virt. eigenvalues --    0.47828   0.47853   0.48062   0.48483   0.48689
 Alpha virt. eigenvalues --    0.48800   0.49085   0.49329   0.49568   0.49627
 Alpha virt. eigenvalues --    0.49794   0.49932   0.50450   0.50731   0.50949
 Alpha virt. eigenvalues --    0.51102   0.51398   0.51559   0.51712   0.51826
 Alpha virt. eigenvalues --    0.51915   0.52369   0.52428   0.52734   0.52896
 Alpha virt. eigenvalues --    0.53078   0.53147   0.53294   0.53555   0.53606
 Alpha virt. eigenvalues --    0.53950   0.54163   0.54221   0.54259   0.54534
 Alpha virt. eigenvalues --    0.54716   0.54962   0.55106   0.55425   0.55512
 Alpha virt. eigenvalues --    0.55611   0.55933   0.56124   0.56296   0.56569
 Alpha virt. eigenvalues --    0.56906   0.57061   0.57394   0.57592   0.57738
 Alpha virt. eigenvalues --    0.58032   0.58414   0.58546   0.58720   0.59057
 Alpha virt. eigenvalues --    0.59231   0.59287   0.59447   0.59632   0.59856
 Alpha virt. eigenvalues --    0.60159   0.60290   0.60438   0.60479   0.60586
 Alpha virt. eigenvalues --    0.60657   0.60895   0.60913   0.61092   0.61129
 Alpha virt. eigenvalues --    0.61281   0.61321   0.61429   0.61635   0.61701
 Alpha virt. eigenvalues --    0.61854   0.61936   0.62005   0.62186   0.62461
 Alpha virt. eigenvalues --    0.62592   0.62800   0.62894   0.63021   0.63333
 Alpha virt. eigenvalues --    0.63481   0.63517   0.63623   0.63678   0.63735
 Alpha virt. eigenvalues --    0.64071   0.64118   0.64168   0.64281   0.64359
 Alpha virt. eigenvalues --    0.64503   0.64742   0.64787   0.64895   0.65075
 Alpha virt. eigenvalues --    0.65179   0.65314   0.65496   0.65550   0.65766
 Alpha virt. eigenvalues --    0.66044   0.66120   0.66278   0.66296   0.66379
 Alpha virt. eigenvalues --    0.66467   0.66551   0.66774   0.66841   0.67022
 Alpha virt. eigenvalues --    0.67133   0.67205   0.67264   0.67324   0.67446
 Alpha virt. eigenvalues --    0.67563   0.67700   0.67734   0.67825   0.67861
 Alpha virt. eigenvalues --    0.68015   0.68106   0.68194   0.68226   0.68431
 Alpha virt. eigenvalues --    0.68454   0.68533   0.68628   0.68690   0.68877
 Alpha virt. eigenvalues --    0.68983   0.69083   0.69254   0.69357   0.69482
 Alpha virt. eigenvalues --    0.69703   0.69804   0.69876   0.69993   0.70208
 Alpha virt. eigenvalues --    0.70314   0.70385   0.70402   0.70522   0.70723
 Alpha virt. eigenvalues --    0.70774   0.70851   0.71098   0.71161   0.71324
 Alpha virt. eigenvalues --    0.71383   0.71596   0.71775   0.71813   0.71873
 Alpha virt. eigenvalues --    0.72081   0.72227   0.72351   0.72428   0.72687
 Alpha virt. eigenvalues --    0.72727   0.72943   0.73150   0.73170   0.73449
 Alpha virt. eigenvalues --    0.73801   0.73919   0.74004   0.74058   0.74213
 Alpha virt. eigenvalues --    0.74409   0.74491   0.74673   0.74734   0.74891
 Alpha virt. eigenvalues --    0.75204   0.75299   0.75431   0.75557   0.75919
 Alpha virt. eigenvalues --    0.76158   0.76257   0.76636   0.76947   0.77025
 Alpha virt. eigenvalues --    0.77149   0.77443   0.77513   0.77719   0.77722
 Alpha virt. eigenvalues --    0.78049   0.78495   0.78558   0.78779   0.78822
 Alpha virt. eigenvalues --    0.79242   0.79273   0.79470   0.79825   0.80073
 Alpha virt. eigenvalues --    0.80307   0.80375   0.80619   0.81134   0.81312
 Alpha virt. eigenvalues --    0.81389   0.81744   0.82067   0.82247   0.82310
 Alpha virt. eigenvalues --    0.82709   0.82939   0.83317   0.83825   0.84078
 Alpha virt. eigenvalues --    0.84322   0.84435   0.84818   0.85202   0.85589
 Alpha virt. eigenvalues --    0.86184   0.86326   0.86995   0.87175   0.87352
 Alpha virt. eigenvalues --    0.87623   0.87716   0.88331   0.88715   0.88902
 Alpha virt. eigenvalues --    0.89412   0.89626   0.89881   0.90245   0.90538
 Alpha virt. eigenvalues --    0.91029   0.91047   0.91553   0.91833   0.92036
 Alpha virt. eigenvalues --    0.92527   0.92647   0.92758   0.93301   0.93489
 Alpha virt. eigenvalues --    0.93966   0.94229   0.94438   0.94722   0.95220
 Alpha virt. eigenvalues --    0.95377   0.95810   0.96060   0.96223   0.96582
 Alpha virt. eigenvalues --    0.96898   0.96960   0.97426   0.97574   0.97941
 Alpha virt. eigenvalues --    0.98103   0.98330   0.98592   0.98806   0.98963
 Alpha virt. eigenvalues --    0.99059   0.99658   0.99893   0.99987   1.00211
 Alpha virt. eigenvalues --    1.00445   1.00536   1.00785   1.01232   1.01310
 Alpha virt. eigenvalues --    1.01475   1.01955   1.02605   1.02724   1.02991
 Alpha virt. eigenvalues --    1.03312   1.03502   1.03652   1.03772   1.04306
 Alpha virt. eigenvalues --    1.04458   1.04731   1.05028   1.05415   1.05559
 Alpha virt. eigenvalues --    1.05976   1.06019   1.06513   1.06808   1.07551
 Alpha virt. eigenvalues --    1.07833   1.07854   1.08121   1.08290   1.08517
 Alpha virt. eigenvalues --    1.08742   1.09053   1.09166   1.09568   1.10007
 Alpha virt. eigenvalues --    1.10314   1.10468   1.10588   1.10715   1.10955
 Alpha virt. eigenvalues --    1.11292   1.11360   1.11405   1.11669   1.11902
 Alpha virt. eigenvalues --    1.12411   1.12686   1.13013   1.13380   1.13517
 Alpha virt. eigenvalues --    1.13684   1.14309   1.14538   1.14620   1.14898
 Alpha virt. eigenvalues --    1.15191   1.15374   1.16103   1.16253   1.16334
 Alpha virt. eigenvalues --    1.16572   1.16919   1.17149   1.17510   1.17994
 Alpha virt. eigenvalues --    1.18082   1.18398   1.18816   1.19011   1.19303
 Alpha virt. eigenvalues --    1.19450   1.19555   1.20244   1.20521   1.20739
 Alpha virt. eigenvalues --    1.20955   1.21436   1.21597   1.21897   1.21923
 Alpha virt. eigenvalues --    1.22356   1.22419   1.22728   1.22832   1.23181
 Alpha virt. eigenvalues --    1.23300   1.23535   1.23736   1.24052   1.24132
 Alpha virt. eigenvalues --    1.24718   1.25101   1.25412   1.25659   1.25964
 Alpha virt. eigenvalues --    1.26042   1.26366   1.26493   1.26768   1.27175
 Alpha virt. eigenvalues --    1.27364   1.27612   1.27933   1.28081   1.28498
 Alpha virt. eigenvalues --    1.28564   1.28789   1.28922   1.29352   1.29472
 Alpha virt. eigenvalues --    1.29743   1.30508   1.30679   1.30829   1.30924
 Alpha virt. eigenvalues --    1.31147   1.31264   1.31649   1.31767   1.32143
 Alpha virt. eigenvalues --    1.32286   1.32812   1.33139   1.33340   1.33789
 Alpha virt. eigenvalues --    1.34045   1.34326   1.34447   1.34588   1.35513
 Alpha virt. eigenvalues --    1.35684   1.36057   1.36361   1.36711   1.36834
 Alpha virt. eigenvalues --    1.37211   1.37341   1.37778   1.38131   1.38359
 Alpha virt. eigenvalues --    1.38600   1.38939   1.39415   1.39427   1.39834
 Alpha virt. eigenvalues --    1.40026   1.40364   1.40796   1.41448   1.41559
 Alpha virt. eigenvalues --    1.41820   1.42101   1.42335   1.42424   1.42649
 Alpha virt. eigenvalues --    1.42894   1.42921   1.43131   1.43152   1.43859
 Alpha virt. eigenvalues --    1.44516   1.44877   1.45304   1.45373   1.45777
 Alpha virt. eigenvalues --    1.46200   1.46469   1.46814   1.47067   1.47220
 Alpha virt. eigenvalues --    1.47386   1.48061   1.48230   1.48541   1.48803
 Alpha virt. eigenvalues --    1.49193   1.49551   1.49731   1.49767   1.50283
 Alpha virt. eigenvalues --    1.50474   1.50566   1.50972   1.51533   1.51851
 Alpha virt. eigenvalues --    1.51868   1.52341   1.52457   1.52878   1.53061
 Alpha virt. eigenvalues --    1.53393   1.53760   1.54140   1.54477   1.54890
 Alpha virt. eigenvalues --    1.54929   1.55452   1.55930   1.56269   1.56455
 Alpha virt. eigenvalues --    1.56568   1.56726   1.56956   1.57281   1.58043
 Alpha virt. eigenvalues --    1.58248   1.58811   1.59386   1.59720   1.60055
 Alpha virt. eigenvalues --    1.60523   1.60652   1.60935   1.61148   1.61369
 Alpha virt. eigenvalues --    1.62062   1.62335   1.62597   1.62988   1.63134
 Alpha virt. eigenvalues --    1.63676   1.64536   1.64685   1.64936   1.65377
 Alpha virt. eigenvalues --    1.66067   1.66474   1.66597   1.66876   1.67308
 Alpha virt. eigenvalues --    1.67444   1.67825   1.67947   1.68197   1.68504
 Alpha virt. eigenvalues --    1.68654   1.68825   1.69010   1.69148   1.69223
 Alpha virt. eigenvalues --    1.69727   1.70021   1.70192   1.70433   1.70621
 Alpha virt. eigenvalues --    1.70738   1.71181   1.71528   1.71851   1.71909
 Alpha virt. eigenvalues --    1.72039   1.72408   1.72842   1.72916   1.73096
 Alpha virt. eigenvalues --    1.73493   1.73594   1.73664   1.73821   1.74092
 Alpha virt. eigenvalues --    1.74297   1.74679   1.74717   1.74847   1.75107
 Alpha virt. eigenvalues --    1.75382   1.75572   1.75693   1.76028   1.76281
 Alpha virt. eigenvalues --    1.76432   1.76483   1.76589   1.77018   1.77395
 Alpha virt. eigenvalues --    1.77530   1.77725   1.77953   1.78012   1.78100
 Alpha virt. eigenvalues --    1.78184   1.78460   1.78737   1.78859   1.78890
 Alpha virt. eigenvalues --    1.79158   1.79367   1.79547   1.79819   1.79929
 Alpha virt. eigenvalues --    1.79959   1.80026   1.80215   1.80573   1.80702
 Alpha virt. eigenvalues --    1.80775   1.81078   1.81348   1.81476   1.81606
 Alpha virt. eigenvalues --    1.81647   1.81717   1.82013   1.82187   1.82314
 Alpha virt. eigenvalues --    1.82544   1.82674   1.82924   1.83073   1.83126
 Alpha virt. eigenvalues --    1.83273   1.83315   1.83517   1.83620   1.83721
 Alpha virt. eigenvalues --    1.84104   1.84220   1.84275   1.84422   1.84446
 Alpha virt. eigenvalues --    1.84866   1.85093   1.85253   1.85657   1.86019
 Alpha virt. eigenvalues --    1.86068   1.86285   1.86541   1.86687   1.86754
 Alpha virt. eigenvalues --    1.86952   1.87130   1.87542   1.87617   1.88015
 Alpha virt. eigenvalues --    1.88103   1.88138   1.88398   1.88432   1.88514
 Alpha virt. eigenvalues --    1.88734   1.88980   1.88989   1.89393   1.89413
 Alpha virt. eigenvalues --    1.89552   1.89954   1.90072   1.90137   1.90483
 Alpha virt. eigenvalues --    1.90941   1.91054   1.91292   1.91443   1.91554
 Alpha virt. eigenvalues --    1.91860   1.91996   1.92232   1.92463   1.92750
 Alpha virt. eigenvalues --    1.92812   1.92912   1.93210   1.93342   1.93463
 Alpha virt. eigenvalues --    1.94019   1.94163   1.94291   1.94418   1.94721
 Alpha virt. eigenvalues --    1.95125   1.95181   1.95277   1.95517   1.95817
 Alpha virt. eigenvalues --    1.96032   1.96114   1.96161   1.96531   1.96780
 Alpha virt. eigenvalues --    1.97014   1.97186   1.97345   1.97469   1.97777
 Alpha virt. eigenvalues --    1.97854   1.98242   1.98575   1.98945   1.99106
 Alpha virt. eigenvalues --    1.99212   1.99644   1.99761   2.00130   2.00192
 Alpha virt. eigenvalues --    2.00255   2.00479   2.00678   2.01011   2.01539
 Alpha virt. eigenvalues --    2.01618   2.01928   2.02186   2.02478   2.02639
 Alpha virt. eigenvalues --    2.02822   2.03002   2.03257   2.03581   2.03830
 Alpha virt. eigenvalues --    2.03897   2.04148   2.04475   2.04609   2.04914
 Alpha virt. eigenvalues --    2.05415   2.05618   2.05802   2.06041   2.06230
 Alpha virt. eigenvalues --    2.06712   2.06788   2.06824   2.07424   2.08010
 Alpha virt. eigenvalues --    2.08819   2.09005   2.09209   2.09828   2.10048
 Alpha virt. eigenvalues --    2.10089   2.10356   2.10505   2.10677   2.10844
 Alpha virt. eigenvalues --    2.10945   2.11098   2.11325   2.11710   2.12056
 Alpha virt. eigenvalues --    2.12360   2.12750   2.12923   2.13119   2.13417
 Alpha virt. eigenvalues --    2.13909   2.14461   2.14504   2.14779   2.15326
 Alpha virt. eigenvalues --    2.15394   2.15547   2.15736   2.16100   2.16376
 Alpha virt. eigenvalues --    2.16887   2.17056   2.17097   2.17324   2.17546
 Alpha virt. eigenvalues --    2.17892   2.18156   2.18324   2.18740   2.18973
 Alpha virt. eigenvalues --    2.19111   2.19182   2.19511   2.19870   2.20123
 Alpha virt. eigenvalues --    2.20521   2.20627   2.20743   2.21094   2.21324
 Alpha virt. eigenvalues --    2.21589   2.21821   2.22228   2.22438   2.22551
 Alpha virt. eigenvalues --    2.23379   2.23776   2.24133   2.24627   2.24735
 Alpha virt. eigenvalues --    2.25604   2.25820   2.26128   2.26641   2.26881
 Alpha virt. eigenvalues --    2.27160   2.27468   2.27655   2.27803   2.28579
 Alpha virt. eigenvalues --    2.28977   2.29225   2.29437   2.29567   2.30663
 Alpha virt. eigenvalues --    2.30832   2.30902   2.31277   2.32161   2.32275
 Alpha virt. eigenvalues --    2.32577   2.32608   2.32903   2.33036   2.33201
 Alpha virt. eigenvalues --    2.33373   2.33659   2.33831   2.34192   2.34232
 Alpha virt. eigenvalues --    2.34335   2.34597   2.34683   2.35292   2.35650
 Alpha virt. eigenvalues --    2.36438   2.36698   2.37522   2.38247   2.38850
 Alpha virt. eigenvalues --    2.38999   2.39548   2.39919   2.40105   2.40303
 Alpha virt. eigenvalues --    2.40358   2.40905   2.41109   2.41590   2.41672
 Alpha virt. eigenvalues --    2.41985   2.42366   2.42610   2.43295   2.43414
 Alpha virt. eigenvalues --    2.44108   2.44314   2.44651   2.44992   2.45506
 Alpha virt. eigenvalues --    2.45625   2.45850   2.45975   2.46122   2.47075
 Alpha virt. eigenvalues --    2.47356   2.47649   2.48044   2.48209   2.48720
 Alpha virt. eigenvalues --    2.49101   2.49706   2.49818   2.50407   2.50634
 Alpha virt. eigenvalues --    2.51092   2.51237   2.51636   2.51943   2.52537
 Alpha virt. eigenvalues --    2.52780   2.53062   2.53466   2.53721   2.54384
 Alpha virt. eigenvalues --    2.54711   2.54940   2.54973   2.55146   2.55992
 Alpha virt. eigenvalues --    2.56403   2.56848   2.57276   2.57420   2.57653
 Alpha virt. eigenvalues --    2.58049   2.58244   2.58637   2.59057   2.59140
 Alpha virt. eigenvalues --    2.59232   2.59806   2.59863   2.60042   2.60379
 Alpha virt. eigenvalues --    2.60728   2.61164   2.61392   2.61626   2.61751
 Alpha virt. eigenvalues --    2.61789   2.62009   2.62052   2.62489   2.62543
 Alpha virt. eigenvalues --    2.62794   2.62854   2.63428   2.63536   2.63616
 Alpha virt. eigenvalues --    2.63908   2.64305   2.64640   2.64924   2.65147
 Alpha virt. eigenvalues --    2.65780   2.66442   2.66775   2.67647   2.67798
 Alpha virt. eigenvalues --    2.68518   2.69145   2.69372   2.69652   2.69825
 Alpha virt. eigenvalues --    2.69942   2.70041   2.70722   2.70827   2.71890
 Alpha virt. eigenvalues --    2.71909   2.71999   2.72272   2.72349   2.72699
 Alpha virt. eigenvalues --    2.72819   2.73104   2.73513   2.73557   2.73697
 Alpha virt. eigenvalues --    2.73788   2.74028   2.74581   2.74644   2.75164
 Alpha virt. eigenvalues --    2.75395   2.75618   2.75868   2.76071   2.76333
 Alpha virt. eigenvalues --    2.76632   2.76795   2.76907   2.77031   2.77301
 Alpha virt. eigenvalues --    2.77923   2.78058   2.78225   2.78484   2.78866
 Alpha virt. eigenvalues --    2.79633   2.79742   2.80075   2.80144   2.80440
 Alpha virt. eigenvalues --    2.80874   2.81123   2.81704   2.81709   2.82028
 Alpha virt. eigenvalues --    2.82434   2.82711   2.82828   2.82960   2.83123
 Alpha virt. eigenvalues --    2.83433   2.83443   2.83935   2.84098   2.84418
 Alpha virt. eigenvalues --    2.84844   2.85044   2.85802   2.85887   2.86206
 Alpha virt. eigenvalues --    2.86251   2.86576   2.86622   2.86975   2.87234
 Alpha virt. eigenvalues --    2.87643   2.88189   2.88401   2.88831   2.88952
 Alpha virt. eigenvalues --    2.89035   2.89933   2.90091   2.90358   2.90465
 Alpha virt. eigenvalues --    2.90605   2.90988   2.91171   2.92057   2.92234
 Alpha virt. eigenvalues --    2.92388   2.92888   2.93027   2.93307   2.93812
 Alpha virt. eigenvalues --    2.93901   2.94500   2.94659   2.94977   2.95087
 Alpha virt. eigenvalues --    2.95547   2.95684   2.96227   2.96566   2.96861
 Alpha virt. eigenvalues --    2.97105   2.97172   2.97422   2.97874   2.98107
 Alpha virt. eigenvalues --    2.98333   2.98775   2.99206   2.99687   2.99784
 Alpha virt. eigenvalues --    3.00010   3.00047   3.00363   3.00654   3.01379
 Alpha virt. eigenvalues --    3.01469   3.01888   3.02130   3.02355   3.03073
 Alpha virt. eigenvalues --    3.03949   3.04596   3.04737   3.05035   3.05280
 Alpha virt. eigenvalues --    3.05492   3.06105   3.06744   3.07031   3.07595
 Alpha virt. eigenvalues --    3.07971   3.08367   3.08393   3.08842   3.09800
 Alpha virt. eigenvalues --    3.10369   3.10879   3.11628   3.12165   3.12777
 Alpha virt. eigenvalues --    3.13372   3.13382   3.14211   3.14458   3.14525
 Alpha virt. eigenvalues --    3.14809   3.15137   3.15734   3.15989   3.16419
 Alpha virt. eigenvalues --    3.17013   3.17317   3.17373   3.17756   3.17872
 Alpha virt. eigenvalues --    3.18266   3.18507   3.18544   3.19326   3.19884
 Alpha virt. eigenvalues --    3.20542   3.20660   3.20796   3.20909   3.21004
 Alpha virt. eigenvalues --    3.21191   3.21530   3.21764   3.21945   3.22092
 Alpha virt. eigenvalues --    3.22565   3.23040   3.23250   3.23995   3.24186
 Alpha virt. eigenvalues --    3.24305   3.24719   3.25676   3.25872   3.26462
 Alpha virt. eigenvalues --    3.26746   3.27228   3.28335   3.29037   3.29832
 Alpha virt. eigenvalues --    3.30236   3.30497   3.30940   3.31128   3.31300
 Alpha virt. eigenvalues --    3.33693   3.34470   3.35707   3.36179   3.38065
 Alpha virt. eigenvalues --    3.38132   3.38153   3.45200   3.50544   3.51149
 Alpha virt. eigenvalues --    3.52399   3.54789   3.54946   3.56478   3.57422
 Alpha virt. eigenvalues --    3.57903   3.58247   3.58335   3.59343   3.59406
 Alpha virt. eigenvalues --    3.60778   3.61048   3.61985   3.62486   3.62536
 Alpha virt. eigenvalues --    3.64361   3.65881   3.67581   3.68478   3.68713
 Alpha virt. eigenvalues --    3.69260   3.69626   3.70196   3.70382   3.70727
 Alpha virt. eigenvalues --    3.70781   3.71052   3.71589   3.72236   3.72376
 Alpha virt. eigenvalues --    3.72936   3.75028   3.75329   3.75876   3.76698
 Alpha virt. eigenvalues --    3.77044   3.77541   3.79872   3.79949
          Condensed to atoms (all electrons):
 Mulliken charges:
               1
     1  C    0.051230
     2  C    0.005383
     3  O   -0.326172
     4  H    0.004073
     5  H    0.058206
     6  H    0.015637
     7  N   -0.084972
     8  C    0.144255
     9  C    0.073082
    10  O   -0.269746
    11  C    0.001958
    12  C    0.059406
    13  O   -0.373067
    14  O   -0.394370
    15  H    0.103255
    16  H   -0.042517
    17  H   -0.013550
    18  H   -0.002220
    19  N   -0.117712
    20  C    0.131448
    21  C    0.053198
    22  O   -0.290471
    23  C    0.059366
    24  C   -0.049213
    25  C    0.043149
    26  C    0.012632
    27  N    0.077072
    28  H    0.102934
    29  H    0.009915
    30  H    0.012486
    31  H    0.027695
    32  H    0.020418
    33  H   -0.018171
    34  H    0.057882
    35  H    0.022114
    36  H    0.056226
    37  H    0.057064
    38  H    0.185420
    39  H    0.184389
    40  H    0.165158
    41  N   -0.102206
    42  C    0.080646
    43  C    0.070667
    44  O   -0.253334
    45  C    0.185673
    46  C    0.061543
    47  O   -0.450398
    48  O   -0.405206
    49  H    0.152574
    50  H   -0.020610
    51  H   -0.003041
    52  H    0.005984
    53  N   -0.131631
    54  C    0.202932
    55  C    0.094122
    56  O   -0.346736
    57  H    0.112701
    58  H    0.020497
    59  H    0.041780
    60  N   -0.158031
    61  C    0.137136
    62  C    0.080714
    63  O   -0.293742
    64  C    0.072173
    65  C    0.080008
    66  N   -0.034894
    67  O   -0.316950
    68  H    0.123114
    69  H    0.044257
    70  H    0.068062
    71  H   -0.010045
    72  H    0.126645
    73  H    0.161697
    74  N   -0.107292
    75  C    0.226705
    76  C    0.034972
    77  O   -0.268078
    78  H    0.110234
    79  H    0.000597
    80  H    0.045250
    81  N   -0.121810
    82  C    0.103762
    83  C    0.106583
    84  O   -0.300726
    85  C    0.138540
    86  C   -0.040151
    87  C   -0.007472
    88  C   -0.015438
    89  C   -0.005602
    90  C   -0.020863
    91  C    0.128173
    92  O   -0.209773
    93  H    0.114811
    94  H    0.023997
    95  H    0.009133
    96  H    0.019472
    97  H   -0.018050
    98  H   -0.023239
    99  H   -0.020915
   100  H   -0.036350
   101  H    0.172591
   102  N   -0.105521
   103  C    0.177370
   104  C    0.052171
   105  O   -0.281490
   106  C   -0.114953
   107  C    0.017460
   108  C    0.078332
   109  C    0.021225
   110  H    0.117195
   111  H    0.004935
   112  H   -0.012936
   113  H    0.013382
   114  H   -0.017370
   115  H   -0.043214
   116  H    0.034646
   117  H    0.004889
   118  H    0.003106
   119  H    0.005571
   120  H   -0.000650
   121  N   -0.137209
   122  C    0.096222
   123  C    0.029970
   124  O   -0.269623
   125  C    0.235933
   126  O   -0.299644
   127  H    0.139722
   128  H    0.025097
   129  H   -0.038231
   130  H    0.013152
   131  H    0.178003
   132  N   -0.147409
   133  C    0.074848
   134  C    0.063376
   135  O   -0.281053
   136  C    0.083542
   137  H    0.133056
   138  H    0.020723
   139  H   -0.008644
   140  H    0.028907
   141  H    0.010436
   142  N   -0.127734
   143  C    0.060974
   144  C    0.045507
   145  O   -0.244241
   146  C    0.056014
   147  H    0.154317
   148  H    0.018579
   149  H    0.037359
   150  H    0.032738
   151  H   -0.006841
   152  N   -0.145705
   153  C    0.134675
   154  C    0.043274
   155  O   -0.257030
   156  C    0.061810
   157  C    0.086918
   158  C    0.088103
   159  O   -0.487974
   160  O   -0.377032
   161  H    0.107884
   162  H   -0.004603
   163  H    0.016701
   164  H   -0.004240
   165  H   -0.031904
   166  H    0.016645
   167  N   -0.147509
   168  C    0.137057
   169  H    0.020137
   170  H    0.017799
   171  H    0.042656
   172  H    0.103468
   173  Ca   1.328279
   174  O   -0.306444
   175  H    0.180963
   176  H    0.196045
 Sum of Mulliken charges =  -0.00000
 Mulliken charges with hydrogens summed into heavy atoms:
               1
     1  C    0.129146
     2  C    0.005383
     3  O   -0.326172
     7  N    0.018283
     8  C    0.101739
     9  C    0.073082
    10  O   -0.269746
    11  C   -0.013813
    12  C    0.059406
    13  O   -0.373067
    14  O   -0.394370
    19  N   -0.014778
    20  C    0.141363
    21  C    0.053198
    22  O   -0.290471
    23  C    0.099547
    24  C   -0.046965
    25  C    0.123145
    26  C    0.125922
    27  N    0.612039
    41  N    0.050367
    42  C    0.060036
    43  C    0.070667
    44  O   -0.253334
    45  C    0.188617
    46  C    0.061543
    47  O   -0.450398
    48  O   -0.405206
    53  N   -0.018930
    54  C    0.265209
    55  C    0.094122
    56  O   -0.346736
    60  N   -0.034917
    61  C    0.181393
    62  C    0.080714
    63  O   -0.293742
    64  C    0.130191
    65  C    0.080008
    66  N    0.253448
    67  O   -0.316950
    74  N    0.002942
    75  C    0.272552
    76  C    0.034972
    77  O   -0.268078
    81  N   -0.006999
    82  C    0.127759
    83  C    0.106583
    84  O   -0.300726
    85  C    0.167145
    86  C   -0.040151
    87  C   -0.025522
    88  C   -0.038677
    89  C   -0.026518
    90  C   -0.057213
    91  C    0.128173
    92  O   -0.037183
   102  N    0.011674
   103  C    0.182306
   104  C    0.052171
   105  O   -0.281490
   106  C   -0.127889
   107  C    0.013472
   108  C    0.074653
   109  C    0.029253
   121  N    0.002513
   122  C    0.121319
   123  C    0.029970
   124  O   -0.269623
   125  C    0.210854
   126  O   -0.121641
   132  N   -0.014353
   133  C    0.095571
   134  C    0.063376
   135  O   -0.281053
   136  C    0.114241
   142  N    0.026583
   143  C    0.079554
   144  C    0.045507
   145  O   -0.244241
   146  C    0.119269
   152  N   -0.037822
   153  C    0.130071
   154  C    0.043274
   155  O   -0.257030
   156  C    0.074272
   157  C    0.071659
   158  C    0.088103
   159  O   -0.487974
   160  O   -0.377032
   167  N   -0.044041
   168  C    0.217649
   173  Ca   1.328279
   174  O    0.070565
 DipInt: DoE/N= T F RetVal/Mat= T F Init=T NMatP=  1 IDeriv=0 Min/MaxMlt=  0  4
 Entering OneElI...
 OneElI was handed  1333951383 working-precision words.
 Multipole integrals L=0 to 4 MinM= 0 MaxM= 0.
 Requested accuracy = 0.1000D-12
 PrtBox:  NBox=     1 Levels=  1 BoxLen=   98.75 SMaxX=       50.77
          Shift=           20.656268           16.437167           11.740918
 Box      1 Number                   0 centers from      1 to    809:
 ShPair: Thresh= 1.00D-13 NBox=     1 BxSize= 9.87D+01 RnKept= 3.03D+01
         NSMCal=               327645 NSMKep=              119163
 PrmmSu-InSpLW:  IPartL=    0 NPrtUS=    1 NPrtUL=    1 DoSpLW=F IThBeg=    0 IThEnd=    0 NThAct=    1.
 PrsmSu:  NPrtUS=   1 ThrOK=F IAlg=1 NPAlg=1 LenDen=           0 ISkipM=0 DoSpLW=F IThBeg=    0 IThEnd=    0.
 Prism:   IPart=     0 DynPar=F LinDyn=F Incr=         512.
 PRISM was handed  1325449411 working-precision words and119163 shell-pairs
 IPart=  0 NShTot=      119163 NBatch=         283 AvBLen=       421.1
 PrsmSu-ThDecC:  IPartSL=    0    0 NPrtUSL=    1    1 IThBeg=    0 IThEnd=    0 CPU=   -1 GPU=   -1 NThAct=    1.
 PrSmSu:  NxtVal=            513.
 Electronic moments (au):
       -716.00000000         10.78124198          4.79788780         -1.38880563
    -116432.82646557     -36910.50426188     -12020.31980982        -40.21741805
         53.95261763        -34.36163876    -629909.77805273     -70603.93322439
     -11893.32441035     278816.52357668     -80411.85923456    -180599.38308829
     -58293.85080280      14619.25526499      22895.90364353     -55171.68291120
  -39851232.61624796   -5958388.22962004    -663735.38601954    -321451.45905823
   -1587516.25269081    1654554.37006549     524172.23409423    -285724.52091525
     -58259.78720798   -4140203.43634215   -1931355.89233531    -387084.40997759
     282238.75687233    -178283.20260714     -77528.24504347
 Electronic spatial extent (au):  <R**2>=         165363.6505
 DipInt: DoE/N= F T RetVal/Mat= T F Init=T NMatP=  1 IDeriv=0 Min/MaxMlt=  0  4
 Nuclear    moments (au):
        716.00000000         -0.00000000         -0.00000000          0.00000000
     116467.47692340      36449.07565383      11659.34237534          0.00000000
         -0.00000000          0.00000000     646048.27560938      70563.42958037
      11636.92342565    -279367.12338956      81509.41150221     182129.03584409
      58581.67272438     -14587.01803531     -23237.72802203      55134.00065231
   39939059.56341973    5826792.60909394     630240.45498169     308497.75329577
    1634256.14441413   -1659003.22141368    -526905.48026186     286375.49363308
      57974.21576181    4049920.80288646    1865275.52543599     359458.78628721
    -283526.23566689     182468.53726403      78063.05762111
 Total      moments (au):
         -0.00000000         10.78124198          4.79788780         -1.38880563
         34.65045782       -461.42860805       -360.97743447        -40.21741805
         53.95261763        -34.36163876      16138.49755665        -40.50364402
       -256.40098470       -550.59981287       1097.55226766       1529.65275580
        287.82192159         32.23722968       -341.82437850        -37.68225889
      87826.94717177    -131595.62052610     -33494.93103786     -12953.70576246
      46739.89172331      -4448.85134818      -2733.24616763        650.97271783
       -285.57144617     -90282.63345569     -66080.36689933     -27625.62369037
      -1287.47879456       4185.33465690        534.81257763
 Traceless Quadrup. (au):
        297.23565272       -198.84341315        -98.39223958        -40.21741805
         53.95261763        -34.36163876
 Charge=             -0.0000 electrons
 Dipole moment (field-independent basis, Debye):
    X=             27.4032    Y=             12.1950    Z=             -3.5300  Tot=             30.2012
 Quadrupole moment (field-independent basis, Debye-Ang):
   XX=             46.6061   YY=           -620.6373   ZZ=           -485.5270
   XY=            -54.0938   XZ=             72.5681   YZ=            -46.2176
 Traceless Quadrupole moment (field-independent basis, Debye-Ang):
   XX=            399.7921   YY=           -267.4512   ZZ=           -132.3409
   XY=            -54.0938   XZ=             72.5681   YZ=            -46.2176
 Octapole moment (field-independent basis, Debye-Ang**2):
  XXX=          11486.7608  YYY=            -28.8289  ZZZ=           -182.4963  XYY=           -391.8957
  XXY=            781.1954  XXZ=           1088.7479  XZZ=            204.8606  YZZ=             22.9452
  YYZ=           -243.2974  XYZ=            -26.8208
 Hexadecapole moment (field-independent basis, Debye-Ang**3):
 XXXX=          33079.8397 YYYY=         -49565.2209 ZZZZ=         -12615.7972 XXXY=          -4878.9867
 XXXZ=          17604.4845 YYYX=          -1675.6507 YYYZ=          -1029.4716 ZZZX=            245.1875
 ZZZY=           -107.5599 XXYY=         -34004.7690 XXZZ=         -24889.0348 YYZZ=         -10405.1346
 XXYZ=           -484.9263 YYXZ=           1576.3977 ZZXY=            201.4361
 N-N= 1.872086002387D+04 E-N=-4.992853401503D+04  KE= 5.290412554460D+03
 Leave Link  601 at Tue Sep 17 11:36:24 2019, MaxMem=  1342177280 cpu:              43.1 elap:               1.2
 FitSet:  NAtFit=   176 NAtPot=   176 NAtFrz=     0 MDM=   180 TotChg=   0.00000
 Merz-Kollman atomic radii used.
 Read replacement radii for each type of atom:
 Rad(20) =   1.700000000000D+00
 Atom Element Radius
    1     6    1.50
    2     6    1.50
    3     8    1.40
    4     1    1.20
    5     1    1.20
    6     1    1.20
    7     7    1.50
    8     6    1.50
    9     6    1.50
   10     8    1.40
   11     6    1.50
   12     6    1.50
   13     8    1.40
   14     8    1.40
   15     1    1.20
   16     1    1.20
   17     1    1.20
   18     1    1.20
   19     7    1.50
   20     6    1.50
   21     6    1.50
   22     8    1.40
   23     6    1.50
   24     6    1.50
   25     6    1.50
   26     6    1.50
   27     7    1.50
   28     1    1.20
   29     1    1.20
   30     1    1.20
   31     1    1.20
   32     1    1.20
   33     1    1.20
   34     1    1.20
   35     1    1.20
   36     1    1.20
   37     1    1.20
   38     1    1.20
   39     1    1.20
   40     1    1.20
   41     7    1.50
   42     6    1.50
   43     6    1.50
   44     8    1.40
   45     6    1.50
   46     6    1.50
   47     8    1.40
   48     8    1.40
   49     1    1.20
   50     1    1.20
   51     1    1.20
   52     1    1.20
   53     7    1.50
   54     6    1.50
   55     6    1.50
   56     8    1.40
   57     1    1.20
   58     1    1.20
   59     1    1.20
   60     7    1.50
   61     6    1.50
   62     6    1.50
   63     8    1.40
   64     6    1.50
   65     6    1.50
   66     7    1.50
   67     8    1.40
   68     1    1.20
   69     1    1.20
   70     1    1.20
   71     1    1.20
   72     1    1.20
   73     1    1.20
   74     7    1.50
   75     6    1.50
   76     6    1.50
   77     8    1.40
   78     1    1.20
   79     1    1.20
   80     1    1.20
   81     7    1.50
   82     6    1.50
   83     6    1.50
   84     8    1.40
   85     6    1.50
   86     6    1.50
   87     6    1.50
   88     6    1.50
   89     6    1.50
   90     6    1.50
   91     6    1.50
   92     8    1.40
   93     1    1.20
   94     1    1.20
   95     1    1.20
   96     1    1.20
   97     1    1.20
   98     1    1.20
   99     1    1.20
  100     1    1.20
  101     1    1.20
  102     7    1.50
  103     6    1.50
  104     6    1.50
  105     8    1.40
  106     6    1.50
  107     6    1.50
  108     6    1.50
  109     6    1.50
  110     1    1.20
  111     1    1.20
  112     1    1.20
  113     1    1.20
  114     1    1.20
  115     1    1.20
  116     1    1.20
  117     1    1.20
  118     1    1.20
  119     1    1.20
  120     1    1.20
  121     7    1.50
  122     6    1.50
  123     6    1.50
  124     8    1.40
  125     6    1.50
  126     8    1.40
  127     1    1.20
  128     1    1.20
  129     1    1.20
  130     1    1.20
  131     1    1.20
  132     7    1.50
  133     6    1.50
  134     6    1.50
  135     8    1.40
  136     6    1.50
  137     1    1.20
  138     1    1.20
  139     1    1.20
  140     1    1.20
  141     1    1.20
  142     7    1.50
  143     6    1.50
  144     6    1.50
  145     8    1.40
  146     6    1.50
  147     1    1.20
  148     1    1.20
  149     1    1.20
  150     1    1.20
  151     1    1.20
  152     7    1.50
  153     6    1.50
  154     6    1.50
  155     8    1.40
  156     6    1.50
  157     6    1.50
[...]
 **** Fit      -0.018704
 **** Fit      -0.010318
 **** Fit      -0.010738
 **** Fit      -0.011431
 **** Fit      -0.012358
 **** Fit      -0.010074
 **** Fit      -0.010131
 **** Fit      -0.010365
 **** Fit      -0.010862
 **** Fit      -0.011650
 **** Fit      -0.012700
 **** Fit      -0.013915
 **** Fit      -0.010144
 **** Fit      -0.010029
 **** Fit      -0.010049
 **** Fit      -0.010299
 **** Fit      -0.010833
 **** Fit      -0.011671
 **** Fit      -0.012803
 **** Fit      -0.014183
 **** Fit      -0.015709
 **** Fit      -0.010301
 **** Fit      -0.010060
 **** Fit      -0.009922
 **** Fit      -0.009975
 **** Fit      -0.010274
 **** Fit      -0.010852
 **** Fit      -0.011729
 **** Fit      -0.012907
 **** Fit      -0.014370
 **** Fit      -0.016074
 **** Fit      -0.017932
 **** Fit      -0.010386
 **** Fit      -0.010073
 **** Fit      -0.009867
 **** Fit      -0.009849
 **** Fit      -0.010074
 **** Fit      -0.010578
 **** Fit      -0.011387
 **** Fit      -0.012520
 **** Fit      -0.013984
 **** Fit      -0.015776
 **** Fit      -0.017871
 **** Fit      -0.020205
 **** Fit      -0.010317
 **** Fit      -0.010021
 **** Fit      -0.009814
 **** Fit      -0.009776
 **** Fit      -0.009960
 **** Fit      -0.010405
 **** Fit      -0.011142
 **** Fit      -0.012197
 **** Fit      -0.013592
 **** Fit      -0.015348
 **** Fit      -0.017479
 **** Fit      -0.019989
 **** Fit      -0.022855
 **** Fit      -0.009885
 **** Fit      -0.009739
 **** Fit      -0.009695
 **** Fit      -0.009824
 **** Fit      -0.010178
 **** Fit      -0.010797
 **** Fit      -0.011717
 **** Fit      -0.012971
 **** Fit      -0.014593
 **** Fit      -0.016618
 **** Fit      -0.019089
 **** Fit      -0.022048
 **** Fit      -0.025537
 **** Fit      -0.009319
 **** Fit      -0.009435
 **** Fit      -0.009550
 **** Fit      -0.009780
 **** Fit      -0.010208
 **** Fit      -0.010892
 **** Fit      -0.011886
 **** Fit      -0.013236
 **** Fit      -0.014996
 **** Fit      -0.017224
 **** Fit      -0.019994
 **** Fit      -0.023404
 **** Fit      -0.027585
 **** Fit      -0.008565
 **** Fit      -0.009082
 **** Fit      -0.009519
 **** Fit      -0.010044
 **** Fit      -0.010772
 **** Fit      -0.011788
 **** Fit      -0.013166
 **** Fit      -0.014982
 **** Fit      -0.017320
 **** Fit      -0.020290
 **** Fit      -0.024044
 **** Fit      -0.028814
 **** Fit      -0.007947
 **** Fit      -0.008920
 **** Fit      -0.009729
 **** Fit      -0.010598
 **** Fit      -0.011676
 **** Fit      -0.013079
 **** Fit      -0.014911
 **** Fit      -0.017282
 **** Fit      -0.020328
 **** Fit      -0.024242
 **** Fit      -0.029326
 **** Fit      -0.009453
 **** Fit      -0.010700
 **** Fit      -0.012084
 **** Fit      -0.013802
 **** Fit      -0.016023
 **** Fit      -0.018920
 **** Fit      -0.022714
 **** Fit      -0.027733
 **** Fit      -0.012565
 **** Fit      -0.014619
 **** Fit      -0.017243
 **** Fit      -0.020682
 **** Fit      -0.015914
 **** Fit      -0.015852
 **** Fit      -0.017573
 **** Fit      -0.017885
 **** Fit      -0.017458
 **** Fit      -0.016374
 **** Fit      -0.016592
 **** Fit      -0.019611
 **** Fit      -0.020055
 **** Fit      -0.019977
 **** Fit      -0.019407
 **** Fit      -0.018416
 **** Fit      -0.017413
 **** Fit      -0.018692
 **** Fit      -0.022168
 **** Fit      -0.022723
 **** Fit      -0.022803
 **** Fit      -0.022422
 **** Fit      -0.021654
 **** Fit      -0.020575
 **** Fit      -0.019211
 **** Fit      -0.018328
 **** Fit      -0.019873
 **** Fit      -0.021186
 **** Fit      -0.025405
 **** Fit      -0.026099
 **** Fit      -0.026291
 **** Fit      -0.025988
 **** Fit      -0.025263
 **** Fit      -0.024225
 **** Fit      -0.022964
 **** Fit      -0.021487
 **** Fit      -0.019236
 **** Fit      -0.021094
 **** Fit      -0.022800
 **** Fit      -0.024272
 **** Fit      -0.029518
 **** Fit      -0.030381
 **** Fit      -0.030703
 **** Fit      -0.030472
 **** Fit      -0.029754
 **** Fit      -0.028675
 **** Fit      -0.027376
 **** Fit      -0.025952
 **** Fit      -0.024396
 **** Fit      -0.022499
 **** Fit      -0.024575
 **** Fit      -0.026502
 **** Fit      -0.028187
 **** Fit      -0.034760
 **** Fit      -0.035891
 **** Fit      -0.036344
 **** Fit      -0.036090
 **** Fit      -0.035205
 **** Fit      -0.033856
 **** Fit      -0.032257
 **** Fit      -0.030589
 **** Fit      -0.028923
 **** Fit      -0.026008
 **** Fit      -0.028549
 **** Fit      -0.030939
 **** Fit      -0.033060
 **** Fit      -0.041495
 **** Fit      -0.042986
 **** Fit      -0.043624
 **** Fit      -0.043355
 **** Fit      -0.042254
 **** Fit      -0.040528
 **** Fit      -0.038472
 **** Fit      -0.036381
 **** Fit      -0.034449
 **** Fit      -0.030491
 **** Fit      -0.033627
 **** Fit      -0.036617
 **** Fit      -0.039306
 **** Fit      -0.046023
 **** Fit      -0.043169
 **** Fit      -0.040686
 **** Fit      -0.035812
 **** Fit      -0.039848
 **** Fit      -0.043761
 **** Fit      -0.047330
 **** Fit      -0.041481
 **** Fit      -0.017065
 **** Fit      -0.012207
 **** Fit      -0.013101
 **** Fit      -0.009249
 **** Fit      -0.012262
 **** Fit      -0.008629
 **** Fit      -0.006479
 **** Fit      -0.007550
 **** Fit      -0.005511
 **** Fit      -0.004528
 **** Fit      -0.002734
 **** Fit      -0.002329
 **** Fit      -0.002646
 **** Fit       0.001392
 **** Fit       0.000586
 **** Fit       0.005654
 **** Fit       0.003741
 **** Fit      -0.020347
 **** Fit      -0.067115
 **** Fit      -0.011199
 **** Fit      -0.056226
 **** Fit      -0.058894
 **** Fit       0.006590
 **** Fit      -0.002054
 **** Fit      -0.046193
 **** Fit      -0.046069
 **** Fit      -0.049146
 **** Fit       0.016759
 **** Fit       0.012582
 **** Fit       0.005899
 **** Fit      -0.003160
 **** Fit      -0.037959
 **** Fit      -0.036136
 **** Fit      -0.036292
 **** Fit      -0.039165
 **** Fit       0.019251
 **** Fit       0.015628
 **** Fit       0.009660
 **** Fit       0.001353
 **** Fit      -0.029498
 **** Fit      -0.027339
 **** Fit      -0.026976
 **** Fit      -0.028871
 **** Fit      -0.033603
 **** Fit       0.023472
 **** Fit       0.021943
 **** Fit       0.018579
 **** Fit       0.013227
 **** Fit       0.005784
 **** Fit      -0.003907
 **** Fit      -0.026875
 **** Fit      -0.022447
 **** Fit      -0.019690
 **** Fit      -0.018612
 **** Fit      -0.019410
 **** Fit      -0.022366
 **** Fit      -0.027765
 **** Fit       0.026827
 **** Fit       0.024983
 **** Fit       0.021934
 **** Fit       0.017227
 **** Fit       0.010638
 **** Fit       0.002039
 **** Fit      -0.018528
 **** Fit      -0.014308
 **** Fit      -0.011777
 **** Fit      -0.010914
 **** Fit      -0.011779
 **** Fit      -0.014406
 **** Fit      -0.018631
 **** Fit       0.027525
 **** Fit       0.024664
 **** Fit       0.020583
 **** Fit       0.014903
 **** Fit       0.007494
 **** Fit      -0.001564
 **** Fit      -0.015910
 **** Fit      -0.010589
 **** Fit      -0.006770
 **** Fit      -0.004438
 **** Fit      -0.003536
 **** Fit      -0.003927
 **** Fit      -0.005245
 **** Fit       0.026458
 **** Fit       0.023062
 **** Fit       0.018355
 **** Fit       0.012191
 **** Fit       0.004736
 **** Fit      -0.003477
 **** Fit      -0.012676
 **** Fit      -0.007571
 **** Fit      -0.003140
 **** Fit       0.000242
 **** Fit       0.002514
 **** Fit       0.003842
 **** Fit       0.004696
 **** Fit       0.023078
 **** Fit       0.018774
 **** Fit       0.013191
 **** Fit       0.006783
 **** Fit       0.000438
 **** Fit      -0.004628
 **** Fit      -0.007077
 **** Fit      -0.004570
 **** Fit      -0.000894
 **** Fit       0.002892
 **** Fit       0.006175
 **** Fit       0.008823
 **** Fit       0.011183
 **** Fit       0.018959
 **** Fit       0.014254
 **** Fit       0.009312
 **** Fit       0.005277
 **** Fit       0.003191
 **** Fit       0.003425
 **** Fit       0.005482
 **** Fit       0.008435
 **** Fit       0.011554
 **** Fit       0.014686
 **** Fit       0.017383
 **** Fit       0.013745
 **** Fit       0.011345
 **** Fit       0.011056
 **** Fit       0.012705
 **** Fit       0.015532
 **** Fit       0.017317
 **** Fit       0.016782
 **** Fit       0.006692
 **** Fit       0.016610
 **** Fit       0.027890
 **** Fit       0.021255
 **** Fit       0.027628
 **** Fit       0.027500
 **** Fit       0.027836
 **** Fit       0.025948
 **** Fit       0.024813
 **** Fit       0.024214
 **** Fit       0.011581
 **** Fit       0.026503
 **** Fit       0.024153
 **** Fit       0.022427
 **** Fit       0.021179
 **** Fit       0.020257
 **** Fit       0.019560
 **** Fit       0.017996
 **** Fit       0.017084
 **** Fit       0.026888
 **** Fit       0.024000
 **** Fit       0.021727
 **** Fit       0.020022
 **** Fit       0.018802
 **** Fit       0.018010
 **** Fit       0.017617
 **** Fit       0.017575
 **** Fit       0.017765
 **** Fit       0.018023
 **** Fit       0.027727
 **** Fit       0.024616
 **** Fit       0.022083
 **** Fit       0.020184
 **** Fit       0.018909
 **** Fit       0.018233
 **** Fit       0.018118
 **** Fit       0.018490
 **** Fit       0.019239
 **** Fit       0.030979
 **** Fit       0.027603
 **** Fit       0.024607
 **** Fit       0.022263
 **** Fit       0.020700
 **** Fit       0.019955
 **** Fit       0.020014
 **** Fit       0.020812
 **** Fit       0.036052
 **** Fit       0.033243
 **** Fit       0.029919
 **** Fit       0.026734
 **** Fit       0.024263
 **** Fit       0.022858
 **** Fit       0.022663
 **** Fit       0.029484
 **** Fit       0.026896
 **** Fit       0.038986
 **** Fit       0.039194
 **** Fit       0.038532
 **** Fit       0.036937
 **** Fit       0.034564
 **** Fit       0.031723
 **** Fit       0.029044
 **** Fit       0.032416
 **** Fit       0.034880
 **** Fit       0.036562
 **** Fit       0.037571
 **** Fit       0.037908
 **** Fit       0.037527
 **** Fit       0.036443
 **** Fit       0.034787
 **** Fit       0.032788
 **** Fit       0.030735
 **** Fit       0.028958
 **** Fit       0.027788
 **** Fit       0.027514
 **** Fit       0.031072
 **** Fit       0.033271
 **** Fit       0.035046
 **** Fit       0.036316
 **** Fit       0.037044
 **** Fit       0.037189
 **** Fit       0.036736
 **** Fit       0.035735
 **** Fit       0.034316
 **** Fit       0.032669
 **** Fit       0.031019
 **** Fit       0.029593
 **** Fit       0.028579
 **** Fit       0.033506
 **** Fit       0.034640
 **** Fit       0.035691
 **** Fit       0.036452
 **** Fit       0.036805
 **** Fit       0.036687
 **** Fit       0.036090
 **** Fit       0.035066
 **** Fit       0.033727
 **** Fit       0.032218
 **** Fit       0.030692
 **** Fit       0.029275
 **** Fit       0.035805
 **** Fit       0.036127
 **** Fit       0.036508
 **** Fit       0.036664
 **** Fit       0.036443
 **** Fit       0.035791
 **** Fit       0.034732
 **** Fit       0.033355
 **** Fit       0.031782
 **** Fit       0.030130
 **** Fit       0.037320
 **** Fit       0.037002
 **** Fit       0.036770
 **** Fit       0.036319
 **** Fit       0.035514
 **** Fit       0.034340
 **** Fit       0.032867
 **** Fit       0.031209
 **** Fit       0.037833
 **** Fit       0.036999
 **** Fit       0.036117
 **** Fit       0.034955
 **** Fit       0.033501
 **** Fit       0.031895
 **** Fit       0.038595
 **** Fit       0.037001
 **** Fit       0.035527
 **** Fit       0.033996
 **** Fit      -0.017924
 **** Fit      -0.007783
 **** Fit       0.002879
 **** Fit      -0.013709
 **** Fit      -0.007367
 **** Fit      -0.000054
 **** Fit       0.007862
 **** Fit       0.016106
 **** Fit       0.000092
 **** Fit      -0.007329
 **** Fit      -0.013701
 **** Fit      -0.018651
 **** Fit      -0.021815
 **** Fit      -0.022912
 **** Fit      -0.021828
 **** Fit      -0.018663
 **** Fit      -0.003314
 **** Fit       0.001510
 **** Fit       0.007188
 **** Fit       0.013447
 **** Fit       0.020068
 **** Fit       0.026917
 **** Fit       0.010841
 **** Fit       0.005592
 **** Fit       0.000611
 **** Fit      -0.003752
 **** Fit      -0.007174
 **** Fit      -0.009370
 **** Fit      -0.010122
 **** Fit      -0.009325
 **** Fit      -0.007005
 **** Fit       0.004855
 **** Fit       0.008719
 **** Fit       0.013324
 **** Fit       0.018453
 **** Fit       0.023914
 **** Fit       0.029568
 **** Fit       0.035309
 **** Fit       0.017138
 **** Fit       0.014103
 **** Fit       0.010722
 **** Fit       0.007321
 **** Fit       0.004224
 **** Fit       0.001730
 **** Fit       0.000097
 **** Fit      -0.000472
 **** Fit       0.000137
 **** Fit       0.001940
 **** Fit       0.011261
 **** Fit       0.014398
 **** Fit       0.018150
 **** Fit       0.022337
 **** Fit       0.026781
 **** Fit       0.031317
 **** Fit       0.035763
 **** Fit       0.018299
 **** Fit       0.016586
 **** Fit       0.014514
 **** Fit       0.012294
 **** Fit       0.010181
 **** Fit       0.008432
 **** Fit       0.007280
 **** Fit       0.006910
 **** Fit       0.007438
 **** Fit       0.008903
 **** Fit       0.016247
 **** Fit       0.019008
 **** Fit       0.022318
 **** Fit       0.025975
 **** Fit       0.029760
 **** Fit       0.033423
 **** Fit       0.036643
 **** Fit       0.038986
 **** Fit       0.020333
 **** Fit       0.019414
 **** Fit       0.018227
 **** Fit       0.016800
 **** Fit       0.015291
 **** Fit       0.013926
 **** Fit       0.012950
 **** Fit       0.012581
 **** Fit       0.012974
 **** Fit       0.014202
 **** Fit       0.020071
 **** Fit       0.022511
 **** Fit       0.025413
 **** Fit       0.028524
 **** Fit       0.031540
 **** Fit       0.034096
 **** Fit       0.035759
 **** Fit       0.036112
 **** Fit       0.034971
 **** Fit       0.023053
 **** Fit       0.021967
 **** Fit       0.021053
 **** Fit       0.020108
 **** Fit       0.019082
 **** Fit       0.018076
 **** Fit       0.017288
 **** Fit       0.016946
 **** Fit       0.017240
 **** Fit       0.018280
 **** Fit       0.022930
 **** Fit       0.025184
 **** Fit       0.027790
 **** Fit       0.030341
 **** Fit       0.032344
 **** Fit       0.033294
 **** Fit       0.032864
 **** Fit       0.031172
 **** Fit       0.028813
 **** Fit       0.026510
 **** Fit       0.024693
 **** Fit       0.023378
 **** Fit       0.022363
 **** Fit       0.021485
 **** Fit       0.020751
 **** Fit       0.020332
 **** Fit       0.020459
 **** Fit       0.021312
 **** Fit       0.024977
 **** Fit       0.027187
 **** Fit       0.029447
 **** Fit       0.030866
 **** Fit       0.030757
 **** Fit       0.029207
 **** Fit       0.027107
 **** Fit       0.025307
 **** Fit       0.024034
 **** Fit       0.023213
 **** Fit       0.022938
 **** Fit       0.023478
 **** Fit       0.026331
 **** Fit       0.028363
 **** Fit       0.028902
 **** Fit       0.027322
 **** Fit       0.025632
 **** Fit       0.025146
 **** Fit       0.027086
 -----------------------------------------------------------------
 Leave Link  602 at Tue Sep 17 11:36:27 2019, MaxMem=  1342177280 cpu:             147.9 elap:               3.2

 Test job not archived.
 1\1\GINC-C506-112\SP\RB3LYP\SVP\C54H83Ca1N15O23\PENGZHI\17-Sep-2019\0\
 \#b3lyp/svp scf=(tight,noincore) Test #IOP(5/87=12) Density=Current Po
 p=(MK,readradii) iop(6/33=2) iop(6/42=6)\\Ng-293_loop3_54.0\\0,1\C,0,2
 4.31,75.51,76.21\C,0,23.21,75.73,75.18\O,0,22.3,74.93,74.99\H,0,25.151
 ,76.167,75.989\H,0,23.927,75.734,77.205\H,0,24.641,74.472,76.173\N,0,2
 3.09,76.95,74.64\C,0,22.22,77.46,73.6\C,0,20.74,77.43,73.97\O,0,20.41,
 77.69,75.12\C,0,22.71,78.86,73.24\C,0,21.96,79.61,72.15\O,0,22.33,80.7
 7,71.88\O,0,21.02,79.15,71.47\H,0,23.91,77.5,74.86\H,0,22.33,76.82,72.
 73\H,0,23.75,78.76,72.91\H,0,22.92,79.43,74.15\N,0,19.91,77.03,73.\C,0
 ,18.48,76.84,72.96\C,0,17.62,78.,73.43\O,0,16.42,77.88,73.67\C,0,18.05
 ,75.57,73.7\C,0,18.52,74.19,73.27\C,0,17.83,72.9,73.72\C,0,18.13,71.73
 ,72.79\N,0,19.57,71.44,72.74\H,0,20.32,76.96,72.08\H,0,18.26,76.8,71.8
 9\H,0,16.98,75.54,73.85\H,0,18.46,75.68,74.71\H,0,19.58,74.11,73.51\H,
 0,18.44,74.22,72.18\H,0,16.76,72.94,73.94\H,0,18.29,72.61,74.66\H,0,17
 .89,71.84,71.74\H,0,17.63,70.81,73.11\H,0,19.96,72.26,72.31\H,0,19.97,
 71.2,73.64\H,0,19.79,70.64,72.16\N,0,18.25,79.17,73.6\C,0,17.65,80.42,
 74.\C,0,18.43,81.66,73.58\O,0,19.65,81.69,73.67\C,0,17.48,80.47,75.52\
 C,0,16.62,81.61,76.04\O,0,17.16,82.64,76.5\O,0,15.37,81.47,76.02\H,0,1
 9.24,79.24,73.41\H,0,16.69,80.54,73.48\H,0,18.43,80.53,76.04\H,0,17.03
 ,79.51,75.74\N,0,17.75,82.75,73.21\C,0,18.32,84.01,72.76\C,0,18.2,85.0
 6,73.86\O,0,17.16,85.21,74.5\H,0,16.74,82.7,73.15\H,0,17.74,84.39,71.9
 2\H,0,19.35,83.86,72.45\N,0,19.21,85.91,74.\C,0,19.34,86.98,74.98\C,0,
 20.05,88.17,74.35\O,0,20.11,89.15,75.09\C,0,20.08,86.4,76.18\C,0,19.41
 ,85.2,76.83\N,0,20.09,84.06,76.74\O,0,18.23,85.15,77.19\H,0,19.99,85.7
 6,73.37\H,0,18.36,87.33,75.29\H,0,20.19,87.1,77.01\H,0,21.11,86.21,75.
 88\H,0,20.98,83.97,76.28\H,0,19.55,83.3,77.12\N,0,20.5,88.21,73.09\C,0
 ,20.98,89.37,72.37\C,0,21.95,90.27,73.12\O,0,23.04,89.88,73.53\H,0,20.
 54,87.34,72.59\H,0,20.1,89.95,72.09\H,0,21.42,89.08,71.42\N,0,21.66,91
 .56,73.3\C,0,22.35,92.59,74.05\C,0,22.54,92.18,75.51\O,0,23.38,92.71,7
 6.22\C,0,23.65,92.96,73.34\C,0,23.46,93.53,71.96\C,0,23.49,92.71,70.82
 \C,0,23.17,94.9,71.83\C,0,23.38,93.32,69.57\C,0,22.98,95.54,70.6\C,0,2
 3.03,94.68,69.49\O,0,22.93,95.23,68.24\H,0,20.72,91.82,73.04\H,0,21.79
 ,93.52,74.08\H,0,24.2,92.03,73.2\H,0,24.26,93.61,73.98\H,0,23.76,91.67
 ,70.83\H,0,22.99,95.46,72.74\H,0,23.43,92.79,68.63\H,0,22.75,96.59,70.
 49\H,0,22.71,96.17,68.3\N,0,21.67,91.33,76.05\C,0,21.54,91.,77.46\C,0,
 21.06,92.16,78.31\O,0,20.12,92.,79.08\C,0,22.77,90.26,77.99\C,0,23.11,
 89.,77.2\C,0,22.64,89.93,79.47\C,0,24.55,88.51,77.35\H,0,20.92,90.99,7
 5.47\H,0,20.74,90.28,77.56\H,0,23.63,90.92,77.97\H,0,22.9,89.24,76.16\
 H,0,22.54,88.12,77.49\H,0,22.82,90.83,80.06\H,0,21.6,89.62,79.62\H,0,2
 3.26,89.09,79.78\H,0,25.24,89.27,76.98\H,0,24.85,88.25,78.37\H,0,24.74
 ,87.66,76.7\N,0,21.78,93.29,78.4\C,0,21.58,94.52,79.13\C,0,21.71,94.27
 ,80.63\O,0,21.05,95.03,81.34\C,0,22.68,95.5,78.74\O,0,22.99,95.73,77.3
 9\H,0,22.56,93.35,77.76\H,0,20.55,94.87,79.\H,0,23.59,95.03,79.12\H,0,
 22.56,96.4,79.34\H,0,23.83,96.21,77.36\N,0,22.43,93.24,81.08\C,0,22.37
 ,92.67,82.41\C,0,21.01,92.25,82.93\O,0,20.78,92.45,84.12\C,0,23.25,93.
 57,83.27\H,0,23.12,92.88,80.43\H,0,22.91,91.73,82.28\H,0,24.18,93.82,8
 2.75\H,0,22.68,94.48,83.48\H,0,23.41,93.19,84.28\N,0,20.11,91.73,82.09
 \C,0,18.81,91.28,82.52\C,0,18.66,89.84,82.05\O,0,19.43,89.24,81.31\C,0
 ,17.75,92.14,81.81\H,0,20.36,91.68,81.11\H,0,18.67,91.39,83.59\H,0,17.
 99,93.18,82.02\H,0,17.79,91.93,80.74\H,0,16.74,91.95,82.17\N,0,17.6,89
 .21,82.57\C,0,17.34,87.78,82.55\C,0,18.29,86.91,83.35\O,0,18.4,85.7,83
 .16\C,0,17.06,87.24,81.15\C,0,16.05,86.1,81.19\C,0,15.79,85.47,79.83\O
 ,0,15.17,86.12,78.96\O,0,16.22,84.32,79.59\H,0,16.99,89.85,83.05\H,0,1
 6.38,87.73,83.06\H,0,17.96,86.84,80.7\H,0,16.73,88.03,80.46\H,0,15.13,
 86.37,81.71\H,0,16.47,85.29,81.79\N,0,19.12,87.53,84.2\C,0,20.19,86.97
 ,85.\H,0,21.029,87.665,85.021\H,0,19.834,86.8,86.016\H,0,20.513,86.024
 ,84.565\H,0,18.97,88.53,84.21\Ca,0,15.62,84.65,76.91\O,0,14.22,84.23,7
 4.84\H,0,14.54,84.54,73.99\H,0,13.39,83.79,74.63\\Version=ES64L-G16Rev
 A.03\State=1-A\HF=-5333.4316936\RMSD=1.220e-09\Dipole=-1.0199137,-9.09
 14223,-7.5821833\Quadrupole=-137.0852078,300.276267,-163.1910592,11.69
 25236,55.8569218,58.6682647\PG=C01 [X(C54H83Ca1N15O23)]\\@


 When I told the people of Northern Ireland that I was
 an atheist, a woman in the audience stood up and said,
 "Yes, but is it the God of the Catholics or the God
 of the Protestants in whom you don't believe?"
                               -- Quentin Crisp
 Job cpu time:       0 days  6 hours 57 minutes 54.2 seconds.
 Elapsed time:       0 days  0 hours  8 minutes 49.9 seconds.
 File lengths (MBytes):  RWF=   1517 Int=      0 D2E=      0 Chk=    171 Scr=      1
 Normal termination of Gaussian 16 at Tue Sep 17 11:36:29 2019.
