 Entering Gaussian System, Link 0=g16
 Initial command:
 /home1/apps/gaussian/16rA.03/g16/l1.exe "/scratch/01990/pengzhi/4353698/Gau-201773.inp" -scrdir="/scratch/01990/pengzhi/4353698/"
 Entering Link 1 = /home1/apps/gaussian/16rA.03/g16/l1.exe PID=    201774.
  
 Copyright (c) 1988,1990,1992,1993,1995,1998,2003,2009,2016,
            Gaussian, Inc.  All Rights Reserved.
  
 This is part of the Gaussian(R) 16 program.  It is based on
 the Gaussian(R) 09 system (copyright 2009, Gaussian, Inc.),
 the Gaussian(R) 03 system (copyright 2003, Gaussian, Inc.),
 the Gaussian(R) 98 system (copyright 1998, Gaussian, Inc.),
 the Gaussian(R) 94 system (copyright 1995, Gaussian, Inc.),
 the Gaussian 92(TM) system (copyright 1992, Gaussian, Inc.),
 the Gaussian 90(TM) system (copyright 1990, Gaussian, Inc.),
 the Gaussian 88(TM) system (copyright 1988, Gaussian, Inc.),
 the Gaussian 86(TM) system (copyright 1986, Carnegie Mellon
 University), and the Gaussian 82(TM) system (copyright 1983,
 Carnegie Mellon University). Gaussian is a federally registered
 trademark of Gaussian, Inc.
  
 This software contains proprietary and confidential information,
 including trade secrets, belonging to Gaussian, Inc.
  
 This software is provided under written license and may be
 used, copied, transmitted, or stored only in accord with that
 written license.
  
 The following legend is applicable only to US Government
 contracts under FAR:
  
                    RESTRICTED RIGHTS LEGEND
  
 Use, reproduction and disclosure by the US Government is
 subject to restrictions as set forth in subparagraphs (a)
 and (c) of the Commercial Computer Software - Restricted
 Rights clause in FAR 52.227-19.
  
 Gaussian, Inc.
 340 Quinnipiac St., Bldg. 40, Wallingford CT 06492
  
  
 ---------------------------------------------------------------
 Warning -- This program may not be used in any manner that
 competes with the business of Gaussian, Inc. or will provide
 assistance to any competitor of Gaussian, Inc.  The licensee
 of this program is prohibited from giving any competitor of
 Gaussian, Inc. access to this program.  By using this program,
 the user acknowledges that Gaussian, Inc. is engaged in the
 business of creating and licensing software in the field of
 computational chemistry and represents and warrants to the
 licensee that it is not a competitor of Gaussian, Inc. and that
 it will not use this program in any manner prohibited above.
 ---------------------------------------------------------------
  

 Cite this work as:
 Gaussian 16, Revision A.03,
 M. J. Frisch, G. W. Trucks, H. B. Schlegel, G. E. Scuseria, 
 M. A. Robb, J. R. Cheeseman, G. Scalmani, V. Barone, 
 G. A. Petersson, H. Nakatsuji, X. Li, M. Caricato, A. V. Marenich, 
 J. Bloino, B. G. Janesko, R. Gomperts, B. Mennucci, H. P. Hratchian, 
 J. V. Ortiz, A. F. Izmaylov, J. L. Sonnenberg, D. Williams-Young, 
 F. Ding, F. Lipparini, F. Egidi, J. Goings, B. Peng, A. Petrone, 
 T. Henderson, D. Ranasinghe, V. G. Zakrzewski, J. Gao, N. Rega, 
 G. Zheng, W. Liang, M. Hada, M. Ehara, K. Toyota, R. Fukuda, 
 J. Hasegawa, M. Ishida, T. Nakajima, Y. Honda, O. Kitao, H. Nakai, 
 T. Vreven, K. Throssell, J. A. Montgomery, Jr., J. E. Peralta, 
 F. Ogliaro, M. J. Bearpark, J. J. Heyd, E. N. Brothers, K. N. Kudin, 
 V. N. Staroverov, T. A. Keith, R. Kobayashi, J. Normand, 
 K. Raghavachari, A. P. Rendell, J. C. Burant, S. S. Iyengar, 
 J. Tomasi, M. Cossi, J. M. Millam, M. Klene, C. Adamo, R. Cammi, 
 J. W. Ochterski, R. L. Martin, K. Morokuma, O. Farkas, 
 J. B. Foresman, and D. J. Fox, Gaussian, Inc., Wallingford CT, 2016.
 
 ******************************************
 Gaussian 16:  ES64L-G16RevA.03 25-Dec-2016
                18-Sep-2019 
 ******************************************
 %chk=Ng-295_loop3_39.0.chk
 %nprocshared=48
 Will use up to   48 processors via shared memory.
 %mem=10GB
 %nosave
 ----------------------------------------------------------------------
 #b3lyp/svp scf=(tight,noincore) Test #IOP(5/87=12) Density=Current Pop
 =(MK,readradii) iop(6/33=2) iop(6/42=6)
 ----------------------------------------------------------------------
 1/30=1,38=1,172=1/1;
 2/12=2,17=6,18=5,40=1/2;
 3/5=18,7=101,11=2,25=1,30=1,74=-5/1,2,3;
 4//1;
 5/5=4,32=2,38=5,87=12/2;
 6/7=2,8=2,9=2,10=2,15=8,20=101,22=-1,28=1,33=2,42=6/1,2;
 99/5=1,9=1/99;
 -----------------
 Ng-295_loop3_39.0
 -----------------
 Symbolic Z-matrix:
 Charge =  0 Multiplicity = 1
 C                     9.352     75.618    67.44 
 C                     8.462     75.048    66.34 
 O                     7.702     75.818    65.77 
 H                     10.244    76.058    66.994 
 H                     8.805     76.384    67.99 
 H                     9.644     74.819    68.122 
 N                     8.562     73.808    65.84 
 C                     7.832     73.258    64.72 
 C                     6.862     72.208    65.23 
 O                     7.212     71.248    65.9 
 C                     8.902     72.688    63.79 
 C                     8.322     72.218    62.46 
 O                     8.982     72.458    61.43 
 O                     7.162     71.768    62.47 
 H                     9.172     73.158    66.31 
 H                     7.242     74.048    64.25 
 H                     9.452     71.818    64.17 
 H                     9.682     73.448    63.73 
 N                     5.592     72.338    64.83 
 C                     4.492     71.538    65.32 
 C                     4.432     70.128    64.76 
 O                     3.682     69.288    65.27 
 C                     3.172     72.298    65.21 
 C                     3.072     73.688    65.82 
 C                     3.422     73.668    67.3 
 C                     3.552     74.988    68.04 
 N                     3.842     74.758    69.47 
 H                     5.382     73.128    64.23 
 H                     4.692     71.328    66.37 
 H                     2.412     71.648    65.66 
 H                     2.882     72.258    64.16 
 H                     2.062     74.078    65.85 
 H                     3.612     74.458    65.26 
 H                     4.372     73.158    67.49 
 H                     2.662     73.068    67.8 
 H                     2.522     75.328    68.12 
 H                     4.152     75.768    67.57 
 H                     4.012     75.598    70. 
 H                     3.082     74.278    69.93 
 H                     4.662     74.168    69.55 
 N                     5.182     69.828    63.7 
 C                     5.262     68.508    63.11 
 C                     6.612     68.018    62.6 
 O                     6.732     66.828    62.3 
 C                     4.312     68.338    61.93 
 C                     4.512     69.288    60.76 
 O                     3.802     69.008    59.78 
 O                     5.432     70.138    60.73 
 H                     5.792     70.528    63.32 
 H                     5.032     67.778    63.89 
 H                     3.282     68.338    62.3 
 H                     4.372     67.328    61.52 
 N                     7.572     68.928    62.44 
 C                     8.872     68.608    61.88 
 C                     9.052     68.478    60.37 
 O                     10.162    68.318    59.87 
 H                     7.302     69.898    62.43 
 H                     9.422     67.828    62.4 
 H                     9.392     69.538    62.11 
 N                     7.922     68.518    59.66 
 C                     7.872     68.728    58.22 
 C                     8.302     70.088    57.69 
 O                     7.992     71.028    58.41 
 C                     6.432     68.458    57.78 
 C                     6.162     68.748    56.31 
 N                     5.642     69.948    56.04 
 O                     6.442     67.878    55.49 
 H                     7.112     68.758    60.2 
 H                     8.472     67.998    57.69 
 H                     5.872     69.228    58.31 
 H                     6.192     67.428    58.01 
 H                     5.522     70.668    56.75 
 H                     5.842     70.218    55.09 
 N                     8.862     70.288    56.49 
 C                     9.242     71.578    55.95 
 C                     10.252    71.448    54.82 
 O                     11.232    72.188    54.8 
 H                     9.112     69.488    55.93 
 H                     9.632     72.258    56.71 
 H                     8.342     72.108    55.64 
 N                     10.002    70.568    53.84 
 C                     10.612    70.578    52.53 
 C                     9.882     71.508    51.56 
 O                     8.672     71.658    51.7 
 C                     10.692    69.148    52. 
 C                     11.622    68.828    50.86 
 C                     11.182    68.838    49.52 
 C                     12.962    68.558    51.17 
 C                     12.032    68.378    48.51 
 C                     13.842    68.158    50.16 
 C                     13.342    67.978    48.85 
 O                     14.212    67.628    47.86 
 H                     9.092     70.138    53.81 
 H                     11.632    70.938    52.71 
 H                     9.712     68.918    51.58 
 H                     10.922    68.498    52.84 
 H                     10.152    69.088    49.36 
 H                     13.272    68.428    52.2 
 H                     11.732    68.368    47.48 
 H                     14.882    68.018    50.42 
 H                     15.132    67.688    48.1 
 N                     10.702    72.198    50.76 
 C                     10.332    73.328    49.94 
 C                     9.252     73.148    48.89 
 O                     8.372     72.298    49.04 
 C                     10.002    74.598    50.74 
 C                     11.082    74.888    51.77 
 C                     8.602     74.748    51.32 
 C                     12.532    74.858    51.28 
 H                     11.672    71.898    50.71 
 H                     11.152    73.598    49.28 
 H                     10.222    75.438    50.07 
 H                     10.982    74.298    52.69 
 H                     10.882    75.878    52.17 
 H                     7.932     74.588    50.48 
 H                     8.422     73.968    52.06 
 H                     8.562     75.748    51.75 
 H                     12.912    73.908    50.9 
 H                     12.702    75.518    50.43 
 H                     13.202    75.188    52.07 
 N                     9.312     73.888    47.78 
 C                     8.282     74.048    46.78 
 C                     8.912     74.348    45.42 
 O                     8.372     73.948    44.39 
 C                     7.282     75.118    47.21 
 O                     7.912     76.368    47.37 
 H                     10.112    74.498    47.7 
 H                     7.752     73.098    46.69 
 H                     6.772     74.838    48.14 
 H                     6.562     75.298    46.41 
 H                     7.412     76.938    47.96 
 N                     9.882     75.248    45.23 
 C                     10.602    75.588    44.01 
 C                     9.682     75.958    42.86 
 O                     9.772     75.448    41.75 
 C                     11.522    74.458    43.56 
 H                     10.282    75.588    46.09 
 H                     11.232    76.448    44.23 
 H                     10.982    73.568    43.23 
 H                     12.122    74.798    42.71 
 H                     12.162    74.218    44.41 
 N                     8.832     76.988    42.92 
 C                     8.732     78.048    43.9 
 C                     9.642     79.258    43.69 
 O                     9.612     79.968    42.69 
 C                     7.272     78.478    44.03 
 H                     8.302     77.158    42.08 
 H                     9.042     77.708    44.89 
 H                     7.262     79.468    44.49 
 H                     6.952     78.658    43.01 
 H                     6.622     77.768    44.53 
 N                     10.512    79.618    44.63 
 C                     10.762    79.108    45.96 
 C                     12.262    79.008    46.19 
 O                     12.672    78.048    46.84 
 C                     10.182    80.058    47.01 
 C                     10.482    79.668    48.45 
 C                     9.802     80.618    49.43 
 O                     8.552     80.738    49.47 
 O                     10.482    81.378    50.15 
 H                     11.062    80.388    44.29 
 H                     10.392    78.088    46.11 
 H                     9.122     80.068    46.73 
 H                     10.562    81.048    46.74 
 H                     11.552    79.668    48.66 
 H                     10.022    78.688    48.57 
 N                     13.132    79.958    45.82 
 C                     14.532    80.048    46.16 
 H                     15.07     80.548    45.354 
 H                     14.647    80.619    47.082 
 H                     14.938    79.046    46.299 
 H                     12.742    80.658    45.2 
 Ca                    6.17      72.57     60.14 
 O                     7.93      73.84     58.85 
 H                     8.66      74.23     59.33 
 H                     7.84      74.38     58.07 
 
 Stoichiometry    C54H83CaN15O23
 Framework group  C1[X(C54H83CaN15O23)]
 Deg. of freedom   522
 Full point group                 C1      NOp   1
 Largest Abelian subgroup         C1      NOp   1
 Largest concise Abelian subgroup C1      NOp   1
                         Standard orientation:                         
 ---------------------------------------------------------------------
 Center     Atomic      Atomic             Coordinates (Angstroms)
 Number     Number       Type             X           Y           Z
 ---------------------------------------------------------------------
      1          6           0       10.967705   -5.045104    4.274741
      2          6           0       10.275085   -4.404746    3.075900
      3          8           0        9.718838   -5.147464    2.279433
      4          1           0       10.236285   -5.227379    5.062130
      5          1           0       11.418970   -5.990178    3.971989
      6          1           0       11.742601   -4.374866    4.647712
      7          7           0       10.090016   -3.086909    2.912633
      8          6           0        9.337361   -2.435418    1.864363
      9          6           0       10.298444   -1.692274    0.954663
     10          8           0       11.088955   -0.854974    1.363347
     11          6           0        8.361069   -1.512042    2.591640
     12          6           0        7.356789   -0.867947    1.641503
     13          8           0        6.177672   -0.769842    2.034133
     14          8           0        7.740778   -0.625947    0.482974
     15          1           0       10.556203   -2.462683    3.551782
     16          1           0        8.831823   -3.191186    1.259099
     17          1           0        8.810808   -0.666405    3.126834
     18          1           0        7.938921   -2.103739    3.404835
     19          7           0       10.176957   -1.938479   -0.354697
     20          6           0       11.086453   -1.452949   -1.368195
     21          6           0       10.923392    0.015396   -1.718445
     22          8           0       11.782429    0.592208   -2.394865
     23          6           0       11.092682   -2.376306   -2.584530
     24          6           0       11.344031   -3.862238   -2.377094
     25          6           0       12.663530   -4.104295   -1.660413
     26          6           0       13.002642   -5.513289   -1.205837
     27          7           0       14.340874   -5.552168   -0.581720
     28          1           0        9.462956   -2.604320   -0.628667
     29          1           0       12.082229   -1.444014   -0.926662
     30          1           0       11.850218   -1.971164   -3.266145
     31          1           0       10.179469   -2.159197   -3.138701
     32          1           0       11.503950   -4.408901   -3.298335
     33          1           0       10.502866   -4.395135   -1.922602
     34          1           0       12.754227   -3.499198   -0.752486
     35          1           0       13.455716   -3.758053   -2.323858
     36          1           0       13.226612   -6.025825   -2.138598
     37          1           0       12.230160   -6.065392   -0.669409
     38          1           0       14.592561   -6.447282   -0.193359
     39          1           0       15.065541   -5.312867   -1.242925
     40          1           0       14.377313   -4.867574    0.164539
     41          7           0        9.829966    0.654583   -1.303765
     42          6           0        9.584568    2.065550   -1.517896
     43          6           0        8.920511    2.867199   -0.404753
     44          8           0        8.906823    4.097128   -0.491859
     45          6           0        8.730698    2.328183   -2.753100
     46          6           0        7.347281    1.697755   -2.763958
     47          8           0        6.654780    2.062413   -3.728514
     48          8           0        6.899300    1.035774   -1.799130
     49          1           0        9.159876    0.161779   -0.742851
     50          1           0       10.552778    2.563151   -1.613620
     51          1           0        9.312344    2.080639   -3.646526
     52          1           0        8.582231    3.398674   -2.907392
     53          7           0        8.326123    2.181933    0.571164
     54          6           0        7.584013    2.822496    1.641188
     55          6           0        6.153575    3.301858    1.409975
     56          8           0        5.471189    3.744473    2.329835
     57          1           0        8.136557    1.206068    0.411004
     58          1           0        8.143208    3.551357    2.222018
     59          1           0        7.451549    1.962330    2.297517
     60          7           0        5.730839    3.231828    0.145463
     61          6           0        4.333825    3.331250   -0.252867
     62          6           0        3.399060    2.205866    0.165610
     63          8           0        3.913480    1.095323    0.152647
     64          6           0        4.312655    3.451081   -1.777758
     65          6           0        2.917300    3.444054   -2.386721
     66          7           0        2.482276    2.261895   -2.830064
     67          8           0        2.298087    4.503816   -2.421083
     68          1           0        6.363072    2.752495   -0.467580
     69          1           0        3.880440    4.246000    0.109725
     70          1           0        4.747034    2.504338   -2.097745
     71          1           0        4.839796    4.354234   -2.056751
     72          1           0        2.998983    1.396318   -2.686226
     73          1           0        1.475184    2.238897   -2.855335
     74          7           0        2.092438    2.362750    0.414062
     75          6           0        1.176988    1.298766    0.774600
     76          6           0       -0.083512    1.831717    1.438680
     77          8           0       -0.508299    1.283284    2.452178
     78          1           0        1.707457    3.294286    0.425458
     79          1           0        1.635262    0.544106    1.416919
     80          1           0        0.956988    0.708379   -0.114243
     81          7           0       -0.730917    2.849107    0.852947
     82          6           0       -2.105189    3.220756    1.101049
     83          6           0       -3.084721    2.414919    0.246741
     84          8           0       -2.716231    2.043072   -0.863280
     85          6           0       -2.266721    4.724732    0.890899
     86          6           0       -3.471265    5.429736    1.455649
     87          6           0       -4.636056    5.636629    0.687693
     88          6           0       -3.415558    5.841520    2.794279
     89          6           0       -5.665238    6.435426    1.194555
     90          6           0       -4.466457    6.587436    3.336241
     91          6           0       -5.542151    6.961039    2.498503
     92          8           0       -6.584387    7.652878    3.041276
     93          1           0       -0.446176    3.121218   -0.073756
     94          1           0       -2.256164    3.001714    2.164829
     95          1           0       -2.383156    4.876751   -0.182895
     96          1           0       -1.366056    5.207401    1.260808
     97          1           0       -4.615715    5.262382   -0.316560
     98          1           0       -2.483422    5.795663    3.344660
     99          1           0       -6.564814    6.617716    0.639098
    100          1           0       -4.422250    6.835884    4.387487
    101          1           0       -6.581594    7.693486    3.993086
    102          7           0       -4.195399    2.056338    0.899669
    103          6           0       -5.164927    1.084357    0.450818
    104          6           0       -5.864451    1.307455   -0.876658
    105          8           0       -5.312518    1.950144   -1.772047
    106          6           0       -4.652725   -0.364406    0.473934
    107          6           0       -3.999398   -0.689119    1.807772
    108          6           0       -3.826854   -0.861888   -0.704772
    109          6           0       -4.781683   -0.318390    3.070345
    110          1           0       -4.387483    2.514122    1.786764
    111          1           0       -6.039291    1.100068    1.095909
    112          1           0       -5.542441   -0.993218    0.600031
    113          1           0       -2.963602   -0.335240    1.887763
    114          1           0       -3.823675   -1.761029    1.822942
    115          1           0       -4.426417   -0.636371   -1.582135
    116          1           0       -2.895197   -0.299385   -0.768067
    117          1           0       -3.661593   -1.923792   -0.527151
    118          1           0       -4.989274    0.740052    3.237393
    119          1           0       -5.784817   -0.743315    3.083014
    120          1           0       -4.271493   -0.696841    3.952605
    121          7           0       -7.107431    0.843497   -1.028461
    122          6           0       -7.855761    0.736613   -2.259346
    123          6           0       -9.353783    0.843044   -1.974560
    124          8           0      -10.102011    1.361723   -2.801377
    125          6           0       -7.490556   -0.549226   -2.996261
    126          8           0       -7.793445   -1.684519   -2.218849
    127          1           0       -7.515632    0.403796   -0.216959
    128          1           0       -7.584214    1.584289   -2.891175
    129          1           0       -6.429625   -0.562844   -3.274899
    130          1           0       -8.125702   -0.667845   -3.875648
    131          1           0       -7.266398   -2.441810   -2.486675
    132          7           0       -9.976199    0.175491   -0.997846
    133          6           0      -11.372705    0.227964   -0.586241
    134          6           0      -12.339436   -0.030919   -1.728261
    135          8           0      -13.278281    0.713612   -1.982316
    136          6           0      -11.723707    1.562834    0.062389
    137          1           0       -9.341444   -0.271672   -0.355716
    138          1           0      -11.522080   -0.544713    0.165794
    139          1           0      -11.690837    2.402736   -0.634808
    140          1           0      -12.744601    1.516144    0.454429
    141          1           0      -11.008437    1.715425    0.871590
    142          7           0      -12.346686   -1.174189   -2.420997
    143          6           0      -11.664810   -2.421967   -2.152491
    144          6           0      -12.369587   -3.393492   -1.206062
    145          8           0      -13.481136   -3.866903   -1.418994
    146          6           0      -11.318782   -3.102032   -3.475811
    147          1           0      -13.060031   -1.243593   -3.129320
    148          1           0      -10.718108   -2.257014   -1.634471
    149          1           0      -11.129574   -4.155869   -3.262674
    150          1           0      -12.251674   -3.108101   -4.027967
    151          1           0      -10.524140   -2.631937   -4.045157
    152          7           0      -11.770881   -3.800487   -0.089815
    153          6           0      -10.448117   -3.554770    0.440676
    154          6           0      -10.546262   -3.263377    1.930091
    155          8           0       -9.788171   -2.411992    2.391221
    156          6           0       -9.564281   -4.789957    0.254810
    157          6           0       -8.179097   -4.675297    0.874339
    158          6           0       -7.338541   -5.911731    0.574345
    159          8           0       -7.047706   -6.239701   -0.603089
    160          8           0       -7.003495   -6.687530    1.493193
    161          1           0      -12.407128   -4.379080    0.431163
    162          1           0       -9.969368   -2.665234    0.017209
    163          1           0       -9.590458   -4.912191   -0.834444
    164          1           0      -10.150840   -5.623162    0.653706
    165          1           0       -8.223593   -4.546003    1.956145
    166          1           0       -7.718172   -3.832497    0.360884
    167          7           0      -11.327987   -3.956657    2.769477
    168          6           0      -11.347160   -3.888180    4.211228
    169          1           0      -12.352379   -4.108505    4.571882
    170          1           0      -10.646949   -4.617577    4.619927
    171          1           0      -11.058943   -2.887078    4.531986
    172          1           0      -11.997681   -4.560886    2.308049
    173         20           0        5.571644   -1.058688   -0.988000
    174          8           0        3.642419   -1.717054    0.501713
    175          1           0        3.832162   -2.076806    1.367725
    176          1           0        2.793922   -2.083886    0.270224
 ---------------------------------------------------------------------
 Rotational constants (GHZ):           0.0259212           0.0051617           0.0047028
 Standard basis: SVP (5D, 7F)
 There are  1809 symmetry adapted cartesian basis functions of A   symmetry.
 There are  1717 symmetry adapted basis functions of A   symmetry.
  1717 basis functions,  2922 primitive gaussians,  1809 cartesian basis functions
   358 alpha electrons      358 beta electrons
       nuclear repulsion energy     17945.9712038486 Hartrees.
 NAtoms=  176 NActive=  176 NUniq=  176 SFac= 1.00D+00 NAtFMM=   60 NAOKFM=T Big=T
 Integral buffers will be    131072 words long.
 Raffenetti 2 integral format.
 Two-electron integral symmetry is turned on.
 One-electron integrals computed using PRISM.
 NBasis=  1717 RedAO= T EigKep=  3.12D-04  NBF=  1717
 NBsUse=  1717 1.00D-06 EigRej= -1.00D+00 NBFU=  1717
 ExpMin= 1.98D-02 ExpMax= 3.51D+04 ExpMxC= 5.28D+03 IAcc=3 IRadAn=         5 AccDes= 0.00D+00
 Harris functional with IExCor=  402 and IRadAn=       5 diagonalized for initial guess.
 HarFok:  IExCor=  402 AccDes= 0.00D+00 IRadAn=         5 IDoV= 1 UseB2=F ITyADJ=14
 ICtDFT=  3500011 ScaDFX=  1.000000  1.000000  1.000000  1.000000
 FoFCou: FMM=F IPFlag=           0 FMFlag=      100000 FMFlg1=        2001
         NFxFlg=           0 DoJE=T BraDBF=F KetDBF=T FulRan=T
         wScrn=  0.000000 ICntrl=       500 IOpCl=  0 I1Cent=   200000004 NGrid=           0
         NMat0=    1 NMatS0=      1 NMatT0=    0 NMatD0=    1 NMtDS0=    0 NMtDT0=    0
 Petite list used in FoFCou.
 Requested convergence on RMS density matrix=1.00D-08 within 128 cycles.
 Requested convergence on MAX density matrix=1.00D-06.
 Requested convergence on             energy=1.00D-06.
 No special actions if energy rises.
 EnCoef did     2 forward-backward iterations
 EnCoef did     2 forward-backward iterations
 EnCoef did     2 forward-backward iterations
 EnCoef did   100 forward-backward iterations
 EnCoef did     3 forward-backward iterations
 EnCoef did     6 forward-backward iterations
 EnCoef did    25 forward-backward iterations
 EnCoef did   100 forward-backward iterations
 EnCoef did     7 forward-backward iterations
 EnCoef did    13 forward-backward iterations
 EnCoef did   100 forward-backward iterations
 EnCoef did   100 forward-backward iterations
 EnCoef did   100 forward-backward iterations
 EnCoef did   100 forward-backward iterations
 EnCoef did   100 forward-backward iterations
 EnCoef did   100 forward-backward iterations
 Rare condition: small coef for last iteration:  0.111D-15
 Restarting incremental Fock formation.
 EnCoef did   100 forward-backward iterations
 EnCoef did   100 forward-backward iterations
 EnCoef did   100 forward-backward iterations
 Rare condition: small coef for last iteration:  0.000D+00
 EnCoef did   100 forward-backward iterations
 EnCoef did   100 forward-backward iterations
 EnCoef did   100 forward-backward iterations
 EnCoef did   100 forward-backward iterations
 EnCoef did   100 forward-backward iterations
 Rare condition: small coef for last iteration: -0.385D-15
 EnCoef did   100 forward-backward iterations
 EnCoef did   100 forward-backward iterations
 EnCoef did   100 forward-backward iterations
 Rare condition: small coef for last iteration: -0.174D-14
 EnCoef did   100 forward-backward iterations
 EnCoef did   100 forward-backward iterations
 EnCoef did   100 forward-backward iterations
 Rare condition: small coef for last iteration:  0.872D-15
 EnCoef did   100 forward-backward iterations
 Rare condition: small coef for last iteration:  0.000D+00
 EnCoef did   100 forward-backward iterations
 EnCoef did   100 forward-backward iterations
 EnCoef did   100 forward-backward iterations
 Rare condition: small coef for last iteration: -0.201D-14
 EnCoef did   100 forward-backward iterations
 Restarting incremental Fock formation.
 EnCoef did   100 forward-backward iterations
 EnCoef did   100 forward-backward iterations
 EnCoef did   100 forward-backward iterations
 EnCoef did   100 forward-backward iterations
 EnCoef did   100 forward-backward iterations
 EnCoef did   100 forward-backward iterations
 EnCoef did   100 forward-backward iterations
 EnCoef did   100 forward-backward iterations
 EnCoef did   100 forward-backward iterations
 EnCoef did   100 forward-backward iterations
 EnCoef did   100 forward-backward iterations
 EnCoef did   100 forward-backward iterations
 Rare condition: small coef for last iteration:  0.278D-14
 EnCoef did   100 forward-backward iterations
 EnCoef did   100 forward-backward iterations
 EnCoef did   100 forward-backward iterations
 Rare condition: small coef for last iteration:  0.194D-14
 EnCoef did   100 forward-backward iterations
 EnCoef did   100 forward-backward iterations
 EnCoef did   100 forward-backward iterations
 Rare condition: small coef for last iteration:  0.422D-15
 EnCoef did   100 forward-backward iterations
 EnCoef did    45 forward-backward iterations
 Restarting incremental Fock formation.
 Rare condition: small coef for last iteration:  0.133D-14
 EnCoef did   100 forward-backward iterations
 EnCoef did   100 forward-backward iterations
 EnCoef did   100 forward-backward iterations
 EnCoef did    97 forward-backward iterations
 EnCoef did   100 forward-backward iterations
 EnCoef did   100 forward-backward iterations
 Rare condition: small coef for last iteration: -0.222D-14
 EnCoef did   100 forward-backward iterations
 EnCoef did    62 forward-backward iterations
 EnCoef did   100 forward-backward iterations
 EnCoef did   100 forward-backward iterations
 EnCoef did   100 forward-backward iterations
 EnCoef did   100 forward-backward iterations
 EnCoef did    14 forward-backward iterations
 EnCoef did     5 forward-backward iterations
 EnCoef did   100 forward-backward iterations
 EnCoef did   100 forward-backward iterations
 EnCoef did   100 forward-backward iterations
 EnCoef did   100 forward-backward iterations
 Rare condition: small coef for last iteration:  0.264D-15
 Restarting incremental Fock formation.
 EnCoef did    46 forward-backward iterations
 EnCoef did     5 forward-backward iterations
 EnCoef did     5 forward-backward iterations
 EnCoef did     5 forward-backward iterations
 Rare condition: small coef for last iteration:  0.444D-15
 EnCoef did   100 forward-backward iterations
 Rare condition: small coef for last iteration:  0.000D+00
 EnCoef did   100 forward-backward iterations
 EnCoef did   100 forward-backward iterations
 EnCoef did   100 forward-backward iterations
 Rare condition: small coef for last iteration:  0.125D-14
 EnCoef did   100 forward-backward iterations
 Rare condition: small coef for last iteration:  0.000D+00
 EnCoef did   100 forward-backward iterations
 EnCoef did   100 forward-backward iterations
 Rare condition: small coef for last iteration: -0.419D-15
 EnCoef did   100 forward-backward iterations
 EnCoef did   100 forward-backward iterations
 Rare condition: small coef for last iteration:  0.828D-16
 EnCoef did   100 forward-backward iterations
 EnCoef did   100 forward-backward iterations
 EnCoef did   100 forward-backward iterations
 Restarting incremental Fock formation.
 SCF Done:  E(RB3LYP) =  -5333.30626957     A.U. after  106 cycles
            NFock=106  Conv=0.27D-08     -V/T= 2.0081
 SCF density gives NOpUse=  1 NOpAll=  1.
 Hyperfine terms turned off by default for NAtoms > 100.

 **********************************************************************

            Population analysis using the SCF density.

 **********************************************************************

 Orbital symmetries:
 BldTbl:  Degeneracy threshold= 1.00D-02
       Occupied  (A) (A) (A) (A) (A) (A) (A) (A) (A) (A) (A) (A)
                 (A) (A) (A) (A) (A) (A) (A) (A) (A) (A) (A) (A)
                 (A) (A) (A) (A) (A) (A) (A) (A) (A) (A) (A) (A)
                 (A) (A) (A) (A) (A) (A) (A) (A) (A) (A) (A) (A)
                 (A) (A) (A) (A) (A) (A) (A) (A) (A) (A) (A) (A)
                 (A) (A) (A) (A) (A) (A) (A) (A) (A) (A) (A) (A)
                 (A) (A) (A) (A) (A) (A) (A) (A) (A) (A) (A) (A)
                 (A) (A) (A) (A) (A) (A) (A) (A) (A) (A) (A) (A)
                 (A) (A) (A) (A) (A) (A) (A) (A) (A) (A) (A) (A)
                 (A) (A) (A) (A) (A) (A) (A) (A) (A) (A) (A) (A)
                 (A) (A) (A) (A) (A) (A) (A) (A) (A) (A) (A) (A)
                 (A) (A) (A) (A) (A) (A) (A) (A) (A) (A) (A) (A)
                 (A) (A) (A) (A) (A) (A) (A) (A) (A) (A) (A) (A)
                 (A) (A) (A) (A) (A) (A) (A) (A) (A) (A) (A) (A)
                 (A) (A) (A) (A) (A) (A) (A) (A) (A) (A) (A) (A)
                 (A) (A) (A) (A) (A) (A) (A) (A) (A) (A) (A) (A)
                 (A) (A) (A) (A) (A) (A) (A) (A) (A) (A) (A) (A)
                 (A) (A) (A) (A) (A) (A) (A) (A) (A) (A) (A) (A)
                 (A) (A) (A) (A) (A) (A) (A) (A) (A) (A) (A) (A)
                 (A) (A) (A) (A) (A) (A) (A) (A) (A) (A) (A) (A)
                 (A) (A) (A) (A) (A) (A) (A) (A) (A) (A) (A) (A)
                 (A) (A) (A) (A) (A) (A) (A) (A) (A) (A) (A) (A)
                 (A) (A) (A) (A) (A) (A) (A) (A) (A) (A) (A) (A)
                 (A) (A) (A) (A) (A) (A) (A) (A) (A) (A) (A) (A)
                 (A) (A) (A) (A) (A) (A) (A) (A) (A) (A) (A) (A)
                 (A) (A) (A) (A) (A) (A) (A) (A) (A) (A) (A) (A)
                 (A) (A) (A) (A) (A) (A) (A) (A) (A) (A) (A) (A)
                 (A) (A) (A) (A) (A) (A) (A) (A) (A) (A) (A) (A)
                 (A) (A) (A) (A) (A) (A) (A) (A) (A) (A) (A) (A)
                 (A) (A) (A) (A) (A) (A) (A) (A) (A) (A)
       Virtual   (A) (A) (A) (A) (A) (A) (A) (A) (A) (A) (A) (A)
                 (A) (A) (A) (A) (A) (A) (A) (A) (A) (A) (A) (A)
                 (A) (A) (A) (A) (A) (A) (A) (A) (A) (A) (A) (A)
                 (A) (A) (A) (A) (A) (A) (A) (A) (A) (A) (A) (A)
                 (A) (A) (A) (A) (A) (A) (A) (A) (A) (A) (A) (A)
                 (A) (A) (A) (A) (A) (A) (A) (A) (A) (A) (A) (A)
                 (A) (A) (A) (A) (A) (A) (A) (A) (A) (A) (A) (A)
                 (A) (A) (A) (A) (A) (A) (A) (A) (A) (A) (A) (A)
                 (A) (A) (A) (A) (A) (A) (A) (A) (A) (A) (A) (A)
                 (A) (A) (A) (A) (A) (A) (A) (A) (A) (A) (A) (A)
                 (A) (A) (A) (A) (A) (A) (A) (A) (A) (A) (A) (A)
                 (A) (A) (A) (A) (A) (A) (A) (A) (A) (A) (A) (A)
                 (A) (A) (A) (A) (A) (A) (A) (A) (A) (A) (A) (A)
                 (A) (A) (A) (A) (A) (A) (A) (A) (A) (A) (A) (A)
                 (A) (A) (A) (A) (A) (A) (A) (A) (A) (A) (A) (A)
                 (A) (A) (A) (A) (A) (A) (A) (A) (A) (A) (A) (A)
                 (A) (A) (A) (A) (A) (A) (A) (A) (A) (A) (A) (A)
                 (A) (A) (A) (A) (A) (A) (A) (A) (A) (A) (A) (A)
                 (A) (A) (A) (A) (A) (A) (A) (A) (A) (A) (A) (A)
                 (A) (A) (A) (A) (A) (A) (A) (A) (A) (A) (A) (A)
                 (A) (A) (A) (A) (A) (A) (A) (A) (A) (A) (A) (A)
                 (A) (A) (A) (A) (A) (A) (A) (A) (A) (A) (A) (A)
                 (A) (A) (A) (A) (A) (A) (A) (A) (A) (A) (A) (A)
                 (A) (A) (A) (A) (A) (A) (A) (A) (A) (A) (A) (A)
                 (A) (A) (A) (A) (A) (A) (A) (A) (A) (A) (A) (A)
                 (A) (A) (A) (A) (A) (A) (A) (A) (A) (A) (A) (A)
                 (A) (A) (A) (A) (A) (A) (A) (A) (A) (A) (A) (A)
                 (A) (A) (A) (A) (A) (A) (A) (A) (A) (A) (A) (A)
                 (A) (A) (A) (A) (A) (A) (A) (A) (A) (A) (A) (A)
                 (A) (A) (A) (A) (A) (A) (A) (A) (A) (A) (A) (A)
                 (A) (A) (A) (A) (A) (A) (A) (A) (A) (A) (A) (A)
                 (A) (A) (A) (A) (A) (A) (A) (A) (A) (A) (A) (A)
                 (A) (A) (A) (A) (A) (A) (A) (A) (A) (A) (A) (A)
                 (A) (A) (A) (A) (A) (A) (A) (A) (A) (A) (A) (A)
                 (A) (A) (A) (A) (A) (A) (A) (A) (A) (A) (A) (A)
                 (A) (A) (A) (A) (A) (A) (A) (A) (A) (A) (A) (A)
                 (A) (A) (A) (A) (A) (A) (A) (A) (A) (A) (A) (A)
                 (A) (A) (A) (A) (A) (A) (A) (A) (A) (A) (A) (A)
                 (A) (A) (A) (A) (A) (A) (A) (A) (A) (A) (A) (A)
                 (A) (A) (A) (A) (A) (A) (A) (A) (A) (A) (A) (A)
                 (A) (A) (A) (A) (A) (A) (A) (A) (A) (A) (A) (A)
                 (A) (A) (A) (A) (A) (A) (A) (A) (A) (A) (A) (A)
                 (A) (A) (A) (A) (A) (A) (A) (A) (A) (A) (A) (A)
                 (A) (A) (A) (A) (A) (A) (A) (A) (A) (A) (A) (A)
                 (A) (A) (A) (A) (A) (A) (A) (A) (A) (A) (A) (A)
                 (A) (A) (A) (A) (A) (A) (A) (A) (A) (A) (A) (A)
                 (A) (A) (A) (A) (A) (A) (A) (A) (A) (A) (A) (A)
                 (A) (A) (A) (A) (A) (A) (A) (A) (A) (A) (A) (A)
                 (A) (A) (A) (A) (A) (A) (A) (A) (A) (A) (A) (A)
                 (A) (A) (A) (A) (A) (A) (A) (A) (A) (A) (A) (A)
                 (A) (A) (A) (A) (A) (A) (A) (A) (A) (A) (A) (A)
                 (A) (A) (A) (A) (A) (A) (A) (A) (A) (A) (A) (A)
                 (A) (A) (A) (A) (A) (A) (A) (A) (A) (A) (A) (A)
                 (A) (A) (A) (A) (A) (A) (A) (A) (A) (A) (A) (A)
                 (A) (A) (A) (A) (A) (A) (A) (A) (A) (A) (A) (A)
                 (A) (A) (A) (A) (A) (A) (A) (A) (A) (A) (A) (A)
                 (A) (A) (A) (A) (A) (A) (A) (A) (A) (A) (A) (A)
                 (A) (A) (A) (A) (A) (A) (A) (A) (A) (A) (A) (A)
                 (A) (A) (A) (A) (A) (A) (A) (A) (A) (A) (A) (A)
                 (A) (A) (A) (A) (A) (A) (A) (A) (A) (A) (A) (A)
                 (A) (A) (A) (A) (A) (A) (A) (A) (A) (A) (A) (A)
                 (A) (A) (A) (A) (A) (A) (A) (A) (A) (A) (A) (A)
                 (A) (A) (A) (A) (A) (A) (A) (A) (A) (A) (A) (A)
                 (A) (A) (A) (A) (A) (A) (A) (A) (A) (A) (A) (A)
                 (A) (A) (A) (A) (A) (A) (A) (A) (A) (A) (A) (A)
                 (A) (A) (A) (A) (A) (A) (A) (A) (A) (A) (A) (A)
                 (A) (A) (A) (A) (A) (A) (A) (A) (A) (A) (A) (A)
                 (A) (A) (A) (A) (A) (A) (A) (A) (A) (A) (A) (A)
                 (A) (A) (A) (A) (A) (A) (A) (A) (A) (A) (A) (A)
                 (A) (A) (A) (A) (A) (A) (A) (A) (A) (A) (A) (A)
                 (A) (A) (A) (A) (A) (A) (A) (A) (A) (A) (A) (A)
                 (A) (A) (A) (A) (A) (A) (A) (A) (A) (A) (A) (A)
                 (A) (A) (A) (A) (A) (A) (A) (A) (A) (A) (A) (A)
                 (A) (A) (A) (A) (A) (A) (A) (A) (A) (A) (A) (A)
                 (A) (A) (A) (A) (A) (A) (A) (A) (A) (A) (A) (A)
                 (A) (A) (A) (A) (A) (A) (A) (A) (A) (A) (A) (A)
                 (A) (A) (A) (A) (A) (A) (A) (A) (A) (A) (A) (A)
                 (A) (A) (A) (A) (A) (A) (A) (A) (A) (A) (A) (A)
                 (A) (A) (A) (A) (A) (A) (A) (A) (A) (A) (A) (A)
                 (A) (A) (A) (A) (A) (A) (A) (A) (A) (A) (A) (A)
                 (A) (A) (A) (A) (A) (A) (A) (A) (A) (A) (A) (A)
                 (A) (A) (A) (A) (A) (A) (A) (A) (A) (A) (A) (A)
                 (A) (A) (A) (A) (A) (A) (A) (A) (A) (A) (A) (A)
                 (A) (A) (A) (A) (A) (A) (A) (A) (A) (A) (A) (A)
                 (A) (A) (A) (A) (A) (A) (A) (A) (A) (A) (A) (A)
                 (A) (A) (A) (A) (A) (A) (A) (A) (A) (A) (A) (A)
                 (A) (A) (A) (A) (A) (A) (A) (A) (A) (A) (A) (A)
                 (A) (A) (A) (A) (A) (A) (A) (A) (A) (A) (A) (A)
                 (A) (A) (A) (A) (A) (A) (A) (A) (A) (A) (A) (A)
                 (A) (A) (A) (A) (A) (A) (A) (A) (A) (A) (A) (A)
                 (A) (A) (A) (A) (A) (A) (A) (A) (A) (A) (A) (A)
                 (A) (A) (A) (A) (A) (A) (A) (A) (A) (A) (A) (A)
                 (A) (A) (A) (A) (A) (A) (A) (A) (A) (A) (A) (A)
                 (A) (A) (A) (A) (A) (A) (A) (A) (A) (A) (A) (A)
                 (A) (A) (A) (A) (A) (A) (A) (A) (A) (A) (A) (A)
                 (A) (A) (A) (A) (A) (A) (A) (A) (A) (A) (A) (A)
                 (A) (A) (A) (A) (A) (A) (A) (A) (A) (A) (A) (A)
                 (A) (A) (A) (A) (A) (A) (A) (A) (A) (A) (A) (A)
                 (A) (A) (A) (A) (A) (A) (A) (A) (A) (A) (A) (A)
                 (A) (A) (A) (A) (A) (A) (A) (A) (A) (A) (A) (A)
                 (A) (A) (A) (A) (A) (A) (A) (A) (A) (A) (A) (A)
                 (A) (A) (A) (A) (A) (A) (A) (A) (A) (A) (A) (A)
                 (A) (A) (A) (A) (A) (A) (A) (A) (A) (A) (A) (A)
                 (A) (A) (A) (A) (A) (A) (A) (A) (A) (A) (A) (A)
                 (A) (A) (A) (A) (A) (A) (A) (A) (A) (A) (A) (A)
                 (A) (A) (A) (A) (A) (A) (A) (A) (A) (A) (A) (A)
                 (A) (A) (A) (A) (A) (A) (A) (A) (A) (A) (A) (A)
                 (A) (A) (A) (A) (A) (A) (A) (A) (A) (A) (A) (A)
                 (A) (A) (A) (A) (A) (A) (A) (A) (A) (A) (A) (A)
                 (A) (A) (A) (A) (A) (A) (A) (A) (A) (A) (A) (A)
                 (A) (A) (A) (A) (A) (A) (A) (A) (A) (A) (A) (A)
                 (A) (A) (A) (A) (A) (A) (A) (A) (A) (A) (A) (A)
                 (A) (A) (A) (A) (A) (A) (A) (A) (A) (A) (A) (A)
                 (A) (A) (A)
 The electronic state is 1-A.
 Alpha  occ. eigenvalues -- -145.47357 -19.21980 -19.15365 -19.13170 -19.12931
 Alpha  occ. eigenvalues --  -19.12460 -19.12294 -19.11942 -19.10647 -19.09820
 Alpha  occ. eigenvalues --  -19.09697 -19.09175 -19.09035 -19.08140 -19.07696
 Alpha  occ. eigenvalues --  -19.07662 -19.07538 -19.07349 -19.07251 -19.06836
 Alpha  occ. eigenvalues --  -19.05926 -19.03946 -19.01078 -19.00913 -15.53266
 Alpha  occ. eigenvalues --  -14.61282 -14.39549 -14.39200 -14.38005 -14.36355
 Alpha  occ. eigenvalues --  -14.35893 -14.35785 -14.35158 -14.34963 -14.34704
 Alpha  occ. eigenvalues --  -14.34691 -14.33991 -14.33289 -14.33096 -14.32203
 Alpha  occ. eigenvalues --  -12.66869 -12.66838 -12.66783 -10.37990 -10.32266
 Alpha  occ. eigenvalues --  -10.31561 -10.30788 -10.30077 -10.29959 -10.29865
 Alpha  occ. eigenvalues --  -10.28924 -10.28067 -10.27915 -10.27887 -10.27216
 Alpha  occ. eigenvalues --  -10.27179 -10.27112 -10.27005 -10.26439 -10.26181
 Alpha  occ. eigenvalues --  -10.25982 -10.25969 -10.25497 -10.25361 -10.24991
 Alpha  occ. eigenvalues --  -10.24882 -10.24733 -10.24018 -10.23289 -10.23201
 Alpha  occ. eigenvalues --  -10.23192 -10.23070 -10.23032 -10.22639 -10.22031
 Alpha  occ. eigenvalues --  -10.21407 -10.21350 -10.21205 -10.21004 -10.20978
 Alpha  occ. eigenvalues --  -10.19589 -10.19013 -10.18845 -10.18834 -10.18782
 Alpha  occ. eigenvalues --  -10.18773 -10.18579 -10.18155 -10.17947 -10.16858
 Alpha  occ. eigenvalues --  -10.16665 -10.16603 -10.16400 -10.15931 -10.15882
 Alpha  occ. eigenvalues --  -10.15853 -10.13714  -1.90003  -1.17514  -1.17289
 Alpha  occ. eigenvalues --   -1.16971  -1.16580  -1.08044  -1.07152  -1.06318
 Alpha  occ. eigenvalues --   -1.06054  -1.05279  -1.04240  -1.03689  -1.02657
 Alpha  occ. eigenvalues --   -1.02387  -1.01930  -1.01639  -1.01453  -1.01017
 Alpha  occ. eigenvalues --   -1.00926  -1.00675  -1.00574  -1.00382  -0.99700
 Alpha  occ. eigenvalues --   -0.99697  -0.96521  -0.96033  -0.95632  -0.95140
 Alpha  occ. eigenvalues --   -0.94451  -0.92835  -0.92448  -0.92252  -0.91851
 Alpha  occ. eigenvalues --   -0.91786  -0.91139  -0.90955  -0.90743  -0.90528
 Alpha  occ. eigenvalues --   -0.90418  -0.89840  -0.89352  -0.88833  -0.85624
 Alpha  occ. eigenvalues --   -0.84682  -0.84300  -0.81855  -0.81119  -0.79511
 Alpha  occ. eigenvalues --   -0.79177  -0.78206  -0.77245  -0.77035  -0.76871
 Alpha  occ. eigenvalues --   -0.76616  -0.75674  -0.75498  -0.75142  -0.74979
 Alpha  occ. eigenvalues --   -0.74515  -0.74185  -0.72941  -0.72471  -0.71649
 Alpha  occ. eigenvalues --   -0.71226  -0.71085  -0.70042  -0.69761  -0.67580
 Alpha  occ. eigenvalues --   -0.66828  -0.66469  -0.65721  -0.65062  -0.64837
 Alpha  occ. eigenvalues --   -0.64490  -0.64387  -0.63669  -0.63595  -0.62209
 Alpha  occ. eigenvalues --   -0.62153  -0.61749  -0.61526  -0.61174  -0.61119
 Alpha  occ. eigenvalues --   -0.59785  -0.59523  -0.59435  -0.59384  -0.59123
 Alpha  occ. eigenvalues --   -0.58916  -0.58548  -0.58332  -0.58191  -0.57911
 Alpha  occ. eigenvalues --   -0.57432  -0.56879  -0.56795  -0.56385  -0.56306
 Alpha  occ. eigenvalues --   -0.55991  -0.54992  -0.54838  -0.54746  -0.54245
 Alpha  occ. eigenvalues --   -0.53850  -0.53680  -0.53232  -0.53148  -0.52862
 Alpha  occ. eigenvalues --   -0.52422  -0.51972  -0.51802  -0.51427  -0.50743
 Alpha  occ. eigenvalues --   -0.50683  -0.50396  -0.50238  -0.49890  -0.49562
 Alpha  occ. eigenvalues --   -0.49318  -0.49193  -0.48963  -0.48743  -0.48647
 Alpha  occ. eigenvalues --   -0.48508  -0.47819  -0.47698  -0.47475  -0.47246
 Alpha  occ. eigenvalues --   -0.47063  -0.47043  -0.46944  -0.46523  -0.46117
 Alpha  occ. eigenvalues --   -0.46059  -0.45967  -0.45886  -0.45780  -0.45376
 Alpha  occ. eigenvalues --   -0.45338  -0.45251  -0.44998  -0.44927  -0.44750
 Alpha  occ. eigenvalues --   -0.44504  -0.44428  -0.44008  -0.43870  -0.43651
 Alpha  occ. eigenvalues --   -0.43453  -0.43370  -0.43266  -0.43179  -0.43127
 Alpha  occ. eigenvalues --   -0.42717  -0.42540  -0.42349  -0.42291  -0.42149
 Alpha  occ. eigenvalues --   -0.42059  -0.41800  -0.41684  -0.41621  -0.41386
 Alpha  occ. eigenvalues --   -0.41324  -0.41134  -0.41001  -0.40803  -0.40691
 Alpha  occ. eigenvalues --   -0.40500  -0.40398  -0.40320  -0.40182  -0.40080
 Alpha  occ. eigenvalues --   -0.39533  -0.39488  -0.39462  -0.39379  -0.39129
 Alpha  occ. eigenvalues --   -0.38997  -0.38943  -0.38652  -0.38636  -0.38459
 Alpha  occ. eigenvalues --   -0.38431  -0.38358  -0.37970  -0.37875  -0.37849
 Alpha  occ. eigenvalues --   -0.37715  -0.37391  -0.37273  -0.37090  -0.36948
 Alpha  occ. eigenvalues --   -0.36842  -0.36572  -0.36422  -0.36290  -0.35891
 Alpha  occ. eigenvalues --   -0.35876  -0.35687  -0.35609  -0.35470  -0.34804
 Alpha  occ. eigenvalues --   -0.34710  -0.34676  -0.34370  -0.34361  -0.34314
 Alpha  occ. eigenvalues --   -0.33952  -0.33813  -0.33565  -0.33411  -0.33121
 Alpha  occ. eigenvalues --   -0.32859  -0.32657  -0.32541  -0.32335  -0.31578
 Alpha  occ. eigenvalues --   -0.31460  -0.30887  -0.30816  -0.30788  -0.29571
 Alpha  occ. eigenvalues --   -0.29238  -0.29026  -0.28931  -0.28756  -0.27997
 Alpha  occ. eigenvalues --   -0.27920  -0.27800  -0.27504  -0.27312  -0.26748
 Alpha  occ. eigenvalues --   -0.26660  -0.26206  -0.26060  -0.25744  -0.25677
 Alpha  occ. eigenvalues --   -0.25617  -0.25593  -0.25546  -0.24989  -0.24712
 Alpha  occ. eigenvalues --   -0.24667  -0.24580  -0.24550  -0.24378  -0.23995
 Alpha  occ. eigenvalues --   -0.23409  -0.23021  -0.22636  -0.22217  -0.22167
 Alpha  occ. eigenvalues --   -0.22120  -0.21809  -0.21747  -0.21122  -0.20077
 Alpha  occ. eigenvalues --   -0.17909  -0.17456  -0.13893
 Alpha virt. eigenvalues --   -0.13308  -0.13102  -0.07783  -0.06803  -0.04586
 Alpha virt. eigenvalues --   -0.03062  -0.02527  -0.01989  -0.01503  -0.01306
 Alpha virt. eigenvalues --   -0.00596  -0.00417  -0.00154  -0.00086  -0.00054
 Alpha virt. eigenvalues --    0.00736   0.00824   0.01562   0.01593   0.01695
 Alpha virt. eigenvalues --    0.01956   0.02259   0.02321   0.03107   0.03189
 Alpha virt. eigenvalues --    0.03374   0.03494   0.03546   0.03616   0.03874
 Alpha virt. eigenvalues --    0.04130   0.04225   0.04310   0.04369   0.04912
 Alpha virt. eigenvalues --    0.05004   0.05512   0.05716   0.05985   0.06145
 Alpha virt. eigenvalues --    0.06269   0.06534   0.06770   0.07076   0.07481
 Alpha virt. eigenvalues --    0.07657   0.07830   0.08120   0.08473   0.08643
 Alpha virt. eigenvalues --    0.08817   0.08888   0.09001   0.09128   0.09200
 Alpha virt. eigenvalues --    0.09674   0.09938   0.10204   0.10244   0.10603
 Alpha virt. eigenvalues --    0.10725   0.10770   0.11108   0.11343   0.11641
 Alpha virt. eigenvalues --    0.11713   0.11946   0.12030   0.12097   0.12276
 Alpha virt. eigenvalues --    0.12338   0.12643   0.12807   0.13003   0.13257
 Alpha virt. eigenvalues --    0.13286   0.13580   0.13752   0.13859   0.13974
 Alpha virt. eigenvalues --    0.14044   0.14212   0.14462   0.14667   0.15067
 Alpha virt. eigenvalues --    0.15138   0.15204   0.15314   0.15503   0.15654
 Alpha virt. eigenvalues --    0.15709   0.15834   0.16232   0.16452   0.16525
 Alpha virt. eigenvalues --    0.16706   0.16762   0.16861   0.17092   0.17278
 Alpha virt. eigenvalues --    0.17559   0.17764   0.17922   0.18009   0.18172
 Alpha virt. eigenvalues --    0.18197   0.18416   0.18568   0.18981   0.19145
 Alpha virt. eigenvalues --    0.19239   0.19277   0.19522   0.19759   0.19953
 Alpha virt. eigenvalues --    0.20056   0.20359   0.20687   0.20756   0.21110
 Alpha virt. eigenvalues --    0.21326   0.21391   0.21582   0.21964   0.22148
 Alpha virt. eigenvalues --    0.22504   0.22647   0.22830   0.23018   0.23361
 Alpha virt. eigenvalues --    0.23600   0.23735   0.23933   0.24134   0.24190
 Alpha virt. eigenvalues --    0.24534   0.24547   0.25015   0.25295   0.25651
 Alpha virt. eigenvalues --    0.25830   0.25960   0.26066   0.26102   0.26403
 Alpha virt. eigenvalues --    0.26485   0.26754   0.26781   0.27160   0.27283
 Alpha virt. eigenvalues --    0.27728   0.28187   0.28389   0.28414   0.28514
 Alpha virt. eigenvalues --    0.28842   0.28939   0.29213   0.29479   0.29541
 Alpha virt. eigenvalues --    0.29645   0.30123   0.30277   0.30301   0.30550
 Alpha virt. eigenvalues --    0.30789   0.30982   0.31173   0.31293   0.31577
 Alpha virt. eigenvalues --    0.31975   0.32134   0.32492   0.32809   0.33103
 Alpha virt. eigenvalues --    0.33331   0.33663   0.33843   0.33984   0.34322
 Alpha virt. eigenvalues --    0.35238   0.35569   0.35886   0.36224   0.36438
 Alpha virt. eigenvalues --    0.36552   0.37308   0.37402   0.37623   0.37910
 Alpha virt. eigenvalues --    0.38678   0.39011   0.39141   0.39347   0.39485
 Alpha virt. eigenvalues --    0.39850   0.40173   0.40203   0.40839   0.41301
 Alpha virt. eigenvalues --    0.41518   0.41605   0.41798   0.41885   0.42028
 Alpha virt. eigenvalues --    0.42318   0.42858   0.43035   0.43158   0.43392
 Alpha virt. eigenvalues --    0.43505   0.43599   0.43674   0.43829   0.43880
 Alpha virt. eigenvalues --    0.44072   0.44334   0.44673   0.44885   0.45145
 Alpha virt. eigenvalues --    0.45341   0.45362   0.45440   0.45674   0.45942
 Alpha virt. eigenvalues --    0.46078   0.46152   0.46438   0.46549   0.46709
 Alpha virt. eigenvalues --    0.47114   0.47232   0.47326   0.47376   0.47761
 Alpha virt. eigenvalues --    0.47804   0.47870   0.48017   0.48712   0.48944
 Alpha virt. eigenvalues --    0.49022   0.49297   0.49514   0.49565   0.49673
 Alpha virt. eigenvalues --    0.50005   0.50216   0.50508   0.50594   0.50848
 Alpha virt. eigenvalues --    0.51083   0.51159   0.51527   0.51670   0.51833
 Alpha virt. eigenvalues --    0.52091   0.52205   0.52389   0.52494   0.52641
 Alpha virt. eigenvalues --    0.52744   0.53014   0.53220   0.53484   0.53634
 Alpha virt. eigenvalues --    0.53848   0.54057   0.54110   0.54286   0.54501
 Alpha virt. eigenvalues --    0.54574   0.54793   0.54934   0.54995   0.55050
 Alpha virt. eigenvalues --    0.55100   0.55442   0.55550   0.55789   0.56058
 Alpha virt. eigenvalues --    0.56186   0.56388   0.56805   0.57092   0.57133
 Alpha virt. eigenvalues --    0.57442   0.57611   0.57773   0.57925   0.58099
 Alpha virt. eigenvalues --    0.58297   0.58428   0.58607   0.58779   0.59009
 Alpha virt. eigenvalues --    0.59105   0.59375   0.59481   0.59670   0.60023
 Alpha virt. eigenvalues --    0.60061   0.60139   0.60320   0.60781   0.60805
 Alpha virt. eigenvalues --    0.60970   0.61083   0.61298   0.61380   0.61514
 Alpha virt. eigenvalues --    0.61594   0.61652   0.61685   0.61799   0.61909
 Alpha virt. eigenvalues --    0.61982   0.62182   0.62316   0.62472   0.62571
 Alpha virt. eigenvalues --    0.62715   0.62816   0.62845   0.62965   0.63111
 Alpha virt. eigenvalues --    0.63259   0.63441   0.63526   0.63697   0.63736
 Alpha virt. eigenvalues --    0.63901   0.64075   0.64238   0.64307   0.64449
 Alpha virt. eigenvalues --    0.64532   0.64651   0.64749   0.64879   0.64983
 Alpha virt. eigenvalues --    0.65131   0.65168   0.65291   0.65573   0.65616
 Alpha virt. eigenvalues --    0.65693   0.65898   0.65972   0.66018   0.66118
 Alpha virt. eigenvalues --    0.66326   0.66421   0.66516   0.66594   0.66664
 Alpha virt. eigenvalues --    0.66749   0.66836   0.66943   0.66954   0.67060
 Alpha virt. eigenvalues --    0.67214   0.67298   0.67537   0.67649   0.67705
 Alpha virt. eigenvalues --    0.67732   0.67881   0.67929   0.68006   0.68410
 Alpha virt. eigenvalues --    0.68495   0.68671   0.68786   0.68837   0.68885
 Alpha virt. eigenvalues --    0.69033   0.69048   0.69339   0.69435   0.69571
 Alpha virt. eigenvalues --    0.69693   0.69764   0.69874   0.69980   0.70092
 Alpha virt. eigenvalues --    0.70138   0.70366   0.70480   0.70602   0.70741
 Alpha virt. eigenvalues --    0.70806   0.70869   0.70991   0.71195   0.71390
 Alpha virt. eigenvalues --    0.71498   0.71940   0.72017   0.72167   0.72397
 Alpha virt. eigenvalues --    0.72430   0.72572   0.72630   0.72932   0.72997
 Alpha virt. eigenvalues --    0.73171   0.73494   0.73550   0.73848   0.74202
 Alpha virt. eigenvalues --    0.74555   0.74600   0.74947   0.75046   0.75136
 Alpha virt. eigenvalues --    0.75436   0.75501   0.75678   0.75903   0.76092
 Alpha virt. eigenvalues --    0.76144   0.76267   0.76307   0.76413   0.76926
 Alpha virt. eigenvalues --    0.77138   0.77351   0.77459   0.77703   0.77992
 Alpha virt. eigenvalues --    0.78281   0.78386   0.78785   0.78901   0.79178
 Alpha virt. eigenvalues --    0.79547   0.79862   0.80059   0.80298   0.80729
 Alpha virt. eigenvalues --    0.80902   0.81042   0.81412   0.81626   0.81814
 Alpha virt. eigenvalues --    0.82208   0.82380   0.82553   0.83256   0.83330
 Alpha virt. eigenvalues --    0.83415   0.83696   0.83973   0.84013   0.84496
 Alpha virt. eigenvalues --    0.84589   0.85186   0.85394   0.85550   0.85891
 Alpha virt. eigenvalues --    0.86078   0.86226   0.86544   0.86779   0.87135
 Alpha virt. eigenvalues --    0.87327   0.87725   0.88152   0.88619   0.88748
 Alpha virt. eigenvalues --    0.88917   0.89036   0.89361   0.89668   0.89924
 Alpha virt. eigenvalues --    0.90159   0.90222   0.90653   0.90743   0.91511
 Alpha virt. eigenvalues --    0.91677   0.91955   0.92104   0.92466   0.92608
 Alpha virt. eigenvalues --    0.92744   0.92761   0.93556   0.93839   0.94584
 Alpha virt. eigenvalues --    0.94801   0.94895   0.94972   0.95314   0.95510
 Alpha virt. eigenvalues --    0.95616   0.95903   0.96224   0.96577   0.96628
 Alpha virt. eigenvalues --    0.96926   0.97015   0.97584   0.97822   0.98396
 Alpha virt. eigenvalues --    0.98469   0.98719   0.99040   0.99705   0.99987
 Alpha virt. eigenvalues --    1.00416   1.00504   1.00616   1.00906   1.01068
 Alpha virt. eigenvalues --    1.01391   1.01714   1.01845   1.02136   1.02225
 Alpha virt. eigenvalues --    1.02554   1.02934   1.03109   1.03480   1.03771
 Alpha virt. eigenvalues --    1.03939   1.04141   1.04481   1.05128   1.05191
 Alpha virt. eigenvalues --    1.05380   1.05611   1.05794   1.06127   1.06245
 Alpha virt. eigenvalues --    1.06536   1.07289   1.07609   1.08258   1.08365
 Alpha virt. eigenvalues --    1.08590   1.08863   1.09007   1.09167   1.09236
 Alpha virt. eigenvalues --    1.09672   1.09813   1.10121   1.10587   1.10797
 Alpha virt. eigenvalues --    1.11046   1.11288   1.11540   1.11699   1.11715
 Alpha virt. eigenvalues --    1.12023   1.12743   1.12982   1.13540   1.13810
 Alpha virt. eigenvalues --    1.13863   1.14171   1.14645   1.14791   1.15424
 Alpha virt. eigenvalues --    1.15654   1.15806   1.16043   1.16328   1.16602
 Alpha virt. eigenvalues --    1.16671   1.16833   1.17123   1.17333   1.17872
 Alpha virt. eigenvalues --    1.18252   1.18421   1.18649   1.19022   1.19454
 Alpha virt. eigenvalues --    1.19496   1.19578   1.19982   1.20171   1.20397
 Alpha virt. eigenvalues --    1.20729   1.21070   1.21207   1.21507   1.21693
 Alpha virt. eigenvalues --    1.22133   1.22328   1.22559   1.22644   1.22766
 Alpha virt. eigenvalues --    1.23116   1.23564   1.23666   1.24324   1.24479
 Alpha virt. eigenvalues --    1.24655   1.24816   1.24925   1.25205   1.25292
 Alpha virt. eigenvalues --    1.25598   1.25681   1.26126   1.26519   1.26753
 Alpha virt. eigenvalues --    1.26880   1.27284   1.27487   1.27719   1.27752
 Alpha virt. eigenvalues --    1.28101   1.28407   1.28775   1.29153   1.29261
 Alpha virt. eigenvalues --    1.29642   1.29794   1.30013   1.30238   1.30749
 Alpha virt. eigenvalues --    1.31118   1.31400   1.31590   1.31772   1.32179
 Alpha virt. eigenvalues --    1.32609   1.33278   1.33355   1.33859   1.33932
 Alpha virt. eigenvalues --    1.34430   1.34516   1.34686   1.35259   1.35587
 Alpha virt. eigenvalues --    1.35642   1.35762   1.36349   1.36521   1.36611
 Alpha virt. eigenvalues --    1.36867   1.36995   1.37678   1.37974   1.38146
 Alpha virt. eigenvalues --    1.38216   1.38425   1.38671   1.38747   1.39158
 Alpha virt. eigenvalues --    1.39639   1.39940   1.40185   1.40990   1.41279
 Alpha virt. eigenvalues --    1.41361   1.41768   1.42193   1.42612   1.42920
 Alpha virt. eigenvalues --    1.43410   1.43556   1.43885   1.43978   1.44478
 Alpha virt. eigenvalues --    1.44933   1.45289   1.45554   1.45777   1.45975
 Alpha virt. eigenvalues --    1.46123   1.46278   1.46796   1.47224   1.47425
 Alpha virt. eigenvalues --    1.47716   1.47792   1.47826   1.47950   1.49401
 Alpha virt. eigenvalues --    1.49648   1.50017   1.50622   1.50665   1.50882
 Alpha virt. eigenvalues --    1.51416   1.51619   1.51907   1.52146   1.52526
 Alpha virt. eigenvalues --    1.52605   1.52853   1.52878   1.53406   1.53591
 Alpha virt. eigenvalues --    1.54034   1.54225   1.54623   1.55002   1.55472
 Alpha virt. eigenvalues --    1.55745   1.56036   1.56316   1.56596   1.56695
 Alpha virt. eigenvalues --    1.56860   1.57406   1.57483   1.57657   1.57893
 Alpha virt. eigenvalues --    1.58041   1.58587   1.58685   1.58926   1.59130
 Alpha virt. eigenvalues --    1.59425   1.60066   1.60432   1.60997   1.61218
 Alpha virt. eigenvalues --    1.61792   1.61830   1.62190   1.62618   1.62929
 Alpha virt. eigenvalues --    1.63135   1.63341   1.63565   1.63708   1.63880
 Alpha virt. eigenvalues --    1.64487   1.64564   1.65222   1.65988   1.66495
 Alpha virt. eigenvalues --    1.66585   1.66933   1.67077   1.67617   1.68176
 Alpha virt. eigenvalues --    1.68267   1.68404   1.68660   1.68778   1.69695
 Alpha virt. eigenvalues --    1.69901   1.69930   1.70226   1.70491   1.70537
 Alpha virt. eigenvalues --    1.70636   1.71242   1.71280   1.71836   1.71931
 Alpha virt. eigenvalues --    1.72304   1.72525   1.72706   1.72832   1.73095
 Alpha virt. eigenvalues --    1.73338   1.73713   1.73756   1.73918   1.74019
 Alpha virt. eigenvalues --    1.74145   1.74465   1.74592   1.74788   1.74934
 Alpha virt. eigenvalues --    1.75303   1.75461   1.75609   1.75972   1.76123
 Alpha virt. eigenvalues --    1.76266   1.76327   1.76495   1.76713   1.76758
 Alpha virt. eigenvalues --    1.76987   1.77071   1.77378   1.77497   1.77743
 Alpha virt. eigenvalues --    1.77817   1.77978   1.78063   1.78146   1.78639
 Alpha virt. eigenvalues --    1.78880   1.78945   1.79137   1.79390   1.79462
 Alpha virt. eigenvalues --    1.79514   1.79662   1.79869   1.79922   1.79986
 Alpha virt. eigenvalues --    1.80063   1.80348   1.80536   1.80630   1.81061
 Alpha virt. eigenvalues --    1.81204   1.81237   1.81412   1.81688   1.81771
 Alpha virt. eigenvalues --    1.81878   1.82050   1.82227   1.82304   1.82468
 Alpha virt. eigenvalues --    1.82802   1.83072   1.83109   1.83171   1.83547
 Alpha virt. eigenvalues --    1.83652   1.83974   1.84306   1.84548   1.84647
 Alpha virt. eigenvalues --    1.84766   1.84962   1.85160   1.85478   1.85495
 Alpha virt. eigenvalues --    1.85750   1.85967   1.86171   1.86397   1.86467
 Alpha virt. eigenvalues --    1.86587   1.86990   1.87030   1.87166   1.87315
 Alpha virt. eigenvalues --    1.87647   1.87808   1.87842   1.88037   1.88300
 Alpha virt. eigenvalues --    1.88496   1.88620   1.88964   1.89140   1.89311
 Alpha virt. eigenvalues --    1.89353   1.89628   1.89752   1.89949   1.90098
 Alpha virt. eigenvalues --    1.90455   1.90908   1.90985   1.91236   1.91396
 Alpha virt. eigenvalues --    1.91472   1.91612   1.92061   1.92144   1.92419
 Alpha virt. eigenvalues --    1.92639   1.93123   1.93211   1.93500   1.93611
 Alpha virt. eigenvalues --    1.93774   1.93970   1.94148   1.94411   1.94863
 Alpha virt. eigenvalues --    1.95151   1.95631   1.95816   1.96133   1.96310
 Alpha virt. eigenvalues --    1.96553   1.96660   1.96811   1.97035   1.97132
 Alpha virt. eigenvalues --    1.97378   1.97470   1.97682   1.97801   1.98179
 Alpha virt. eigenvalues --    1.98285   1.98434   1.98726   1.99118   1.99286
 Alpha virt. eigenvalues --    1.99423   1.99958   2.00156   2.00253   2.00278
 Alpha virt. eigenvalues --    2.00506   2.00582   2.00810   2.00844   2.01288
 Alpha virt. eigenvalues --    2.01598   2.02172   2.02257   2.02507   2.02632
 Alpha virt. eigenvalues --    2.02771   2.03182   2.03585   2.03713   2.03825
 Alpha virt. eigenvalues --    2.04089   2.04306   2.04806   2.04836   2.04977
 Alpha virt. eigenvalues --    2.05558   2.05693   2.06129   2.06198   2.06346
 Alpha virt. eigenvalues --    2.06829   2.07032   2.07352   2.07374   2.07570
 Alpha virt. eigenvalues --    2.08073   2.08138   2.08426   2.08670   2.08939
 Alpha virt. eigenvalues --    2.09314   2.09627   2.10016   2.10147   2.10433
 Alpha virt. eigenvalues --    2.10705   2.10957   2.11216   2.11394   2.11809
 Alpha virt. eigenvalues --    2.12070   2.12440   2.12655   2.12805   2.12970
 Alpha virt. eigenvalues --    2.13343   2.13519   2.13730   2.14177   2.14569
 Alpha virt. eigenvalues --    2.15120   2.15621   2.15701   2.15870   2.15986
 Alpha virt. eigenvalues --    2.16330   2.16495   2.16598   2.16781   2.17057
 Alpha virt. eigenvalues --    2.17909   2.18294   2.18680   2.18834   2.19192
 Alpha virt. eigenvalues --    2.19369   2.19548   2.19777   2.19936   2.20366
 Alpha virt. eigenvalues --    2.20585   2.20751   2.20999   2.21488   2.22179
 Alpha virt. eigenvalues --    2.22510   2.22622   2.23342   2.23420   2.23907
 Alpha virt. eigenvalues --    2.24480   2.24528   2.24622   2.24928   2.25022
 Alpha virt. eigenvalues --    2.25109   2.25240   2.25658   2.26228   2.26444
 Alpha virt. eigenvalues --    2.26676   2.27160   2.27473   2.27862   2.28445
 Alpha virt. eigenvalues --    2.29080   2.29709   2.29778   2.30328   2.30513
 Alpha virt. eigenvalues --    2.30638   2.31328   2.31714   2.31911   2.31974
 Alpha virt. eigenvalues --    2.32456   2.32840   2.33131   2.33169   2.33584
 Alpha virt. eigenvalues --    2.33728   2.34135   2.34538   2.34590   2.34867
 Alpha virt. eigenvalues --    2.35316   2.35768   2.35924   2.36192   2.36735
 Alpha virt. eigenvalues --    2.37061   2.37633   2.37708   2.37755   2.37926
 Alpha virt. eigenvalues --    2.38034   2.38542   2.39223   2.39286   2.39673
 Alpha virt. eigenvalues --    2.40026   2.40389   2.40806   2.41088   2.41694
 Alpha virt. eigenvalues --    2.42168   2.42546   2.42737   2.43119   2.43764
 Alpha virt. eigenvalues --    2.43794   2.44121   2.44476   2.44942   2.45748
 Alpha virt. eigenvalues --    2.46416   2.46721   2.46982   2.47232   2.47502
 Alpha virt. eigenvalues --    2.47705   2.48082   2.48465   2.48764   2.48896
 Alpha virt. eigenvalues --    2.49019   2.49095   2.49255   2.49674   2.50272
 Alpha virt. eigenvalues --    2.50533   2.50828   2.51159   2.51514   2.52660
 Alpha virt. eigenvalues --    2.52812   2.53175   2.54019   2.54516   2.54686
 Alpha virt. eigenvalues --    2.54785   2.54953   2.55317   2.55503   2.55806
 Alpha virt. eigenvalues --    2.55846   2.56450   2.57297   2.57832   2.57911
 Alpha virt. eigenvalues --    2.57974   2.58077   2.58491   2.58707   2.59117
 Alpha virt. eigenvalues --    2.59293   2.59349   2.59827   2.59985   2.60142
 Alpha virt. eigenvalues --    2.60363   2.60705   2.60873   2.61013   2.61409
 Alpha virt. eigenvalues --    2.61547   2.61926   2.62408   2.62822   2.62945
 Alpha virt. eigenvalues --    2.63171   2.63713   2.63988   2.64653   2.64720
 Alpha virt. eigenvalues --    2.65229   2.65482   2.65892   2.66226   2.66397
 Alpha virt. eigenvalues --    2.66910   2.67556   2.67788   2.68029   2.68149
 Alpha virt. eigenvalues --    2.68496   2.68565   2.68730   2.69024   2.69493
 Alpha virt. eigenvalues --    2.69626   2.69759   2.70262   2.70566   2.71049
 Alpha virt. eigenvalues --    2.71827   2.71922   2.72297   2.72638   2.72693
 Alpha virt. eigenvalues --    2.73178   2.73518   2.73540   2.73698   2.74347
 Alpha virt. eigenvalues --    2.74628   2.74718   2.75288   2.75359   2.75638
 Alpha virt. eigenvalues --    2.76081   2.76173   2.76464   2.76630   2.76702
 Alpha virt. eigenvalues --    2.76771   2.76908   2.77071   2.77317   2.77589
 Alpha virt. eigenvalues --    2.77702   2.77857   2.78033   2.78207   2.78832
 Alpha virt. eigenvalues --    2.78995   2.79129   2.79556   2.79688   2.80290
 Alpha virt. eigenvalues --    2.80538   2.80753   2.81216   2.81570   2.81954
 Alpha virt. eigenvalues --    2.82003   2.82719   2.82936   2.83355   2.83609
 Alpha virt. eigenvalues --    2.84002   2.84066   2.84187   2.85104   2.85525
 Alpha virt. eigenvalues --    2.85656   2.86128   2.86286   2.86500   2.86645
 Alpha virt. eigenvalues --    2.87275   2.87323   2.87391   2.87848   2.88123
 Alpha virt. eigenvalues --    2.88273   2.88505   2.88730   2.89112   2.89196
 Alpha virt. eigenvalues --    2.89666   2.90387   2.90609   2.90708   2.91327
 Alpha virt. eigenvalues --    2.91384   2.91408   2.91508   2.91716   2.91927
 Alpha virt. eigenvalues --    2.92521   2.93067   2.93587   2.93644   2.94250
 Alpha virt. eigenvalues --    2.94372   2.94883   2.94986   2.95154   2.95655
 Alpha virt. eigenvalues --    2.95710   2.95911   2.96285   2.96803   2.96865
 Alpha virt. eigenvalues --    2.97160   2.97319   2.98192   2.98547   2.98566
 Alpha virt. eigenvalues --    2.98851   2.99180   2.99450   3.00146   3.00327
 Alpha virt. eigenvalues --    3.01207   3.01580   3.01674   3.01975   3.02119
 Alpha virt. eigenvalues --    3.02276   3.02525   3.03080   3.03291   3.03378
 Alpha virt. eigenvalues --    3.03637   3.03721   3.04498   3.04536   3.05493
 Alpha virt. eigenvalues --    3.05813   3.06572   3.06755   3.06968   3.07141
 Alpha virt. eigenvalues --    3.08597   3.08794   3.09939   3.10295   3.10901
 Alpha virt. eigenvalues --    3.11500   3.12185   3.12298   3.12732   3.13046
 Alpha virt. eigenvalues --    3.13902   3.13967   3.14121   3.14238   3.14436
 Alpha virt. eigenvalues --    3.15280   3.15761   3.15807   3.16008   3.16338
 Alpha virt. eigenvalues --    3.16565   3.17096   3.17480   3.17643   3.17883
 Alpha virt. eigenvalues --    3.18656   3.18776   3.18843   3.19102   3.19318
 Alpha virt. eigenvalues --    3.19804   3.19950   3.19982   3.20224   3.20477
 Alpha virt. eigenvalues --    3.20930   3.21020   3.21627   3.21719   3.22469
 Alpha virt. eigenvalues --    3.22750   3.23902   3.24032   3.24144   3.24432
 Alpha virt. eigenvalues --    3.25588   3.26247   3.27404   3.27539   3.29827
 Alpha virt. eigenvalues --    3.30029   3.30379   3.30999   3.31470   3.34965
 Alpha virt. eigenvalues --    3.35764   3.37553   3.39171   3.39281   3.40463
 Alpha virt. eigenvalues --    3.40503   3.42884   3.44000   3.44348   3.46842
 Alpha virt. eigenvalues --    3.50869   3.50971   3.53300   3.53674   3.54153
 Alpha virt. eigenvalues --    3.54484   3.55592   3.55639   3.57854   3.58217
 Alpha virt. eigenvalues --    3.58746   3.59005   3.59901   3.61686   3.61784
 Alpha virt. eigenvalues --    3.62795   3.63001   3.63099   3.65538   3.66079
 Alpha virt. eigenvalues --    3.67656   3.68245   3.68334   3.68560   3.68789
 Alpha virt. eigenvalues --    3.69202   3.69802   3.70045   3.70064   3.70817
 Alpha virt. eigenvalues --    3.70897   3.71099   3.72269   3.72859   3.73769
 Alpha virt. eigenvalues --    3.73981   3.75339   3.77258   3.80455
          Condensed to atoms (all electrons):
 Mulliken charges:
               1
     1  C    0.078559
     2  C   -0.020834
     3  O   -0.313489
     4  H    0.064607
     5  H    0.018328
     6  H    0.003841
     7  N   -0.125823
     8  C    0.122496
     9  C    0.065684
    10  O   -0.258321
    11  C    0.109212
    12  C    0.081613
    13  O   -0.342349
    14  O   -0.459807
    15  H    0.120262
    16  H   -0.022105
    17  H    0.025544
    18  H    0.007748
    19  N   -0.129864
    20  C    0.109701
    21  C    0.058214
    22  O   -0.299036
    23  C    0.039036
    24  C    0.092541
    25  C   -0.111802
    26  C    0.072565
    27  N    0.081556
    28  H    0.102207
    29  H    0.003405
    30  H    0.026297
    31  H    0.012841
    32  H    0.008383
    33  H    0.012183
    34  H    0.035873
    35  H    0.022995
    36  H    0.043972
    37  H    0.105723
    38  H    0.180864
    39  H    0.178283
    40  H    0.181718
    41  N   -0.112558
    42  C    0.137416
    43  C    0.035932
    44  O   -0.275447
    45  C    0.040630
    46  C    0.120530
    47  O   -0.341628
    48  O   -0.492115
    49  H    0.134255
    50  H    0.017652
    51  H    0.008811
    52  H    0.036649
    53  N   -0.183739
    54  C    0.195715
    55  C    0.038528
    56  O   -0.284653
    57  H    0.151016
    58  H    0.036975
    59  H    0.018144
    60  N   -0.110869
    61  C    0.142326
    62  C    0.072088
    63  O   -0.337633
    64  C    0.084504
    65  C   -0.036669
    66  N   -0.042660
    67  O   -0.255207
    68  H    0.151951
    69  H   -0.000670
    70  H   -0.003821
    71  H    0.048981
    72  H    0.115549
    73  H    0.124840
    74  N   -0.147240
    75  C    0.238336
    76  C    0.031435
    77  O   -0.257148
    78  H    0.138072
    79  H    0.021904
    80  H    0.007030
    81  N   -0.134926
    82  C    0.091473
    83  C    0.116311
    84  O   -0.263247
    85  C    0.156557
    86  C   -0.095657
    87  C    0.013273
    88  C   -0.014999
    89  C   -0.008711
    90  C   -0.054243
    91  C    0.187019
    92  O   -0.204416
    93  H    0.118831
    94  H    0.003491
    95  H    0.000691
    96  H    0.003993
    97  H   -0.005978
    98  H   -0.017884
    99  H   -0.016102
   100  H   -0.035531
   101  H    0.171652
   102  N   -0.111455
   103  C    0.146184
   104  C    0.039878
   105  O   -0.254707
   106  C   -0.141934
   107  C    0.024592
   108  C    0.115266
   109  C    0.018558
   110  H    0.143681
   111  H   -0.017380
   112  H   -0.008539
   113  H   -0.002845
   114  H   -0.007052
   115  H    0.007050
   116  H    0.016209
   117  H    0.007097
   118  H   -0.019896
   119  H    0.011208
   120  H    0.013536
   121  N   -0.135533
   122  C    0.136248
   123  C    0.052332
   124  O   -0.266247
   125  C    0.229900
   126  O   -0.334225
   127  H    0.113647
   128  H    0.033810
   129  H    0.026049
   130  H    0.006667
   131  H    0.186894
   132  N   -0.135126
   133  C    0.011986
   134  C    0.080319
   135  O   -0.259809
   136  C    0.099699
   137  H    0.120560
   138  H    0.024288
   139  H    0.040383
   140  H    0.018713
   141  H   -0.017128
   142  N   -0.083074
   143  C    0.058301
   144  C    0.028200
   145  O   -0.279413
   146  C    0.059254
   147  H    0.123835
   148  H   -0.007046
   149  H    0.019087
   150  H    0.007250
   151  H    0.031445
   152  N   -0.101033
   153  C    0.083882
   154  C    0.037200
   155  O   -0.297540
   156  C    0.046055
   157  C    0.099017
   158  C    0.043488
   159  O   -0.326445
   160  O   -0.296496
   161  H    0.106913
   162  H    0.011087
   163  H    0.003617
   164  H   -0.021782
   165  H    0.003907
   166  H   -0.022676
   167  N   -0.150540
   168  C    0.133438
   169  H    0.017381
   170  H    0.038296
   171  H    0.040589
   172  H    0.102786
   173  Ca   1.124498
   174  O   -0.297850
   175  H    0.204732
   176  H    0.185129
 Sum of Mulliken charges =  -0.00000
 Mulliken charges with hydrogens summed into heavy atoms:
               1
     1  C    0.165335
     2  C   -0.020834
     3  O   -0.313489
     7  N   -0.005561
     8  C    0.100391
     9  C    0.065684
    10  O   -0.258321
    11  C    0.142504
    12  C    0.081613
    13  O   -0.342349
    14  O   -0.459807
    19  N   -0.027657
    20  C    0.113106
    21  C    0.058214
    22  O   -0.299036
    23  C    0.078174
    24  C    0.113107
    25  C   -0.052934
    26  C    0.222260
    27  N    0.622421
    41  N    0.021697
    42  C    0.155068
    43  C    0.035932
    44  O   -0.275447
    45  C    0.086089
    46  C    0.120530
    47  O   -0.341628
    48  O   -0.492115
    53  N   -0.032723
    54  C    0.250835
    55  C    0.038528
    56  O   -0.284653
    60  N    0.041082
    61  C    0.141656
    62  C    0.072088
    63  O   -0.337633
    64  C    0.129664
    65  C   -0.036669
    66  N    0.197729
    67  O   -0.255207
    74  N   -0.009169
    75  C    0.267270
    76  C    0.031435
    77  O   -0.257148
    81  N   -0.016095
    82  C    0.094963
    83  C    0.116311
    84  O   -0.263247
    85  C    0.161241
    86  C   -0.095657
    87  C    0.007295
    88  C   -0.032883
    89  C   -0.024813
    90  C   -0.089774
    91  C    0.187019
    92  O   -0.032764
   102  N    0.032226
   103  C    0.128804
   104  C    0.039878
   105  O   -0.254707
   106  C   -0.150474
   107  C    0.014695
   108  C    0.145623
   109  C    0.023406
   121  N   -0.021886
   122  C    0.170058
   123  C    0.052332
   124  O   -0.266247
   125  C    0.262616
   126  O   -0.147331
   132  N   -0.014565
   133  C    0.036274
   134  C    0.080319
   135  O   -0.259809
   136  C    0.141667
   142  N    0.040762
   143  C    0.051255
   144  C    0.028200
   145  O   -0.279413
   146  C    0.117036
   152  N    0.005879
   153  C    0.094969
   154  C    0.037200
   155  O   -0.297540
   156  C    0.027890
   157  C    0.080248
   158  C    0.043488
   159  O   -0.326445
   160  O   -0.296496
   167  N   -0.047754
   168  C    0.229704
   173  Ca   1.124498
   174  O    0.092011
 DipInt: DoE/N= T F RetVal/Mat= T F Init=T NMatP=  1 IDeriv=0 Min/MaxMlt=  0  4
 Entering OneElI...
 OneElI was handed  1333951383 working-precision words.
 Multipole integrals L=0 to 4 MinM= 0 MaxM= 0.
 Requested accuracy = 0.1000D-12
 PrtBox:  NBox=     1 Levels=  1 BoxLen=   98.75 SMaxX=       53.95
          Shift=           25.475655           12.637600            7.644240
 Box      1 Number                   0 centers from      1 to    809:
 ShPair: Thresh= 1.00D-13 NBox=     1 BxSize= 9.87D+01 RnKept= 3.64D+01
         NSMCal=               327645 NSMKep=              113304
 PrmmSu-InSpLW:  IPartL=    0 NPrtUS=    1 NPrtUL=    1 DoSpLW=F IThBeg=    0 IThEnd=    0 NThAct=    1.
 PrsmSu:  NPrtUS=   1 ThrOK=F IAlg=1 NPAlg=1 LenDen=           0 ISkipM=0 DoSpLW=F IThBeg=    0 IThEnd=    0.
 Prism:   IPart=     0 DynPar=F LinDyn=F Incr=         512.
 PRISM was handed  1325622227 working-precision words and113304 shell-pairs
 IPart=  0 NShTot=      113304 NBatch=         276 AvBLen=       410.5
 PrsmSu-ThDecC:  IPartSL=    0    0 NPrtUSL=    1    1 IThBeg=    0 IThEnd=    0 CPU=   -1 GPU=   -1 NThAct=    1.
 PrSmSu:  NxtVal=            513.
 Electronic moments (au):
       -716.00000000         23.38795480        -10.14015279          2.02809398
    -177576.10093428     -28174.66365977     -10160.14526304       -359.07521474
        -61.72494128         47.47305713      39647.99104648      -7373.57054288
      -6218.66283773      46382.51592322     482122.65030515      96657.01468554
       3706.71231429       3143.36718869     -43592.73483881      34998.61584540
  -70009150.88596916   -2724377.25464876    -333329.98161245     955120.31346435
    -827825.59597580     625813.16021924    -251184.50909241      -1336.01361892
      51112.48138093   -7015828.93974662   -2801723.12269090    -475216.21396787
     321612.67047128     362873.86018401      96038.57474891
 Electronic spatial extent (au):  <R**2>=         215910.9099
 DipInt: DoE/N= F T RetVal/Mat= T F Init=T NMatP=  1 IDeriv=0 Min/MaxMlt=  0  4
 Nuclear    moments (au):
        716.00000000         -0.00000000          0.00000000         -0.00000000
     177450.04119628      27743.19607274       9737.83410810         -0.00000000
          0.00000000         -0.00000000     -22044.47957394       7204.26880803
       6515.30912081     -43220.12201174    -489382.15583064     -95536.45019046
      -3761.10048678      -3381.99208236      43706.38145258     -34694.80935474
   69677501.39741096    2618434.80710253     299437.02636519   -1150000.39197257
     787346.75394628    -668132.47746326     255438.02394825       3161.72640692
     -49698.33512221    6947685.29654319    2697818.74502626     455117.79236038
    -312172.89188426    -369297.77424380    -100077.02754928
 Total      moments (au):
         -0.00000000         23.38795480        -10.14015279          2.02809398
       -126.05973800       -431.46758703       -422.31115494       -359.07521474
        -61.72494128         47.47305713      17603.51147254       -169.30173485
        296.64628307       3162.39391149      -7259.50552549       1120.56449508
        -54.38817249       -238.62489367        113.64661377        303.80649066
    -331649.48855820    -105942.44754622     -33892.95524726    -194880.07850823
     -40478.84202952     -42319.31724402       4253.51485584       1825.71278800
[...]
 **** Fit      -0.032159
 **** Fit      -0.031489
 **** Fit      -0.010425
 **** Fit      -0.014741
 **** Fit      -0.019193
 **** Fit      -0.023763
 **** Fit      -0.028274
 **** Fit      -0.032326
 **** Fit      -0.035319
 **** Fit      -0.036694
 **** Fit      -0.036373
 **** Fit      -0.012504
 **** Fit      -0.017896
 **** Fit      -0.023405
 **** Fit      -0.028945
 **** Fit      -0.034105
 **** Fit      -0.038074
 **** Fit      -0.027578
 **** Fit      -0.033481
 **** Fit      -0.006814
 **** Fit      -0.005647
 **** Fit      -0.008714
 **** Fit      -0.008019
 **** Fit      -0.006963
 **** Fit      -0.005803
 **** Fit      -0.010792
 **** Fit      -0.010270
 **** Fit      -0.009361
 **** Fit      -0.008283
 **** Fit      -0.007184
 **** Fit      -0.006110
 **** Fit      -0.005023
 **** Fit      -0.013176
 **** Fit      -0.013296
 **** Fit      -0.012815
 **** Fit      -0.011911
 **** Fit      -0.010772
 **** Fit      -0.009561
 **** Fit      -0.008387
 **** Fit      -0.007289
 **** Fit      -0.006240
 **** Fit      -0.005162
 **** Fit      -0.016408
 **** Fit      -0.015937
 **** Fit      -0.014974
 **** Fit      -0.013698
 **** Fit      -0.012283
 **** Fit      -0.010873
 **** Fit      -0.009556
 **** Fit      -0.008359
 **** Fit      -0.007257
 **** Fit      -0.006176
 **** Fit      -0.005007
 **** Fit      -0.020354
 **** Fit      -0.019953
 **** Fit      -0.018969
 **** Fit      -0.017562
 **** Fit      -0.015916
 **** Fit      -0.014205
 **** Fit      -0.012559
 **** Fit      -0.011055
 **** Fit      -0.009714
 **** Fit      -0.008512
 **** Fit      -0.007386
 **** Fit      -0.006240
 **** Fit      -0.025473
 **** Fit      -0.025160
 **** Fit      -0.024052
 **** Fit      -0.022332
 **** Fit      -0.020237
 **** Fit      -0.018008
 **** Fit      -0.015838
 **** Fit      -0.013851
 **** Fit      -0.012099
 **** Fit      -0.010575
 **** Fit      -0.009227
 **** Fit      -0.007967
 **** Fit      -0.006674
 **** Fit      -0.029031
 **** Fit      -0.026323
 **** Fit      -0.023356
 **** Fit      -0.020424
 **** Fit      -0.017721
 **** Fit      -0.015345
 **** Fit      -0.013310
 **** Fit      -0.011574
 **** Fit      -0.010055
 **** Fit      -0.008642
 **** Fit      -0.026218
 **** Fit      -0.022402
 **** Fit      -0.019094
 **** Fit      -0.016316
 **** Fit      -0.014011
 **** Fit      -0.012077
 **** Fit      -0.010382
 **** Fit      -0.022067
 **** Fit      -0.018382
 **** Fit      -0.015445
 **** Fit      -0.013070
 **** Fit      -0.011041
 **** Fit      -0.019202
 **** Fit      -0.015726
 **** Fit       0.008802
 **** Fit       0.007593
 **** Fit       0.005890
 **** Fit       0.007567
 **** Fit       0.008177
 **** Fit       0.008320
 **** Fit       0.007978
 **** Fit       0.007119
 **** Fit       0.005712
 **** Fit       0.003726
 **** Fit       0.001139
 **** Fit       0.004696
 **** Fit       0.005928
 **** Fit       0.006787
 **** Fit       0.007228
 **** Fit       0.007204
 **** Fit       0.006671
 **** Fit       0.005587
 **** Fit       0.003918
 **** Fit       0.001633
 **** Fit      -0.001285
 **** Fit       0.002300
 **** Fit       0.003789
 **** Fit       0.005015
 **** Fit       0.005898
 **** Fit       0.006363
 **** Fit       0.006342
 **** Fit       0.005779
 **** Fit       0.004634
 **** Fit       0.002878
 **** Fit       0.000492
 **** Fit      -0.002519
 **** Fit      -0.006117
 **** Fit      -0.000207
 **** Fit       0.001476
 **** Fit       0.003043
 **** Fit       0.004362
 **** Fit       0.005293
 **** Fit       0.005720
 **** Fit       0.005559
 **** Fit       0.004756
 **** Fit       0.003288
 **** Fit       0.001153
 **** Fit      -0.001611
 **** Fit       0.005217
 **** Fit       0.004323
 **** Fit       0.002683
 **** Fit       0.000371
 **** Fit       0.057135
 **** Fit       0.061543
 **** Fit       0.060355
 **** Fit       0.065561
 **** Fit       0.064854
 **** Fit       0.064516
 **** Fit       0.064741
 **** Fit       0.067484
 **** Fit       0.067520
 **** Fit       0.067752
 **** Fit       0.068282
 **** Fit       0.069426
 **** Fit       0.068737
 **** Fit       0.069274
 **** Fit       0.069990
 **** Fit       0.070913
 **** Fit       0.072215
 **** Fit       0.074254
 **** Fit       0.069445
 **** Fit       0.070144
 **** Fit       0.071117
 **** Fit       0.072304
 **** Fit       0.073759
 **** Fit       0.075662
 **** Fit       0.078350
 **** Fit       0.069968
 **** Fit       0.069897
 **** Fit       0.070500
 **** Fit       0.071503
 **** Fit       0.072781
 **** Fit       0.074310
 **** Fit       0.076157
 **** Fit       0.078484
 **** Fit       0.081571
 **** Fit       0.070218
 **** Fit       0.070212
 **** Fit       0.070849
 **** Fit       0.071919
 **** Fit       0.073305
 **** Fit       0.074968
 **** Fit       0.076941
 **** Fit       0.079322
 **** Fit       0.082283
 **** Fit       0.086087
 **** Fit       0.071789
 **** Fit       0.070574
 **** Fit       0.070038
 **** Fit       0.070162
 **** Fit       0.070823
 **** Fit       0.071893
 **** Fit       0.073283
 **** Fit       0.074949
 **** Fit       0.076893
 **** Fit       0.079153
 **** Fit       0.081796
 **** Fit       0.084894
 **** Fit       0.067427
 **** Fit       0.068558
 **** Fit       0.069847
 **** Fit       0.070621
 **** Fit       0.070674
 **** Fit       0.070235
 **** Fit       0.069714
 **** Fit       0.069445
 **** Fit       0.069588
 **** Fit       0.070160
 **** Fit       0.071113
 **** Fit       0.072383
 **** Fit       0.073920
 **** Fit       0.075696
 **** Fit       0.077699
 **** Fit       0.079916
 **** Fit       0.082304
 **** Fit       0.084726
 **** Fit       0.067037
 **** Fit       0.066982
 **** Fit       0.067477
 **** Fit       0.067945
 **** Fit       0.068180
 **** Fit       0.068246
 **** Fit       0.068328
 **** Fit       0.068594
 **** Fit       0.069137
 **** Fit       0.069979
 **** Fit       0.071095
 **** Fit       0.072447
 **** Fit       0.073995
 **** Fit       0.075694
 **** Fit       0.077486
 **** Fit       0.079267
 **** Fit       0.080844
 **** Fit       0.081875
 **** Fit       0.081826
 **** Fit       0.065740
 **** Fit       0.065322
 **** Fit       0.065586
 **** Fit       0.066016
 **** Fit       0.066423
 **** Fit       0.066821
 **** Fit       0.067306
 **** Fit       0.067968
 **** Fit       0.068848
 **** Fit       0.069945
 **** Fit       0.071225
 **** Fit       0.072634
 **** Fit       0.074095
 **** Fit       0.075487
 **** Fit       0.076617
 **** Fit       0.077185
 **** Fit       0.076757
 **** Fit       0.063282
 **** Fit       0.063203
 **** Fit       0.063648
 **** Fit       0.064260
 **** Fit       0.064905
 **** Fit       0.065588
 **** Fit       0.066362
 **** Fit       0.067271
 **** Fit       0.068319
 **** Fit       0.069471
 **** Fit       0.070654
 **** Fit       0.071748
 **** Fit       0.072568
 **** Fit       0.072841
 **** Fit       0.072187
 **** Fit       0.070138
 **** Fit       0.059776
 **** Fit       0.060547
 **** Fit       0.061466
 **** Fit       0.062405
 **** Fit       0.063322
 **** Fit       0.064240
 **** Fit       0.065190
 **** Fit       0.066176
 **** Fit       0.067155
 **** Fit       0.068030
 **** Fit       0.068633
 **** Fit       0.068716
 **** Fit       0.067932
 **** Fit       0.065841
 **** Fit       0.061946
 **** Fit       0.055730
 **** Fit       0.046768
 **** Fit       0.054378
 **** Fit       0.056564
 **** Fit       0.058297
 **** Fit       0.059757
 **** Fit       0.061022
 **** Fit       0.062147
 **** Fit       0.063159
 **** Fit       0.064024
 **** Fit       0.064628
 **** Fit       0.064762
 **** Fit       0.064104
 **** Fit       0.062217
 **** Fit       0.058584
 **** Fit       0.052669
 **** Fit       0.044053
 **** Fit       0.030804
 **** Fit       0.038667
 **** Fit       0.046243
 **** Fit       0.050950
 **** Fit       0.054099
 **** Fit       0.056370
 **** Fit       0.058079
 **** Fit       0.059371
 **** Fit       0.060269
 **** Fit       0.060666
 **** Fit       0.060312
 **** Fit       0.058801
 **** Fit       0.055600
 **** Fit       0.050127
 **** Fit       0.041912
 **** Fit       0.029815
 **** Fit       0.028341
 **** Fit       0.039258
 **** Fit       0.046266
 **** Fit       0.050702
 **** Fit       0.053547
 **** Fit       0.055281
 **** Fit       0.056010
 **** Fit       0.055521
 **** Fit       0.053302
 **** Fit       0.048648
 **** Fit       0.040901
 **** Fit       0.030002
 **** Fit       0.019549
 **** Fit       0.032419
 **** Fit       0.041729
 **** Fit       0.047261
 **** Fit       0.049954
 **** Fit       0.050144
 **** Fit       0.047360
 **** Fit       0.040732
 **** Fit       0.031451
 **** Fit       0.022377
 **** Fit       0.026806
 **** Fit       0.037572
 **** Fit       0.043035
 **** Fit       0.040943
 **** Fit       0.034054
 **** Fit       0.029735
 **** Fit       0.054223
 **** Fit       0.054453
 **** Fit       0.055144
 **** Fit       0.055353
 **** Fit       0.056124
 **** Fit       0.057526
 **** Fit       0.059660
 **** Fit       0.062685
 **** Fit       0.056652
 **** Fit       0.057735
 **** Fit       0.059801
 **** Fit       0.063067
 **** Fit       0.058286
 **** Fit       0.059554
 **** Fit       0.062129
 **** Fit       0.066359
 **** Fit       0.061841
 **** Fit       0.064898
 **** Fit       0.063437
 **** Fit       0.066157
 **** Fit       0.066847
 **** Fit       0.070966
 **** Fit       0.014959
 **** Fit       0.010656
 **** Fit       0.006611
 **** Fit       0.011328
 **** Fit       0.018090
 **** Fit       0.021573
 **** Fit       0.018829
 **** Fit       0.001116
 **** Fit       0.007996
 **** Fit       0.014712
 **** Fit       0.020495
 **** Fit       0.024748
 **** Fit       0.026923
 **** Fit       0.026530
 **** Fit       0.022877
 **** Fit       0.015234
 **** Fit      -0.002252
 **** Fit       0.005076
 **** Fit       0.011640
 **** Fit       0.017472
 **** Fit       0.022566
 **** Fit       0.026704
 **** Fit       0.029673
 **** Fit       0.031380
 **** Fit       0.031729
 **** Fit       0.030458
 **** Fit       0.027029
 **** Fit       0.020572
 **** Fit      -0.002310
 **** Fit       0.005180
 **** Fit       0.011597
 **** Fit       0.017242
 **** Fit       0.022369
 **** Fit       0.026857
 **** Fit       0.030470
 **** Fit       0.033123
 **** Fit       0.034862
 **** Fit       0.035738
 **** Fit       0.035703
 **** Fit       0.034548
 **** Fit       0.031857
 **** Fit       0.026883
 **** Fit       0.020140
 **** Fit       0.025097
 **** Fit       0.029527
 **** Fit       0.033110
 **** Fit       0.035768
 **** Fit       0.037612
 **** Fit       0.038791
 **** Fit       0.039391
 **** Fit       0.039388
 **** Fit       0.038634
 **** Fit       0.036835
 **** Fit       0.033469
 **** Fit       0.033243
 **** Fit       0.036624
 **** Fit       0.039058
 **** Fit       0.040696
 **** Fit       0.041760
 **** Fit       0.042423
 **** Fit       0.042765
 **** Fit       0.042770
 **** Fit       0.042329
 **** Fit       0.041243
 **** Fit       0.039186
 **** Fit       0.035588
 **** Fit       0.044988
 **** Fit       0.045541
 **** Fit       0.045819
 **** Fit       0.045968
 **** Fit       0.046022
 **** Fit       0.045924
 **** Fit       0.045548
 **** Fit       0.044699
 **** Fit       0.043078
 **** Fit       0.040141
 **** Fit       0.049889
 **** Fit       0.049504
 **** Fit       0.049287
 **** Fit       0.049214
 **** Fit       0.049200
 **** Fit       0.049127
 **** Fit       0.048839
 **** Fit       0.048111
 **** Fit       0.046501
 **** Fit       0.053183
 **** Fit       0.052653
 **** Fit       0.052561
 **** Fit       0.052818
 **** Fit       0.053336
 **** Fit       0.054033
 **** Fit       0.054796
 **** Fit       0.055359
 **** Fit       0.057671
 **** Fit       0.059585
 **** Fit       0.062321
 **** Fit       0.037596
 **** Fit       0.029656
 **** Fit       0.033095
 **** Fit       0.036873
 **** Fit       0.040847
 **** Fit       0.045118
 **** Fit       0.029158
 **** Fit       0.032105
 **** Fit       0.035320
 **** Fit       0.038634
 **** Fit       0.042084
 **** Fit       0.045769
 **** Fit       0.049822
 **** Fit       0.029825
 **** Fit       0.032135
 **** Fit       0.034731
 **** Fit       0.037439
 **** Fit       0.040253
 **** Fit       0.043215
 **** Fit       0.046371
 **** Fit       0.049774
 **** Fit       0.031353
 **** Fit       0.033049
 **** Fit       0.035138
 **** Fit       0.037418
 **** Fit       0.039850
 **** Fit       0.042445
 **** Fit       0.045212
 **** Fit       0.048157
 **** Fit       0.051294
 **** Fit       0.033446
 **** Fit       0.034512
 **** Fit       0.036078
 **** Fit       0.037924
 **** Fit       0.039981
 **** Fit       0.042232
 **** Fit       0.044665
 **** Fit       0.047261
 **** Fit       0.050007
 **** Fit       0.052905
 **** Fit       0.035823
 **** Fit       0.035964
 **** Fit       0.036869
 **** Fit       0.038220
 **** Fit       0.039872
 **** Fit       0.041769
 **** Fit       0.043885
 **** Fit       0.046194
 **** Fit       0.048668
 **** Fit       0.051291
 **** Fit       0.054076
 **** Fit       0.038206
 **** Fit       0.038455
 **** Fit       0.039359
 **** Fit       0.040693
 **** Fit       0.042354
 **** Fit       0.044293
 **** Fit       0.046477
 **** Fit       0.048874
 **** Fit       0.051468
 **** Fit       0.054276
 **** Fit       0.057375
 **** Fit       0.040796
 **** Fit       0.040830
 **** Fit       0.041578
 **** Fit       0.042825
 **** Fit       0.044461
 **** Fit       0.046431
 **** Fit       0.048697
 **** Fit       0.051240
 **** Fit       0.054076
 **** Fit       0.057291
 **** Fit       0.043643
 **** Fit       0.043530
 **** Fit       0.044155
 **** Fit       0.045334
 **** Fit       0.046963
 **** Fit       0.048987
 **** Fit       0.051380
 **** Fit       0.054157
 **** Fit       0.057406
 **** Fit       0.061354
 **** Fit       0.048191
 **** Fit       0.046907
 **** Fit       0.046654
 **** Fit       0.047255
 **** Fit       0.048543
 **** Fit       0.050415
 **** Fit       0.052832
 **** Fit       0.055822
 **** Fit       0.059535
 **** Fit       0.064349
 **** Fit       0.055085
 **** Fit       0.052356
 **** Fit       0.050741
 **** Fit       0.050304
 **** Fit       0.050910
 **** Fit       0.052406
 **** Fit       0.054711
 **** Fit       0.057858
 **** Fit       0.062062
 **** Fit       0.067894
 **** Fit       0.065504
 **** Fit       0.059834
 **** Fit       0.056416
 **** Fit       0.054838
 **** Fit       0.054890
 **** Fit       0.056370
 **** Fit       0.059198
 **** Fit       0.063550
 **** Fit       0.070089
 **** Fit       0.063329
 **** Fit       0.060377
 **** Fit       0.060622
 **** Fit       0.063729
 **** Fit       0.070023
 **** Fit       0.067634
 **** Fit       0.069710
 -----------------------------------------------------------------
 Leave Link  602 at Wed Sep 18 11:44:06 2019, MaxMem=  1342177280 cpu:             179.0 elap:               3.8

 Test job not archived.
 1\1\GINC-C490-072\SP\RB3LYP\SVP\C54H83Ca1N15O23\PENGZHI\18-Sep-2019\0\
 \#b3lyp/svp scf=(tight,noincore) Test #IOP(5/87=12) Density=Current Po
 p=(MK,readradii) iop(6/33=2) iop(6/42=6)\\Ng-295_loop3_39.0\\0,1\C,0,9
 .352,75.618,67.44\C,0,8.462,75.048,66.34\O,0,7.702,75.818,65.77\H,0,10
 .244,76.058,66.994\H,0,8.805,76.384,67.99\H,0,9.644,74.819,68.122\N,0,
 8.562,73.808,65.84\C,0,7.832,73.258,64.72\C,0,6.862,72.208,65.23\O,0,7
 .212,71.248,65.9\C,0,8.902,72.688,63.79\C,0,8.322,72.218,62.46\O,0,8.9
 82,72.458,61.43\O,0,7.162,71.768,62.47\H,0,9.172,73.158,66.31\H,0,7.24
 2,74.048,64.25\H,0,9.452,71.818,64.17\H,0,9.682,73.448,63.73\N,0,5.592
 ,72.338,64.83\C,0,4.492,71.538,65.32\C,0,4.432,70.128,64.76\O,0,3.682,
 69.288,65.27\C,0,3.172,72.298,65.21\C,0,3.072,73.688,65.82\C,0,3.422,7
 3.668,67.3\C,0,3.552,74.988,68.04\N,0,3.842,74.758,69.47\H,0,5.382,73.
 128,64.23\H,0,4.692,71.328,66.37\H,0,2.412,71.648,65.66\H,0,2.882,72.2
 58,64.16\H,0,2.062,74.078,65.85\H,0,3.612,74.458,65.26\H,0,4.372,73.15
 8,67.49\H,0,2.662,73.068,67.8\H,0,2.522,75.328,68.12\H,0,4.152,75.768,
 67.57\H,0,4.012,75.598,70.\H,0,3.082,74.278,69.93\H,0,4.662,74.168,69.
 55\N,0,5.182,69.828,63.7\C,0,5.262,68.508,63.11\C,0,6.612,68.018,62.6\
 O,0,6.732,66.828,62.3\C,0,4.312,68.338,61.93\C,0,4.512,69.288,60.76\O,
 0,3.802,69.008,59.78\O,0,5.432,70.138,60.73\H,0,5.792,70.528,63.32\H,0
 ,5.032,67.778,63.89\H,0,3.282,68.338,62.3\H,0,4.372,67.328,61.52\N,0,7
 .572,68.928,62.44\C,0,8.872,68.608,61.88\C,0,9.052,68.478,60.37\O,0,10
 .162,68.318,59.87\H,0,7.302,69.898,62.43\H,0,9.422,67.828,62.4\H,0,9.3
 92,69.538,62.11\N,0,7.922,68.518,59.66\C,0,7.872,68.728,58.22\C,0,8.30
 2,70.088,57.69\O,0,7.992,71.028,58.41\C,0,6.432,68.458,57.78\C,0,6.162
 ,68.748,56.31\N,0,5.642,69.948,56.04\O,0,6.442,67.878,55.49\H,0,7.112,
 68.758,60.2\H,0,8.472,67.998,57.69\H,0,5.872,69.228,58.31\H,0,6.192,67
 .428,58.01\H,0,5.522,70.668,56.75\H,0,5.842,70.218,55.09\N,0,8.862,70.
 288,56.49\C,0,9.242,71.578,55.95\C,0,10.252,71.448,54.82\O,0,11.232,72
 .188,54.8\H,0,9.112,69.488,55.93\H,0,9.632,72.258,56.71\H,0,8.342,72.1
 08,55.64\N,0,10.002,70.568,53.84\C,0,10.612,70.578,52.53\C,0,9.882,71.
 508,51.56\O,0,8.672,71.658,51.7\C,0,10.692,69.148,52.\C,0,11.622,68.82
 8,50.86\C,0,11.182,68.838,49.52\C,0,12.962,68.558,51.17\C,0,12.032,68.
 378,48.51\C,0,13.842,68.158,50.16\C,0,13.342,67.978,48.85\O,0,14.212,6
 7.628,47.86\H,0,9.092,70.138,53.81\H,0,11.632,70.938,52.71\H,0,9.712,6
 8.918,51.58\H,0,10.922,68.498,52.84\H,0,10.152,69.088,49.36\H,0,13.272
 ,68.428,52.2\H,0,11.732,68.368,47.48\H,0,14.882,68.018,50.42\H,0,15.13
 2,67.688,48.1\N,0,10.702,72.198,50.76\C,0,10.332,73.328,49.94\C,0,9.25
 2,73.148,48.89\O,0,8.372,72.298,49.04\C,0,10.002,74.598,50.74\C,0,11.0
 82,74.888,51.77\C,0,8.602,74.748,51.32\C,0,12.532,74.858,51.28\H,0,11.
 672,71.898,50.71\H,0,11.152,73.598,49.28\H,0,10.222,75.438,50.07\H,0,1
 0.982,74.298,52.69\H,0,10.882,75.878,52.17\H,0,7.932,74.588,50.48\H,0,
 8.422,73.968,52.06\H,0,8.562,75.748,51.75\H,0,12.912,73.908,50.9\H,0,1
 2.702,75.518,50.43\H,0,13.202,75.188,52.07\N,0,9.312,73.888,47.78\C,0,
 8.282,74.048,46.78\C,0,8.912,74.348,45.42\O,0,8.372,73.948,44.39\C,0,7
 .282,75.118,47.21\O,0,7.912,76.368,47.37\H,0,10.112,74.498,47.7\H,0,7.
 752,73.098,46.69\H,0,6.772,74.838,48.14\H,0,6.562,75.298,46.41\H,0,7.4
 12,76.938,47.96\N,0,9.882,75.248,45.23\C,0,10.602,75.588,44.01\C,0,9.6
 82,75.958,42.86\O,0,9.772,75.448,41.75\C,0,11.522,74.458,43.56\H,0,10.
 282,75.588,46.09\H,0,11.232,76.448,44.23\H,0,10.982,73.568,43.23\H,0,1
 2.122,74.798,42.71\H,0,12.162,74.218,44.41\N,0,8.832,76.988,42.92\C,0,
 8.732,78.048,43.9\C,0,9.642,79.258,43.69\O,0,9.612,79.968,42.69\C,0,7.
 272,78.478,44.03\H,0,8.302,77.158,42.08\H,0,9.042,77.708,44.89\H,0,7.2
 62,79.468,44.49\H,0,6.952,78.658,43.01\H,0,6.622,77.768,44.53\N,0,10.5
 12,79.618,44.63\C,0,10.762,79.108,45.96\C,0,12.262,79.008,46.19\O,0,12
 .672,78.048,46.84\C,0,10.182,80.058,47.01\C,0,10.482,79.668,48.45\C,0,
 9.802,80.618,49.43\O,0,8.552,80.738,49.47\O,0,10.482,81.378,50.15\H,0,
 11.062,80.388,44.29\H,0,10.392,78.088,46.11\H,0,9.122,80.068,46.73\H,0
 ,10.562,81.048,46.74\H,0,11.552,79.668,48.66\H,0,10.022,78.688,48.57\N
 ,0,13.132,79.958,45.82\C,0,14.532,80.048,46.16\H,0,15.07,80.548,45.354
 \H,0,14.647,80.619,47.082\H,0,14.938,79.046,46.299\H,0,12.742,80.658,4
 5.2\Ca,0,6.17,72.57,60.14\O,0,7.93,73.84,58.85\H,0,8.66,74.23,59.33\H,
 0,7.84,74.38,58.07\\Version=ES64L-G16RevA.03\State=1-A\HF=-5333.306269
 6\RMSD=2.747e-09\Dipole=-5.0011678,4.1588169,24.7310505\Quadrupole=-12
 .5355432,-264.2263032,276.7618464,-72.4700789,-195.4849304,220.078658\
 PG=C01 [X(C54H83Ca1N15O23)]\\@


 The theorems and results in mathematical physics are
 not theorems and results about Nature, but about our
 description of it.
                   --Gerard 't Hooft
 Job cpu time:       1 days  6 hours 35 minutes 26.9 seconds.
 Elapsed time:       0 days  0 hours 38 minutes 44.9 seconds.
 File lengths (MBytes):  RWF=   1517 Int=      0 D2E=      0 Chk=    171 Scr=      1
 Normal termination of Gaussian 16 at Wed Sep 18 11:44:08 2019.
