 Entering Gaussian System, Link 0=g16
 Initial command:
 /home1/apps/gaussian/16rA.03/g16/l1.exe "/scratch/01990/pengzhi/4361087/Gau-159225.inp" -scrdir="/scratch/01990/pengzhi/4361087/"
 Entering Link 1 = /home1/apps/gaussian/16rA.03/g16/l1.exe PID=    159226.
  
 Copyright (c) 1988,1990,1992,1993,1995,1998,2003,2009,2016,
            Gaussian, Inc.  All Rights Reserved.
  
 This is part of the Gaussian(R) 16 program.  It is based on
 the Gaussian(R) 09 system (copyright 2009, Gaussian, Inc.),
 the Gaussian(R) 03 system (copyright 2003, Gaussian, Inc.),
 the Gaussian(R) 98 system (copyright 1998, Gaussian, Inc.),
 the Gaussian(R) 94 system (copyright 1995, Gaussian, Inc.),
 the Gaussian 92(TM) system (copyright 1992, Gaussian, Inc.),
 the Gaussian 90(TM) system (copyright 1990, Gaussian, Inc.),
 the Gaussian 88(TM) system (copyright 1988, Gaussian, Inc.),
 the Gaussian 86(TM) system (copyright 1986, Carnegie Mellon
 University), and the Gaussian 82(TM) system (copyright 1983,
 Carnegie Mellon University). Gaussian is a federally registered
 trademark of Gaussian, Inc.
  
 This software contains proprietary and confidential information,
 including trade secrets, belonging to Gaussian, Inc.
  
 This software is provided under written license and may be
 used, copied, transmitted, or stored only in accord with that
 written license.
  
 The following legend is applicable only to US Government
 contracts under FAR:
  
                    RESTRICTED RIGHTS LEGEND
  
 Use, reproduction and disclosure by the US Government is
 subject to restrictions as set forth in subparagraphs (a)
 and (c) of the Commercial Computer Software - Restricted
 Rights clause in FAR 52.227-19.
  
 Gaussian, Inc.
 340 Quinnipiac St., Bldg. 40, Wallingford CT 06492
  
  
 ---------------------------------------------------------------
 Warning -- This program may not be used in any manner that
 competes with the business of Gaussian, Inc. or will provide
 assistance to any competitor of Gaussian, Inc.  The licensee
 of this program is prohibited from giving any competitor of
 Gaussian, Inc. access to this program.  By using this program,
 the user acknowledges that Gaussian, Inc. is engaged in the
 business of creating and licensing software in the field of
 computational chemistry and represents and warrants to the
 licensee that it is not a competitor of Gaussian, Inc. and that
 it will not use this program in any manner prohibited above.
 ---------------------------------------------------------------
  

 Cite this work as:
 Gaussian 16, Revision A.03,
 M. J. Frisch, G. W. Trucks, H. B. Schlegel, G. E. Scuseria, 
 M. A. Robb, J. R. Cheeseman, G. Scalmani, V. Barone, 
 G. A. Petersson, H. Nakatsuji, X. Li, M. Caricato, A. V. Marenich, 
 J. Bloino, B. G. Janesko, R. Gomperts, B. Mennucci, H. P. Hratchian, 
 J. V. Ortiz, A. F. Izmaylov, J. L. Sonnenberg, D. Williams-Young, 
 F. Ding, F. Lipparini, F. Egidi, J. Goings, B. Peng, A. Petrone, 
 T. Henderson, D. Ranasinghe, V. G. Zakrzewski, J. Gao, N. Rega, 
 G. Zheng, W. Liang, M. Hada, M. Ehara, K. Toyota, R. Fukuda, 
 J. Hasegawa, M. Ishida, T. Nakajima, Y. Honda, O. Kitao, H. Nakai, 
 T. Vreven, K. Throssell, J. A. Montgomery, Jr., J. E. Peralta, 
 F. Ogliaro, M. J. Bearpark, J. J. Heyd, E. N. Brothers, K. N. Kudin, 
 V. N. Staroverov, T. A. Keith, R. Kobayashi, J. Normand, 
 K. Raghavachari, A. P. Rendell, J. C. Burant, S. S. Iyengar, 
 J. Tomasi, M. Cossi, J. M. Millam, M. Klene, C. Adamo, R. Cammi, 
 J. W. Ochterski, R. L. Martin, K. Morokuma, O. Farkas, 
 J. B. Foresman, and D. J. Fox, Gaussian, Inc., Wallingford CT, 2016.
 
 ******************************************
 Gaussian 16:  ES64L-G16RevA.03 25-Dec-2016
                19-Sep-2019 
 ******************************************
 %chk=Ng-31_loop3_53.0.chk
 %nprocshared=48
 Will use up to   48 processors via shared memory.
 %mem=10GB
 %nosave
 ----------------------------------------------------------------------
 #b3lyp/svp scf=(tight,noincore) Test #IOP(5/87=12) Density=Current Pop
 =(MK,readradii) iop(6/33=2) iop(6/42=6)
 ----------------------------------------------------------------------
 1/30=1,38=1,172=1/1;
 2/12=2,17=6,18=5,40=1/2;
 3/5=18,7=101,11=2,25=1,30=1,74=-5/1,2,3;
 4//1;
 5/5=4,32=2,38=5,87=12/2;
 6/7=2,8=2,9=2,10=2,15=8,20=101,22=-1,28=1,33=2,42=6/1,2;
 99/5=1,9=1/99;
 ----------------
 Ng-31_loop3_53.0
 ----------------
 Symbolic Z-matrix:
 Charge =  0 Multiplicity = 1
 C                     94.75     73.44     17.25 
 C                     95.7      72.8      18.26 
 O                     95.3      72.16     19.23 
 H                     93.866    73.811    17.768 
 H                     95.253    74.269    16.752 
 H                     94.452    72.698    16.51 
 N                     96.98     73.17     18.19 
 C                     98.13     72.76     18.98 
 C                     98.15     73.31     20.4 
 O                     97.98     72.54     21.35 
 C                     99.39     73.12     18.19 
 C                     99.59     74.57     17.76 
 O                     98.64     75.37     17.85 
 O                     100.75    74.85     17.39 
 H                     97.11     73.94     17.56 
 H                     98.       71.68     19.02 
 H                     99.45     72.5      17.3 
 H                     100.18    72.96     18.93 
 N                     98.48     74.6      20.54 
 C                     98.73     75.23     21.82 
 C                     100.04    74.78     22.46 
 O                     101.02    74.64     21.74 
 C                     98.8      76.74     21.6 
 C                     97.48     77.4      21.2 
 C                     97.63     78.91     21.32 
 C                     96.3      79.62     21.05 
 N                     96.31     81.08     21.22 
 H                     98.53     75.14     19.69 
 H                     97.94     74.97     22.53 
 H                     99.56     76.94     20.85 
 H                     99.16     77.19     22.52 
 H                     96.73     77.09     21.92 
 H                     97.06     77.16     20.22 
 H                     98.38     79.23     20.6 
 H                     97.89     79.16     22.34 
 H                     95.49     79.16     21.61 
 H                     96.09     79.42     20. 
 H                     96.21     81.22     22.21 
 H                     97.15     81.48     20.84 
 H                     95.62     81.64     20.73 
 N                     100.12    74.43     23.75 
 C                     101.23    73.74     24.39 
 C                     101.33    72.3      23.92 
 O                     102.26    71.61     24.31 
 C                     100.99    73.83     25.89 
 C                     99.59     73.57     26.42 
 O                     99.45     72.66     27.27 
 O                     98.51     74.07     26.04 
 H                     99.32     74.68     24.31 
 H                     102.2     74.22     24.23 
 H                     101.16    74.88     26.13 
 H                     101.56    73.18     26.56 
 N                     100.44    71.77     23.08 
 C                     100.49    70.45     22.48 
 C                     101.21    70.37     21.14 
 O                     102.11    71.16     20.84 
 H                     99.72     72.36     22.68 
 H                     99.44     70.24     22.32 
 H                     100.89    69.74     23.21 
 N                     101.      69.35     20.3 
 C                     100.06    68.25     20.35 
 C                     99.29     68.29     19.04 
 O                     99.86     67.98     18. 
 C                     100.68    66.88     20.6 
 C                     101.35    66.66     21.95 
 N                     101.89    65.49     22.3 
 O                     101.48    67.6      22.74 
 H                     101.47    69.42     19.41 
 H                     99.28     68.38     21.1 
 H                     101.31    66.7      19.73 
 H                     99.89     66.15     20.45 
 H                     101.8     64.69     21.67 
 H                     102.34    65.41     23.2 
 N                     97.96     68.39     18.97 
 C                     97.05     69.01     19.92 
 C                     96.47     68.02     20.92 
 O                     96.19     68.37     22.06 
 H                     97.58     68.3      18.04 
 H                     96.23     69.47     19.36 
 H                     97.58     69.82     20.41 
 N                     96.24     66.78     20.5 
 C                     95.72     65.66     21.27 
 C                     96.63     65.3      22.44 
 O                     97.72     64.8      22.21 
 C                     95.29     64.47     20.42 
 C                     94.2      64.66     19.39 
 C                     93.22     65.65     19.49 
 C                     94.23     63.78     18.3 
 C                     92.16     65.68     18.58 
 C                     93.2      63.81     17.35 
 C                     92.19     64.79     17.49 
 O                     91.16     64.86     16.59 
 H                     96.39     66.68     19.51 
 H                     94.84     65.99     21.82 
 H                     94.92     63.7      21.1 
 H                     96.14     64.03     19.91 
 H                     93.36     66.38     20.28 
 H                     95.06     63.1      18.21 
 H                     91.37     66.41     18.63 
 H                     93.25     63.17     16.49 
 H                     91.29     64.23     15.88 
 N                     96.08     65.45     23.65 
 C                     96.62     64.98     24.91 
 C                     95.64     64.34     25.88 
 O                     96.1      63.62     26.76 
 C                     97.26     66.17     25.62 
 C                     98.43     66.86     24.92 
 C                     96.2      67.17     26.08 
 C                     99.29     67.78     25.78 
 H                     95.19     65.92     23.61 
 H                     97.37     64.2      24.77 
 H                     97.77     65.79     26.5 
 H                     98.11     67.44     24.05 
 H                     99.05     66.08     24.48 
 H                     95.6      66.84     26.92 
 H                     96.69     68.04     26.54 
 H                     95.49     67.42     25.3 
 H                     100.18    67.21     26.05 
 H                     99.69     68.63     25.23 
 H                     98.74     68.28     26.58 
 N                     94.32     64.49     25.74 
 C                     93.43     63.94     26.75 
 C                     92.28     64.88     27.06 
 O                     91.81     65.59     26.17 
 C                     92.86     62.62     26.24 
 O                     93.86     61.65     26.03 
 H                     93.93     65.06     25.01 
 H                     93.98     63.75     27.68 
 H                     92.19     62.72     25.38 
 H                     92.23     62.28     27.06 
 H                     94.32     61.73     25.19 
 N                     91.79     64.81     28.3 
 C                     90.64     65.59     28.69 
 C                     90.87     67.09     28.78 
 O                     91.99     67.6      28.81 
 C                     90.22     65.06     30.06 
 H                     92.18     64.13     28.93 
 H                     89.82     65.43     27.99 
 H                     89.21     65.42     30.28 
 H                     90.11     63.98     30.13 
 H                     90.97     65.27     30.83 
 N                     89.76     67.82     28.91 
 C                     89.65     69.26     29.02 
 C                     90.3      70.05     27.88 
 O                     90.69     71.2      28.07 
 C                     90.       69.53     30.48 
 H                     88.9      67.29     28.96 
 H                     88.6      69.52     28.92 
 H                     91.05     69.28     30.64 
 H                     89.83     70.57     30.77 
 H                     89.36     68.9      31.09 
 N                     90.38     69.48     26.68 
 C                     90.7      70.27     25.51 
 C                     89.55     70.41     24.52 
 O                     89.52     71.48     23.92 
 C                     91.93     69.6      24.88 
 C                     93.31     69.64     25.53 
 C                     93.83     70.99     26.01 
 O                     93.49     72.05     25.45 
 O                     94.64     71.03     26.97 
 H                     89.96     68.58     26.53 
 H                     91.01     71.3      25.7 
 H                     91.96     70.03     23.88 
 H                     91.79     68.53     24.76 
 H                     94.06     69.18     24.9 
 H                     93.1      68.93     26.33 
 N                     88.65     69.44     24.35 
 C                     87.69     69.45     23.27 
 H                     86.825    70.047    23.559 
 H                     88.148    69.881    22.38 
 H                     87.371    68.43     23.057 
 H                     88.67     68.65     24.97 
 Ca                    96.82     72.51     27.43 
 O                     97.24     70.       28.06 
 H                     96.45     69.49     28.18 
 H                     97.93     69.51     28.51 
 
 Stoichiometry    C54H83CaN15O23
 Framework group  C1[X(C54H83CaN15O23)]
 Deg. of freedom   522
 Full point group                 C1      NOp   1
 Largest Abelian subgroup         C1      NOp   1
 Largest concise Abelian subgroup C1      NOp   1
                         Standard orientation:                         
 ---------------------------------------------------------------------
 Center     Atomic      Atomic             Coordinates (Angstroms)
 Number     Number       Type             X           Y           Z
 ---------------------------------------------------------------------
      1          6           0        4.401547    0.630561    5.675742
      2          6           0        4.100629    0.769438    4.184983
      3          8           0        3.005042    0.490220    3.703084
      4          1           0        3.886867   -0.245413    6.069691
      5          1           0        5.475778    0.515694    5.820958
      6          1           0        4.056617    1.520564    6.200989
      7          7           0        5.147826    0.969830    3.382847
      8          6           0        5.217550    1.147553    1.941233
      9          6           0        4.966501   -0.119925    1.135147
     10          8           0        3.931759   -0.218789    0.468938
     11          6           0        6.564835    1.796163    1.616535
     12          6           0        7.839424    1.097966    2.080587
     13          8           0        7.759689    0.161364    2.897300
     14          8           0        8.887405    1.509516    1.539050
     15          1           0        6.016822    0.856604    3.871443
     16          1           0        4.403703    1.848077    1.762859
     17          1           0        6.582844    2.810137    2.005934
     18          1           0        6.606245    1.709060    0.526582
     19          7           0        5.960602   -1.016086    1.099662
     20          6           0        5.963120   -2.177942    0.234859
     21          6           0        6.168948   -1.826009   -1.235507
     22          8           0        6.984382   -0.957217   -1.515985
     23          6           0        7.106389   -3.092035    0.671632
     24          6           0        6.927880   -3.745816    2.042291
     25          6           0        7.968760   -4.845059    2.201150
     26          6           0        7.759914   -5.618508    3.506546
     27          7           0        8.661173   -6.759218    3.723601
     28          1           0        6.725971   -0.855207    1.736002
     29          1           0        5.000555   -2.693709    0.291894
     30          1           0        8.028726   -2.518571    0.648552
     31          1           0        7.214834   -3.865954   -0.081886
     32          1           0        5.951722   -4.219118    2.052294
     33          1           0        6.949487   -3.103622    2.926327
     34          1           0        8.951565   -4.378868    2.193435
     35          1           0        7.839809   -5.571735    1.410066
     36          1           0        6.718778   -5.905342    3.629277
     37          1           0        7.965472   -4.892331    4.292048
     38          1           0        8.255750   -7.507138    3.188860
     39          1           0        9.600786   -6.531789    3.449001
     40          1           0        8.835148   -7.079208    4.670775
     41          7           0        5.413302   -2.352928   -2.207288
     42          6           0        5.339242   -1.895940   -3.586953
     43          6           0        4.650292   -0.546831   -3.685710
     44          8           0        4.578599    0.006534   -4.772791
     45          6           0        4.590540   -2.971339   -4.360687
     46          6           0        3.340593   -3.575343   -3.743183
     47          8           0        2.275115   -3.502625   -4.398675
     48          8           0        3.191296   -4.049025   -2.596826
     49          1           0        4.850143   -3.141402   -1.929333
     50          1           0        6.312860   -1.819536   -4.080037
     51          1           0        5.284550   -3.811497   -4.399204
     52          1           0        4.204836   -2.738637   -5.357373
     53          7           0        4.134316    0.060334   -2.616262
     54          6           0        3.552602    1.388528   -2.567157
     55          6           0        4.525959    2.514831   -2.244021
     56          8           0        5.725503    2.434855   -2.524732
     57          1           0        4.270333   -0.346792   -1.698522
     58          1           0        2.851996    1.292824   -1.747283
     59          1           0        2.998150    1.570812   -3.492552
     60          7           0        4.093462    3.693588   -1.781875
     61          6           0        2.774466    4.136339   -1.381476
     62          6           0        2.917683    4.669748    0.034703
     63          8           0        3.515067    5.723870    0.220602
     64          6           0        2.126193    5.158621   -2.308019
     65          6           0        1.785438    4.695538   -3.718423
     66          7           0        1.177696    5.487163   -4.605542
     67          8           0        2.138752    3.578512   -4.108324
     68          1           0        4.816857    4.351393   -1.533095
     69          1           0        2.059454    3.321630   -1.268302
     70          1           0        2.770832    6.034281   -2.245886
     71          1           0        1.231958    5.511814   -1.802946
     72          1           0        0.870677    6.418269   -4.316094
     73          1           0        0.996847    5.132124   -5.532980
     74          7           0        2.214805    4.205752    1.071269
     75          6           0        1.658735    2.875568    1.262044
     76          6           0        0.208893    2.767540    0.811724
     77          8           0       -0.231665    1.717951    0.359208
     78          1           0        2.338055    4.723309    1.928208
     79          1           0        1.718999    2.627561    2.326216
     80          1           0        2.299160    2.168770    0.744943
     81          7           0       -0.567829    3.835049    0.966734
     82          6           0       -1.966151    3.982166    0.591563
     83          6           0       -2.175853    3.809311   -0.909352
     84          8           0       -1.750468    4.665550   -1.668894
     85          6           0       -2.639612    5.215850    1.181456
     86          6           0       -2.713214    5.363492    2.684082
     87          6           0       -2.689131    4.275709    3.559666
     88          6           0       -2.797541    6.676877    3.165028
     89          6           0       -2.904166    4.472369    4.926299
     90          6           0       -2.976814    6.908251    4.535658
     91          6           0       -2.995141    5.792865    5.404956
     92          8           0       -3.169961    5.964704    6.752438
     93          1           0       -0.105728    4.570929    1.474222
     94          1           0       -2.519845    3.116766    0.952542
     95          1           0       -3.675167    5.219238    0.835315
     96          1           0       -2.194800    6.124763    0.791303
     97          1           0       -2.469393    3.311308    3.114418
     98          1           0       -2.710250    7.488765    2.463161
     99          1           0       -2.916441    3.662918    5.636326
    100          1           0       -2.991400    7.914515    4.908379
    101          1           0       -3.196169    6.896842    6.972286
    102          7           0       -2.942824    2.769837   -1.256265
    103          6           0       -3.488144    2.497846   -2.571083
    104          6           0       -4.932753    2.028318   -2.630649
    105          8           0       -5.524157    2.144137   -3.698931
    106          6           0       -2.626330    1.420115   -3.223441
    107          6           0       -1.153689    1.748553   -3.465218
    108          6           0       -2.803126    0.075135   -2.519897
    109          6           0       -0.405375    0.841756   -4.436479
    110          1           0       -3.148259    2.168434   -0.474785
    111          1           0       -3.493329    3.385689   -3.205283
    112          1           0       -2.961637    1.310546   -4.250312
    113          1           0       -0.575528    1.772015   -2.537382
    114          1           0       -1.104282    2.780268   -3.810939
    115          1           0       -3.755443   -0.409337   -2.701223
    116          1           0       -2.133605   -0.668804   -2.974757
    117          1           0       -2.718859    0.149354   -1.441755
    118          1           0       -0.368242    1.371269   -5.389441
    119          1           0        0.643856    0.710490   -4.177860
    120          1           0       -0.758168   -0.191701   -4.438398
    121          7           0       -5.565386    1.575569   -1.544695
    122          6           0       -6.913720    1.046697   -1.675039
    123          6           0       -7.118147   -0.191880   -0.822784
    124          8           0       -6.534981   -0.297651    0.256952
    125          6           0       -7.908373    2.115495   -1.232619
    126          8           0       -7.858425    3.264012   -2.047122
    127          1           0       -5.097978    1.496128   -0.658626
    128          1           0       -7.120795    0.784044   -2.719851
    129          1           0       -7.864326    2.359253   -0.166250
    130          1           0       -8.876535    1.640726   -1.381467
    131          1           0       -7.156537    3.880336   -1.821074
    132          7           0       -8.008535   -1.073865   -1.283123
    133          6           0       -8.354738   -2.248397   -0.519174
    134          6           0       -7.259083   -3.295625   -0.401475
    135          8           0       -6.259380   -3.309472   -1.119667
    136          6           0       -9.566335   -2.861110   -1.219757
    137          1           0       -8.504789   -0.854020   -2.129763
    138          1           0       -8.644624   -1.968438    0.493540
    139          1           0      -10.032213   -3.585318   -0.544051
    140          1           0      -10.381430   -2.172675   -1.432076
    141          1           0       -9.316328   -3.243119   -2.215280
    142          7           0       -7.499341   -4.259816    0.489879
    143          6           0       -6.657024   -5.388372    0.828499
    144          6           0       -5.236022   -5.028098    1.272521
    145          8           0       -4.321014   -5.836097    1.129000
    146          6           0       -6.913326   -6.373316   -0.307808
    147          1           0       -8.391301   -4.196176    0.962488
    148          1           0       -7.071770   -5.855625    1.717184
    149          1           0       -6.518496   -5.950479   -1.232967
    150          1           0       -6.452699   -7.349013   -0.133342
    151          1           0       -7.987303   -6.514560   -0.380078
    152          7           0       -5.035493   -3.850372    1.859079
    153          6           0       -3.799790   -3.579725    2.562775
    154          6           0       -3.960444   -3.441083    4.071804
    155          8           0       -3.001593   -3.838808    4.726188
    156          6           0       -3.226068   -2.307948    1.920805
    157          6           0       -2.656827   -2.287731    0.505158
    158          6           0       -1.659038   -3.375617    0.125395
    159          8           0       -0.911090   -3.892820    0.977378
    160          8           0       -1.570049   -3.735177   -1.075479
    161          1           0       -5.820080   -3.254876    2.055822
    162          1           0       -3.012691   -4.328635    2.450041
    163          1           0       -2.479445   -1.982139    2.643440
    164          1           0       -3.968449   -1.518334    1.855372
    165          1           0       -2.232358   -1.322795    0.260771
    166          1           0       -3.609345   -2.349124   -0.021282
    167          7           0       -5.071553   -2.940870    4.614964
    168          6           0       -5.164442   -2.591475    6.014034
    169          1           0       -5.416072   -3.479552    6.593823
    170          1           0       -4.208300   -2.194335    6.354178
    171          1           0       -5.940126   -1.838329    6.150469
    172          1           0       -5.859152   -2.757985    4.019027
    173         20           0        0.521934   -4.358395   -2.621313
    174          8           0       -1.172724   -2.827287   -3.908651
    175          1           0       -2.040257   -2.798424   -3.527661
    176          1           0       -1.282458   -2.532208   -4.813962
 ---------------------------------------------------------------------
 Rotational constants (GHZ):           0.0183155           0.0116642           0.0102696
 Standard basis: SVP (5D, 7F)
 There are  1809 symmetry adapted cartesian basis functions of A   symmetry.
 There are  1717 symmetry adapted basis functions of A   symmetry.
  1717 basis functions,  2922 primitive gaussians,  1809 cartesian basis functions
   358 alpha electrons      358 beta electrons
       nuclear repulsion energy     19819.0986646887 Hartrees.
 NAtoms=  176 NActive=  176 NUniq=  176 SFac= 1.00D+00 NAtFMM=   60 NAOKFM=T Big=T
 Integral buffers will be    131072 words long.
 Raffenetti 2 integral format.
 Two-electron integral symmetry is turned on.
 One-electron integrals computed using PRISM.
 NBasis=  1717 RedAO= T EigKep=  3.16D-04  NBF=  1717
 NBsUse=  1717 1.00D-06 EigRej= -1.00D+00 NBFU=  1717
 ExpMin= 1.98D-02 ExpMax= 3.51D+04 ExpMxC= 5.28D+03 IAcc=3 IRadAn=         5 AccDes= 0.00D+00
 Harris functional with IExCor=  402 and IRadAn=       5 diagonalized for initial guess.
 HarFok:  IExCor=  402 AccDes= 0.00D+00 IRadAn=         5 IDoV= 1 UseB2=F ITyADJ=14
 ICtDFT=  3500011 ScaDFX=  1.000000  1.000000  1.000000  1.000000
 FoFCou: FMM=F IPFlag=           0 FMFlag=      100000 FMFlg1=        2001
         NFxFlg=           0 DoJE=T BraDBF=F KetDBF=T FulRan=T
         wScrn=  0.000000 ICntrl=       500 IOpCl=  0 I1Cent=   200000004 NGrid=           0
         NMat0=    1 NMatS0=      1 NMatT0=    0 NMatD0=    1 NMtDS0=    0 NMtDT0=    0
 Petite list used in FoFCou.
 Requested convergence on RMS density matrix=1.00D-08 within 128 cycles.
 Requested convergence on MAX density matrix=1.00D-06.
 Requested convergence on             energy=1.00D-06.
 No special actions if energy rises.
 EnCoef did     1 forward-backward iterations
 Restarting incremental Fock formation.
 SCF Done:  E(RB3LYP) =  -5333.36570377     A.U. after   25 cycles
            NFock= 25  Conv=0.10D-08     -V/T= 2.0081
 SCF density gives NOpUse=  1 NOpAll=  1.
 Hyperfine terms turned off by default for NAtoms > 100.

 **********************************************************************

            Population analysis using the SCF density.

 **********************************************************************

 Orbital symmetries:
 BldTbl:  Degeneracy threshold= 1.00D-02
       Occupied  (A) (A) (A) (A) (A) (A) (A) (A) (A) (A) (A) (A)
                 (A) (A) (A) (A) (A) (A) (A) (A) (A) (A) (A) (A)
                 (A) (A) (A) (A) (A) (A) (A) (A) (A) (A) (A) (A)
                 (A) (A) (A) (A) (A) (A) (A) (A) (A) (A) (A) (A)
                 (A) (A) (A) (A) (A) (A) (A) (A) (A) (A) (A) (A)
                 (A) (A) (A) (A) (A) (A) (A) (A) (A) (A) (A) (A)
                 (A) (A) (A) (A) (A) (A) (A) (A) (A) (A) (A) (A)
                 (A) (A) (A) (A) (A) (A) (A) (A) (A) (A) (A) (A)
                 (A) (A) (A) (A) (A) (A) (A) (A) (A) (A) (A) (A)
                 (A) (A) (A) (A) (A) (A) (A) (A) (A) (A) (A) (A)
                 (A) (A) (A) (A) (A) (A) (A) (A) (A) (A) (A) (A)
                 (A) (A) (A) (A) (A) (A) (A) (A) (A) (A) (A) (A)
                 (A) (A) (A) (A) (A) (A) (A) (A) (A) (A) (A) (A)
                 (A) (A) (A) (A) (A) (A) (A) (A) (A) (A) (A) (A)
                 (A) (A) (A) (A) (A) (A) (A) (A) (A) (A) (A) (A)
                 (A) (A) (A) (A) (A) (A) (A) (A) (A) (A) (A) (A)
                 (A) (A) (A) (A) (A) (A) (A) (A) (A) (A) (A) (A)
                 (A) (A) (A) (A) (A) (A) (A) (A) (A) (A) (A) (A)
                 (A) (A) (A) (A) (A) (A) (A) (A) (A) (A) (A) (A)
                 (A) (A) (A) (A) (A) (A) (A) (A) (A) (A) (A) (A)
                 (A) (A) (A) (A) (A) (A) (A) (A) (A) (A) (A) (A)
                 (A) (A) (A) (A) (A) (A) (A) (A) (A) (A) (A) (A)
                 (A) (A) (A) (A) (A) (A) (A) (A) (A) (A) (A) (A)
                 (A) (A) (A) (A) (A) (A) (A) (A) (A) (A) (A) (A)
                 (A) (A) (A) (A) (A) (A) (A) (A) (A) (A) (A) (A)
                 (A) (A) (A) (A) (A) (A) (A) (A) (A) (A) (A) (A)
                 (A) (A) (A) (A) (A) (A) (A) (A) (A) (A) (A) (A)
                 (A) (A) (A) (A) (A) (A) (A) (A) (A) (A) (A) (A)
                 (A) (A) (A) (A) (A) (A) (A) (A) (A) (A) (A) (A)
                 (A) (A) (A) (A) (A) (A) (A) (A) (A) (A)
       Virtual   (A) (A) (A) (A) (A) (A) (A) (A) (A) (A) (A) (A)
                 (A) (A) (A) (A) (A) (A) (A) (A) (A) (A) (A) (A)
                 (A) (A) (A) (A) (A) (A) (A) (A) (A) (A) (A) (A)
                 (A) (A) (A) (A) (A) (A) (A) (A) (A) (A) (A) (A)
                 (A) (A) (A) (A) (A) (A) (A) (A) (A) (A) (A) (A)
                 (A) (A) (A) (A) (A) (A) (A) (A) (A) (A) (A) (A)
                 (A) (A) (A) (A) (A) (A) (A) (A) (A) (A) (A) (A)
                 (A) (A) (A) (A) (A) (A) (A) (A) (A) (A) (A) (A)
                 (A) (A) (A) (A) (A) (A) (A) (A) (A) (A) (A) (A)
                 (A) (A) (A) (A) (A) (A) (A) (A) (A) (A) (A) (A)
                 (A) (A) (A) (A) (A) (A) (A) (A) (A) (A) (A) (A)
                 (A) (A) (A) (A) (A) (A) (A) (A) (A) (A) (A) (A)
                 (A) (A) (A) (A) (A) (A) (A) (A) (A) (A) (A) (A)
                 (A) (A) (A) (A) (A) (A) (A) (A) (A) (A) (A) (A)
                 (A) (A) (A) (A) (A) (A) (A) (A) (A) (A) (A) (A)
                 (A) (A) (A) (A) (A) (A) (A) (A) (A) (A) (A) (A)
                 (A) (A) (A) (A) (A) (A) (A) (A) (A) (A) (A) (A)
                 (A) (A) (A) (A) (A) (A) (A) (A) (A) (A) (A) (A)
                 (A) (A) (A) (A) (A) (A) (A) (A) (A) (A) (A) (A)
                 (A) (A) (A) (A) (A) (A) (A) (A) (A) (A) (A) (A)
                 (A) (A) (A) (A) (A) (A) (A) (A) (A) (A) (A) (A)
                 (A) (A) (A) (A) (A) (A) (A) (A) (A) (A) (A) (A)
                 (A) (A) (A) (A) (A) (A) (A) (A) (A) (A) (A) (A)
                 (A) (A) (A) (A) (A) (A) (A) (A) (A) (A) (A) (A)
                 (A) (A) (A) (A) (A) (A) (A) (A) (A) (A) (A) (A)
                 (A) (A) (A) (A) (A) (A) (A) (A) (A) (A) (A) (A)
                 (A) (A) (A) (A) (A) (A) (A) (A) (A) (A) (A) (A)
                 (A) (A) (A) (A) (A) (A) (A) (A) (A) (A) (A) (A)
                 (A) (A) (A) (A) (A) (A) (A) (A) (A) (A) (A) (A)
                 (A) (A) (A) (A) (A) (A) (A) (A) (A) (A) (A) (A)
                 (A) (A) (A) (A) (A) (A) (A) (A) (A) (A) (A) (A)
                 (A) (A) (A) (A) (A) (A) (A) (A) (A) (A) (A) (A)
                 (A) (A) (A) (A) (A) (A) (A) (A) (A) (A) (A) (A)
                 (A) (A) (A) (A) (A) (A) (A) (A) (A) (A) (A) (A)
                 (A) (A) (A) (A) (A) (A) (A) (A) (A) (A) (A) (A)
                 (A) (A) (A) (A) (A) (A) (A) (A) (A) (A) (A) (A)
                 (A) (A) (A) (A) (A) (A) (A) (A) (A) (A) (A) (A)
                 (A) (A) (A) (A) (A) (A) (A) (A) (A) (A) (A) (A)
                 (A) (A) (A) (A) (A) (A) (A) (A) (A) (A) (A) (A)
                 (A) (A) (A) (A) (A) (A) (A) (A) (A) (A) (A) (A)
                 (A) (A) (A) (A) (A) (A) (A) (A) (A) (A) (A) (A)
                 (A) (A) (A) (A) (A) (A) (A) (A) (A) (A) (A) (A)
                 (A) (A) (A) (A) (A) (A) (A) (A) (A) (A) (A) (A)
                 (A) (A) (A) (A) (A) (A) (A) (A) (A) (A) (A) (A)
                 (A) (A) (A) (A) (A) (A) (A) (A) (A) (A) (A) (A)
                 (A) (A) (A) (A) (A) (A) (A) (A) (A) (A) (A) (A)
                 (A) (A) (A) (A) (A) (A) (A) (A) (A) (A) (A) (A)
                 (A) (A) (A) (A) (A) (A) (A) (A) (A) (A) (A) (A)
                 (A) (A) (A) (A) (A) (A) (A) (A) (A) (A) (A) (A)
                 (A) (A) (A) (A) (A) (A) (A) (A) (A) (A) (A) (A)
                 (A) (A) (A) (A) (A) (A) (A) (A) (A) (A) (A) (A)
                 (A) (A) (A) (A) (A) (A) (A) (A) (A) (A) (A) (A)
                 (A) (A) (A) (A) (A) (A) (A) (A) (A) (A) (A) (A)
                 (A) (A) (A) (A) (A) (A) (A) (A) (A) (A) (A) (A)
                 (A) (A) (A) (A) (A) (A) (A) (A) (A) (A) (A) (A)
                 (A) (A) (A) (A) (A) (A) (A) (A) (A) (A) (A) (A)
                 (A) (A) (A) (A) (A) (A) (A) (A) (A) (A) (A) (A)
                 (A) (A) (A) (A) (A) (A) (A) (A) (A) (A) (A) (A)
                 (A) (A) (A) (A) (A) (A) (A) (A) (A) (A) (A) (A)
                 (A) (A) (A) (A) (A) (A) (A) (A) (A) (A) (A) (A)
                 (A) (A) (A) (A) (A) (A) (A) (A) (A) (A) (A) (A)
                 (A) (A) (A) (A) (A) (A) (A) (A) (A) (A) (A) (A)
                 (A) (A) (A) (A) (A) (A) (A) (A) (A) (A) (A) (A)
                 (A) (A) (A) (A) (A) (A) (A) (A) (A) (A) (A) (A)
                 (A) (A) (A) (A) (A) (A) (A) (A) (A) (A) (A) (A)
                 (A) (A) (A) (A) (A) (A) (A) (A) (A) (A) (A) (A)
                 (A) (A) (A) (A) (A) (A) (A) (A) (A) (A) (A) (A)
                 (A) (A) (A) (A) (A) (A) (A) (A) (A) (A) (A) (A)
                 (A) (A) (A) (A) (A) (A) (A) (A) (A) (A) (A) (A)
                 (A) (A) (A) (A) (A) (A) (A) (A) (A) (A) (A) (A)
                 (A) (A) (A) (A) (A) (A) (A) (A) (A) (A) (A) (A)
                 (A) (A) (A) (A) (A) (A) (A) (A) (A) (A) (A) (A)
                 (A) (A) (A) (A) (A) (A) (A) (A) (A) (A) (A) (A)
                 (A) (A) (A) (A) (A) (A) (A) (A) (A) (A) (A) (A)
                 (A) (A) (A) (A) (A) (A) (A) (A) (A) (A) (A) (A)
                 (A) (A) (A) (A) (A) (A) (A) (A) (A) (A) (A) (A)
                 (A) (A) (A) (A) (A) (A) (A) (A) (A) (A) (A) (A)
                 (A) (A) (A) (A) (A) (A) (A) (A) (A) (A) (A) (A)
                 (A) (A) (A) (A) (A) (A) (A) (A) (A) (A) (A) (A)
                 (A) (A) (A) (A) (A) (A) (A) (A) (A) (A) (A) (A)
                 (A) (A) (A) (A) (A) (A) (A) (A) (A) (A) (A) (A)
                 (A) (A) (A) (A) (A) (A) (A) (A) (A) (A) (A) (A)
                 (A) (A) (A) (A) (A) (A) (A) (A) (A) (A) (A) (A)
                 (A) (A) (A) (A) (A) (A) (A) (A) (A) (A) (A) (A)
                 (A) (A) (A) (A) (A) (A) (A) (A) (A) (A) (A) (A)
                 (A) (A) (A) (A) (A) (A) (A) (A) (A) (A) (A) (A)
                 (A) (A) (A) (A) (A) (A) (A) (A) (A) (A) (A) (A)
                 (A) (A) (A) (A) (A) (A) (A) (A) (A) (A) (A) (A)
                 (A) (A) (A) (A) (A) (A) (A) (A) (A) (A) (A) (A)
                 (A) (A) (A) (A) (A) (A) (A) (A) (A) (A) (A) (A)
                 (A) (A) (A) (A) (A) (A) (A) (A) (A) (A) (A) (A)
                 (A) (A) (A) (A) (A) (A) (A) (A) (A) (A) (A) (A)
                 (A) (A) (A) (A) (A) (A) (A) (A) (A) (A) (A) (A)
                 (A) (A) (A) (A) (A) (A) (A) (A) (A) (A) (A) (A)
                 (A) (A) (A) (A) (A) (A) (A) (A) (A) (A) (A) (A)
                 (A) (A) (A) (A) (A) (A) (A) (A) (A) (A) (A) (A)
                 (A) (A) (A) (A) (A) (A) (A) (A) (A) (A) (A) (A)
                 (A) (A) (A) (A) (A) (A) (A) (A) (A) (A) (A) (A)
                 (A) (A) (A) (A) (A) (A) (A) (A) (A) (A) (A) (A)
                 (A) (A) (A) (A) (A) (A) (A) (A) (A) (A) (A) (A)
                 (A) (A) (A) (A) (A) (A) (A) (A) (A) (A) (A) (A)
                 (A) (A) (A) (A) (A) (A) (A) (A) (A) (A) (A) (A)
                 (A) (A) (A) (A) (A) (A) (A) (A) (A) (A) (A) (A)
                 (A) (A) (A) (A) (A) (A) (A) (A) (A) (A) (A) (A)
                 (A) (A) (A) (A) (A) (A) (A) (A) (A) (A) (A) (A)
                 (A) (A) (A) (A) (A) (A) (A) (A) (A) (A) (A) (A)
                 (A) (A) (A) (A) (A) (A) (A) (A) (A) (A) (A) (A)
                 (A) (A) (A) (A) (A) (A) (A) (A) (A) (A) (A) (A)
                 (A) (A) (A) (A) (A) (A) (A) (A) (A) (A) (A) (A)
                 (A) (A) (A) (A) (A) (A) (A) (A) (A) (A) (A) (A)
                 (A) (A) (A) (A) (A) (A) (A) (A) (A) (A) (A) (A)
                 (A) (A) (A) (A) (A) (A) (A) (A) (A) (A) (A) (A)
                 (A) (A) (A) (A) (A) (A) (A) (A) (A) (A) (A) (A)
                 (A) (A) (A)
 The electronic state is 1-A.
 Alpha  occ. eigenvalues -- -145.46273 -19.18863 -19.15989 -19.13150 -19.11836
 Alpha  occ. eigenvalues --  -19.10676 -19.08899 -19.08803 -19.08325 -19.07781
 Alpha  occ. eigenvalues --  -19.07659 -19.07112 -19.07109 -19.06949 -19.06313
 Alpha  occ. eigenvalues --  -19.05523 -19.04795 -19.04480 -19.03276 -19.02763
 Alpha  occ. eigenvalues --  -19.02615 -19.01535 -18.98459 -18.95851 -15.52178
 Alpha  occ. eigenvalues --  -14.58901 -14.38079 -14.37308 -14.36003 -14.35494
 Alpha  occ. eigenvalues --  -14.34827 -14.34557 -14.34167 -14.33761 -14.33050
 Alpha  occ. eigenvalues --  -14.31265 -14.30344 -14.30008 -14.28622 -14.28333
 Alpha  occ. eigenvalues --  -12.65816 -12.65758 -12.65665 -10.34262 -10.30000
 Alpha  occ. eigenvalues --  -10.29652 -10.28026 -10.27510 -10.27147 -10.26683
 Alpha  occ. eigenvalues --  -10.26633 -10.26425 -10.26239 -10.26159 -10.26036
 Alpha  occ. eigenvalues --  -10.25833 -10.25149 -10.24604 -10.24323 -10.23804
 Alpha  occ. eigenvalues --  -10.23773 -10.23417 -10.23304 -10.22572 -10.22414
 Alpha  occ. eigenvalues --  -10.22413 -10.22245 -10.22204 -10.22048 -10.21944
 Alpha  occ. eigenvalues --  -10.21752 -10.21070 -10.21029 -10.20628 -10.20586
 Alpha  occ. eigenvalues --  -10.19857 -10.19600 -10.19597 -10.19273 -10.19237
 Alpha  occ. eigenvalues --  -10.19183 -10.19082 -10.18774 -10.18340 -10.17415
 Alpha  occ. eigenvalues --  -10.17394 -10.17162 -10.17004 -10.16828 -10.16528
 Alpha  occ. eigenvalues --  -10.15893 -10.15535 -10.14848 -10.14674 -10.14512
 Alpha  occ. eigenvalues --  -10.14000 -10.10459  -1.88675  -1.16396  -1.16023
 Alpha  occ. eigenvalues --   -1.15290  -1.14179  -1.04960  -1.04796  -1.04608
 Alpha  occ. eigenvalues --   -1.03591  -1.03498  -1.02781  -1.02159  -1.01281
 Alpha  occ. eigenvalues --   -1.01117  -1.00937  -1.00670  -1.00150  -0.99384
 Alpha  occ. eigenvalues --   -0.98991  -0.97615  -0.97407  -0.96580  -0.96280
 Alpha  occ. eigenvalues --   -0.95796  -0.94919  -0.94093  -0.92854  -0.92212
 Alpha  occ. eigenvalues --   -0.91729  -0.91466  -0.91401  -0.91324  -0.90209
 Alpha  occ. eigenvalues --   -0.89669  -0.88685  -0.88278  -0.87581  -0.87154
 Alpha  occ. eigenvalues --   -0.86873  -0.86784  -0.85621  -0.85046  -0.84683
 Alpha  occ. eigenvalues --   -0.82248  -0.81689  -0.80515  -0.80252  -0.78490
 Alpha  occ. eigenvalues --   -0.77845  -0.76318  -0.76040  -0.75454  -0.75163
 Alpha  occ. eigenvalues --   -0.74900  -0.74653  -0.73982  -0.73843  -0.72222
 Alpha  occ. eigenvalues --   -0.71977  -0.71353  -0.71294  -0.70082  -0.68775
 Alpha  occ. eigenvalues --   -0.68606  -0.68294  -0.68029  -0.67717  -0.66682
 Alpha  occ. eigenvalues --   -0.66261  -0.66162  -0.65546  -0.64699  -0.63860
 Alpha  occ. eigenvalues --   -0.62695  -0.62432  -0.62112  -0.61088  -0.60917
 Alpha  occ. eigenvalues --   -0.60287  -0.59892  -0.59291  -0.59019  -0.58930
 Alpha  occ. eigenvalues --   -0.58765  -0.58075  -0.57957  -0.57680  -0.57611
 Alpha  occ. eigenvalues --   -0.57325  -0.56805  -0.56770  -0.56416  -0.55961
 Alpha  occ. eigenvalues --   -0.55101  -0.54704  -0.54643  -0.54369  -0.54014
 Alpha  occ. eigenvalues --   -0.53398  -0.52601  -0.52490  -0.52430  -0.52340
 Alpha  occ. eigenvalues --   -0.51750  -0.51568  -0.50965  -0.50657  -0.50155
 Alpha  occ. eigenvalues --   -0.49968  -0.49842  -0.49743  -0.49314  -0.49011
 Alpha  occ. eigenvalues --   -0.48442  -0.48368  -0.48339  -0.47508  -0.47303
 Alpha  occ. eigenvalues --   -0.47211  -0.47190  -0.47040  -0.46786  -0.46512
 Alpha  occ. eigenvalues --   -0.46295  -0.46063  -0.45699  -0.45595  -0.45583
 Alpha  occ. eigenvalues --   -0.45357  -0.44964  -0.44425  -0.44395  -0.44052
 Alpha  occ. eigenvalues --   -0.43763  -0.43633  -0.43531  -0.43471  -0.43159
 Alpha  occ. eigenvalues --   -0.43083  -0.43002  -0.42840  -0.42820  -0.42633
 Alpha  occ. eigenvalues --   -0.42395  -0.42345  -0.42202  -0.42137  -0.42074
 Alpha  occ. eigenvalues --   -0.41855  -0.41762  -0.41362  -0.41342  -0.41045
 Alpha  occ. eigenvalues --   -0.40996  -0.40751  -0.40587  -0.40579  -0.40500
 Alpha  occ. eigenvalues --   -0.40488  -0.40244  -0.40054  -0.40021  -0.39920
 Alpha  occ. eigenvalues --   -0.39768  -0.39522  -0.39328  -0.39182  -0.38962
 Alpha  occ. eigenvalues --   -0.38913  -0.38546  -0.38391  -0.38318  -0.38197
 Alpha  occ. eigenvalues --   -0.38086  -0.38035  -0.37706  -0.37634  -0.37514
 Alpha  occ. eigenvalues --   -0.37024  -0.36956  -0.36862  -0.36834  -0.36775
 Alpha  occ. eigenvalues --   -0.36744  -0.36508  -0.36397  -0.36175  -0.35693
 Alpha  occ. eigenvalues --   -0.35665  -0.35591  -0.35571  -0.35457  -0.35277
 Alpha  occ. eigenvalues --   -0.35196  -0.35030  -0.34919  -0.34620  -0.34229
 Alpha  occ. eigenvalues --   -0.34073  -0.33982  -0.33766  -0.33664  -0.33256
 Alpha  occ. eigenvalues --   -0.33084  -0.33064  -0.32931  -0.32894  -0.32629
 Alpha  occ. eigenvalues --   -0.32393  -0.32161  -0.31793  -0.31641  -0.31416
 Alpha  occ. eigenvalues --   -0.30748  -0.30706  -0.30460  -0.30283  -0.29435
 Alpha  occ. eigenvalues --   -0.29150  -0.28755  -0.28552  -0.28079  -0.28009
 Alpha  occ. eigenvalues --   -0.27652  -0.27181  -0.26934  -0.26674  -0.26387
 Alpha  occ. eigenvalues --   -0.26144  -0.25951  -0.25753  -0.25645  -0.25188
 Alpha  occ. eigenvalues --   -0.25052  -0.24495  -0.24354  -0.24116  -0.23577
 Alpha  occ. eigenvalues --   -0.23466  -0.23420  -0.23183  -0.22674  -0.22490
 Alpha  occ. eigenvalues --   -0.22382  -0.22117  -0.21953  -0.21855  -0.21665
 Alpha  occ. eigenvalues --   -0.21515  -0.20570  -0.20343  -0.20245  -0.19762
 Alpha  occ. eigenvalues --   -0.19643  -0.18744  -0.18372  -0.17726  -0.17367
 Alpha  occ. eigenvalues --   -0.15155  -0.14802  -0.12310
 Alpha virt. eigenvalues --   -0.10927  -0.07463  -0.05041  -0.04331  -0.01786
 Alpha virt. eigenvalues --   -0.00493  -0.00138   0.00007   0.00215   0.00815
 Alpha virt. eigenvalues --    0.01291   0.01961   0.02194   0.02370   0.02540
 Alpha virt. eigenvalues --    0.02665   0.02977   0.02979   0.03363   0.03425
 Alpha virt. eigenvalues --    0.03722   0.04142   0.04350   0.04539   0.04789
 Alpha virt. eigenvalues --    0.05065   0.05080   0.05631   0.05722   0.06094
 Alpha virt. eigenvalues --    0.06309   0.06752   0.06874   0.07055   0.07242
 Alpha virt. eigenvalues --    0.07568   0.07660   0.07760   0.08101   0.08158
 Alpha virt. eigenvalues --    0.08409   0.08512   0.08708   0.08774   0.08988
 Alpha virt. eigenvalues --    0.09208   0.09400   0.09797   0.10025   0.10111
 Alpha virt. eigenvalues --    0.10208   0.10385   0.10413   0.10890   0.10952
 Alpha virt. eigenvalues --    0.11253   0.11350   0.11747   0.12023   0.12207
 Alpha virt. eigenvalues --    0.12378   0.12398   0.12485   0.12638   0.12719
 Alpha virt. eigenvalues --    0.12844   0.12913   0.13257   0.13502   0.13591
 Alpha virt. eigenvalues --    0.13813   0.13898   0.13936   0.14304   0.14466
 Alpha virt. eigenvalues --    0.14774   0.14868   0.14998   0.15146   0.15373
 Alpha virt. eigenvalues --    0.15612   0.15678   0.15831   0.15984   0.16103
 Alpha virt. eigenvalues --    0.16203   0.16287   0.16372   0.16698   0.16939
 Alpha virt. eigenvalues --    0.16968   0.17112   0.17226   0.17484   0.17669
 Alpha virt. eigenvalues --    0.17983   0.18068   0.18341   0.18451   0.18595
 Alpha virt. eigenvalues --    0.18962   0.19248   0.19333   0.19656   0.19705
 Alpha virt. eigenvalues --    0.20033   0.20164   0.20551   0.20764   0.20965
 Alpha virt. eigenvalues --    0.21197   0.21572   0.21752   0.21937   0.22128
 Alpha virt. eigenvalues --    0.22174   0.22379   0.22827   0.23032   0.23250
 Alpha virt. eigenvalues --    0.23461   0.23656   0.23851   0.23957   0.24198
 Alpha virt. eigenvalues --    0.24315   0.24462   0.24641   0.24967   0.25118
 Alpha virt. eigenvalues --    0.25384   0.25486   0.25579   0.25989   0.26294
 Alpha virt. eigenvalues --    0.26498   0.26559   0.26705   0.26778   0.26995
 Alpha virt. eigenvalues --    0.27134   0.27291   0.27519   0.27703   0.28175
 Alpha virt. eigenvalues --    0.28430   0.28550   0.29023   0.29289   0.29488
 Alpha virt. eigenvalues --    0.29664   0.30077   0.30325   0.30404   0.30555
 Alpha virt. eigenvalues --    0.30646   0.31222   0.31700   0.31976   0.32156
 Alpha virt. eigenvalues --    0.32165   0.32583   0.32634   0.32697   0.32787
 Alpha virt. eigenvalues --    0.33031   0.33289   0.33638   0.33854   0.34064
 Alpha virt. eigenvalues --    0.34278   0.34833   0.35033   0.35588   0.36137
 Alpha virt. eigenvalues --    0.36433   0.36614   0.36737   0.36783   0.36871
 Alpha virt. eigenvalues --    0.37177   0.37328   0.37530   0.37925   0.38592
 Alpha virt. eigenvalues --    0.39023   0.39208   0.39546   0.39671   0.39896
 Alpha virt. eigenvalues --    0.40048   0.40487   0.40936   0.41159   0.41359
 Alpha virt. eigenvalues --    0.41622   0.41848   0.41994   0.42197   0.42552
 Alpha virt. eigenvalues --    0.42681   0.42805   0.43121   0.43284   0.43405
 Alpha virt. eigenvalues --    0.43965   0.44129   0.44491   0.44666   0.44764
 Alpha virt. eigenvalues --    0.44925   0.44958   0.45140   0.45347   0.45750
 Alpha virt. eigenvalues --    0.45823   0.46094   0.46497   0.46672   0.46751
 Alpha virt. eigenvalues --    0.46843   0.46930   0.47244   0.47342   0.47778
 Alpha virt. eigenvalues --    0.47820   0.47957   0.48024   0.48500   0.48624
 Alpha virt. eigenvalues --    0.48746   0.49016   0.49205   0.49300   0.49434
 Alpha virt. eigenvalues --    0.49703   0.49866   0.50325   0.50552   0.50697
 Alpha virt. eigenvalues --    0.51156   0.51198   0.51545   0.51609   0.51778
 Alpha virt. eigenvalues --    0.52032   0.52470   0.52507   0.52708   0.52921
 Alpha virt. eigenvalues --    0.53269   0.53318   0.53731   0.53794   0.54078
 Alpha virt. eigenvalues --    0.54280   0.54417   0.54598   0.54725   0.54884
 Alpha virt. eigenvalues --    0.54998   0.55128   0.55480   0.55620   0.55729
 Alpha virt. eigenvalues --    0.55968   0.56065   0.56310   0.56420   0.56533
 Alpha virt. eigenvalues --    0.56701   0.57016   0.57142   0.57184   0.57482
 Alpha virt. eigenvalues --    0.57547   0.58111   0.58218   0.58381   0.58652
 Alpha virt. eigenvalues --    0.58729   0.59176   0.59290   0.59455   0.59873
 Alpha virt. eigenvalues --    0.59938   0.59997   0.60109   0.60200   0.60519
 Alpha virt. eigenvalues --    0.60584   0.60895   0.60918   0.61045   0.61102
 Alpha virt. eigenvalues --    0.61195   0.61294   0.61573   0.61828   0.61861
 Alpha virt. eigenvalues --    0.61935   0.62205   0.62295   0.62426   0.62486
 Alpha virt. eigenvalues --    0.62695   0.62815   0.62974   0.63006   0.63166
 Alpha virt. eigenvalues --    0.63248   0.63369   0.63468   0.63650   0.63687
 Alpha virt. eigenvalues --    0.63788   0.63955   0.64195   0.64225   0.64339
 Alpha virt. eigenvalues --    0.64582   0.64715   0.64749   0.64876   0.64916
 Alpha virt. eigenvalues --    0.64996   0.65071   0.65288   0.65385   0.65437
 Alpha virt. eigenvalues --    0.65539   0.65660   0.65767   0.65867   0.65930
 Alpha virt. eigenvalues --    0.66098   0.66227   0.66321   0.66411   0.66473
 Alpha virt. eigenvalues --    0.66754   0.66783   0.66904   0.66949   0.67083
 Alpha virt. eigenvalues --    0.67287   0.67336   0.67425   0.67451   0.67557
 Alpha virt. eigenvalues --    0.67638   0.67814   0.67925   0.68069   0.68208
 Alpha virt. eigenvalues --    0.68354   0.68476   0.68634   0.68773   0.68793
 Alpha virt. eigenvalues --    0.68881   0.68990   0.69161   0.69270   0.69338
 Alpha virt. eigenvalues --    0.69446   0.69572   0.69620   0.69660   0.69751
 Alpha virt. eigenvalues --    0.69989   0.70087   0.70270   0.70301   0.70481
 Alpha virt. eigenvalues --    0.70597   0.70741   0.71035   0.71131   0.71278
 Alpha virt. eigenvalues --    0.71387   0.71561   0.71715   0.71787   0.71911
 Alpha virt. eigenvalues --    0.72163   0.72274   0.72443   0.72544   0.72634
 Alpha virt. eigenvalues --    0.72741   0.72862   0.73029   0.73225   0.73380
 Alpha virt. eigenvalues --    0.73477   0.73736   0.73786   0.74015   0.74084
 Alpha virt. eigenvalues --    0.74355   0.74439   0.74646   0.74740   0.74972
 Alpha virt. eigenvalues --    0.75036   0.75556   0.75631   0.75856   0.75946
 Alpha virt. eigenvalues --    0.76047   0.76451   0.76531   0.76691   0.76924
 Alpha virt. eigenvalues --    0.77019   0.77254   0.77335   0.77670   0.77747
 Alpha virt. eigenvalues --    0.78092   0.78161   0.78330   0.78490   0.78828
 Alpha virt. eigenvalues --    0.79153   0.79251   0.79340   0.79673   0.79950
 Alpha virt. eigenvalues --    0.80247   0.80628   0.80840   0.81216   0.81481
 Alpha virt. eigenvalues --    0.81590   0.81829   0.81953   0.82053   0.82292
 Alpha virt. eigenvalues --    0.82630   0.83017   0.83069   0.83351   0.83653
 Alpha virt. eigenvalues --    0.83891   0.84131   0.84231   0.84699   0.85252
 Alpha virt. eigenvalues --    0.85488   0.85795   0.86046   0.86199   0.86419
 Alpha virt. eigenvalues --    0.86837   0.86959   0.87087   0.87270   0.87588
 Alpha virt. eigenvalues --    0.87766   0.88047   0.88399   0.88706   0.89075
 Alpha virt. eigenvalues --    0.89327   0.89702   0.89856   0.90297   0.90562
 Alpha virt. eigenvalues --    0.90865   0.91350   0.91490   0.91737   0.92050
 Alpha virt. eigenvalues --    0.92477   0.92761   0.92953   0.93255   0.93848
 Alpha virt. eigenvalues --    0.94420   0.94541   0.94580   0.94879   0.95112
 Alpha virt. eigenvalues --    0.95396   0.95687   0.95922   0.96158   0.96595
 Alpha virt. eigenvalues --    0.96880   0.96987   0.97432   0.97559   0.97692
 Alpha virt. eigenvalues --    0.97999   0.98084   0.98535   0.98852   0.98890
 Alpha virt. eigenvalues --    0.99560   0.99729   0.99847   0.99971   1.00663
 Alpha virt. eigenvalues --    1.00704   1.01106   1.01488   1.01607   1.01948
 Alpha virt. eigenvalues --    1.02255   1.02366   1.02809   1.03147   1.03309
 Alpha virt. eigenvalues --    1.03537   1.03877   1.04271   1.04612   1.04915
 Alpha virt. eigenvalues --    1.04953   1.05430   1.05835   1.06125   1.06201
 Alpha virt. eigenvalues --    1.06463   1.06558   1.06873   1.07271   1.07511
 Alpha virt. eigenvalues --    1.07834   1.08067   1.08580   1.08933   1.09128
 Alpha virt. eigenvalues --    1.09374   1.09463   1.10030   1.10111   1.10171
 Alpha virt. eigenvalues --    1.10930   1.11131   1.11303   1.11575   1.11884
 Alpha virt. eigenvalues --    1.11972   1.12049   1.12786   1.13136   1.13795
 Alpha virt. eigenvalues --    1.13973   1.14106   1.14209   1.14390   1.14759
 Alpha virt. eigenvalues --    1.14978   1.15451   1.15796   1.15970   1.16148
 Alpha virt. eigenvalues --    1.16237   1.16402   1.16568   1.17014   1.17222
 Alpha virt. eigenvalues --    1.17352   1.17687   1.17970   1.18348   1.18481
 Alpha virt. eigenvalues --    1.18544   1.19066   1.19470   1.19681   1.19773
 Alpha virt. eigenvalues --    1.20099   1.20386   1.20954   1.20989   1.21164
 Alpha virt. eigenvalues --    1.21173   1.21323   1.22083   1.22440   1.22510
 Alpha virt. eigenvalues --    1.22823   1.22930   1.23259   1.23565   1.23733
 Alpha virt. eigenvalues --    1.24092   1.24131   1.24349   1.24478   1.24729
 Alpha virt. eigenvalues --    1.24808   1.25074   1.25322   1.25471   1.25669
 Alpha virt. eigenvalues --    1.25801   1.25961   1.26221   1.26752   1.26851
 Alpha virt. eigenvalues --    1.27067   1.27485   1.27508   1.27795   1.28437
 Alpha virt. eigenvalues --    1.28920   1.29114   1.29248   1.29489   1.29758
 Alpha virt. eigenvalues --    1.30176   1.30441   1.30565   1.30880   1.31126
 Alpha virt. eigenvalues --    1.31565   1.31763   1.32004   1.32095   1.32393
 Alpha virt. eigenvalues --    1.32662   1.33094   1.33603   1.33854   1.34140
 Alpha virt. eigenvalues --    1.34436   1.34630   1.34753   1.35161   1.35426
 Alpha virt. eigenvalues --    1.35706   1.36139   1.36303   1.36493   1.36802
 Alpha virt. eigenvalues --    1.37430   1.38216   1.38234   1.38354   1.38704
 Alpha virt. eigenvalues --    1.38743   1.38860   1.39384   1.39492   1.39678
 Alpha virt. eigenvalues --    1.40255   1.40765   1.41056   1.41066   1.41566
 Alpha virt. eigenvalues --    1.41865   1.41946   1.42449   1.42680   1.42958
 Alpha virt. eigenvalues --    1.42980   1.43266   1.43393   1.44327   1.44463
 Alpha virt. eigenvalues --    1.44607   1.45084   1.45720   1.45827   1.45918
 Alpha virt. eigenvalues --    1.46473   1.46864   1.47154   1.47335   1.47678
 Alpha virt. eigenvalues --    1.47934   1.48275   1.48556   1.48963   1.49216
 Alpha virt. eigenvalues --    1.49505   1.49885   1.50654   1.50814   1.50874
 Alpha virt. eigenvalues --    1.51404   1.51804   1.52149   1.52263   1.52714
 Alpha virt. eigenvalues --    1.52979   1.53096   1.53519   1.53714   1.53951
 Alpha virt. eigenvalues --    1.54233   1.54460   1.54679   1.54861   1.55106
 Alpha virt. eigenvalues --    1.55217   1.55598   1.55657   1.56239   1.56307
 Alpha virt. eigenvalues --    1.56335   1.56757   1.57199   1.57783   1.58042
 Alpha virt. eigenvalues --    1.58343   1.58638   1.59936   1.59950   1.60595
 Alpha virt. eigenvalues --    1.61269   1.61468   1.61566   1.61681   1.62179
 Alpha virt. eigenvalues --    1.62535   1.63088   1.63205   1.63280   1.63710
 Alpha virt. eigenvalues --    1.63811   1.64149   1.64414   1.64774   1.64819
 Alpha virt. eigenvalues --    1.65489   1.65988   1.66294   1.66614   1.66650
 Alpha virt. eigenvalues --    1.66805   1.66859   1.67321   1.67612   1.67916
 Alpha virt. eigenvalues --    1.68141   1.68409   1.69041   1.69455   1.69760
 Alpha virt. eigenvalues --    1.69795   1.70398   1.70629   1.70664   1.71024
 Alpha virt. eigenvalues --    1.71382   1.71470   1.71516   1.71689   1.72052
 Alpha virt. eigenvalues --    1.72091   1.72406   1.72773   1.72897   1.73091
 Alpha virt. eigenvalues --    1.73132   1.73318   1.73471   1.73622   1.73721
 Alpha virt. eigenvalues --    1.74061   1.74239   1.74969   1.75149   1.75263
 Alpha virt. eigenvalues --    1.75314   1.75570   1.75599   1.76176   1.76212
 Alpha virt. eigenvalues --    1.76335   1.76727   1.76875   1.77097   1.77272
 Alpha virt. eigenvalues --    1.77478   1.77547   1.77729   1.78135   1.78239
 Alpha virt. eigenvalues --    1.78389   1.78479   1.78740   1.78806   1.78868
 Alpha virt. eigenvalues --    1.79010   1.79226   1.79349   1.79504   1.79749
 Alpha virt. eigenvalues --    1.79960   1.79965   1.80218   1.80415   1.80853
 Alpha virt. eigenvalues --    1.80910   1.80930   1.80995   1.81268   1.81349
 Alpha virt. eigenvalues --    1.81537   1.81702   1.81788   1.82175   1.82543
 Alpha virt. eigenvalues --    1.82623   1.82734   1.82923   1.83235   1.83306
 Alpha virt. eigenvalues --    1.83434   1.83568   1.83862   1.84100   1.84231
 Alpha virt. eigenvalues --    1.84482   1.84627   1.84795   1.84996   1.85101
 Alpha virt. eigenvalues --    1.85310   1.85948   1.86051   1.86063   1.86273
 Alpha virt. eigenvalues --    1.86325   1.86657   1.86802   1.86929   1.87071
 Alpha virt. eigenvalues --    1.87160   1.87387   1.87660   1.87787   1.88277
 Alpha virt. eigenvalues --    1.88383   1.88431   1.88665   1.88756   1.89078
 Alpha virt. eigenvalues --    1.89151   1.89534   1.89628   1.89683   1.89978
 Alpha virt. eigenvalues --    1.90489   1.90697   1.90791   1.91195   1.91412
 Alpha virt. eigenvalues --    1.91641   1.91847   1.91896   1.92001   1.92236
 Alpha virt. eigenvalues --    1.92425   1.92602   1.92773   1.92919   1.93197
 Alpha virt. eigenvalues --    1.93384   1.93710   1.93766   1.94083   1.94339
 Alpha virt. eigenvalues --    1.94410   1.94759   1.94832   1.94980   1.95651
 Alpha virt. eigenvalues --    1.95927   1.96018   1.96354   1.96518   1.96765
 Alpha virt. eigenvalues --    1.96798   1.96977   1.97184   1.97596   1.97666
 Alpha virt. eigenvalues --    1.97765   1.98302   1.98576   1.98731   1.98894
 Alpha virt. eigenvalues --    1.98957   1.99144   1.99277   1.99728   1.99898
 Alpha virt. eigenvalues --    2.00250   2.00418   2.00645   2.00880   2.01021
 Alpha virt. eigenvalues --    2.01245   2.01679   2.01792   2.02237   2.02434
 Alpha virt. eigenvalues --    2.02922   2.03174   2.03676   2.03843   2.03881
 Alpha virt. eigenvalues --    2.04002   2.04252   2.04423   2.05079   2.05458
 Alpha virt. eigenvalues --    2.05555   2.05685   2.05774   2.05896   2.06409
 Alpha virt. eigenvalues --    2.06663   2.06849   2.07023   2.07501   2.07717
 Alpha virt. eigenvalues --    2.07799   2.07899   2.08077   2.08360   2.09006
 Alpha virt. eigenvalues --    2.09212   2.09344   2.09508   2.09875   2.10171
 Alpha virt. eigenvalues --    2.10829   2.11165   2.11227   2.11376   2.11655
 Alpha virt. eigenvalues --    2.11844   2.11929   2.12013   2.12325   2.12696
 Alpha virt. eigenvalues --    2.13016   2.13122   2.13523   2.13754   2.13968
 Alpha virt. eigenvalues --    2.14194   2.14465   2.14888   2.14946   2.15490
 Alpha virt. eigenvalues --    2.15716   2.15922   2.16018   2.16292   2.16486
 Alpha virt. eigenvalues --    2.17121   2.17812   2.18050   2.18240   2.18490
 Alpha virt. eigenvalues --    2.18955   2.19326   2.19410   2.19525   2.19834
 Alpha virt. eigenvalues --    2.19967   2.20464   2.20656   2.20766   2.21034
 Alpha virt. eigenvalues --    2.21719   2.22149   2.22300   2.22650   2.22852
 Alpha virt. eigenvalues --    2.23235   2.23424   2.23546   2.24422   2.24698
 Alpha virt. eigenvalues --    2.25091   2.25262   2.25485   2.25561   2.25634
 Alpha virt. eigenvalues --    2.26255   2.26442   2.26772   2.26856   2.27323
 Alpha virt. eigenvalues --    2.27751   2.28077   2.28200   2.28533   2.28935
 Alpha virt. eigenvalues --    2.29111   2.29371   2.29687   2.29951   2.30902
 Alpha virt. eigenvalues --    2.31010   2.31512   2.31955   2.32059   2.32309
 Alpha virt. eigenvalues --    2.32678   2.32913   2.33070   2.33220   2.33346
 Alpha virt. eigenvalues --    2.33588   2.33736   2.34181   2.34375   2.35318
 Alpha virt. eigenvalues --    2.35530   2.35990   2.36259   2.36351   2.36524
 Alpha virt. eigenvalues --    2.37473   2.37908   2.38116   2.38567   2.38711
 Alpha virt. eigenvalues --    2.39105   2.39273   2.39722   2.40020   2.40485
 Alpha virt. eigenvalues --    2.40915   2.41047   2.41317   2.41789   2.41828
 Alpha virt. eigenvalues --    2.42172   2.42218   2.42612   2.43107   2.43667
 Alpha virt. eigenvalues --    2.43956   2.44004   2.44263   2.44528   2.45201
 Alpha virt. eigenvalues --    2.45836   2.46264   2.46587   2.47025   2.47088
 Alpha virt. eigenvalues --    2.47181   2.47660   2.47970   2.48383   2.48724
 Alpha virt. eigenvalues --    2.48998   2.49723   2.49785   2.49957   2.50407
 Alpha virt. eigenvalues --    2.50756   2.51711   2.51958   2.52458   2.53413
 Alpha virt. eigenvalues --    2.53654   2.53849   2.53937   2.54268   2.54750
 Alpha virt. eigenvalues --    2.55040   2.55649   2.56123   2.56218   2.56485
 Alpha virt. eigenvalues --    2.56579   2.56846   2.57442   2.57551   2.58190
 Alpha virt. eigenvalues --    2.58388   2.58583   2.58670   2.59242   2.59339
 Alpha virt. eigenvalues --    2.59809   2.60037   2.60160   2.60440   2.60751
 Alpha virt. eigenvalues --    2.60888   2.60972   2.61469   2.61681   2.62681
 Alpha virt. eigenvalues --    2.63007   2.63282   2.63843   2.63905   2.64303
 Alpha virt. eigenvalues --    2.64444   2.64670   2.65105   2.65244   2.65458
 Alpha virt. eigenvalues --    2.65828   2.65956   2.66303   2.66759   2.66865
 Alpha virt. eigenvalues --    2.67320   2.67479   2.67886   2.68427   2.68883
 Alpha virt. eigenvalues --    2.69117   2.69473   2.69644   2.69783   2.70054
 Alpha virt. eigenvalues --    2.70398   2.70611   2.70896   2.71063   2.71568
 Alpha virt. eigenvalues --    2.71780   2.71916   2.72155   2.72754   2.73473
 Alpha virt. eigenvalues --    2.73539   2.73673   2.74005   2.74372   2.74545
 Alpha virt. eigenvalues --    2.74887   2.75422   2.75508   2.75654   2.75732
 Alpha virt. eigenvalues --    2.75755   2.76161   2.76258   2.76413   2.76524
 Alpha virt. eigenvalues --    2.76786   2.77151   2.77335   2.77758   2.78125
 Alpha virt. eigenvalues --    2.78426   2.78685   2.79305   2.79341   2.79507
 Alpha virt. eigenvalues --    2.79779   2.79942   2.80115   2.81037   2.81116
 Alpha virt. eigenvalues --    2.81190   2.81524   2.81806   2.81909   2.82246
 Alpha virt. eigenvalues --    2.82395   2.82697   2.83091   2.83167   2.83539
 Alpha virt. eigenvalues --    2.83726   2.83818   2.84308   2.84542   2.84617
 Alpha virt. eigenvalues --    2.85100   2.85187   2.85402   2.86147   2.86505
 Alpha virt. eigenvalues --    2.86615   2.87010   2.87735   2.87805   2.87958
 Alpha virt. eigenvalues --    2.88579   2.89023   2.89213   2.89445   2.89564
 Alpha virt. eigenvalues --    2.89748   2.90012   2.90240   2.90393   2.90530
 Alpha virt. eigenvalues --    2.90850   2.91406   2.91762   2.92271   2.92413
 Alpha virt. eigenvalues --    2.93223   2.93519   2.93803   2.94176   2.94516
 Alpha virt. eigenvalues --    2.94602   2.94685   2.95338   2.95547   2.95812
 Alpha virt. eigenvalues --    2.96257   2.96351   2.96676   2.96952   2.97510
 Alpha virt. eigenvalues --    2.97754   2.98120   2.98350   2.98717   2.98967
 Alpha virt. eigenvalues --    2.99289   2.99573   2.99729   2.99886   3.00366
 Alpha virt. eigenvalues --    3.00648   3.01042   3.01340   3.01642   3.02415
 Alpha virt. eigenvalues --    3.02427   3.02959   3.03282   3.03409   3.03516
 Alpha virt. eigenvalues --    3.03673   3.03978   3.04539   3.05767   3.06052
 Alpha virt. eigenvalues --    3.06337   3.06441   3.06862   3.07333   3.07827
 Alpha virt. eigenvalues --    3.08126   3.08300   3.09376   3.09470   3.09560
 Alpha virt. eigenvalues --    3.09803   3.10526   3.11295   3.11854   3.12258
 Alpha virt. eigenvalues --    3.12444   3.12527   3.12924   3.13557   3.13888
 Alpha virt. eigenvalues --    3.14487   3.14914   3.15089   3.15278   3.16229
 Alpha virt. eigenvalues --    3.16365   3.17685   3.18160   3.18471   3.19034
 Alpha virt. eigenvalues --    3.19365   3.19502   3.19529   3.19545   3.20266
 Alpha virt. eigenvalues --    3.20324   3.20621   3.20655   3.20797   3.21132
 Alpha virt. eigenvalues --    3.21178   3.21740   3.21899   3.22319   3.23104
 Alpha virt. eigenvalues --    3.23641   3.24227   3.24527   3.24536   3.25978
 Alpha virt. eigenvalues --    3.26336   3.27426   3.27658   3.27811   3.28053
 Alpha virt. eigenvalues --    3.28679   3.29066   3.29565   3.29630   3.29876
 Alpha virt. eigenvalues --    3.30384   3.31825   3.33073   3.35316   3.35397
 Alpha virt. eigenvalues --    3.36359   3.37527   3.39331   3.39576   3.40714
 Alpha virt. eigenvalues --    3.40774   3.44050   3.47371   3.48238   3.49892
 Alpha virt. eigenvalues --    3.51348   3.52229   3.54444   3.55078   3.56256
 Alpha virt. eigenvalues --    3.56981   3.58252   3.58535   3.58720   3.58889
 Alpha virt. eigenvalues --    3.59574   3.60208   3.61447   3.62936   3.64398
 Alpha virt. eigenvalues --    3.66220   3.66866   3.67292   3.68186   3.68397
 Alpha virt. eigenvalues --    3.68548   3.69621   3.69976   3.70082   3.70499
 Alpha virt. eigenvalues --    3.70640   3.71594   3.72172   3.72523   3.72949
 Alpha virt. eigenvalues --    3.73223   3.73462   3.74615   3.75177   3.75709
 Alpha virt. eigenvalues --    3.76409   3.78026   3.81567   3.83826
          Condensed to atoms (all electrons):
 Mulliken charges:
               1
     1  C    0.057018
     2  C   -0.020017
     3  O   -0.301665
     4  H    0.020693
     5  H    0.004208
     6  H    0.023711
     7  N   -0.124426
     8  C    0.152408
     9  C    0.106810
    10  O   -0.304798
    11  C    0.016848
    12  C    0.064605
    13  O   -0.433303
    14  O   -0.350308
    15  H    0.097523
    16  H   -0.044703
    17  H    0.002173
    18  H    0.046833
    19  N   -0.119826
    20  C    0.180140
    21  C   -0.000870
    22  O   -0.243833
    23  C    0.001974
    24  C    0.041414
    25  C   -0.027732
    26  C    0.000894
    27  N    0.095515
    28  H    0.126700
    29  H   -0.018132
    30  H    0.050151
    31  H   -0.017842
    32  H   -0.003107
    33  H    0.046316
    34  H    0.045322
    35  H    0.005600
    36  H    0.076033
    37  H    0.072440
    38  H    0.194091
    39  H    0.186033
    40  H    0.188109
    41  N   -0.158898
    42  C    0.171827
    43  C    0.058252
    44  O   -0.282253
    45  C    0.092934
    46  C    0.081060
    47  O   -0.442862
    48  O   -0.447630
    49  H    0.113285
    50  H    0.028049
    51  H    0.000931
    52  H    0.039994
    53  N   -0.141485
    54  C    0.166694
    55  C    0.037014
    56  O   -0.255773
    57  H    0.126422
    58  H    0.009475
    59  H    0.079292
    60  N   -0.106493
    61  C    0.071295
    62  C    0.054825
    63  O   -0.282229
    64  C    0.075878
    65  C    0.055969
    66  N   -0.040393
    67  O   -0.271721
    68  H    0.125975
    69  H    0.016818
    70  H    0.022130
    71  H    0.014819
    72  H    0.117448
    73  H    0.130349
    74  N   -0.142557
    75  C    0.138082
    76  C    0.030008
    77  O   -0.269006
    78  H    0.122899
    79  H    0.061337
    80  H    0.073997
    81  N   -0.089281
    82  C    0.107350
    83  C    0.069909
    84  O   -0.276669
    85  C    0.151878
    86  C   -0.052026
    87  C   -0.006906
    88  C   -0.023864
    89  C    0.003659
    90  C   -0.025783
    91  C    0.156146
    92  O   -0.200617
    93  H    0.102755
    94  H   -0.043199
    95  H    0.008266
    96  H    0.008902
    97  H   -0.005325
    98  H   -0.029111
    99  H   -0.018554
   100  H   -0.041214
   101  H    0.170131
   102  N   -0.128080
   103  C    0.187609
   104  C    0.027566
   105  O   -0.266261
   106  C   -0.109529
   107  C    0.037214
   108  C    0.057313
   109  C    0.052553
   110  H    0.138744
   111  H    0.018064
   112  H   -0.015646
   113  H    0.016321
   114  H   -0.010114
   115  H   -0.002228
   116  H   -0.032153
   117  H    0.003484
   118  H    0.006635
   119  H    0.023139
   120  H   -0.044732
   121  N   -0.132103
   122  C    0.090097
   123  C    0.083200
   124  O   -0.293707
   125  C    0.277473
   126  O   -0.301766
   127  H    0.103259
   128  H    0.022209
   129  H   -0.006922
   130  H   -0.031433
   131  H    0.174331
   132  N   -0.101969
   133  C    0.074823
   134  C    0.085363
   135  O   -0.251004
   136  C    0.034273
   137  H    0.127656
   138  H    0.002185
   139  H    0.010499
   140  H    0.020950
   141  H    0.032067
   142  N   -0.153599
   143  C    0.051638
   144  C    0.096279
   145  O   -0.260005
   146  C    0.074553
   147  H    0.107747
   148  H    0.015592
   149  H    0.038005
   150  H    0.021511
   151  H   -0.015039
   152  N   -0.119336
   153  C    0.124083
   154  C    0.029766
   155  O   -0.262682
   156  C    0.044323
   157  C    0.031110
   158  C    0.113462
   159  O   -0.343595
   160  O   -0.490955
   161  H    0.099420
   162  H    0.049063
   163  H    0.004021
   164  H   -0.044454
   165  H    0.039858
   166  H    0.003002
   167  N   -0.152454
   168  C    0.138004
   169  H    0.021520
   170  H    0.044030
   171  H    0.007709
   172  H    0.090573
   173  Ca   1.384167
   174  O   -0.296459
   175  H    0.195253
   176  H    0.199298
 Sum of Mulliken charges =  -0.00000
 Mulliken charges with hydrogens summed into heavy atoms:
               1
     1  C    0.105630
     2  C   -0.020017
     3  O   -0.301665
     7  N   -0.026903
     8  C    0.107705
     9  C    0.106810
    10  O   -0.304798
    11  C    0.065854
    12  C    0.064605
    13  O   -0.433303
    14  O   -0.350308
    19  N    0.006874
    20  C    0.162008
    21  C   -0.000870
    22  O   -0.243833
    23  C    0.034283
    24  C    0.084623
    25  C    0.023191
    26  C    0.149367
    27  N    0.663747
    41  N   -0.045612
    42  C    0.199876
    43  C    0.058252
    44  O   -0.282253
    45  C    0.133859
    46  C    0.081060
    47  O   -0.442862
    48  O   -0.447630
    53  N   -0.015062
    54  C    0.255461
    55  C    0.037014
    56  O   -0.255773
    60  N    0.019481
    61  C    0.088113
    62  C    0.054825
    63  O   -0.282229
    64  C    0.112827
    65  C    0.055969
    66  N    0.207404
    67  O   -0.271721
    74  N   -0.019658
    75  C    0.273416
    76  C    0.030008
    77  O   -0.269006
    81  N    0.013475
    82  C    0.064151
    83  C    0.069909
    84  O   -0.276669
    85  C    0.169046
    86  C   -0.052026
    87  C   -0.012231
    88  C   -0.052975
    89  C   -0.014894
    90  C   -0.066997
    91  C    0.156146
    92  O   -0.030485
   102  N    0.010664
   103  C    0.205673
   104  C    0.027566
   105  O   -0.266261
   106  C   -0.125175
   107  C    0.043421
   108  C    0.026415
   109  C    0.037595
   121  N   -0.028844
   122  C    0.112306
   123  C    0.083200
   124  O   -0.293707
   125  C    0.239117
   126  O   -0.127435
   132  N    0.025688
   133  C    0.077008
   134  C    0.085363
   135  O   -0.251004
   136  C    0.097789
   142  N   -0.045852
   143  C    0.067231
   144  C    0.096279
   145  O   -0.260005
   146  C    0.119030
   152  N   -0.019916
   153  C    0.173146
   154  C    0.029766
   155  O   -0.262682
   156  C    0.003890
   157  C    0.073970
   158  C    0.113462
   159  O   -0.343595
   160  O   -0.490955
   167  N   -0.061882
   168  C    0.211264
   173  Ca   1.384167
   174  O    0.098091
 DipInt: DoE/N= T F RetVal/Mat= T F Init=T NMatP=  1 IDeriv=0 Min/MaxMlt=  0  4
 Entering OneElI...
 OneElI was handed  1333951383 working-precision words.
 Multipole integrals L=0 to 4 MinM= 0 MaxM= 0.
 Requested accuracy = 0.1000D-12
 ShPair: Thresh= 1.00D-13 NBox=     0 BxSize= 0.00D+00 RnKept= 2.88D+01
         NSMCal=               327645 NSMKep=              137446
 PrmmSu-InSpLW:  IPartL=    0 NPrtUS=    1 NPrtUL=    1 DoSpLW=F IThBeg=    0 IThEnd=    0 NThAct=    1.
 PrsmSu:  NPrtUS=   1 ThrOK=F IAlg=1 NPAlg=1 LenDen=           0 ISkipM=0 DoSpLW=F IThBeg=    0 IThEnd=    0.
 Prism:   IPart=     0 DynPar=F LinDyn=F Incr=         512.
 PRISM was handed  1324820081 working-precision words and137446 shell-pairs
 IPart=  0 NShTot=      137446 NBatch=         317 AvBLen=       433.6
 PrsmSu-ThDecC:  IPartSL=    0    0 NPrtUSL=    1    1 IThBeg=    0 IThEnd=    0 CPU=   -1 GPU=   -1 NThAct=    1.
 PrSmSu:  NxtVal=            513.
 Electronic moments (au):
       -716.00000000         -3.52531929        -11.89529082          4.92904803
     -62664.50787383     -32278.38855009     -21324.23205383       -199.50080698
         81.16704093        -25.89422673       2975.31964459     -14464.11653090
     -35476.74171504      31383.55192339     137359.89563943     -40708.15583586
     -10644.36463917     -21264.71949218     -45224.84085188      17387.50870169
  -10379684.91045148   -2885690.98899019   -1503280.77573147     116819.20635847
   -1101378.83711260     246421.08954975    -144932.68616435     336281.97216211
    -185141.75893414   -2574201.15949006   -1423060.28098583   -1103134.79856897
     451757.03769569     165984.88837820     298359.60411657
 Electronic spatial extent (au):  <R**2>=         116267.1285
 DipInt: DoE/N= F T RetVal/Mat= T F Init=T NMatP=  1 IDeriv=0 Min/MaxMlt=  0  4
 Nuclear    moments (au):
        716.00000000         -0.00000000         -0.00000000          0.00000000
      62354.16075611      32041.80215994      20934.62825300         -0.00000000
         -0.00000000         -0.00000000      -3783.03585609      12920.21689893
      35913.21476248     -29250.64700434    -141526.55759620      42495.41071535
      10960.95667889      20779.57803421      46016.47746931     -18773.90577191
   10201039.42877222    2806808.58673838    1432830.88281965    -163033.90107954
    1120097.19900648    -280707.22258641     137589.06893323    -329944.59756885
     183305.08516219    2558835.28845132    1383250.25088382    1084827.41344838
    -472583.18492255    -151777.66911338    -307386.35961748
 Total      moments (au):
         -0.00000000         -3.52531929        -11.89529082          4.92904803
       -310.34711772       -236.58639014       -389.60380083       -199.50080698
         81.16704093        -25.89422673       -807.71621150      -1543.89963197
        436.47304745       2132.90491905      -4166.66195677       1787.25487949
        316.59203972       -485.14145796        791.63661744      -1386.39707022
    -178645.48167926     -78882.40225180     -70449.89291182     -46214.69472107
      18718.36189388     -34286.13303666      -7343.61723111       6337.37459326
      -1836.67377195     -15365.87103875     -39810.03010201     -18307.38512059
     -20826.14722686      14207.21926482      -9026.75550091
 Traceless Quadrup. (au):
          1.83198518         75.59271275        -77.42469793       -199.50080698
         81.16704093        -25.89422673
 Charge=             -0.0000 electrons
 Dipole moment (field-independent basis, Debye):
    X=             -8.9605    Y=            -30.2348    Z=             12.5284  Tot=             33.9322
 Quadrupole moment (field-independent basis, Debye-Ang):
   XX=           -417.4275   YY=           -318.2168   ZZ=           -524.0305
   XY=           -268.3354   XZ=            109.1725   YZ=            -34.8286
 Traceless Quadrupole moment (field-independent basis, Debye-Ang):
   XX=              2.4641   YY=            101.6748   ZZ=           -104.1389
   XY=           -268.3354   XZ=            109.1725   YZ=            -34.8286
 Octapole moment (field-independent basis, Debye-Ang**2):
  XXX=           -574.9013  YYY=          -1098.8883  ZZZ=            310.6647  XYY=           1518.1195
  XXY=          -2965.6695  XXZ=           1272.0992  XZZ=            225.3380  YZZ=           -345.3050
  YYZ=            563.4564  XYZ=           -986.7840
 Hexadecapole moment (field-independent basis, Debye-Ang**3):
 XXXX=         -67286.4547 YYYY=         -29710.8952 ZZZZ=         -26534.8079 XXXY=         -17406.6701
 XXXZ=           7050.2327 YYYX=         -12913.8018 YYYZ=          -2765.9584 ZZZX=           2386.9592
 ZZZY=           -691.7794 XXYY=          -5787.5239 XXZZ=         -14994.3663 YYZZ=          -6895.4391
 XXYZ=          -7844.1257 YYXZ=           5351.1200 ZZXY=          -3399.9090
 N-N= 1.981909866469D+04 E-N=-5.212661484853D+04  KE= 5.290453786981D+03
 Leave Link  601 at Thu Sep 19 09:55:00 2019, MaxMem=  1342177280 cpu:              62.7 elap:               1.6
 FitSet:  NAtFit=   176 NAtPot=   176 NAtFrz=     0 MDM=   180 TotChg=   0.00000
 Merz-Kollman atomic radii used.
 Read replacement radii for each type of atom:
 Rad(20) =   1.700000000000D+00
 Atom Element Radius
    1     6    1.50
    2     6    1.50
    3     8    1.40
    4     1    1.20
    5     1    1.20
    6     1    1.20
    7     7    1.50
    8     6    1.50
    9     6    1.50
   10     8    1.40
   11     6    1.50
   12     6    1.50
   13     8    1.40
   14     8    1.40
   15     1    1.20
   16     1    1.20
   17     1    1.20
   18     1    1.20
   19     7    1.50
   20     6    1.50
   21     6    1.50
   22     8    1.40
   23     6    1.50
   24     6    1.50
   25     6    1.50
   26     6    1.50
   27     7    1.50
   28     1    1.20
   29     1    1.20
   30     1    1.20
   31     1    1.20
   32     1    1.20
   33     1    1.20
   34     1    1.20
   35     1    1.20
   36     1    1.20
   37     1    1.20
   38     1    1.20
   39     1    1.20
   40     1    1.20
   41     7    1.50
   42     6    1.50
   43     6    1.50
   44     8    1.40
   45     6    1.50
   46     6    1.50
   47     8    1.40
   48     8    1.40
   49     1    1.20
   50     1    1.20
   51     1    1.20
   52     1    1.20
   53     7    1.50
   54     6    1.50
   55     6    1.50
   56     8    1.40
   57     1    1.20
   58     1    1.20
   59     1    1.20
   60     7    1.50
   61     6    1.50
   62     6    1.50
   63     8    1.40
   64     6    1.50
   65     6    1.50
   66     7    1.50
   67     8    1.40
   68     1    1.20
   69     1    1.20
   70     1    1.20
   71     1    1.20
   72     1    1.20
   73     1    1.20
   74     7    1.50
   75     6    1.50
   76     6    1.50
   77     8    1.40
   78     1    1.20
   79     1    1.20
   80     1    1.20
   81     7    1.50
   82     6    1.50
   83     6    1.50
   84     8    1.40
   85     6    1.50
   86     6    1.50
   87     6    1.50
   88     6    1.50
   89     6    1.50
   90     6    1.50
   91     6    1.50
   92     8    1.40
   93     1    1.20
   94     1    1.20
   95     1    1.20
   96     1    1.20
   97     1    1.20
   98     1    1.20
   99     1    1.20
  100     1    1.20
  101     1    1.20
  102     7    1.50
  103     6    1.50
  104     6    1.50
  105     8    1.40
  106     6    1.50
  107     6    1.50
  108     6    1.50
  109     6    1.50
  110     1    1.20
  111     1    1.20
  112     1    1.20
  113     1    1.20
  114     1    1.20
  115     1    1.20
  116     1    1.20
  117     1    1.20
  118     1    1.20
  119     1    1.20
  120     1    1.20
  121     7    1.50
  122     6    1.50
  123     6    1.50
  124     8    1.40
  125     6    1.50
  126     8    1.40
  127     1    1.20
  128     1    1.20
  129     1    1.20
  130     1    1.20
  131     1    1.20
  132     7    1.50
  133     6    1.50
  134     6    1.50
  135     8    1.40
  136     6    1.50
  137     1    1.20
  138     1    1.20
  139     1    1.20
  140     1    1.20
  141     1    1.20
  142     7    1.50
  143     6    1.50
  144     6    1.50
  145     8    1.40
  146     6    1.50
  147     1    1.20
  148     1    1.20
  149     1    1.20
  150     1    1.20
  151     1    1.20
  152     7    1.50
  153     6    1.50
  154     6    1.50
  155     8    1.40
  156     6    1.50
  157     6    1.50
  158     6    1.50
  159     8    1.40
  160     8    1.40
  161     1    1.20
  162     1    1.20
  163     1    1.20
  164     1    1.20
  165     1    1.20
  166     1    1.20
  167     7    1.50
  168     6    1.50
  169     1    1.20
  170     1    1.20
  171     1    1.20
  172     1    1.20
[...]
 **** Fit       0.007244
 **** Fit       0.005695
 **** Fit       0.006899
 **** Fit       0.007891
 **** Fit       0.008546
 **** Fit       0.008798
 **** Fit       0.003996
 **** Fit       0.005313
 **** Fit       0.006642
 **** Fit       0.007862
 **** Fit       0.008873
 **** Fit       0.009602
 **** Fit       0.010005
 **** Fit       0.010063
 **** Fit       0.003853
 **** Fit       0.005275
 **** Fit       0.006710
 **** Fit       0.008067
 **** Fit       0.009265
 **** Fit       0.010242
 **** Fit       0.010953
 **** Fit       0.011368
 **** Fit       0.011468
 **** Fit       0.011258
 **** Fit       0.002392
 **** Fit       0.003784
 **** Fit       0.005265
 **** Fit       0.006765
 **** Fit       0.008213
 **** Fit       0.009545
 **** Fit       0.010710
 **** Fit       0.011667
 **** Fit       0.012387
 **** Fit       0.012844
 **** Fit       0.013018
 **** Fit       0.012900
 **** Fit       0.002958
 **** Fit       0.004520
 **** Fit       0.006134
 **** Fit       0.007745
 **** Fit       0.009291
 **** Fit       0.010715
 **** Fit       0.011975
 **** Fit       0.013038
 **** Fit       0.013874
 **** Fit       0.014457
 **** Fit       0.014758
 **** Fit       0.014754
 **** Fit       0.002160
 **** Fit       0.003767
 **** Fit       0.005438
 **** Fit       0.007144
 **** Fit       0.008836
 **** Fit       0.010460
 **** Fit       0.011971
 **** Fit       0.013335
 **** Fit       0.014524
 **** Fit       0.015510
 **** Fit       0.016262
 **** Fit       0.016745
 **** Fit       0.016920
 **** Fit       0.001716
 **** Fit       0.003423
 **** Fit       0.005181
 **** Fit       0.006987
 **** Fit       0.008808
 **** Fit       0.010598
 **** Fit       0.012315
 **** Fit       0.013925
 **** Fit       0.015401
 **** Fit       0.016715
 **** Fit       0.017834
 **** Fit       0.018718
 **** Fit       0.019316
 **** Fit       0.019567
 **** Fit       0.002035
 **** Fit       0.003957
 **** Fit       0.005922
 **** Fit       0.007935
 **** Fit       0.009969
 **** Fit       0.011986
 **** Fit       0.013950
 **** Fit       0.015832
 **** Fit       0.017602
 **** Fit       0.019223
 **** Fit       0.020648
 **** Fit       0.021813
 **** Fit       0.022635
 **** Fit       0.003004
 **** Fit       0.005213
 **** Fit       0.007467
 **** Fit       0.009777
 **** Fit       0.012124
 **** Fit       0.014483
 **** Fit       0.016825
 **** Fit       0.019118
 **** Fit       0.021318
 **** Fit       0.023366
 **** Fit       0.025173
 **** Fit       0.026615
 **** Fit       0.004389
 **** Fit       0.006907
 **** Fit       0.009493
 **** Fit       0.012178
 **** Fit       0.014964
 **** Fit       0.017835
 **** Fit       0.020766
 **** Fit       0.023713
 **** Fit       0.026611
 **** Fit       0.029358
 **** Fit       0.007864
 **** Fit       0.011038
 **** Fit       0.014425
 **** Fit       0.018071
 **** Fit       0.021980
 **** Fit       0.026128
 **** Fit       0.030479
 **** Fit       0.031184
 **** Fit       0.031207
 **** Fit       0.025126
 **** Fit       0.027977
 **** Fit       0.030413
 **** Fit       0.032342
 **** Fit       0.033658
 **** Fit       0.034241
 **** Fit       0.033964
 **** Fit       0.032708
 **** Fit       0.019194
 **** Fit       0.023098
 **** Fit       0.026827
 **** Fit       0.030243
 **** Fit       0.033201
 **** Fit       0.035564
 **** Fit       0.037202
 **** Fit       0.037979
 **** Fit       0.037751
 **** Fit       0.036397
 **** Fit       0.033855
 **** Fit       0.014172
 **** Fit       0.018834
 **** Fit       0.023660
 **** Fit       0.028394
 **** Fit       0.032766
 **** Fit       0.036542
 **** Fit       0.039541
 **** Fit       0.041605
 **** Fit       0.042550
 **** Fit       0.042178
 **** Fit       0.040378
 **** Fit       0.004686
 **** Fit       0.009137
 **** Fit       0.014536
 **** Fit       0.020645
 **** Fit       0.026982
 **** Fit       0.033017
 **** Fit       0.038319
 **** Fit       0.042615
 **** Fit       0.045727
 **** Fit       0.024295
 **** Fit       0.032412
 **** Fit       0.039566
 **** Fit      -0.013664
 **** Fit      -0.021312
 **** Fit      -0.029748
 **** Fit      -0.002162
 **** Fit      -0.000644
 **** Fit      -0.002586
 **** Fit      -0.007203
 **** Fit      -0.008682
 **** Fit      -0.015863
 **** Fit      -0.023161
 **** Fit      -0.030440
 **** Fit      -0.037285
 **** Fit       0.000092
 **** Fit       0.007172
 **** Fit       0.010814
 **** Fit       0.011316
 **** Fit       0.009017
 **** Fit       0.004420
 **** Fit      -0.001746
 **** Fit      -0.033019
 **** Fit      -0.037708
 **** Fit      -0.041230
 **** Fit      -0.044072
 **** Fit      -0.003814
 **** Fit       0.006749
 **** Fit       0.014302
 **** Fit       0.019061
 **** Fit       0.021177
 **** Fit       0.020750
 **** Fit       0.017901
 **** Fit       0.012885
 **** Fit       0.006229
 **** Fit      -0.036697
 **** Fit      -0.039072
 **** Fit      -0.040264
 **** Fit      -0.041035
 **** Fit      -0.014763
 **** Fit      -0.000938
 **** Fit       0.010071
 **** Fit       0.018452
 **** Fit       0.024393
 **** Fit       0.028023
 **** Fit       0.029398
 **** Fit       0.028511
 **** Fit       0.025327
 **** Fit       0.019873
 **** Fit      -0.038991
 **** Fit      -0.039192
 **** Fit      -0.038656
 **** Fit      -0.038187
 **** Fit      -0.038200
 **** Fit      -0.011823
 **** Fit       0.001713
 **** Fit       0.012765
 **** Fit       0.021507
 **** Fit       0.028113
 **** Fit       0.032716
 **** Fit       0.035383
 **** Fit       0.036110
 **** Fit       0.034822
 **** Fit       0.031386
 **** Fit       0.025649
 **** Fit      -0.038802
 **** Fit      -0.037561
 **** Fit      -0.036108
 **** Fit      -0.035094
 **** Fit      -0.034783
 **** Fit      -0.035001
 **** Fit      -0.008150
 **** Fit       0.004693
 **** Fit       0.015391
 **** Fit       0.024093
 **** Fit       0.030946
 **** Fit       0.036072
 **** Fit       0.039546
 **** Fit       0.041389
 **** Fit       0.041561
 **** Fit       0.039950
 **** Fit       0.036373
 **** Fit       0.030577
 **** Fit      -0.034196
 **** Fit      -0.032492
 **** Fit      -0.031567
 **** Fit      -0.031436
 **** Fit      -0.031883
 **** Fit      -0.000140
 **** Fit       0.011520
 **** Fit       0.021321
 **** Fit       0.029369
 **** Fit       0.035775
 **** Fit       0.040631
 **** Fit       0.043994
 **** Fit       0.045876
 **** Fit       0.046237
 **** Fit       0.044969
 **** Fit       0.041887
 **** Fit       0.036708
 **** Fit       0.029039
 **** Fit      -0.030837
 **** Fit      -0.029122
 **** Fit      -0.028346
 **** Fit      -0.028398
 **** Fit       0.008027
 **** Fit       0.018231
 **** Fit       0.026929
 **** Fit       0.034169
 **** Fit       0.040007
 **** Fit       0.044495
 **** Fit       0.047666
 **** Fit       0.049520
 **** Fit       0.050018
 **** Fit       0.049068
 **** Fit       0.046511
 **** Fit       0.042100
 **** Fit       0.035468
 **** Fit      -0.027726
 **** Fit      -0.026233
 **** Fit       0.012362
 **** Fit       0.021612
 **** Fit       0.029682
 **** Fit       0.036549
 **** Fit       0.042214
 **** Fit       0.046688
 **** Fit       0.049981
 **** Fit       0.052085
 **** Fit       0.052968
 **** Fit       0.052559
 **** Fit       0.050739
 **** Fit       0.047322
 **** Fit       0.042027
 **** Fit       0.034442
 **** Fit      -0.027834
 **** Fit       0.008643
 **** Fit       0.017295
 **** Fit       0.025303
 **** Fit       0.032497
 **** Fit       0.038778
 **** Fit       0.044087
 **** Fit       0.048393
 **** Fit       0.051676
 **** Fit       0.053912
 **** Fit       0.055067
 **** Fit       0.055085
 **** Fit       0.053877
 **** Fit       0.051312
 **** Fit       0.047198
 **** Fit       0.041258
 **** Fit       0.033092
 **** Fit       0.016741
 **** Fit       0.023757
 **** Fit       0.030551
 **** Fit       0.036818
 **** Fit       0.042379
 **** Fit       0.047122
 **** Fit       0.050975
 **** Fit       0.053887
 **** Fit       0.055812
 **** Fit       0.056699
 **** Fit       0.056483
 **** Fit       0.055073
 **** Fit       0.052344
 **** Fit       0.048124
 **** Fit       0.042178
 **** Fit       0.034185
 **** Fit       0.019618
 **** Fit       0.024057
 **** Fit       0.029463
 **** Fit       0.035059
 **** Fit       0.040406
 **** Fit       0.045246
 **** Fit       0.049418
 **** Fit       0.052811
 **** Fit       0.055348
 **** Fit       0.056963
 **** Fit       0.057591
 **** Fit       0.057159
 **** Fit       0.055576
 **** Fit       0.052730
 **** Fit       0.048475
 **** Fit       0.042634
 **** Fit       0.034996
 **** Fit       0.032323
 **** Fit       0.036790
 **** Fit       0.041430
 **** Fit       0.045831
 **** Fit       0.049741
 **** Fit       0.052993
 **** Fit       0.055470
 **** Fit       0.057080
 **** Fit       0.057741
 **** Fit       0.057369
 **** Fit       0.055875
 **** Fit       0.053153
 **** Fit       0.049083
 **** Fit       0.043532
 **** Fit       0.036379
 **** Fit       0.027567
 **** Fit       0.038130
 **** Fit       0.041973
 **** Fit       0.045860
 **** Fit       0.049451
 **** Fit       0.052521
 **** Fit       0.054911
 **** Fit       0.056501
 **** Fit       0.057190
 **** Fit       0.056882
 **** Fit       0.055481
 **** Fit       0.052886
 **** Fit       0.048986
 **** Fit       0.043676
 **** Fit       0.036878
 **** Fit       0.028613
 **** Fit       0.042402
 **** Fit       0.045925
 **** Fit       0.049251
 **** Fit       0.052098
 **** Fit       0.054262
 **** Fit       0.055586
 **** Fit       0.055936
 **** Fit       0.055189
 **** Fit       0.053226
 **** Fit       0.049921
 **** Fit       0.045151
 **** Fit       0.038814
 **** Fit       0.030871
 **** Fit       0.045005
 **** Fit       0.048098
 **** Fit       0.050754
 **** Fit       0.052719
 **** Fit       0.053793
 **** Fit       0.053803
 **** Fit       0.052592
 **** Fit       0.050004
 **** Fit       0.045882
 **** Fit       0.040074
 **** Fit       0.032449
 **** Fit       0.046041
 **** Fit       0.048496
 **** Fit       0.050276
 **** Fit       0.051112
 **** Fit       0.050780
 **** Fit       0.049073
 **** Fit       0.045786
 **** Fit       0.040711
 **** Fit       0.033630
 **** Fit       0.044541
 **** Fit       0.046431
 **** Fit       0.047450
 **** Fit       0.047215
 **** Fit       0.045407
 **** Fit       0.041724
 **** Fit       0.035853
 **** Fit       0.027444
 **** Fit       0.041703
 **** Fit       0.042857
 **** Fit       0.042840
 **** Fit       0.041077
 **** Fit       0.037089
 **** Fit       0.030405
 **** Fit       0.037545
 **** Fit       0.036772
 **** Fit       0.033402
 **** Fit       0.026574
 **** Fit       0.030586
 **** Fit       0.029128
 **** Fit       0.023153
 **** Fit       0.019842
 **** Fit       0.019621
 **** Fit       0.023068
 **** Fit       0.029845
 **** Fit       0.024429
 **** Fit       0.028932
 **** Fit       0.035938
 **** Fit       0.024156
 **** Fit       0.025554
 **** Fit       0.028333
 **** Fit       0.032821
 **** Fit       0.039236
 **** Fit       0.026337
 **** Fit       0.026079
 **** Fit       0.026178
 **** Fit       0.027014
 **** Fit       0.028914
 **** Fit       0.032103
 **** Fit       0.036635
 **** Fit       0.042285
 **** Fit       0.028057
 **** Fit       0.028139
 **** Fit       0.028933
 **** Fit       0.030650
 **** Fit       0.033297
 **** Fit       0.036567
 **** Fit       0.039700
 **** Fit       0.031427
 **** Fit       0.032840
 **** Fit       0.033778
 **** Fit       0.033023
 **** Fit       0.029103
 **** Fit      -0.022295
 **** Fit      -0.013035
 **** Fit      -0.010506
 **** Fit      -0.007283
 **** Fit      -0.002980
 **** Fit      -0.003570
 **** Fit      -0.004243
 **** Fit      -0.003561
 **** Fit      -0.001765
 **** Fit       0.000860
 **** Fit       0.004353
 **** Fit       0.009248
 **** Fit       0.016599
 **** Fit       0.004903
 **** Fit       0.004399
 **** Fit       0.004712
 **** Fit       0.005915
 **** Fit       0.007932
 **** Fit       0.010784
 **** Fit       0.014780
 **** Fit       0.011224
 **** Fit       0.011121
 **** Fit       0.011202
 **** Fit       0.011763
 **** Fit       0.012957
 **** Fit       0.014852
 **** Fit       0.017587
 **** Fit       0.021486
 **** Fit       0.015563
 **** Fit       0.016022
 **** Fit       0.016360
 **** Fit       0.016769
 **** Fit       0.017470
 **** Fit       0.018633
 **** Fit       0.020388
 **** Fit       0.022902
 **** Fit       0.020491
 **** Fit       0.020813
 **** Fit       0.021199
 **** Fit       0.021710
 **** Fit       0.022500
 **** Fit       0.023735
 **** Fit       0.018325
 **** Fit       0.021576
 **** Fit       0.010287
 **** Fit       0.014236
 **** Fit       0.017758
 **** Fit       0.020837
 **** Fit       0.023349
 **** Fit       0.025236
 **** Fit       0.026560
 **** Fit       0.027497
 **** Fit      -0.019347
 **** Fit       0.010363
 **** Fit       0.014210
 **** Fit       0.017558
 **** Fit       0.020453
 **** Fit       0.022838
 **** Fit       0.024680
 **** Fit       0.026036
 **** Fit       0.027053
 **** Fit       0.027941
 **** Fit       0.028918
 **** Fit       0.030132
 **** Fit      -0.012211
 **** Fit      -0.011228
 **** Fit       0.009553
 **** Fit       0.013527
 **** Fit       0.016966
 **** Fit       0.019911
 **** Fit       0.022335
 **** Fit       0.024216
 **** Fit       0.025606
 **** Fit       0.026638
 **** Fit       0.027477
 **** Fit       0.028230
 **** Fit       0.028832
 **** Fit       0.028913
 **** Fit       0.027740
 **** Fit       0.024354
 **** Fit       0.018059
 **** Fit       0.009199
 **** Fit      -0.002735
 **** Fit      -0.004149
 **** Fit      -0.003898
 **** Fit      -0.002702
 **** Fit       0.005128
 **** Fit       0.009018
 **** Fit       0.012847
 **** Fit       0.016300
 **** Fit       0.019277
 **** Fit       0.021722
 **** Fit       0.023604
 **** Fit       0.024957
 **** Fit       0.025873
 **** Fit       0.026426
 **** Fit       0.026550
 **** Fit       0.025923
 **** Fit       0.023963
 **** Fit       0.020065
 **** Fit       0.014153
 **** Fit       0.007218
 **** Fit       0.001098
 **** Fit       0.004047
 **** Fit       0.002460
 **** Fit       0.002653
 **** Fit       0.004122
 **** Fit       0.006591
 **** Fit       0.009820
 **** Fit       0.013352
 **** Fit       0.016707
 **** Fit       0.019594
 **** Fit       0.021858
 **** Fit       0.023436
 **** Fit       0.024339
 **** Fit       0.024541
 **** Fit       0.023837
 **** Fit       0.021794
 **** Fit       0.018047
 **** Fit       0.012923
 **** Fit       0.007741
 **** Fit       0.009288
 **** Fit       0.007907
 **** Fit       0.008810
 **** Fit       0.011357
 **** Fit       0.014730
 **** Fit       0.018031
 **** Fit       0.020598
 **** Fit       0.022071
 **** Fit       0.022237
 **** Fit       0.020776
 **** Fit       0.017434
 **** Fit       0.012951
 **** Fit       0.013346
 **** Fit       0.012905
 **** Fit       0.015750
 **** Fit       0.018841
 **** Fit       0.019563
 **** Fit       0.016984
 **** Fit       0.016470
 -----------------------------------------------------------------
 Leave Link  602 at Thu Sep 19 09:55:03 2019, MaxMem=  1342177280 cpu:             131.9 elap:               2.8

 Test job not archived.
 1\1\GINC-C506-083\SP\RB3LYP\SVP\C54H83Ca1N15O23\PENGZHI\19-Sep-2019\0\
 \#b3lyp/svp scf=(tight,noincore) Test #IOP(5/87=12) Density=Current Po
 p=(MK,readradii) iop(6/33=2) iop(6/42=6)\\Ng-31_loop3_53.0\\0,1\C,0,94
 .75,73.44,17.25\C,0,95.7,72.8,18.26\O,0,95.3,72.16,19.23\H,0,93.866,73
 .811,17.768\H,0,95.253,74.269,16.752\H,0,94.452,72.698,16.51\N,0,96.98
 ,73.17,18.19\C,0,98.13,72.76,18.98\C,0,98.15,73.31,20.4\O,0,97.98,72.5
 4,21.35\C,0,99.39,73.12,18.19\C,0,99.59,74.57,17.76\O,0,98.64,75.37,17
 .85\O,0,100.75,74.85,17.39\H,0,97.11,73.94,17.56\H,0,98.,71.68,19.02\H
 ,0,99.45,72.5,17.3\H,0,100.18,72.96,18.93\N,0,98.48,74.6,20.54\C,0,98.
 73,75.23,21.82\C,0,100.04,74.78,22.46\O,0,101.02,74.64,21.74\C,0,98.8,
 76.74,21.6\C,0,97.48,77.4,21.2\C,0,97.63,78.91,21.32\C,0,96.3,79.62,21
 .05\N,0,96.31,81.08,21.22\H,0,98.53,75.14,19.69\H,0,97.94,74.97,22.53\
 H,0,99.56,76.94,20.85\H,0,99.16,77.19,22.52\H,0,96.73,77.09,21.92\H,0,
 97.06,77.16,20.22\H,0,98.38,79.23,20.6\H,0,97.89,79.16,22.34\H,0,95.49
 ,79.16,21.61\H,0,96.09,79.42,20.\H,0,96.21,81.22,22.21\H,0,97.15,81.48
 ,20.84\H,0,95.62,81.64,20.73\N,0,100.12,74.43,23.75\C,0,101.23,73.74,2
 4.39\C,0,101.33,72.3,23.92\O,0,102.26,71.61,24.31\C,0,100.99,73.83,25.
 89\C,0,99.59,73.57,26.42\O,0,99.45,72.66,27.27\O,0,98.51,74.07,26.04\H
 ,0,99.32,74.68,24.31\H,0,102.2,74.22,24.23\H,0,101.16,74.88,26.13\H,0,
 101.56,73.18,26.56\N,0,100.44,71.77,23.08\C,0,100.49,70.45,22.48\C,0,1
 01.21,70.37,21.14\O,0,102.11,71.16,20.84\H,0,99.72,72.36,22.68\H,0,99.
 44,70.24,22.32\H,0,100.89,69.74,23.21\N,0,101.,69.35,20.3\C,0,100.06,6
 8.25,20.35\C,0,99.29,68.29,19.04\O,0,99.86,67.98,18.\C,0,100.68,66.88,
 20.6\C,0,101.35,66.66,21.95\N,0,101.89,65.49,22.3\O,0,101.48,67.6,22.7
 4\H,0,101.47,69.42,19.41\H,0,99.28,68.38,21.1\H,0,101.31,66.7,19.73\H,
 0,99.89,66.15,20.45\H,0,101.8,64.69,21.67\H,0,102.34,65.41,23.2\N,0,97
 .96,68.39,18.97\C,0,97.05,69.01,19.92\C,0,96.47,68.02,20.92\O,0,96.19,
 68.37,22.06\H,0,97.58,68.3,18.04\H,0,96.23,69.47,19.36\H,0,97.58,69.82
 ,20.41\N,0,96.24,66.78,20.5\C,0,95.72,65.66,21.27\C,0,96.63,65.3,22.44
 \O,0,97.72,64.8,22.21\C,0,95.29,64.47,20.42\C,0,94.2,64.66,19.39\C,0,9
 3.22,65.65,19.49\C,0,94.23,63.78,18.3\C,0,92.16,65.68,18.58\C,0,93.2,6
 3.81,17.35\C,0,92.19,64.79,17.49\O,0,91.16,64.86,16.59\H,0,96.39,66.68
 ,19.51\H,0,94.84,65.99,21.82\H,0,94.92,63.7,21.1\H,0,96.14,64.03,19.91
 \H,0,93.36,66.38,20.28\H,0,95.06,63.1,18.21\H,0,91.37,66.41,18.63\H,0,
 93.25,63.17,16.49\H,0,91.29,64.23,15.88\N,0,96.08,65.45,23.65\C,0,96.6
 2,64.98,24.91\C,0,95.64,64.34,25.88\O,0,96.1,63.62,26.76\C,0,97.26,66.
 17,25.62\C,0,98.43,66.86,24.92\C,0,96.2,67.17,26.08\C,0,99.29,67.78,25
 .78\H,0,95.19,65.92,23.61\H,0,97.37,64.2,24.77\H,0,97.77,65.79,26.5\H,
 0,98.11,67.44,24.05\H,0,99.05,66.08,24.48\H,0,95.6,66.84,26.92\H,0,96.
 69,68.04,26.54\H,0,95.49,67.42,25.3\H,0,100.18,67.21,26.05\H,0,99.69,6
 8.63,25.23\H,0,98.74,68.28,26.58\N,0,94.32,64.49,25.74\C,0,93.43,63.94
 ,26.75\C,0,92.28,64.88,27.06\O,0,91.81,65.59,26.17\C,0,92.86,62.62,26.
 24\O,0,93.86,61.65,26.03\H,0,93.93,65.06,25.01\H,0,93.98,63.75,27.68\H
 ,0,92.19,62.72,25.38\H,0,92.23,62.28,27.06\H,0,94.32,61.73,25.19\N,0,9
 1.79,64.81,28.3\C,0,90.64,65.59,28.69\C,0,90.87,67.09,28.78\O,0,91.99,
 67.6,28.81\C,0,90.22,65.06,30.06\H,0,92.18,64.13,28.93\H,0,89.82,65.43
 ,27.99\H,0,89.21,65.42,30.28\H,0,90.11,63.98,30.13\H,0,90.97,65.27,30.
 83\N,0,89.76,67.82,28.91\C,0,89.65,69.26,29.02\C,0,90.3,70.05,27.88\O,
 0,90.69,71.2,28.07\C,0,90.,69.53,30.48\H,0,88.9,67.29,28.96\H,0,88.6,6
 9.52,28.92\H,0,91.05,69.28,30.64\H,0,89.83,70.57,30.77\H,0,89.36,68.9,
 31.09\N,0,90.38,69.48,26.68\C,0,90.7,70.27,25.51\C,0,89.55,70.41,24.52
 \O,0,89.52,71.48,23.92\C,0,91.93,69.6,24.88\C,0,93.31,69.64,25.53\C,0,
 93.83,70.99,26.01\O,0,93.49,72.05,25.45\O,0,94.64,71.03,26.97\H,0,89.9
 6,68.58,26.53\H,0,91.01,71.3,25.7\H,0,91.96,70.03,23.88\H,0,91.79,68.5
 3,24.76\H,0,94.06,69.18,24.9\H,0,93.1,68.93,26.33\N,0,88.65,69.44,24.3
 5\C,0,87.69,69.45,23.27\H,0,86.825,70.047,23.559\H,0,88.148,69.881,22.
 38\H,0,87.371,68.43,23.057\H,0,88.67,68.65,24.97\Ca,0,96.82,72.51,27.4
 3\O,0,97.24,70.,28.06\H,0,96.45,69.49,28.18\H,0,97.93,69.51,28.51\\Ver
 sion=ES64L-G16RevA.03\State=1-A\HF=-5333.3657038\RMSD=1.050e-09\Dipole
 =-9.6136556,7.2442159,5.7723735\Quadrupole=-169.7913108,256.7316921,-8
 6.9403813,-5.6022789,39.6692538,12.6804952\PG=C01 [X(C54H83Ca1N15O23)]
 \\@


 NO HUMAN INVESTIGATION CAN BECOME REAL SCIENCE
 WITHOUT GOING THROUGH MATHEMATICAL PEOPLE.
 -- LEONARDO DA VINCI, IN "PENSIERI" CA. 1492
 Job cpu time:       0 days  8 hours 33 minutes 10.4 seconds.
 Elapsed time:       0 days  0 hours 10 minutes 50.1 seconds.
 File lengths (MBytes):  RWF=   1517 Int=      0 D2E=      0 Chk=    171 Scr=      1
 Normal termination of Gaussian 16 at Thu Sep 19 09:55:05 2019.
