 Entering Gaussian System, Link 0=g16
 Initial command:
 /home1/apps/gaussian/16rA.03/g16/l1.exe "/scratch/01990/pengzhi/4356781/Gau-91911.inp" -scrdir="/scratch/01990/pengzhi/4356781/"
 Entering Link 1 = /home1/apps/gaussian/16rA.03/g16/l1.exe PID=     91913.
  
 Copyright (c) 1988,1990,1992,1993,1995,1998,2003,2009,2016,
            Gaussian, Inc.  All Rights Reserved.
  
 This is part of the Gaussian(R) 16 program.  It is based on
 the Gaussian(R) 09 system (copyright 2009, Gaussian, Inc.),
 the Gaussian(R) 03 system (copyright 2003, Gaussian, Inc.),
 the Gaussian(R) 98 system (copyright 1998, Gaussian, Inc.),
 the Gaussian(R) 94 system (copyright 1995, Gaussian, Inc.),
 the Gaussian 92(TM) system (copyright 1992, Gaussian, Inc.),
 the Gaussian 90(TM) system (copyright 1990, Gaussian, Inc.),
 the Gaussian 88(TM) system (copyright 1988, Gaussian, Inc.),
 the Gaussian 86(TM) system (copyright 1986, Carnegie Mellon
 University), and the Gaussian 82(TM) system (copyright 1983,
 Carnegie Mellon University). Gaussian is a federally registered
 trademark of Gaussian, Inc.
  
 This software contains proprietary and confidential information,
 including trade secrets, belonging to Gaussian, Inc.
  
 This software is provided under written license and may be
 used, copied, transmitted, or stored only in accord with that
 written license.
  
 The following legend is applicable only to US Government
 contracts under FAR:
  
                    RESTRICTED RIGHTS LEGEND
  
 Use, reproduction and disclosure by the US Government is
 subject to restrictions as set forth in subparagraphs (a)
 and (c) of the Commercial Computer Software - Restricted
 Rights clause in FAR 52.227-19.
  
 Gaussian, Inc.
 340 Quinnipiac St., Bldg. 40, Wallingford CT 06492
  
  
 ---------------------------------------------------------------
 Warning -- This program may not be used in any manner that
 competes with the business of Gaussian, Inc. or will provide
 assistance to any competitor of Gaussian, Inc.  The licensee
 of this program is prohibited from giving any competitor of
 Gaussian, Inc. access to this program.  By using this program,
 the user acknowledges that Gaussian, Inc. is engaged in the
 business of creating and licensing software in the field of
 computational chemistry and represents and warrants to the
 licensee that it is not a competitor of Gaussian, Inc. and that
 it will not use this program in any manner prohibited above.
 ---------------------------------------------------------------
  

 Cite this work as:
 Gaussian 16, Revision A.03,
 M. J. Frisch, G. W. Trucks, H. B. Schlegel, G. E. Scuseria, 
 M. A. Robb, J. R. Cheeseman, G. Scalmani, V. Barone, 
 G. A. Petersson, H. Nakatsuji, X. Li, M. Caricato, A. V. Marenich, 
 J. Bloino, B. G. Janesko, R. Gomperts, B. Mennucci, H. P. Hratchian, 
 J. V. Ortiz, A. F. Izmaylov, J. L. Sonnenberg, D. Williams-Young, 
 F. Ding, F. Lipparini, F. Egidi, J. Goings, B. Peng, A. Petrone, 
 T. Henderson, D. Ranasinghe, V. G. Zakrzewski, J. Gao, N. Rega, 
 G. Zheng, W. Liang, M. Hada, M. Ehara, K. Toyota, R. Fukuda, 
 J. Hasegawa, M. Ishida, T. Nakajima, Y. Honda, O. Kitao, H. Nakai, 
 T. Vreven, K. Throssell, J. A. Montgomery, Jr., J. E. Peralta, 
 F. Ogliaro, M. J. Bearpark, J. J. Heyd, E. N. Brothers, K. N. Kudin, 
 V. N. Staroverov, T. A. Keith, R. Kobayashi, J. Normand, 
 K. Raghavachari, A. P. Rendell, J. C. Burant, S. S. Iyengar, 
 J. Tomasi, M. Cossi, J. M. Millam, M. Klene, C. Adamo, R. Cammi, 
 J. W. Ochterski, R. L. Martin, K. Morokuma, O. Farkas, 
 J. B. Foresman, and D. J. Fox, Gaussian, Inc., Wallingford CT, 2016.
 
 ******************************************
 Gaussian 16:  ES64L-G16RevA.03 25-Dec-2016
                18-Sep-2019 
 ******************************************
 %chk=Ng-31_loop3_52.0.chk
 %nprocshared=48
 Will use up to   48 processors via shared memory.
 %mem=10GB
 %nosave
 ----------------------------------------------------------------------
 #b3lyp/svp scf=(tight,noincore) Test #IOP(5/87=12) Density=Current Pop
 =(MK,readradii) iop(6/33=2) iop(6/42=6)
 ----------------------------------------------------------------------
 1/30=1,38=1,172=1/1;
 2/12=2,17=6,18=5,40=1/2;
 3/5=18,7=101,11=2,25=1,30=1,74=-5/1,2,3;
 4//1;
 5/5=4,32=2,38=5,87=12/2;
 6/7=2,8=2,9=2,10=2,15=8,20=101,22=-1,28=1,33=2,42=6/1,2;
 99/5=1,9=1/99;
 ----------------
 Ng-31_loop3_52.0
 ----------------
 Symbolic Z-matrix:
 Charge =  0 Multiplicity = 1
 C                     0.984     77.71     12.79 
 C                     2.204     77.11     13.49 
 O                     2.064     76.32     14.42 
 H                     0.185     77.858    13.517 
 H                     1.254     78.669    12.347 
 H                     0.642     77.031    12.009 
 N                     3.404     77.41     12.99 
 C                     4.654     76.92     13.54 
 C                     5.044     77.49     14.9 
 O                     5.114     76.78     15.9 
 C                     5.834     76.93     12.58 
 C                     6.184     78.31     12.04 
 O                     7.384     78.65     12.09 
 O                     5.264     79.07     11.69 
 H                     3.404     78.22     12.38 
 H                     4.404     75.9      13.84 
 H                     5.514     76.25     11.79 
 H                     6.704     76.44     13.02 
 N                     5.354     78.78     15.04 
 C                     5.894     79.38     16.24 
 C                     7.304     78.85     16.46 
 O                     8.184     78.87     15.6 
 C                     5.824     80.9      16.13 
 C                     5.834     81.65     17.46 
 C                     6.194     83.11     17.19 
 C                     6.244     84.05     18.38 
 N                     4.984     84.2      19.13 
 H                     5.404     79.31     14.18 
 H                     5.244     79.17     17.09 
 H                     4.954     81.25     15.58 
 H                     6.604     81.35     15.51 
 H                     6.634     81.19     18.04 
 H                     4.904     81.49     17.99 
 H                     5.414     83.49     16.53 
 H                     7.124     83.16     16.62 
 H                     6.554     85.01     17.95 
 H                     7.084     83.71     18.99 
 H                     5.094     84.67     20.02 
 H                     4.194     84.51     18.59 
 H                     4.824     83.28     19.51 
 N                     7.484     78.65     17.77 
 C                     8.664     78.02     18.33 
 C                     8.764     76.52     18.13 
 O                     9.874     76.02     18.34 
 C                     8.774     78.22     19.84 
 C                     7.524     77.68     20.54 
 O                     6.454     78.17     20.12 
 O                     7.534     77.21     21.7 
 H                     6.614     78.64     18.28 
 H                     9.554     78.43     17.85 
 H                     8.784     79.3      20.03 
 H                     9.694     77.78     20.22 
 N                     7.694     75.9      17.63 
 C                     7.734     74.6      17. 
 C                     7.994     74.71     15.5 
 O                     8.694     75.57     14.98 
 H                     6.854     76.46     17.68 
 H                     6.734     74.18     17.05 
 H                     8.504     73.97     17.46 
 N                     7.364     73.85     14.7 
 C                     6.624     72.63     14.94 
 C                     5.484     72.53     13.92 
 O                     5.734     72.18     12.77 
 C                     7.554     71.42     14.85 
 C                     8.534     71.5      16.01 
 N                     8.284     70.67     17.03 
 O                     9.524     72.22     16.04 
 H                     7.624     73.94     13.73 
 H                     6.264     72.57     15.96 
 H                     8.104     71.39     13.9 
 H                     7.094     70.44     14.9 
 H                     7.454     70.09     16.95 
 H                     8.924     70.62     17.8 
 N                     4.234     72.87     14.25 
 C                     3.734     73.59     15.4 
 C                     3.414     72.91     16.73 
 O                     3.174     73.57     17.73 
 H                     3.574     72.54     13.56 
 H                     2.934     74.2      15. 
 H                     4.524     74.33     15.56 
 N                     3.424     71.58     16.61 
 C                     3.174     70.71     17.74 
 C                     4.414     70.54     18.62 
 O                     5.464     70.22     18.07 
 C                     2.804     69.34     17.18 
 C                     1.604     69.32     16.27 
 C                     0.414     69.99     16.59 
 C                     1.644     68.49     15.13 
 C                    -0.726     69.8      15.8 
 C                     0.494     68.3      14.35 
 C                    -0.726     68.91     14.71 
 O                    -1.866     68.75     13.98 
 H                     3.624     71.12     15.73 
 H                     2.344     71.11     18.32 
 H                     2.434     68.86     18.09 
 H                     3.674     68.86     16.73 
 H                     0.294     70.64     17.44 
 H                     2.544     67.97     14.86 
 H                    -1.596     70.39     16.03 
 H                     0.564     67.57     13.56 
 H                    -1.646     68.07     13.34 
 N                     4.344     70.83     19.92 
 C                     5.494     70.83     20.8 
 C                     5.174     70.26     22.17 
 O                     6.124     69.66     22.67 
 C                     6.034     72.24     21.02 
 C                     7.464     72.28     21.57 
 C                     5.864     73.14     19.8 
 C                     7.974     73.69     21.85 
 H                     3.434     71.11     20.25 
 H                     6.324     70.32     20.3 
 H                     5.374     72.68     21.77 
 H                     8.144     71.84     20.84 
 H                     7.584     71.56     22.38 
 H                     4.824     73.31     19.52 
 H                     6.244     74.13     20.04 
 H                     6.204     72.63     18.89 
 H                     9.014     73.56     22.16 
 H                     7.874     74.34     20.98 
 H                     7.394     74.18     22.63 
 N                     4.004     70.52     22.76 
 C                     3.584     70.13     24.08 
 C                     2.474     70.97     24.69 
 O                     1.454     71.24     24.05 
 C                     3.154     68.66     24.05 
 O                     4.134     67.67     23.81 
 H                     3.264     70.67     22.09 
 H                     4.464     70.18     24.72 
 H                     2.374     68.56     23.3 
 H                     2.774     68.42     25.04 
 H                     4.814     67.84     24.47 
 N                     2.644     71.36     25.96 
 C                     1.684     72.25     26.57 
 C                     1.584     73.64     25.96 
 O                     2.524     74.28     25.5 
 C                     1.974     72.43     28.05 
 H                     3.584     71.14     26.27 
 H                     0.674     71.81     26.57 
 H                     3.024     72.7      28.13 
 H                     1.334     73.16     28.55 
 H                     1.854     71.44     28.51 
 N                     0.314     74.04     25.94 
 C                    -0.166     75.33     25.46 
 C                     0.254     75.74     24.06 
 O                     0.304     76.93     23.76 
 C                     0.114     76.36     26.55 
 H                    -0.406     73.42     26.26 
 H                    -1.246     75.22     25.35 
 H                    -0.556     77.21     26.39 
 H                    -0.126     75.99     27.55 
 H                     1.164     76.66     26.52 
 N                     0.474     74.81     23.12 
 C                     0.634     75.12     21.72 
 C                    -0.656     75.44     20.97 
 O                    -0.686     76.2      20. 
 C                     1.384     73.96     21.06 
 C                     2.804     73.73     21.57 
 C                     3.744     74.93     21.66 
 O                     3.604     75.92     20.91 
 O                     4.574     74.99     22.58 
 H                     0.334     73.84     23.37 
 H                     1.164     76.05     21.53 
 H                     1.514     74.25     20.02 
 H                     0.814     73.03     21.1 
 H                     3.284     73.07     20.84 
 H                     2.734     73.27     22.55 
 N                    -1.756     74.85     21.44 
 C                    -3.096     74.92     20.89 
 H                    -3.741     75.472    21.574 
 H                    -3.068     75.43     19.927 
 H                    -3.488     73.912    20.757 
 H                    -1.636     74.27     22.26 
 Ca                    4.89      77.64     22.25 
 O                     3.48      77.37     24.51 
 H                     2.99      76.54     24.59 
 H                     3.13      77.91     25.22 
 
 Stoichiometry    C54H83CaN15O23
 Framework group  C1[X(C54H83CaN15O23)]
 Deg. of freedom   522
 Full point group                 C1      NOp   1
 Largest Abelian subgroup         C1      NOp   1
 Largest concise Abelian subgroup C1      NOp   1
                         Standard orientation:                         
 ---------------------------------------------------------------------
 Center     Atomic      Atomic             Coordinates (Angstroms)
 Number     Number       Type             X           Y           Z
 ---------------------------------------------------------------------
      1          6           0        5.105224    1.223289    5.555364
      2          6           0        4.739404    1.184836    4.071081
      3          8           0        3.574704    1.335427    3.711365
      4          1           0        4.292576    0.791989    6.140528
      5          1           0        6.016535    0.647851    5.720327
      6          1           0        5.265388    2.256249    5.864084
      7          7           0        5.741806    1.073990    3.197638
      8          6           0        5.558412    1.024715    1.759223
      9          6           0        4.907977   -0.245621    1.220910
     10          8           0        3.807518   -0.224513    0.675433
     11          6           0        6.777828    1.410381    0.935581
     12          6           0        7.997357    0.532749    1.182582
     13          8           0        8.584806    0.083610    0.176959
     14          8           0        8.279460    0.209789    2.349893
     15          1           0        6.609289    0.745771    3.607451
     16          1           0        4.738615    1.727412    1.594751
     17          1           0        6.953139    2.446568    1.226242
     18          1           0        6.534040    1.466971   -0.126476
     19          7           0        5.532502   -1.421975    1.298099
     20          6           0        5.080733   -2.645860    0.673911
     21          6           0        5.200661   -2.497846   -0.836423
     22          8           0        6.229723   -2.140571   -1.408948
     23          6           0        5.864981   -3.827987    1.235100
     24          6           0        5.176826   -5.185072    1.107581
     25          6           0        6.225299   -6.279653    1.299146
     26          6           0        5.753686   -7.720157    1.230371
     27          7           0        4.745267   -8.111533    2.231628
     28          1           0        6.483164   -1.386758    1.641615
     29          1           0        4.058085   -2.868264    0.980226
     30          1           0        6.128837   -3.708239    2.282926
     31          1           0        6.870890   -3.946200    0.823429
     32          1           0        4.809745   -5.222659    0.081989
     33          1           0        4.322073   -5.237973    1.769395
     34          1           0        6.625122   -6.134142    2.302823
     35          1           0        7.059182   -6.113979    0.613952
     36          1           0        6.670710   -8.308351    1.355652
     37          1           0        5.435628   -7.877914    0.197292
     38          1           0        4.309594   -9.005588    2.042013
     39          1           0        5.013154   -7.973835    3.191355
     40          1           0        3.944872   -7.546193    1.994653
     41          7           0        4.141290   -3.081711   -1.406805
     42          6           0        3.856153   -3.013022   -2.826974
     43          6           0        3.337690   -1.678786   -3.327984
     44          8           0        3.363601   -1.514558   -4.552140
     45          6           0        2.802515   -4.029004   -3.262666
     46          6           0        1.508515   -3.825707   -2.469991
     47          8           0        1.659048   -3.869825   -1.230316
     48          8           0        0.372958   -4.083955   -2.928703
     49          1           0        3.397064   -3.254079   -0.748386
     50          1           0        4.775126   -3.188996   -3.388330
     51          1           0        3.171272   -5.024858   -2.989002
     52          1           0        2.649277   -3.986162   -4.339273
     53          7           0        3.022234   -0.764601   -2.409260
     54          6           0        2.915191    0.650778   -2.680817
     55          6           0        4.252033    1.362365   -2.490562
     56          8           0        5.343481    0.860500   -2.729044
     57          1           0        2.924337   -1.154407   -1.481808
     58          1           0        2.288167    1.086688   -1.908986
     59          1           0        2.550149    0.823316   -3.699824
     60          7           0        4.229351    2.588842   -1.969276
     61          6           0        3.171759    3.547274   -1.731563
     62          6           0        3.487411    4.330287   -0.452010
     63          8           0        4.324910    5.227460   -0.486285
     64          6           0        3.026239    4.483838   -2.931051
     65          6           0        2.528598    3.658424   -4.107250
     66          7           0        1.231199    3.804946   -4.402355
     67          8           0        3.231623    2.932281   -4.798532
     68          1           0        5.138421    3.022639   -1.924431
     69          1           0        2.198797    3.072805   -1.688866
     70          1           0        3.974659    4.971147   -3.193595
     71          1           0        2.341447    5.317156   -2.825500
     72          1           0        0.696343    4.424725   -3.801103
     73          1           0        0.847646    3.343169   -5.205255
     74          7           0        2.904870    4.014484    0.708987
     75          6           0        2.146903    2.842150    1.085842
     76          6           0        0.649262    2.701313    0.819507
     77          8           0        0.081778    1.631011    0.979553
     78          1           0        3.036405    4.747065    1.392086
     79          1           0        2.443443    2.656303    2.110354
     80          1           0        2.679404    2.050939    0.549439
     81          7           0        0.113842    3.861777    0.432144
     82          6           0       -1.289429    3.980160    0.095815
     83          6           0       -1.584571    3.485385   -1.321572
     84          8           0       -0.896360    3.930439   -2.235734
     85          6           0       -1.643897    5.462636    0.159190
     86          6           0       -1.400156    6.125784    1.489350
     87          6           0       -1.794259    5.536764    2.699780
     88          6           0       -0.880702    7.437353    1.496585
     89          6           0       -1.703008    6.266180    3.891176
     90          6           0       -0.801217    8.162396    2.694498
     91          6           0       -1.267106    7.604104    3.903364
     92          8           0       -1.208903    8.275508    5.088240
     93          1           0        0.666473    4.705506    0.338761
     94          1           0       -1.877960    3.426651    0.825582
     95          1           0       -2.734136    5.396213    0.110537
     96          1           0       -1.180593    6.005120   -0.665953
     97          1           0       -2.201657    4.543830    2.786432
     98          1           0       -0.566888    7.909298    0.584396
     99          1           0       -1.940268    5.755275    4.808010
    100          1           0       -0.498669    9.193777    2.613154
    101          1           0       -0.942786    9.164763    4.845735
    102          7           0       -2.499316    2.533113   -1.509778
    103          6           0       -2.748284    1.908982   -2.792499
    104          6           0       -4.225056    1.655372   -3.035455
    105          8           0       -4.537638    1.759784   -4.220314
    106          6           0       -2.040594    0.562302   -2.909663
    107          6           0       -1.901621    0.055449   -4.349380
    108          6           0       -0.714693    0.518694   -2.156413
    109          6           0       -1.252900   -1.321007   -4.454876
    110          1           0       -2.978755    2.226633   -0.678148
    111          1           0       -2.275319    2.508640   -3.577174
    112          1           0       -2.678358   -0.138562   -2.367679
    113          1           0       -1.271893    0.742852   -4.914906
    114          1           0       -2.837545    0.184384   -4.893736
    115          1           0       -0.815556    0.656775   -1.079538
    116          1           0       -0.284970   -0.474435   -2.261927
    117          1           0       -0.107991    1.403743   -2.385330
    118          1           0       -1.156643   -1.508676   -5.527311
    119          1           0       -0.295249   -1.361355   -3.934609
    120          1           0       -1.859514   -2.089123   -3.978520
    121          7           0       -5.019916    1.251653   -2.040564
    122          6           0       -6.410164    0.889393   -2.123492
    123          6           0       -6.921089   -0.010029   -1.010031
    124          8           0       -6.682450    0.243234    0.173950
    125          6           0       -7.253781    2.167018   -2.175313
    126          8           0       -7.156693    2.999838   -3.313331
    127          1           0       -4.706344    1.587366   -1.141692
    128          1           0       -6.550495    0.389169   -3.080876
    129          1           0       -7.011744    2.757692   -1.295869
    130          1           0       -8.296619    1.859760   -2.161901
    131          1           0       -7.333077    2.413287   -4.056128
    132          7           0       -7.671525   -1.056267   -1.378993
    133          6           0       -8.100511   -2.014536   -0.387281
    134          6           0       -6.995289   -2.808494    0.292655
    135          8           0       -5.963093   -3.190830   -0.248816
    136          6           0       -9.070284   -3.018613   -0.985838
    137          1           0       -7.656906   -1.158050   -2.387718
    138          1           0       -8.701487   -1.533221    0.400669
    139          1           0       -8.597981   -3.409094   -1.883754
    140          1           0       -9.364781   -3.821798   -0.307114
    141          1           0       -9.951684   -2.444771   -1.301972
    142          7           0       -7.280781   -2.977018    1.582381
    143          6           0       -6.473010   -3.716028    2.544811
    144          6           0       -5.010098   -3.325818    2.654919
    145          8           0       -4.186738   -4.144905    3.054637
    146          6           0       -6.733715   -5.202222    2.319733
    147          1           0       -8.107746   -2.559353    1.965636
    148          1           0       -6.856991   -3.437086    3.527333
    149          1           0       -6.461805   -5.734238    3.236261
    150          1           0       -7.792184   -5.424503    2.162456
    151          1           0       -6.160308   -5.556331    1.459959
    152          7           0       -4.626413   -2.064173    2.414214
    153          6           0       -3.311883   -1.560983    2.731249
    154          6           0       -3.067193   -1.255989    4.206412
    155          8           0       -1.951079   -1.339634    4.722836
    156          6           0       -3.053491   -0.327904    1.861509
    157          6           0       -3.015531   -0.589073    0.358262
    158          6           0       -2.150413   -1.737830   -0.155187
    159          8           0       -1.140880   -2.120016    0.474874
    160          8           0       -2.526301   -2.395848   -1.137338
    161          1           0       -5.340309   -1.387848    2.177703
    162          1           0       -2.513332   -2.283658    2.583072
    163          1           0       -2.044201   -0.004583    2.105228
    164          1           0       -3.749167    0.482766    2.085670
    165          1           0       -2.568145    0.303035   -0.092169
    166          1           0       -4.035267   -0.746190    0.023071
    167          7           0       -4.145424   -0.901511    4.906957
    168          6           0       -4.197099   -0.495832    6.298271
    169          1           0       -4.723581   -1.254033    6.878385
    170          1           0       -3.183213   -0.384369    6.682803
    171          1           0       -4.724487    0.454125    6.381099
    172          1           0       -5.022503   -0.893393    4.403105
    173         20           0       -0.880271   -4.431684   -0.523160
    174          8           0       -3.338586   -5.297935    0.089130
    175          1           0       -3.987170   -4.601236    0.260441
    176          1           0       -3.777034   -6.095465    0.388979
 ---------------------------------------------------------------------
 Rotational constants (GHZ):           0.0193765           0.0140042           0.0115296
 Standard basis: SVP (5D, 7F)
 There are  1809 symmetry adapted cartesian basis functions of A   symmetry.
 There are  1717 symmetry adapted basis functions of A   symmetry.
  1717 basis functions,  2922 primitive gaussians,  1809 cartesian basis functions
   358 alpha electrons      358 beta electrons
       nuclear repulsion energy     20764.6524037311 Hartrees.
 NAtoms=  176 NActive=  176 NUniq=  176 SFac= 1.00D+00 NAtFMM=   60 NAOKFM=T Big=T
 Integral buffers will be    131072 words long.
 Raffenetti 2 integral format.
 Two-electron integral symmetry is turned on.
 One-electron integrals computed using PRISM.
 NBasis=  1717 RedAO= T EigKep=  2.84D-04  NBF=  1717
 NBsUse=  1717 1.00D-06 EigRej= -1.00D+00 NBFU=  1717
 ExpMin= 1.98D-02 ExpMax= 3.51D+04 ExpMxC= 5.28D+03 IAcc=3 IRadAn=         5 AccDes= 0.00D+00
 Harris functional with IExCor=  402 and IRadAn=       5 diagonalized for initial guess.
 HarFok:  IExCor=  402 AccDes= 0.00D+00 IRadAn=         5 IDoV= 1 UseB2=F ITyADJ=14
 ICtDFT=  3500011 ScaDFX=  1.000000  1.000000  1.000000  1.000000
 FoFCou: FMM=F IPFlag=           0 FMFlag=      100000 FMFlg1=        2001
         NFxFlg=           0 DoJE=T BraDBF=F KetDBF=T FulRan=T
         wScrn=  0.000000 ICntrl=       500 IOpCl=  0 I1Cent=   200000004 NGrid=           0
         NMat0=    1 NMatS0=      1 NMatT0=    0 NMatD0=    1 NMtDS0=    0 NMtDT0=    0
 Petite list used in FoFCou.
 Requested convergence on RMS density matrix=1.00D-08 within 128 cycles.
 Requested convergence on MAX density matrix=1.00D-06.
 Requested convergence on             energy=1.00D-06.
 No special actions if energy rises.
 EnCoef did     2 forward-backward iterations
 EnCoef did     3 forward-backward iterations
 EnCoef did     1 forward-backward iterations
 Rare condition: small coef for last iteration:  0.000D+00
 EnCoef did   100 forward-backward iterations
 EnCoef did   100 forward-backward iterations
 EnCoef did   100 forward-backward iterations
 Rare condition: small coef for last iteration: -0.391D-15
 EnCoef did    17 forward-backward iterations
 Restarting incremental Fock formation.
 SCF Done:  E(RB3LYP) =  -5333.38718844     A.U. after   32 cycles
            NFock= 32  Conv=0.14D-09     -V/T= 2.0081
 SCF density gives NOpUse=  1 NOpAll=  1.
 Hyperfine terms turned off by default for NAtoms > 100.

 **********************************************************************

            Population analysis using the SCF density.

 **********************************************************************

 Orbital symmetries:
 BldTbl:  Degeneracy threshold= 1.00D-02
       Occupied  (A) (A) (A) (A) (A) (A) (A) (A) (A) (A) (A) (A)
                 (A) (A) (A) (A) (A) (A) (A) (A) (A) (A) (A) (A)
                 (A) (A) (A) (A) (A) (A) (A) (A) (A) (A) (A) (A)
                 (A) (A) (A) (A) (A) (A) (A) (A) (A) (A) (A) (A)
                 (A) (A) (A) (A) (A) (A) (A) (A) (A) (A) (A) (A)
                 (A) (A) (A) (A) (A) (A) (A) (A) (A) (A) (A) (A)
                 (A) (A) (A) (A) (A) (A) (A) (A) (A) (A) (A) (A)
                 (A) (A) (A) (A) (A) (A) (A) (A) (A) (A) (A) (A)
                 (A) (A) (A) (A) (A) (A) (A) (A) (A) (A) (A) (A)
                 (A) (A) (A) (A) (A) (A) (A) (A) (A) (A) (A) (A)
                 (A) (A) (A) (A) (A) (A) (A) (A) (A) (A) (A) (A)
                 (A) (A) (A) (A) (A) (A) (A) (A) (A) (A) (A) (A)
                 (A) (A) (A) (A) (A) (A) (A) (A) (A) (A) (A) (A)
                 (A) (A) (A) (A) (A) (A) (A) (A) (A) (A) (A) (A)
                 (A) (A) (A) (A) (A) (A) (A) (A) (A) (A) (A) (A)
                 (A) (A) (A) (A) (A) (A) (A) (A) (A) (A) (A) (A)
                 (A) (A) (A) (A) (A) (A) (A) (A) (A) (A) (A) (A)
                 (A) (A) (A) (A) (A) (A) (A) (A) (A) (A) (A) (A)
                 (A) (A) (A) (A) (A) (A) (A) (A) (A) (A) (A) (A)
                 (A) (A) (A) (A) (A) (A) (A) (A) (A) (A) (A) (A)
                 (A) (A) (A) (A) (A) (A) (A) (A) (A) (A) (A) (A)
                 (A) (A) (A) (A) (A) (A) (A) (A) (A) (A) (A) (A)
                 (A) (A) (A) (A) (A) (A) (A) (A) (A) (A) (A) (A)
                 (A) (A) (A) (A) (A) (A) (A) (A) (A) (A) (A) (A)
                 (A) (A) (A) (A) (A) (A) (A) (A) (A) (A) (A) (A)
                 (A) (A) (A) (A) (A) (A) (A) (A) (A) (A) (A) (A)
                 (A) (A) (A) (A) (A) (A) (A) (A) (A) (A) (A) (A)
                 (A) (A) (A) (A) (A) (A) (A) (A) (A) (A) (A) (A)
                 (A) (A) (A) (A) (A) (A) (A) (A) (A) (A) (A) (A)
                 (A) (A) (A) (A) (A) (A) (A) (A) (A) (A)
       Virtual   (A) (A) (A) (A) (A) (A) (A) (A) (A) (A) (A) (A)
                 (A) (A) (A) (A) (A) (A) (A) (A) (A) (A) (A) (A)
                 (A) (A) (A) (A) (A) (A) (A) (A) (A) (A) (A) (A)
                 (A) (A) (A) (A) (A) (A) (A) (A) (A) (A) (A) (A)
                 (A) (A) (A) (A) (A) (A) (A) (A) (A) (A) (A) (A)
                 (A) (A) (A) (A) (A) (A) (A) (A) (A) (A) (A) (A)
                 (A) (A) (A) (A) (A) (A) (A) (A) (A) (A) (A) (A)
                 (A) (A) (A) (A) (A) (A) (A) (A) (A) (A) (A) (A)
                 (A) (A) (A) (A) (A) (A) (A) (A) (A) (A) (A) (A)
                 (A) (A) (A) (A) (A) (A) (A) (A) (A) (A) (A) (A)
                 (A) (A) (A) (A) (A) (A) (A) (A) (A) (A) (A) (A)
                 (A) (A) (A) (A) (A) (A) (A) (A) (A) (A) (A) (A)
                 (A) (A) (A) (A) (A) (A) (A) (A) (A) (A) (A) (A)
                 (A) (A) (A) (A) (A) (A) (A) (A) (A) (A) (A) (A)
                 (A) (A) (A) (A) (A) (A) (A) (A) (A) (A) (A) (A)
                 (A) (A) (A) (A) (A) (A) (A) (A) (A) (A) (A) (A)
                 (A) (A) (A) (A) (A) (A) (A) (A) (A) (A) (A) (A)
                 (A) (A) (A) (A) (A) (A) (A) (A) (A) (A) (A) (A)
                 (A) (A) (A) (A) (A) (A) (A) (A) (A) (A) (A) (A)
                 (A) (A) (A) (A) (A) (A) (A) (A) (A) (A) (A) (A)
                 (A) (A) (A) (A) (A) (A) (A) (A) (A) (A) (A) (A)
                 (A) (A) (A) (A) (A) (A) (A) (A) (A) (A) (A) (A)
                 (A) (A) (A) (A) (A) (A) (A) (A) (A) (A) (A) (A)
                 (A) (A) (A) (A) (A) (A) (A) (A) (A) (A) (A) (A)
                 (A) (A) (A) (A) (A) (A) (A) (A) (A) (A) (A) (A)
                 (A) (A) (A) (A) (A) (A) (A) (A) (A) (A) (A) (A)
                 (A) (A) (A) (A) (A) (A) (A) (A) (A) (A) (A) (A)
                 (A) (A) (A) (A) (A) (A) (A) (A) (A) (A) (A) (A)
                 (A) (A) (A) (A) (A) (A) (A) (A) (A) (A) (A) (A)
                 (A) (A) (A) (A) (A) (A) (A) (A) (A) (A) (A) (A)
                 (A) (A) (A) (A) (A) (A) (A) (A) (A) (A) (A) (A)
                 (A) (A) (A) (A) (A) (A) (A) (A) (A) (A) (A) (A)
                 (A) (A) (A) (A) (A) (A) (A) (A) (A) (A) (A) (A)
                 (A) (A) (A) (A) (A) (A) (A) (A) (A) (A) (A) (A)
                 (A) (A) (A) (A) (A) (A) (A) (A) (A) (A) (A) (A)
                 (A) (A) (A) (A) (A) (A) (A) (A) (A) (A) (A) (A)
                 (A) (A) (A) (A) (A) (A) (A) (A) (A) (A) (A) (A)
                 (A) (A) (A) (A) (A) (A) (A) (A) (A) (A) (A) (A)
                 (A) (A) (A) (A) (A) (A) (A) (A) (A) (A) (A) (A)
                 (A) (A) (A) (A) (A) (A) (A) (A) (A) (A) (A) (A)
                 (A) (A) (A) (A) (A) (A) (A) (A) (A) (A) (A) (A)
                 (A) (A) (A) (A) (A) (A) (A) (A) (A) (A) (A) (A)
                 (A) (A) (A) (A) (A) (A) (A) (A) (A) (A) (A) (A)
                 (A) (A) (A) (A) (A) (A) (A) (A) (A) (A) (A) (A)
                 (A) (A) (A) (A) (A) (A) (A) (A) (A) (A) (A) (A)
                 (A) (A) (A) (A) (A) (A) (A) (A) (A) (A) (A) (A)
                 (A) (A) (A) (A) (A) (A) (A) (A) (A) (A) (A) (A)
                 (A) (A) (A) (A) (A) (A) (A) (A) (A) (A) (A) (A)
                 (A) (A) (A) (A) (A) (A) (A) (A) (A) (A) (A) (A)
                 (A) (A) (A) (A) (A) (A) (A) (A) (A) (A) (A) (A)
                 (A) (A) (A) (A) (A) (A) (A) (A) (A) (A) (A) (A)
                 (A) (A) (A) (A) (A) (A) (A) (A) (A) (A) (A) (A)
                 (A) (A) (A) (A) (A) (A) (A) (A) (A) (A) (A) (A)
                 (A) (A) (A) (A) (A) (A) (A) (A) (A) (A) (A) (A)
                 (A) (A) (A) (A) (A) (A) (A) (A) (A) (A) (A) (A)
                 (A) (A) (A) (A) (A) (A) (A) (A) (A) (A) (A) (A)
                 (A) (A) (A) (A) (A) (A) (A) (A) (A) (A) (A) (A)
                 (A) (A) (A) (A) (A) (A) (A) (A) (A) (A) (A) (A)
                 (A) (A) (A) (A) (A) (A) (A) (A) (A) (A) (A) (A)
                 (A) (A) (A) (A) (A) (A) (A) (A) (A) (A) (A) (A)
                 (A) (A) (A) (A) (A) (A) (A) (A) (A) (A) (A) (A)
                 (A) (A) (A) (A) (A) (A) (A) (A) (A) (A) (A) (A)
                 (A) (A) (A) (A) (A) (A) (A) (A) (A) (A) (A) (A)
                 (A) (A) (A) (A) (A) (A) (A) (A) (A) (A) (A) (A)
                 (A) (A) (A) (A) (A) (A) (A) (A) (A) (A) (A) (A)
                 (A) (A) (A) (A) (A) (A) (A) (A) (A) (A) (A) (A)
                 (A) (A) (A) (A) (A) (A) (A) (A) (A) (A) (A) (A)
                 (A) (A) (A) (A) (A) (A) (A) (A) (A) (A) (A) (A)
                 (A) (A) (A) (A) (A) (A) (A) (A) (A) (A) (A) (A)
                 (A) (A) (A) (A) (A) (A) (A) (A) (A) (A) (A) (A)
                 (A) (A) (A) (A) (A) (A) (A) (A) (A) (A) (A) (A)
                 (A) (A) (A) (A) (A) (A) (A) (A) (A) (A) (A) (A)
                 (A) (A) (A) (A) (A) (A) (A) (A) (A) (A) (A) (A)
                 (A) (A) (A) (A) (A) (A) (A) (A) (A) (A) (A) (A)
                 (A) (A) (A) (A) (A) (A) (A) (A) (A) (A) (A) (A)
                 (A) (A) (A) (A) (A) (A) (A) (A) (A) (A) (A) (A)
                 (A) (A) (A) (A) (A) (A) (A) (A) (A) (A) (A) (A)
                 (A) (A) (A) (A) (A) (A) (A) (A) (A) (A) (A) (A)
                 (A) (A) (A) (A) (A) (A) (A) (A) (A) (A) (A) (A)
                 (A) (A) (A) (A) (A) (A) (A) (A) (A) (A) (A) (A)
                 (A) (A) (A) (A) (A) (A) (A) (A) (A) (A) (A) (A)
                 (A) (A) (A) (A) (A) (A) (A) (A) (A) (A) (A) (A)
                 (A) (A) (A) (A) (A) (A) (A) (A) (A) (A) (A) (A)
                 (A) (A) (A) (A) (A) (A) (A) (A) (A) (A) (A) (A)
                 (A) (A) (A) (A) (A) (A) (A) (A) (A) (A) (A) (A)
                 (A) (A) (A) (A) (A) (A) (A) (A) (A) (A) (A) (A)
                 (A) (A) (A) (A) (A) (A) (A) (A) (A) (A) (A) (A)
                 (A) (A) (A) (A) (A) (A) (A) (A) (A) (A) (A) (A)
                 (A) (A) (A) (A) (A) (A) (A) (A) (A) (A) (A) (A)
                 (A) (A) (A) (A) (A) (A) (A) (A) (A) (A) (A) (A)
                 (A) (A) (A) (A) (A) (A) (A) (A) (A) (A) (A) (A)
                 (A) (A) (A) (A) (A) (A) (A) (A) (A) (A) (A) (A)
                 (A) (A) (A) (A) (A) (A) (A) (A) (A) (A) (A) (A)
                 (A) (A) (A) (A) (A) (A) (A) (A) (A) (A) (A) (A)
                 (A) (A) (A) (A) (A) (A) (A) (A) (A) (A) (A) (A)
                 (A) (A) (A) (A) (A) (A) (A) (A) (A) (A) (A) (A)
                 (A) (A) (A) (A) (A) (A) (A) (A) (A) (A) (A) (A)
                 (A) (A) (A) (A) (A) (A) (A) (A) (A) (A) (A) (A)
                 (A) (A) (A) (A) (A) (A) (A) (A) (A) (A) (A) (A)
                 (A) (A) (A) (A) (A) (A) (A) (A) (A) (A) (A) (A)
                 (A) (A) (A) (A) (A) (A) (A) (A) (A) (A) (A) (A)
                 (A) (A) (A) (A) (A) (A) (A) (A) (A) (A) (A) (A)
                 (A) (A) (A) (A) (A) (A) (A) (A) (A) (A) (A) (A)
                 (A) (A) (A) (A) (A) (A) (A) (A) (A) (A) (A) (A)
                 (A) (A) (A) (A) (A) (A) (A) (A) (A) (A) (A) (A)
                 (A) (A) (A) (A) (A) (A) (A) (A) (A) (A) (A) (A)
                 (A) (A) (A) (A) (A) (A) (A) (A) (A) (A) (A) (A)
                 (A) (A) (A) (A) (A) (A) (A) (A) (A) (A) (A) (A)
                 (A) (A) (A) (A) (A) (A) (A) (A) (A) (A) (A) (A)
                 (A) (A) (A) (A) (A) (A) (A) (A) (A) (A) (A) (A)
                 (A) (A) (A) (A) (A) (A) (A) (A) (A) (A) (A) (A)
                 (A) (A) (A) (A) (A) (A) (A) (A) (A) (A) (A) (A)
                 (A) (A) (A) (A) (A) (A) (A) (A) (A) (A) (A) (A)
                 (A) (A) (A)
 The electronic state is 1-A.
 Alpha  occ. eigenvalues -- -145.45419 -19.20676 -19.16432 -19.14485 -19.14206
 Alpha  occ. eigenvalues --  -19.14147 -19.12344 -19.09651 -19.09310 -19.08469
 Alpha  occ. eigenvalues --  -19.08302 -19.08107 -19.07402 -19.06791 -19.06683
 Alpha  occ. eigenvalues --  -19.06467 -19.05216 -19.04973 -19.04773 -19.04066
 Alpha  occ. eigenvalues --  -19.03675 -19.02722 -18.97397 -18.96542 -15.51335
 Alpha  occ. eigenvalues --  -14.57563 -14.40405 -14.40216 -14.37738 -14.37049
 Alpha  occ. eigenvalues --  -14.36109 -14.35717 -14.34439 -14.33083 -14.30993
 Alpha  occ. eigenvalues --  -14.30789 -14.30499 -14.30085 -14.30036 -14.29261
 Alpha  occ. eigenvalues --  -12.64934 -12.64900 -12.64855 -10.34158 -10.32646
 Alpha  occ. eigenvalues --  -10.32512 -10.31285 -10.28299 -10.28168 -10.28139
 Alpha  occ. eigenvalues --  -10.28050 -10.27424 -10.26592 -10.26534 -10.26377
 Alpha  occ. eigenvalues --  -10.26268 -10.25710 -10.25622 -10.25275 -10.25002
 Alpha  occ. eigenvalues --  -10.23969 -10.23709 -10.23522 -10.23126 -10.23052
 Alpha  occ. eigenvalues --  -10.23012 -10.22960 -10.22802 -10.22632 -10.22483
 Alpha  occ. eigenvalues --  -10.22381 -10.22095 -10.21529 -10.20999 -10.20917
 Alpha  occ. eigenvalues --  -10.19872 -10.19510 -10.19278 -10.19174 -10.19088
 Alpha  occ. eigenvalues --  -10.19085 -10.19035 -10.18612 -10.18517 -10.18253
 Alpha  occ. eigenvalues --  -10.17444 -10.17189 -10.17154 -10.16993 -10.16281
 Alpha  occ. eigenvalues --  -10.16078 -10.15629 -10.15400 -10.14050 -10.13195
 Alpha  occ. eigenvalues --  -10.12863 -10.10449  -1.88054  -1.15439  -1.15280
 Alpha  occ. eigenvalues --   -1.14970  -1.13043  -1.07652  -1.06571  -1.06099
 Alpha  occ. eigenvalues --   -1.05431  -1.05319  -1.03307  -1.03054  -1.02790
 Alpha  occ. eigenvalues --   -1.02108  -1.01869  -1.01362  -1.00866  -1.00050
 Alpha  occ. eigenvalues --   -0.98766  -0.98029  -0.97588  -0.97480  -0.96936
 Alpha  occ. eigenvalues --   -0.96787  -0.96619  -0.95826  -0.94308  -0.94174
 Alpha  occ. eigenvalues --   -0.92511  -0.91937  -0.91928  -0.91692  -0.91357
 Alpha  occ. eigenvalues --   -0.91001  -0.89152  -0.88689  -0.88270  -0.87415
 Alpha  occ. eigenvalues --   -0.87227  -0.86211  -0.86111  -0.85631  -0.84736
 Alpha  occ. eigenvalues --   -0.84278  -0.81712  -0.80999  -0.80892  -0.79667
 Alpha  occ. eigenvalues --   -0.78874  -0.78471  -0.77669  -0.75928  -0.74343
 Alpha  occ. eigenvalues --   -0.74321  -0.74145  -0.73601  -0.73371  -0.73365
 Alpha  occ. eigenvalues --   -0.71922  -0.71219  -0.71116  -0.69939  -0.69652
 Alpha  occ. eigenvalues --   -0.69215  -0.68856  -0.68529  -0.68072  -0.67374
 Alpha  occ. eigenvalues --   -0.67155  -0.66310  -0.65419  -0.65039  -0.64513
 Alpha  occ. eigenvalues --   -0.63900  -0.62908  -0.61954  -0.61743  -0.61348
 Alpha  occ. eigenvalues --   -0.61118  -0.60830  -0.60496  -0.60328  -0.59833
 Alpha  occ. eigenvalues --   -0.59117  -0.58911  -0.58859  -0.58776  -0.58757
 Alpha  occ. eigenvalues --   -0.58448  -0.56746  -0.56666  -0.56048  -0.55889
 Alpha  occ. eigenvalues --   -0.55116  -0.54825  -0.54353  -0.54314  -0.54286
 Alpha  occ. eigenvalues --   -0.53911  -0.53658  -0.53219  -0.52776  -0.52622
 Alpha  occ. eigenvalues --   -0.52437  -0.52219  -0.51696  -0.51367  -0.51019
 Alpha  occ. eigenvalues --   -0.50695  -0.50603  -0.50420  -0.50216  -0.50196
 Alpha  occ. eigenvalues --   -0.49752  -0.49721  -0.49310  -0.48382  -0.48241
 Alpha  occ. eigenvalues --   -0.47986  -0.47958  -0.47831  -0.47544  -0.47381
 Alpha  occ. eigenvalues --   -0.47024  -0.46802  -0.46432  -0.46365  -0.46177
 Alpha  occ. eigenvalues --   -0.46080  -0.45590  -0.45548  -0.45529  -0.45335
 Alpha  occ. eigenvalues --   -0.45153  -0.44951  -0.44481  -0.44024  -0.43895
 Alpha  occ. eigenvalues --   -0.43785  -0.43659  -0.43610  -0.43250  -0.43203
 Alpha  occ. eigenvalues --   -0.43123  -0.43048  -0.42799  -0.42676  -0.42606
 Alpha  occ. eigenvalues --   -0.42452  -0.42279  -0.42222  -0.42092  -0.42009
 Alpha  occ. eigenvalues --   -0.41896  -0.41562  -0.41462  -0.41292  -0.41140
 Alpha  occ. eigenvalues --   -0.40892  -0.40847  -0.40830  -0.40574  -0.40477
 Alpha  occ. eigenvalues --   -0.40218  -0.40132  -0.39870  -0.39687  -0.39623
 Alpha  occ. eigenvalues --   -0.39382  -0.39326  -0.39209  -0.38949  -0.38660
 Alpha  occ. eigenvalues --   -0.38572  -0.38474  -0.38212  -0.38179  -0.38125
 Alpha  occ. eigenvalues --   -0.37919  -0.37751  -0.37677  -0.37453  -0.37393
 Alpha  occ. eigenvalues --   -0.37095  -0.37004  -0.36686  -0.36404  -0.36320
 Alpha  occ. eigenvalues --   -0.35938  -0.35798  -0.35699  -0.35614  -0.35603
 Alpha  occ. eigenvalues --   -0.35367  -0.34956  -0.34750  -0.34548  -0.34451
 Alpha  occ. eigenvalues --   -0.34395  -0.34285  -0.34150  -0.33827  -0.33566
 Alpha  occ. eigenvalues --   -0.33395  -0.33208  -0.32986  -0.32890  -0.32746
 Alpha  occ. eigenvalues --   -0.32672  -0.32625  -0.32273  -0.32056  -0.31888
 Alpha  occ. eigenvalues --   -0.31727  -0.31473  -0.31148  -0.31079  -0.30605
 Alpha  occ. eigenvalues --   -0.30278  -0.29960  -0.29775  -0.29692  -0.29214
 Alpha  occ. eigenvalues --   -0.29178  -0.28376  -0.28032  -0.27931  -0.27071
 Alpha  occ. eigenvalues --   -0.26543  -0.26482  -0.26434  -0.25815  -0.25708
 Alpha  occ. eigenvalues --   -0.25498  -0.25333  -0.25300  -0.25012  -0.24761
 Alpha  occ. eigenvalues --   -0.24178  -0.23748  -0.23707  -0.23293  -0.23223
 Alpha  occ. eigenvalues --   -0.23158  -0.22733  -0.22690  -0.22230  -0.22104
 Alpha  occ. eigenvalues --   -0.21934  -0.21772  -0.21281  -0.20883  -0.20232
 Alpha  occ. eigenvalues --   -0.20124  -0.19329  -0.18973  -0.18822  -0.18041
 Alpha  occ. eigenvalues --   -0.14489  -0.14157  -0.11718
 Alpha virt. eigenvalues --   -0.10612  -0.09378  -0.04017  -0.03887  -0.03258
 Alpha virt. eigenvalues --   -0.03116  -0.01810  -0.01654  -0.00692  -0.00500
 Alpha virt. eigenvalues --    0.00098   0.00690   0.01045   0.01285   0.01620
 Alpha virt. eigenvalues --    0.02022   0.02256   0.02592   0.02861   0.03137
 Alpha virt. eigenvalues --    0.03499   0.03561   0.03826   0.04263   0.04403
 Alpha virt. eigenvalues --    0.04544   0.05085   0.05305   0.05376   0.05603
 Alpha virt. eigenvalues --    0.05653   0.05764   0.06430   0.06530   0.06707
 Alpha virt. eigenvalues --    0.06764   0.07029   0.07250   0.07399   0.07514
 Alpha virt. eigenvalues --    0.07865   0.07988   0.08107   0.08402   0.08631
 Alpha virt. eigenvalues --    0.08690   0.09217   0.09301   0.09500   0.09749
 Alpha virt. eigenvalues --    0.09848   0.10133   0.10425   0.10553   0.10670
 Alpha virt. eigenvalues --    0.11014   0.11252   0.11417   0.11567   0.11731
 Alpha virt. eigenvalues --    0.11778   0.12055   0.12229   0.12369   0.12467
 Alpha virt. eigenvalues --    0.12658   0.12837   0.13168   0.13322   0.13624
 Alpha virt. eigenvalues --    0.13795   0.13981   0.14013   0.14238   0.14439
 Alpha virt. eigenvalues --    0.14568   0.14617   0.14807   0.14926   0.15096
 Alpha virt. eigenvalues --    0.15291   0.15401   0.15778   0.16009   0.16151
 Alpha virt. eigenvalues --    0.16251   0.16500   0.16709   0.16715   0.16852
 Alpha virt. eigenvalues --    0.17118   0.17191   0.17257   0.17600   0.17764
 Alpha virt. eigenvalues --    0.17938   0.18270   0.18591   0.18664   0.19042
 Alpha virt. eigenvalues --    0.19077   0.19261   0.19471   0.19579   0.19948
 Alpha virt. eigenvalues --    0.20288   0.20402   0.20565   0.20649   0.20861
 Alpha virt. eigenvalues --    0.20994   0.21144   0.21404   0.21552   0.21629
 Alpha virt. eigenvalues --    0.21829   0.21909   0.22042   0.22338   0.22383
 Alpha virt. eigenvalues --    0.22471   0.22687   0.22815   0.23177   0.23230
 Alpha virt. eigenvalues --    0.23351   0.23683   0.23807   0.24276   0.24454
 Alpha virt. eigenvalues --    0.24619   0.24736   0.25223   0.25480   0.25826
 Alpha virt. eigenvalues --    0.25975   0.26097   0.26318   0.26451   0.26926
 Alpha virt. eigenvalues --    0.27575   0.27913   0.27992   0.28187   0.28642
 Alpha virt. eigenvalues --    0.28757   0.28908   0.29351   0.29489   0.29604
 Alpha virt. eigenvalues --    0.29736   0.30018   0.30131   0.30542   0.30595
 Alpha virt. eigenvalues --    0.30796   0.30959   0.31087   0.31226   0.31392
 Alpha virt. eigenvalues --    0.31512   0.31894   0.31950   0.32159   0.32538
 Alpha virt. eigenvalues --    0.32669   0.32962   0.33096   0.33354   0.33434
 Alpha virt. eigenvalues --    0.33792   0.34627   0.34975   0.35177   0.35253
 Alpha virt. eigenvalues --    0.35615   0.36098   0.36445   0.36567   0.36796
 Alpha virt. eigenvalues --    0.36907   0.37007   0.37509   0.37875   0.38106
 Alpha virt. eigenvalues --    0.38507   0.38757   0.38848   0.38900   0.39151
 Alpha virt. eigenvalues --    0.39375   0.39948   0.40268   0.40434   0.40737
 Alpha virt. eigenvalues --    0.40974   0.41082   0.41408   0.41473   0.41814
 Alpha virt. eigenvalues --    0.41919   0.42427   0.42621   0.42633   0.42715
 Alpha virt. eigenvalues --    0.42762   0.43337   0.43623   0.43932   0.44088
 Alpha virt. eigenvalues --    0.44457   0.44736   0.44950   0.45148   0.45415
 Alpha virt. eigenvalues --    0.45715   0.45965   0.46056   0.46400   0.46589
 Alpha virt. eigenvalues --    0.46888   0.46957   0.47200   0.47269   0.47338
 Alpha virt. eigenvalues --    0.47662   0.47812   0.47967   0.48208   0.48472
 Alpha virt. eigenvalues --    0.48641   0.48728   0.48881   0.49100   0.49424
 Alpha virt. eigenvalues --    0.49472   0.49895   0.50071   0.50174   0.50356
 Alpha virt. eigenvalues --    0.50656   0.51214   0.51311   0.51404   0.51800
 Alpha virt. eigenvalues --    0.51920   0.52303   0.52423   0.52507   0.52614
 Alpha virt. eigenvalues --    0.52847   0.53222   0.53432   0.53644   0.53877
 Alpha virt. eigenvalues --    0.53976   0.54223   0.54528   0.54652   0.54718
 Alpha virt. eigenvalues --    0.54787   0.55045   0.55144   0.55381   0.55539
 Alpha virt. eigenvalues --    0.55606   0.55673   0.55776   0.56044   0.56294
 Alpha virt. eigenvalues --    0.56524   0.56843   0.56975   0.57090   0.57246
 Alpha virt. eigenvalues --    0.57495   0.57633   0.57873   0.57980   0.58140
 Alpha virt. eigenvalues --    0.58377   0.58551   0.58587   0.58699   0.58894
 Alpha virt. eigenvalues --    0.59029   0.59177   0.59256   0.59360   0.59496
 Alpha virt. eigenvalues --    0.59591   0.59915   0.60170   0.60335   0.60594
 Alpha virt. eigenvalues --    0.60716   0.61075   0.61125   0.61176   0.61298
 Alpha virt. eigenvalues --    0.61436   0.61685   0.61835   0.61966   0.62092
 Alpha virt. eigenvalues --    0.62155   0.62186   0.62306   0.62371   0.62460
 Alpha virt. eigenvalues --    0.62676   0.62691   0.62915   0.62980   0.63225
 Alpha virt. eigenvalues --    0.63277   0.63483   0.63532   0.63716   0.63851
 Alpha virt. eigenvalues --    0.63895   0.64081   0.64309   0.64370   0.64393
 Alpha virt. eigenvalues --    0.64730   0.64804   0.64919   0.65105   0.65254
 Alpha virt. eigenvalues --    0.65316   0.65449   0.65560   0.65723   0.65922
 Alpha virt. eigenvalues --    0.66012   0.66064   0.66175   0.66432   0.66554
 Alpha virt. eigenvalues --    0.66719   0.66886   0.66958   0.67060   0.67143
 Alpha virt. eigenvalues --    0.67355   0.67486   0.67678   0.67836   0.68007
 Alpha virt. eigenvalues --    0.68084   0.68157   0.68199   0.68431   0.68603
 Alpha virt. eigenvalues --    0.68693   0.68833   0.68974   0.69055   0.69117
 Alpha virt. eigenvalues --    0.69192   0.69446   0.69539   0.69568   0.69801
 Alpha virt. eigenvalues --    0.69873   0.70003   0.70039   0.70155   0.70328
 Alpha virt. eigenvalues --    0.70383   0.70649   0.70742   0.70801   0.71003
 Alpha virt. eigenvalues --    0.71117   0.71213   0.71319   0.71402   0.71458
 Alpha virt. eigenvalues --    0.71620   0.71738   0.71760   0.72034   0.72113
 Alpha virt. eigenvalues --    0.72459   0.72526   0.72704   0.72769   0.72945
 Alpha virt. eigenvalues --    0.73106   0.73192   0.73263   0.73461   0.73558
 Alpha virt. eigenvalues --    0.73783   0.74022   0.74130   0.74477   0.74524
 Alpha virt. eigenvalues --    0.74618   0.74765   0.75032   0.75195   0.75362
 Alpha virt. eigenvalues --    0.75542   0.75655   0.75889   0.76125   0.76296
 Alpha virt. eigenvalues --    0.76428   0.76630   0.76838   0.77046   0.77238
 Alpha virt. eigenvalues --    0.77436   0.77753   0.77923   0.78076   0.78330
 Alpha virt. eigenvalues --    0.78608   0.78718   0.79169   0.79715   0.79924
 Alpha virt. eigenvalues --    0.80173   0.80419   0.80702   0.80871   0.81113
 Alpha virt. eigenvalues --    0.81303   0.81655   0.81735   0.82076   0.82287
 Alpha virt. eigenvalues --    0.82320   0.82751   0.83083   0.83312   0.83507
 Alpha virt. eigenvalues --    0.83580   0.83872   0.84288   0.84344   0.84678
 Alpha virt. eigenvalues --    0.84787   0.84957   0.85336   0.85453   0.86008
 Alpha virt. eigenvalues --    0.86183   0.86523   0.86565   0.86971   0.87493
 Alpha virt. eigenvalues --    0.87586   0.88011   0.88139   0.88336   0.88762
 Alpha virt. eigenvalues --    0.89037   0.89484   0.89569   0.90069   0.90455
 Alpha virt. eigenvalues --    0.90637   0.90678   0.90928   0.91311   0.91627
 Alpha virt. eigenvalues --    0.91973   0.92202   0.92411   0.92603   0.93076
 Alpha virt. eigenvalues --    0.93128   0.93627   0.93855   0.94202   0.94311
 Alpha virt. eigenvalues --    0.94667   0.95021   0.95129   0.95512   0.95835
 Alpha virt. eigenvalues --    0.96195   0.96420   0.96607   0.96659   0.97007
 Alpha virt. eigenvalues --    0.97197   0.97480   0.97524   0.98049   0.98110
 Alpha virt. eigenvalues --    0.98357   0.98877   0.99098   0.99316   0.99654
 Alpha virt. eigenvalues --    1.00079   1.00331   1.00741   1.00885   1.01366
 Alpha virt. eigenvalues --    1.01539   1.01854   1.02076   1.02152   1.02391
 Alpha virt. eigenvalues --    1.02731   1.03093   1.03563   1.03662   1.03745
 Alpha virt. eigenvalues --    1.04010   1.04340   1.04833   1.04926   1.05254
 Alpha virt. eigenvalues --    1.05363   1.05920   1.06319   1.06611   1.07023
 Alpha virt. eigenvalues --    1.07176   1.07342   1.07428   1.07584   1.08015
 Alpha virt. eigenvalues --    1.08189   1.08579   1.08733   1.09110   1.09408
 Alpha virt. eigenvalues --    1.09615   1.09736   1.10084   1.10385   1.10719
 Alpha virt. eigenvalues --    1.10920   1.11557   1.11652   1.11903   1.12049
 Alpha virt. eigenvalues --    1.12545   1.12618   1.12798   1.13287   1.13605
 Alpha virt. eigenvalues --    1.13784   1.13965   1.14148   1.14465   1.14496
 Alpha virt. eigenvalues --    1.15154   1.15596   1.15776   1.16383   1.16705
 Alpha virt. eigenvalues --    1.16860   1.17263   1.17346   1.17630   1.17942
 Alpha virt. eigenvalues --    1.18158   1.18355   1.18451   1.18609   1.18978
 Alpha virt. eigenvalues --    1.19258   1.19446   1.19798   1.20225   1.20278
 Alpha virt. eigenvalues --    1.20392   1.20614   1.21218   1.21385   1.21647
 Alpha virt. eigenvalues --    1.21952   1.22115   1.22188   1.22521   1.23024
 Alpha virt. eigenvalues --    1.23173   1.23424   1.23781   1.23937   1.24336
 Alpha virt. eigenvalues --    1.24694   1.24832   1.25023   1.25194   1.25229
 Alpha virt. eigenvalues --    1.25519   1.25580   1.25884   1.26459   1.26937
 Alpha virt. eigenvalues --    1.27148   1.27313   1.27362   1.27614   1.28202
 Alpha virt. eigenvalues --    1.28620   1.28779   1.28952   1.29238   1.29332
 Alpha virt. eigenvalues --    1.29471   1.30090   1.30445   1.30509   1.30906
 Alpha virt. eigenvalues --    1.31011   1.31221   1.31314   1.31806   1.31995
 Alpha virt. eigenvalues --    1.32138   1.32550   1.32641   1.32993   1.33086
 Alpha virt. eigenvalues --    1.33595   1.34054   1.34185   1.34488   1.34826
 Alpha virt. eigenvalues --    1.35150   1.35406   1.35690   1.36174   1.36227
 Alpha virt. eigenvalues --    1.36547   1.37084   1.37095   1.37255   1.37483
 Alpha virt. eigenvalues --    1.37888   1.38255   1.38471   1.39058   1.39269
 Alpha virt. eigenvalues --    1.39455   1.39934   1.40060   1.40292   1.40389
 Alpha virt. eigenvalues --    1.40721   1.40767   1.41007   1.41490   1.41628
 Alpha virt. eigenvalues --    1.41956   1.42283   1.42812   1.42884   1.43074
 Alpha virt. eigenvalues --    1.43571   1.43981   1.44068   1.44247   1.44813
 Alpha virt. eigenvalues --    1.44963   1.45481   1.45904   1.46019   1.46578
 Alpha virt. eigenvalues --    1.46847   1.47026   1.47178   1.47531   1.47604
 Alpha virt. eigenvalues --    1.48034   1.48499   1.48541   1.48838   1.49044
 Alpha virt. eigenvalues --    1.49445   1.49734   1.50088   1.50187   1.50734
 Alpha virt. eigenvalues --    1.50823   1.50990   1.51353   1.51571   1.51630
 Alpha virt. eigenvalues --    1.51951   1.52317   1.52398   1.52602   1.52813
 Alpha virt. eigenvalues --    1.53489   1.53871   1.54097   1.54374   1.54625
 Alpha virt. eigenvalues --    1.54782   1.55151   1.55471   1.55555   1.55957
 Alpha virt. eigenvalues --    1.56600   1.56682   1.57122   1.57659   1.57992
 Alpha virt. eigenvalues --    1.58395   1.59140   1.59299   1.59556   1.60762
 Alpha virt. eigenvalues --    1.60897   1.60925   1.61499   1.61836   1.62359
 Alpha virt. eigenvalues --    1.62615   1.62688   1.62981   1.63274   1.63411
 Alpha virt. eigenvalues --    1.63872   1.63920   1.64375   1.64851   1.65030
 Alpha virt. eigenvalues --    1.65474   1.66147   1.66473   1.66705   1.66993
 Alpha virt. eigenvalues --    1.67151   1.67704   1.67776   1.67870   1.68102
 Alpha virt. eigenvalues --    1.68603   1.68801   1.69093   1.69204   1.69761
 Alpha virt. eigenvalues --    1.69979   1.70413   1.70627   1.71190   1.71351
 Alpha virt. eigenvalues --    1.71433   1.71568   1.71847   1.71905   1.72112
 Alpha virt. eigenvalues --    1.72867   1.73057   1.73314   1.73442   1.73777
 Alpha virt. eigenvalues --    1.73952   1.74217   1.74411   1.74602   1.74809
 Alpha virt. eigenvalues --    1.74963   1.75072   1.75358   1.75422   1.75579
 Alpha virt. eigenvalues --    1.75729   1.75862   1.75972   1.76126   1.76391
 Alpha virt. eigenvalues --    1.76471   1.76543   1.76853   1.76898   1.77163
 Alpha virt. eigenvalues --    1.77415   1.77709   1.77965   1.78104   1.78260
 Alpha virt. eigenvalues --    1.78312   1.78708   1.78904   1.79164   1.79337
 Alpha virt. eigenvalues --    1.79383   1.79545   1.79755   1.79997   1.80377
 Alpha virt. eigenvalues --    1.80404   1.80674   1.80766   1.81037   1.81385
 Alpha virt. eigenvalues --    1.81540   1.81776   1.82159   1.82267   1.82310
 Alpha virt. eigenvalues --    1.82387   1.82661   1.82737   1.83040   1.83062
 Alpha virt. eigenvalues --    1.83224   1.83312   1.83402   1.83587   1.83895
 Alpha virt. eigenvalues --    1.83997   1.84217   1.84257   1.84675   1.84768
 Alpha virt. eigenvalues --    1.84868   1.85117   1.85371   1.85437   1.85629
 Alpha virt. eigenvalues --    1.85718   1.85916   1.86032   1.86117   1.86271
 Alpha virt. eigenvalues --    1.86547   1.86647   1.86746   1.87191   1.87241
 Alpha virt. eigenvalues --    1.87467   1.87551   1.87628   1.88034   1.88157
 Alpha virt. eigenvalues --    1.88699   1.88811   1.89241   1.89470   1.89645
 Alpha virt. eigenvalues --    1.89806   1.89891   1.90013   1.90243   1.90454
 Alpha virt. eigenvalues --    1.90835   1.91019   1.91212   1.91476   1.91704
 Alpha virt. eigenvalues --    1.91847   1.92051   1.92181   1.92362   1.92576
 Alpha virt. eigenvalues --    1.92768   1.92944   1.92975   1.93194   1.93403
 Alpha virt. eigenvalues --    1.93789   1.93866   1.94058   1.94193   1.94476
 Alpha virt. eigenvalues --    1.94690   1.94710   1.94920   1.95232   1.95605
 Alpha virt. eigenvalues --    1.95886   1.95965   1.96763   1.96820   1.96953
 Alpha virt. eigenvalues --    1.97111   1.97498   1.97625   1.97857   1.98052
 Alpha virt. eigenvalues --    1.98384   1.98571   1.98676   1.98904   1.98981
 Alpha virt. eigenvalues --    1.99129   1.99277   1.99552   1.99824   2.00064
 Alpha virt. eigenvalues --    2.00265   2.00333   2.00445   2.00709   2.01130
 Alpha virt. eigenvalues --    2.01268   2.01522   2.01678   2.02231   2.02371
 Alpha virt. eigenvalues --    2.02463   2.02739   2.02936   2.03088   2.03509
 Alpha virt. eigenvalues --    2.03815   2.04258   2.04318   2.04732   2.04908
 Alpha virt. eigenvalues --    2.04978   2.05331   2.05591   2.05757   2.05967
 Alpha virt. eigenvalues --    2.06437   2.06693   2.06798   2.06950   2.07239
 Alpha virt. eigenvalues --    2.07323   2.07569   2.07651   2.07938   2.08270
 Alpha virt. eigenvalues --    2.08495   2.09099   2.09508   2.09606   2.09855
 Alpha virt. eigenvalues --    2.10092   2.10382   2.10669   2.10780   2.11315
 Alpha virt. eigenvalues --    2.11393   2.11593   2.11950   2.12334   2.12542
 Alpha virt. eigenvalues --    2.12756   2.13035   2.13315   2.13544   2.13999
 Alpha virt. eigenvalues --    2.14019   2.14183   2.14539   2.14677   2.15112
 Alpha virt. eigenvalues --    2.15390   2.15662   2.15719   2.16090   2.16343
 Alpha virt. eigenvalues --    2.16425   2.16879   2.17315   2.17610   2.17893
 Alpha virt. eigenvalues --    2.18124   2.18639   2.18863   2.19464   2.19853
 Alpha virt. eigenvalues --    2.20074   2.20218   2.20252   2.20571   2.20921
 Alpha virt. eigenvalues --    2.21078   2.21308   2.21878   2.22010   2.22454
 Alpha virt. eigenvalues --    2.22708   2.23090   2.23135   2.23392   2.23722
 Alpha virt. eigenvalues --    2.23986   2.24049   2.24556   2.25165   2.25470
 Alpha virt. eigenvalues --    2.25607   2.25736   2.26163   2.27245   2.27477
 Alpha virt. eigenvalues --    2.27554   2.27986   2.28397   2.28763   2.28860
 Alpha virt. eigenvalues --    2.29449   2.29825   2.30293   2.30693   2.30734
 Alpha virt. eigenvalues --    2.30891   2.31526   2.31679   2.31959   2.32398
 Alpha virt. eigenvalues --    2.32509   2.33091   2.33326   2.33979   2.34243
 Alpha virt. eigenvalues --    2.34594   2.35154   2.35562   2.36123   2.36177
 Alpha virt. eigenvalues --    2.36303   2.36699   2.36861   2.37133   2.37214
 Alpha virt. eigenvalues --    2.37565   2.37773   2.38652   2.38744   2.39065
 Alpha virt. eigenvalues --    2.39341   2.39516   2.40150   2.40233   2.40579
 Alpha virt. eigenvalues --    2.40813   2.41178   2.41660   2.41852   2.42102
 Alpha virt. eigenvalues --    2.42215   2.42464   2.43042   2.43381   2.43611
 Alpha virt. eigenvalues --    2.44372   2.44598   2.45028   2.45452   2.45541
 Alpha virt. eigenvalues --    2.45712   2.46231   2.46825   2.47109   2.47408
 Alpha virt. eigenvalues --    2.47452   2.47835   2.48205   2.48621   2.49086
 Alpha virt. eigenvalues --    2.49359   2.49726   2.50104   2.50997   2.51058
 Alpha virt. eigenvalues --    2.51422   2.51541   2.51668   2.51966   2.52398
 Alpha virt. eigenvalues --    2.52492   2.52695   2.52989   2.53314   2.53820
 Alpha virt. eigenvalues --    2.54108   2.54547   2.55147   2.56079   2.56282
 Alpha virt. eigenvalues --    2.56377   2.56588   2.56771   2.57290   2.57458
 Alpha virt. eigenvalues --    2.57609   2.57840   2.57966   2.58681   2.59079
 Alpha virt. eigenvalues --    2.59616   2.59662   2.59849   2.60122   2.60677
 Alpha virt. eigenvalues --    2.60971   2.61253   2.61444   2.61932   2.62293
 Alpha virt. eigenvalues --    2.62379   2.62481   2.62716   2.63204   2.64113
 Alpha virt. eigenvalues --    2.64452   2.64649   2.64851   2.65016   2.65329
 Alpha virt. eigenvalues --    2.65544   2.65584   2.66008   2.66263   2.66499
 Alpha virt. eigenvalues --    2.66748   2.66996   2.67146   2.67441   2.67935
 Alpha virt. eigenvalues --    2.68204   2.68556   2.69037   2.69305   2.69338
 Alpha virt. eigenvalues --    2.69600   2.70359   2.70854   2.71082   2.71670
 Alpha virt. eigenvalues --    2.71791   2.72192   2.72523   2.72694   2.72872
 Alpha virt. eigenvalues --    2.72979   2.73112   2.73284   2.74243   2.74642
 Alpha virt. eigenvalues --    2.74840   2.74907   2.75036   2.75220   2.75892
 Alpha virt. eigenvalues --    2.76037   2.76204   2.76302   2.76443   2.76663
 Alpha virt. eigenvalues --    2.76976   2.77158   2.77383   2.77792   2.77913
 Alpha virt. eigenvalues --    2.78291   2.78558   2.78939   2.79055   2.79199
 Alpha virt. eigenvalues --    2.79429   2.79801   2.80434   2.80636   2.80661
 Alpha virt. eigenvalues --    2.81273   2.81431   2.81687   2.82162   2.82189
 Alpha virt. eigenvalues --    2.82438   2.82467   2.82833   2.83118   2.83206
 Alpha virt. eigenvalues --    2.83495   2.83841   2.84184   2.84645   2.84943
 Alpha virt. eigenvalues --    2.85019   2.85337   2.85638   2.86528   2.87028
 Alpha virt. eigenvalues --    2.87279   2.87446   2.87861   2.88047   2.88219
 Alpha virt. eigenvalues --    2.88749   2.89228   2.89323   2.89463   2.89587
 Alpha virt. eigenvalues --    2.90053   2.90230   2.90583   2.91000   2.91276
 Alpha virt. eigenvalues --    2.91447   2.91866   2.91924   2.92337   2.92396
 Alpha virt. eigenvalues --    2.92509   2.92924   2.93146   2.93170   2.93445
 Alpha virt. eigenvalues --    2.94014   2.94280   2.94779   2.95060   2.95287
 Alpha virt. eigenvalues --    2.95388   2.95551   2.96226   2.96448   2.96642
 Alpha virt. eigenvalues --    2.97049   2.97457   2.97864   2.97952   2.98050
 Alpha virt. eigenvalues --    2.98306   2.98896   2.99058   2.99370   2.99432
 Alpha virt. eigenvalues --    3.00341   3.00686   3.01008   3.01088   3.01335
 Alpha virt. eigenvalues --    3.02280   3.02651   3.03265   3.03463   3.03605
 Alpha virt. eigenvalues --    3.04271   3.04492   3.04618   3.05829   3.06031
 Alpha virt. eigenvalues --    3.06653   3.06837   3.06903   3.07286   3.07809
 Alpha virt. eigenvalues --    3.08556   3.09176   3.09408   3.09752   3.10197
 Alpha virt. eigenvalues --    3.10669   3.10922   3.11472   3.11519   3.12069
 Alpha virt. eigenvalues --    3.12210   3.12375   3.12462   3.12805   3.14106
 Alpha virt. eigenvalues --    3.14135   3.14490   3.14939   3.15215   3.15980
 Alpha virt. eigenvalues --    3.16276   3.16726   3.17456   3.18343   3.18392
 Alpha virt. eigenvalues --    3.19069   3.19475   3.19956   3.20553   3.20714
 Alpha virt. eigenvalues --    3.20889   3.21262   3.21804   3.22197   3.22580
 Alpha virt. eigenvalues --    3.23072   3.23294   3.23672   3.24164   3.24356
 Alpha virt. eigenvalues --    3.24772   3.24857   3.25197   3.25361   3.25606
 Alpha virt. eigenvalues --    3.25849   3.25890   3.26534   3.27661   3.27859
 Alpha virt. eigenvalues --    3.28244   3.28710   3.28902   3.29792   3.30040
 Alpha virt. eigenvalues --    3.30895   3.32861   3.34693   3.35936   3.35950
 Alpha virt. eigenvalues --    3.37868   3.37945   3.38420   3.39217   3.41683
 Alpha virt. eigenvalues --    3.45184   3.45490   3.46788   3.47353   3.49841
 Alpha virt. eigenvalues --    3.51199   3.52285   3.52866   3.54327   3.55256
 Alpha virt. eigenvalues --    3.55669   3.55863   3.56431   3.56592   3.58148
 Alpha virt. eigenvalues --    3.59273   3.59763   3.60633   3.61118   3.62001
 Alpha virt. eigenvalues --    3.64198   3.65038   3.65179   3.66346   3.67208
 Alpha virt. eigenvalues --    3.67881   3.68337   3.69295   3.69857   3.70218
 Alpha virt. eigenvalues --    3.72833   3.72891   3.73486   3.73654   3.73989
 Alpha virt. eigenvalues --    3.74779   3.74902   3.75481   3.75756   3.75799
 Alpha virt. eigenvalues --    3.77212   3.77860   3.82235   3.82252
          Condensed to atoms (all electrons):
 Mulliken charges:
               1
     1  C    0.062485
     2  C   -0.002165
     3  O   -0.295520
     4  H    0.016957
     5  H    0.002460
     6  H    0.035586
     7  N   -0.114720
     8  C    0.116469
     9  C    0.078519
    10  O   -0.302315
    11  C    0.104328
    12  C    0.036878
    13  O   -0.307864
    14  O   -0.394813
    15  H    0.107537
    16  H   -0.030762
    17  H   -0.009053
    18  H    0.011492
    19  N   -0.123683
    20  C    0.129993
    21  C    0.087103
    22  O   -0.219770
    23  C    0.034897
    24  C   -0.007122
    25  C   -0.061798
    26  C    0.050341
    27  N    0.129520
    28  H    0.137893
    29  H   -0.017474
    30  H   -0.002507
    31  H    0.021348
    32  H    0.008814
    33  H   -0.023930
    34  H    0.012542
    35  H    0.070003
    36  H    0.067341
    37  H    0.071018
    38  H    0.135421
    39  H    0.161639
    40  H    0.133958
    41  N   -0.161469
    42  C    0.081701
    43  C    0.053748
    44  O   -0.279530
    45  C    0.120040
    46  C    0.135280
    47  O   -0.466904
    48  O   -0.401351
    49  H    0.130225
    50  H    0.029895
    51  H   -0.013070
    52  H    0.030549
    53  N   -0.137387
    54  C    0.197261
    55  C    0.044486
    56  O   -0.234765
    57  H    0.128625
    58  H    0.005141
    59  H    0.065972
    60  N   -0.112324
    61  C    0.021870
    62  C    0.083949
    63  O   -0.268456
    64  C    0.158303
    65  C   -0.053208
    66  N   -0.035543
    67  O   -0.256289
    68  H    0.132156
    69  H    0.004411
    70  H    0.024658
    71  H   -0.028730
    72  H    0.123622
    73  H    0.121328
    74  N   -0.160937
    75  C    0.129375
    76  C    0.093244
    77  O   -0.247473
    78  H    0.123597
    79  H    0.062419
    80  H    0.068522
    81  N   -0.117484
    82  C    0.077206
    83  C    0.098776
    84  O   -0.299571
    85  C    0.134470
    86  C   -0.011485
    87  C   -0.003487
    88  C   -0.013314
    89  C   -0.031431
    90  C   -0.055315
    91  C    0.181537
    92  O   -0.182347
    93  H    0.121430
    94  H   -0.018529
    95  H    0.002075
    96  H    0.013331
    97  H   -0.030671
    98  H   -0.030493
    99  H   -0.025855
   100  H   -0.037768
   101  H    0.170905
   102  N   -0.126096
   103  C    0.170901
   104  C    0.087366
   105  O   -0.270783
   106  C   -0.155574
   107  C    0.039533
   108  C    0.043896
   109  C    0.043738
   110  H    0.127006
   111  H    0.012808
   112  H   -0.009171
   113  H   -0.029244
   114  H   -0.014259
   115  H    0.021820
   116  H    0.033587
   117  H    0.010455
   118  H   -0.003610
   119  H    0.032849
   120  H    0.004736
   121  N   -0.115131
   122  C    0.078087
   123  C    0.109619
   124  O   -0.305900
   125  C    0.252442
   126  O   -0.280784
   127  H    0.110809
   128  H   -0.013565
   129  H    0.008339
   130  H   -0.026026
   131  H    0.161192
   132  N   -0.106819
   133  C    0.060133
   134  C    0.096401
   135  O   -0.256528
   136  C    0.044989
   137  H    0.134485
   138  H    0.005830
   139  H    0.027513
   140  H    0.024743
   141  H    0.033426
   142  N   -0.141936
   143  C    0.049898
   144  C    0.043190
   145  O   -0.277717
   146  C    0.079172
   147  H    0.123742
   148  H    0.023182
   149  H    0.029248
   150  H    0.005569
   151  H   -0.000498
   152  N   -0.118679
   153  C    0.110636
   154  C    0.042435
   155  O   -0.257947
   156  C    0.031764
   157  C    0.095481
   158  C    0.087574
   159  O   -0.440980
   160  O   -0.404857
   161  H    0.125390
   162  H    0.015371
   163  H    0.049984
   164  H   -0.030383
   165  H   -0.024129
   166  H    0.006683
   167  N   -0.156452
   168  C    0.125866
   169  H    0.014795
   170  H    0.053982
   171  H    0.017945
   172  H    0.084241
   173  Ca   1.344956
   174  O   -0.342894
   175  H    0.220663
   176  H    0.185520
 Sum of Mulliken charges =  -0.00000
 Mulliken charges with hydrogens summed into heavy atoms:
               1
     1  C    0.117489
     2  C   -0.002165
     3  O   -0.295520
     7  N   -0.007183
     8  C    0.085708
     9  C    0.078519
    10  O   -0.302315
    11  C    0.106768
    12  C    0.036878
    13  O   -0.307864
    14  O   -0.394813
    19  N    0.014210
    20  C    0.112519
    21  C    0.087103
    22  O   -0.219770
    23  C    0.053738
    24  C   -0.022239
    25  C    0.020747
    26  C    0.188700
    27  N    0.560537
    41  N   -0.031244
    42  C    0.111596
    43  C    0.053748
    44  O   -0.279530
    45  C    0.137519
    46  C    0.135280
    47  O   -0.466904
    48  O   -0.401351
    53  N   -0.008762
    54  C    0.268374
    55  C    0.044486
    56  O   -0.234765
    60  N    0.019831
    61  C    0.026281
    62  C    0.083949
    63  O   -0.268456
    64  C    0.154231
    65  C   -0.053208
    66  N    0.209407
    67  O   -0.256289
    74  N   -0.037340
    75  C    0.260316
    76  C    0.093244
    77  O   -0.247473
    81  N    0.003946
    82  C    0.058677
    83  C    0.098776
    84  O   -0.299571
    85  C    0.149875
    86  C   -0.011485
    87  C   -0.034159
    88  C   -0.043807
    89  C   -0.057286
    90  C   -0.093084
    91  C    0.181537
    92  O   -0.011441
   102  N    0.000910
   103  C    0.183710
   104  C    0.087366
   105  O   -0.270783
   106  C   -0.164744
   107  C   -0.003970
   108  C    0.109758
   109  C    0.077713
   121  N   -0.004322
   122  C    0.064521
   123  C    0.109619
   124  O   -0.305900
   125  C    0.234754
   126  O   -0.119592
   132  N    0.027666
   133  C    0.065963
   134  C    0.096401
   135  O   -0.256528
   136  C    0.130671
   142  N   -0.018194
   143  C    0.073080
   144  C    0.043190
   145  O   -0.277717
   146  C    0.113492
   152  N    0.006711
   153  C    0.126007
   154  C    0.042435
   155  O   -0.257947
   156  C    0.051365
   157  C    0.078036
   158  C    0.087574
   159  O   -0.440980
   160  O   -0.404857
   167  N   -0.072211
   168  C    0.212589
   173  Ca   1.344956
   174  O    0.063289
 DipInt: DoE/N= T F RetVal/Mat= T F Init=T NMatP=  1 IDeriv=0 Min/MaxMlt=  0  4
 Entering OneElI...
 OneElI was handed  1333951383 working-precision words.
 Multipole integrals L=0 to 4 MinM= 0 MaxM= 0.
 Requested accuracy = 0.1000D-12
 ShPair: Thresh= 1.00D-13 NBox=     0 BxSize= 0.00D+00 RnKept= 2.76D+01
         NSMCal=               327645 NSMKep=              150345
 PrmmSu-InSpLW:  IPartL=    0 NPrtUS=    1 NPrtUL=    1 DoSpLW=F IThBeg=    0 IThEnd=    0 NThAct=    1.
 PrsmSu:  NPrtUS=   1 ThrOK=F IAlg=1 NPAlg=1 LenDen=           0 ISkipM=0 DoSpLW=F IThBeg=    0 IThEnd=    0.
 Prism:   IPart=     0 DynPar=F LinDyn=F Incr=         512.
 PRISM was handed  1324303407 working-precision words and150345 shell-pairs
 IPart=  0 NShTot=      150345 NBatch=         342 AvBLen=       439.6
 PrsmSu-ThDecC:  IPartSL=    0    0 NPrtUSL=    1    1 IThBeg=    0 IThEnd=    0 CPU=   -1 GPU=   -1 NThAct=    1.
 PrSmSu:  NxtVal=            513.
 Electronic moments (au):
       -716.00000000        -12.26915377        -13.91453396          7.00656731
     -51926.62969503     -32788.38993533     -18152.31443865        -76.04334922
         31.41671849        -42.08457600      39328.52406172     -37039.38885751
     -18034.68003589     -21072.66034483      96778.92773543     -21784.87444293
       7329.14097761     -27086.87119667     -54517.40828679      -8527.19799740
   -7562377.28914974   -4086280.84231636   -1140125.85184192    -321421.22192895
    -555217.58598238     724654.76426317    -425842.21045785     136932.37463316
     -82109.44013395   -1736799.85179756   -1009126.66363747    -789853.63171029
     355406.67266083     110055.86514623      -4928.54138291
 Electronic spatial extent (au):  <R**2>=         102867.3341
 DipInt: DoE/N= F T RetVal/Mat= T F Init=T NMatP=  1 IDeriv=0 Min/MaxMlt=  0  4
 Nuclear    moments (au):
        716.00000000         -0.00000000         -0.00000000         -0.00000000
      51485.45823380      32621.37559207      17697.41429009         -0.00000000
          0.00000000         -0.00000000     -43254.86825184      34093.66944400
      18480.82634767      22510.26485054     -98506.44406776      22339.41819213
      -7643.83842767      26898.49069750      55449.04444910       8111.04563748
    7368815.98496890    4032716.49109290    1075077.06300571     319377.34505154
     555384.30894651    -747372.94719837     418275.98259339    -135112.42719624
      80729.85024948    1704046.44268118     969860.38086102     763138.92289224
    -359673.39429059    -103880.79877560       3928.32387264
 Total      moments (au):
         -0.00000000        -12.26915377        -13.91453396          7.00656731
       -441.17146124       -167.01434327       -454.90014856        -76.04334922
         31.41671849        -42.08457600      -3926.34419012      -2945.71941352
        446.14631177       1437.60450571      -1727.51633234        554.54374921
       -314.69745006       -188.38049916        931.63616231       -416.15235993
    -193561.30418084     -53564.35122346     -65048.78883621      -2043.87687741
        166.72296413     -22718.18293520      -7566.22786446       1819.94743692
      -1379.58988447     -32753.40911638     -39266.28277645     -26714.70881805
      -4266.72162976       6175.06637063      -1000.21751027
 Traceless Quadrup. (au):
        -86.80947688        187.34764109       -100.53816420        -76.04334922
         31.41671849        -42.08457600
 Charge=             -0.0000 electrons
 Dipole moment (field-independent basis, Debye):
    X=            -31.1851    Y=            -35.3672    Z=             17.8089  Tot=             50.4034
 Quadrupole moment (field-independent basis, Debye-Ang):
   XX=           -593.3907   YY=           -224.6400   ZZ=           -611.8563
   XY=           -102.2809   XZ=             42.2566   YZ=            -56.6052
 Traceless Quadrupole moment (field-independent basis, Debye-Ang):
   XX=           -116.7617   YY=            251.9890   ZZ=           -135.2273
   XY=           -102.2809   XZ=             42.2566   YZ=            -56.6052
 Octapole moment (field-independent basis, Debye-Ang**2):
  XXX=          -2794.6205  YYY=          -2096.6496  ZZZ=            317.5498  XYY=           1023.2315
  XXY=          -1229.5796  XXZ=            394.7029  XZZ=           -223.9895  YZZ=           -134.0820
  YYZ=            663.1027  XYZ=           -296.2012
 Hexadecapole moment (field-independent basis, Debye-Ang**3):
 XXXX=         -72904.4687 YYYY=         -20174.9032 ZZZZ=         -24500.4931 XXXY=           -769.8220
 XXXZ=             62.7959 YYYX=          -8556.7571 YYYZ=          -2849.8042 ZZZX=            685.4795
 ZZZY=           -519.6197 XXYY=         -12336.5045 XXZZ=         -14789.5650 YYZZ=         -10062.0404
 XXYZ=          -1607.0520 YYXZ=           2325.8261 ZZXY=           -376.7299
 N-N= 2.076465240373D+04 E-N=-5.401353327312D+04  KE= 5.290485727836D+03
 Leave Link  601 at Wed Sep 18 20:18:40 2019, MaxMem=  1342177280 cpu:              42.2 elap:               1.1
 FitSet:  NAtFit=   176 NAtPot=   176 NAtFrz=     0 MDM=   180 TotChg=   0.00000
 Merz-Kollman atomic radii used.
 Read replacement radii for each type of atom:
 Rad(20) =   1.700000000000D+00
 Atom Element Radius
    1     6    1.50
    2     6    1.50
    3     8    1.40
    4     1    1.20
    5     1    1.20
    6     1    1.20
    7     7    1.50
    8     6    1.50
    9     6    1.50
   10     8    1.40
   11     6    1.50
   12     6    1.50
   13     8    1.40
   14     8    1.40
   15     1    1.20
   16     1    1.20
   17     1    1.20
   18     1    1.20
   19     7    1.50
   20     6    1.50
   21     6    1.50
   22     8    1.40
   23     6    1.50
   24     6    1.50
   25     6    1.50
   26     6    1.50
   27     7    1.50
   28     1    1.20
   29     1    1.20
   30     1    1.20
   31     1    1.20
   32     1    1.20
   33     1    1.20
   34     1    1.20
   35     1    1.20
   36     1    1.20
   37     1    1.20
   38     1    1.20
   39     1    1.20
   40     1    1.20
   41     7    1.50
   42     6    1.50
   43     6    1.50
   44     8    1.40
   45     6    1.50
   46     6    1.50
   47     8    1.40
   48     8    1.40
   49     1    1.20
   50     1    1.20
   51     1    1.20
   52     1    1.20
   53     7    1.50
   54     6    1.50
   55     6    1.50
   56     8    1.40
   57     1    1.20
   58     1    1.20
   59     1    1.20
   60     7    1.50
   61     6    1.50
   62     6    1.50
   63     8    1.40
   64     6    1.50
   65     6    1.50
   66     7    1.50
   67     8    1.40
   68     1    1.20
   69     1    1.20
   70     1    1.20
   71     1    1.20
   72     1    1.20
   73     1    1.20
   74     7    1.50
   75     6    1.50
   76     6    1.50
   77     8    1.40
   78     1    1.20
   79     1    1.20
   80     1    1.20
   81     7    1.50
   82     6    1.50
   83     6    1.50
   84     8    1.40
   85     6    1.50
   86     6    1.50
   87     6    1.50
   88     6    1.50
   89     6    1.50
   90     6    1.50
   91     6    1.50
   92     8    1.40
   93     1    1.20
   94     1    1.20
   95     1    1.20
   96     1    1.20
   97     1    1.20
   98     1    1.20
   99     1    1.20
  100     1    1.20
  101     1    1.20
  102     7    1.50
  103     6    1.50
  104     6    1.50
  105     8    1.40
  106     6    1.50
  107     6    1.50
  108     6    1.50
  109     6    1.50
  110     1    1.20
  111     1    1.20
  112     1    1.20
  113     1    1.20
  114     1    1.20
  115     1    1.20
  116     1    1.20
  117     1    1.20
  118     1    1.20
  119     1    1.20
  120     1    1.20
  121     7    1.50
  122     6    1.50
  123     6    1.50
  124     8    1.40
  125     6    1.50
  126     8    1.40
  127     1    1.20
  128     1    1.20
  129     1    1.20
  130     1    1.20
  131     1    1.20
  132     7    1.50
  133     6    1.50
  134     6    1.50
  135     8    1.40
  136     6    1.50
  137     1    1.20
  138     1    1.20
  139     1    1.20
  140     1    1.20
  141     1    1.20
  142     7    1.50
  143     6    1.50
  144     6    1.50
  145     8    1.40
  146     6    1.50
  147     1    1.20
  148     1    1.20
  149     1    1.20
  150     1    1.20
  151     1    1.20
  152     7    1.50
  153     6    1.50
[...]
 **** Fit      -0.000885
 **** Fit      -0.004615
 **** Fit      -0.003993
 **** Fit      -0.002737
 **** Fit      -0.000994
 **** Fit       0.001093
 **** Fit       0.003415
 **** Fit       0.000375
 **** Fit      -0.001913
 **** Fit      -0.003576
 **** Fit      -0.004491
 **** Fit      -0.008776
 **** Fit      -0.007930
 **** Fit      -0.006469
 **** Fit      -0.004542
 **** Fit      -0.002294
 **** Fit       0.000159
 **** Fit       0.002752
 **** Fit      -0.001525
 **** Fit      -0.004371
 **** Fit      -0.006636
 **** Fit      -0.008169
 **** Fit      -0.008882
 **** Fit      -0.013940
 **** Fit      -0.012746
 **** Fit      -0.010958
 **** Fit      -0.008730
 **** Fit      -0.006207
 **** Fit      -0.003514
 **** Fit      -0.000735
 **** Fit      -0.007530
 **** Fit      -0.010470
 **** Fit      -0.012670
 **** Fit      -0.013990
 **** Fit      -0.014394
 **** Fit      -0.020426
 **** Fit      -0.018579
 **** Fit      -0.016115
 **** Fit      -0.013224
 **** Fit      -0.010075
 **** Fit      -0.006811
 **** Fit      -0.003530
 **** Fit      -0.000273
 **** Fit      -0.010210
 **** Fit      -0.014430
 **** Fit      -0.017880
 **** Fit      -0.020270
 **** Fit      -0.021452
 **** Fit      -0.021452
 **** Fit      -0.028646
 **** Fit      -0.025791
 **** Fit      -0.022365
 **** Fit      -0.018587
 **** Fit      -0.014637
 **** Fit      -0.010662
 **** Fit      -0.006767
 **** Fit      -0.003003
 **** Fit      -0.029629
 **** Fit      -0.024516
 **** Fit      -0.019421
 **** Fit      -0.014469
 **** Fit      -0.009752
 **** Fit      -0.005311
 **** Fit      -0.023353
 **** Fit      -0.017042
 **** Fit      -0.011241
 **** Fit      -0.018190
 **** Fit       0.013427
 **** Fit       0.010649
 **** Fit       0.012121
 **** Fit       0.013638
 **** Fit       0.015070
 **** Fit       0.016336
 **** Fit       0.008420
 **** Fit       0.009828
 **** Fit       0.011382
 **** Fit       0.012956
 **** Fit       0.014475
 **** Fit       0.015894
 **** Fit       0.017183
 **** Fit       0.018319
 **** Fit       0.007875
 **** Fit       0.009502
 **** Fit       0.011175
 **** Fit       0.012825
 **** Fit       0.014416
 **** Fit       0.015926
 **** Fit       0.017343
 **** Fit       0.018656
 **** Fit       0.019854
 **** Fit       0.005902
 **** Fit       0.007616
 **** Fit       0.009370
 **** Fit       0.011100
 **** Fit       0.012780
 **** Fit       0.014402
 **** Fit       0.015960
 **** Fit       0.017456
 **** Fit       0.018889
 **** Fit       0.020258
 **** Fit       0.021549
 **** Fit       0.004470
 **** Fit       0.006451
 **** Fit       0.008403
 **** Fit       0.010279
 **** Fit       0.012080
 **** Fit       0.013818
 **** Fit       0.015503
 **** Fit       0.017142
 **** Fit       0.018746
 **** Fit       0.020324
 **** Fit       0.021877
 **** Fit       0.023395
 **** Fit       0.024846
 **** Fit       0.005378
 **** Fit       0.007533
 **** Fit       0.009536
 **** Fit       0.011419
 **** Fit       0.013224
 **** Fit       0.014982
 **** Fit       0.016709
 **** Fit       0.018425
 **** Fit       0.020146
 **** Fit       0.021889
 **** Fit       0.023663
 **** Fit       0.025458
 **** Fit       0.027237
 **** Fit       0.004853
 **** Fit       0.007240
 **** Fit       0.009377
 **** Fit       0.011339
 **** Fit       0.013204
 **** Fit       0.015024
 **** Fit       0.016833
 **** Fit       0.018656
 **** Fit       0.020522
 **** Fit       0.022458
 **** Fit       0.024490
 **** Fit       0.026627
 **** Fit       0.028851
 **** Fit       0.005484
 **** Fit       0.008074
 **** Fit       0.010330
 **** Fit       0.012384
 **** Fit       0.014348
 **** Fit       0.016295
 **** Fit       0.018273
 **** Fit       0.020323
 **** Fit       0.022495
 **** Fit       0.024836
 **** Fit       0.027388
 **** Fit       0.030170
 **** Fit       0.007007
 **** Fit       0.009699
 **** Fit       0.012034
 **** Fit       0.014194
 **** Fit       0.016313
 **** Fit       0.018481
 **** Fit       0.020769
 **** Fit       0.023257
 **** Fit       0.026031
 **** Fit       0.029176
 **** Fit       0.032758
 **** Fit       0.008894
 **** Fit       0.011616
 **** Fit       0.014026
 **** Fit       0.016326
 **** Fit       0.018667
 **** Fit       0.021171
 **** Fit       0.023961
 **** Fit       0.027176
 **** Fit       0.030969
 **** Fit       0.035497
 **** Fit       0.009127
 **** Fit       0.012327
 **** Fit       0.015134
 **** Fit       0.017822
 **** Fit       0.020633
 **** Fit       0.023792
 **** Fit       0.027547
 **** Fit       0.032196
 **** Fit       0.019694
 **** Fit       0.023229
 **** Fit       0.044378
 **** Fit       0.045542
 **** Fit       0.039921
 **** Fit       0.042687
 **** Fit       0.045444
 **** Fit       0.047986
 **** Fit       0.050058
 **** Fit       0.035320
 **** Fit       0.038280
 **** Fit       0.041486
 **** Fit       0.044906
 **** Fit       0.048432
 **** Fit       0.051885
 **** Fit       0.033966
 **** Fit       0.037211
 **** Fit       0.040808
 **** Fit       0.044796
 **** Fit       0.049131
 **** Fit       0.053671
 **** Fit       0.031476
 **** Fit       0.034802
 **** Fit       0.038629
 **** Fit       0.043091
 **** Fit       0.048216
 **** Fit       0.053906
 **** Fit       0.059917
 **** Fit       0.029943
 **** Fit       0.033213
 **** Fit       0.037278
 **** Fit       0.042349
 **** Fit       0.048482
 **** Fit       0.055525
 **** Fit       0.028586
 **** Fit       0.031395
 **** Fit       0.035378
 **** Fit       0.027096
 **** Fit       0.031756
 **** Fit       0.018504
 **** Fit       0.021424
 **** Fit       0.034115
 **** Fit       0.039828
 **** Fit       0.035779
 **** Fit       0.021121
 **** Fit       0.008011
 **** Fit       0.040102
 **** Fit       0.049477
 **** Fit       0.052030
 **** Fit       0.047118
 **** Fit       0.039193
 **** Fit       0.024370
 **** Fit       0.008981
 **** Fit       0.045630
 **** Fit       0.055962
 **** Fit       0.061957
 **** Fit       0.063355
 **** Fit       0.059859
 **** Fit       0.051527
 **** Fit       0.041831
 **** Fit       0.027120
 **** Fit       0.011444
 **** Fit       0.051158
 **** Fit       0.061462
 **** Fit       0.068592
 **** Fit       0.072701
 **** Fit       0.073635
 **** Fit       0.071031
 **** Fit       0.064632
 **** Fit       0.054653
 **** Fit       0.043413
 **** Fit       0.028410
 **** Fit       0.012503
 **** Fit       0.063874
 **** Fit       0.071978
 **** Fit       0.077804
 **** Fit       0.081474
 **** Fit       0.082783
 **** Fit       0.081280
 **** Fit       0.076482
 **** Fit       0.068235
 **** Fit       0.056949
 **** Fit       0.043557
 **** Fit       0.028544
 **** Fit       0.012869
 **** Fit      -0.003341
 **** Fit       0.074415
 **** Fit       0.080665
 **** Fit       0.085465
 **** Fit       0.088803
 **** Fit       0.090425
 **** Fit       0.089842
 **** Fit       0.086442
 **** Fit       0.079778
 **** Fit       0.069935
 **** Fit       0.057573
 **** Fit       0.041754
 **** Fit       0.026629
 **** Fit       0.011135
 **** Fit      -0.004801
 **** Fit       0.081073
 **** Fit       0.086266
 **** Fit       0.090600
 **** Fit       0.093971
 **** Fit       0.096126
 **** Fit       0.096602
 **** Fit       0.094721
 **** Fit       0.089759
 **** Fit       0.081360
 **** Fit       0.069908
 **** Fit       0.056376
 **** Fit      -0.022826
 **** Fit       0.086238
 **** Fit       0.090407
 **** Fit       0.094190
 **** Fit       0.097390
 **** Fit       0.099762
 **** Fit       0.100912
 **** Fit       0.100212
 **** Fit       0.096844
 **** Fit       0.090075
 **** Fit       0.079782
 **** Fit       0.066742
 **** Fit       0.052232
 **** Fit       0.089696
 **** Fit       0.092998
 **** Fit       0.096208
 **** Fit       0.099072
 **** Fit       0.101360
 **** Fit       0.102749
 **** Fit       0.102724
 **** Fit       0.100536
 **** Fit       0.095315
 **** Fit       0.086465
 **** Fit       0.074195
 **** Fit       0.090001
 **** Fit       0.092560
 **** Fit       0.095367
 **** Fit       0.098033
 **** Fit       0.100313
 **** Fit       0.101952
 **** Fit       0.102564
 **** Fit       0.101550
 **** Fit       0.098071
 **** Fit       0.091210
 **** Fit       0.080411
 **** Fit       0.091081
 **** Fit       0.093434
 **** Fit       0.095765
 **** Fit       0.097803
 **** Fit       0.099328
 **** Fit       0.100056
 **** Fit       0.099552
 **** Fit       0.097163
 **** Fit       0.092036
 **** Fit       0.083298
 **** Fit       0.087886
 **** Fit       0.089908
 **** Fit       0.092005
 **** Fit       0.093862
 **** Fit       0.095272
 **** Fit       0.096023
 **** Fit       0.095815
 **** Fit       0.094196
 **** Fit       0.090509
 **** Fit       0.083924
 **** Fit       0.085338
 **** Fit       0.087378
 **** Fit       0.089125
 **** Fit       0.090411
 **** Fit       0.091082
 **** Fit       0.090938
 **** Fit       0.089683
 **** Fit       0.086877
 **** Fit       0.081909
 **** Fit       0.074016
 **** Fit       0.080477
 **** Fit       0.082665
 **** Fit       0.084293
 **** Fit       0.085279
 **** Fit       0.085510
 **** Fit       0.084818
 **** Fit       0.082944
 **** Fit       0.079504
 **** Fit       0.073962
 **** Fit       0.065626
 **** Fit       0.074612
 **** Fit       0.076998
 **** Fit       0.078546
 **** Fit       0.079257
 **** Fit       0.079071
 **** Fit       0.077862
 **** Fit       0.075424
 **** Fit       0.071452
 **** Fit       0.065530
 **** Fit       0.057120
 **** Fit       0.066935
 **** Fit       0.069857
 **** Fit       0.071635
 **** Fit       0.072355
 **** Fit       0.072017
 **** Fit       0.070547
 **** Fit       0.067805
 **** Fit       0.063578
 **** Fit       0.057594
 **** Fit       0.053376
 **** Fit       0.058364
 **** Fit       0.061799
 **** Fit       0.063860
 **** Fit       0.064659
 **** Fit       0.064231
 **** Fit       0.062545
 **** Fit       0.059516
 **** Fit       0.055016
 **** Fit       0.048909
 **** Fit       0.045579
 **** Fit       0.050587
 **** Fit       0.053965
 **** Fit       0.055768
 **** Fit       0.056050
 **** Fit       0.054817
 **** Fit       0.052025
 **** Fit       0.047595
 **** Fit       0.041451
 **** Fit       0.005238
 **** Fit       0.014815
 **** Fit       0.023314
 **** Fit       0.030854
 **** Fit       0.037199
 **** Fit       0.042044
 **** Fit       0.045198
 **** Fit       0.046582
 **** Fit       0.046158
 **** Fit       0.043872
 **** Fit       0.039636
 **** Fit      -0.005749
 **** Fit       0.004829
 **** Fit       0.013857
 **** Fit       0.021514
 **** Fit       0.027779
 **** Fit       0.032452
 **** Fit       0.035296
 **** Fit       0.036123
 **** Fit       0.034781
 **** Fit      -0.012918
 **** Fit      -0.002228
 **** Fit       0.006937
 **** Fit       0.014377
 **** Fit       0.019941
 **** Fit       0.023382
 **** Fit       0.024394
 **** Fit      -0.011567
 **** Fit      -0.002338
 **** Fit       0.004846
 **** Fit       0.009505
 **** Fit       0.046815
 **** Fit       0.048454
 **** Fit       0.049558
 **** Fit       0.060432
 **** Fit       0.064122
 **** Fit       0.069115
 **** Fit       0.074530
 **** Fit       0.081496
 **** Fit       0.084354
 **** Fit       0.085199
 **** Fit       0.085199
 **** Fit       0.074006
 **** Fit       0.081806
 **** Fit       0.035666
 **** Fit       0.069146
 **** Fit       0.076760
 **** Fit       0.027881
 **** Fit       0.033707
 **** Fit       0.056521
 **** Fit       0.060963
 **** Fit       0.067424
 **** Fit       0.024248
 **** Fit       0.029785
 **** Fit       0.034238
 **** Fit       0.037982
 **** Fit       0.041263
 **** Fit       0.044325
 **** Fit       0.047522
 **** Fit       0.051361
 **** Fit       0.056520
 **** Fit       0.063890
 **** Fit       0.014641
 **** Fit       0.021187
 **** Fit       0.026421
 **** Fit       0.030763
 **** Fit       0.034548
 **** Fit       0.038084
 **** Fit       0.041751
 **** Fit       0.046069
 **** Fit       0.051727
 **** Fit       0.001340
 **** Fit       0.009355
 **** Fit       0.016152
 **** Fit       0.021761
 **** Fit       0.026492
 **** Fit       0.030717
 **** Fit       0.034857
 **** Fit       0.039441
 **** Fit       0.045144
 **** Fit      -0.006982
 **** Fit       0.000911
 **** Fit       0.008575
 **** Fit       0.015338
 **** Fit       0.021109
 **** Fit       0.026227
 **** Fit       0.031245
 **** Fit       0.036849
 **** Fit      -0.003755
 **** Fit       0.001601
 **** Fit       0.008869
 **** Fit       0.015924
 **** Fit       0.022251
 **** Fit       0.028261
 **** Fit       0.006041
 **** Fit       0.010892
 **** Fit       0.018729
 **** Fit       0.015548
 **** Fit       0.035123
 **** Fit       0.035410
 **** Fit       0.040134
 **** Fit       0.042935
 **** Fit       0.044756
 **** Fit       0.045533
 **** Fit       0.044739
 **** Fit       0.047706
 **** Fit       0.049769
 **** Fit       0.051643
 **** Fit       0.053294
 **** Fit       0.054497
 **** Fit       0.054747
 **** Fit       0.050339
 **** Fit       0.052230
 **** Fit       0.054195
 **** Fit       0.056321
 **** Fit       0.058651
 **** Fit       0.061166
 **** Fit       0.063731
 **** Fit       0.052091
 **** Fit       0.053595
 **** Fit       0.055285
 **** Fit       0.057224
 **** Fit       0.059494
 **** Fit       0.062187
 **** Fit       0.065397
 **** Fit       0.069217
 **** Fit       0.053434
 **** Fit       0.054673
 **** Fit       0.056199
 **** Fit       0.058037
 **** Fit       0.060266
 **** Fit       0.063005
 **** Fit       0.066410
 **** Fit       0.070692
 **** Fit       0.076142
 **** Fit       0.053856
 **** Fit       0.054904
 **** Fit       0.056269
 **** Fit       0.057953
 **** Fit       0.060021
 **** Fit       0.062586
 **** Fit       0.065812
 **** Fit       0.069937
 **** Fit       0.075311
 **** Fit       0.082476
 **** Fit       0.053083
 **** Fit       0.053974
 **** Fit       0.055169
 **** Fit       0.056651
 **** Fit       0.058465
 **** Fit       0.060703
 **** Fit       0.063508
 **** Fit       0.067090
 **** Fit       0.071764
 **** Fit       0.078023
 **** Fit       0.051497
 **** Fit       0.052554
 **** Fit       0.053823
 **** Fit       0.055334
 **** Fit       0.057153
 **** Fit       0.059382
 **** Fit       0.062183
 **** Fit       0.065791
 **** Fit       0.070574
 **** Fit       0.077125
 **** Fit       0.048252
 **** Fit       0.049735
 **** Fit       0.051201
 **** Fit       0.052777
 **** Fit       0.054569
 **** Fit       0.056696
 **** Fit       0.059324
 **** Fit       0.062692
 **** Fit       0.067175
 **** Fit       0.073383
 **** Fit       0.039677
 **** Fit       0.043136
 **** Fit       0.045590
 **** Fit       0.047580
 **** Fit       0.049414
 **** Fit       0.051286
 **** Fit       0.053353
 **** Fit       0.055791
 **** Fit       0.058828
 **** Fit       0.062806
 **** Fit       0.040149
 **** Fit       0.043181
 **** Fit       0.045656
 **** Fit       0.047930
 **** Fit       0.050260
 **** Fit       0.052894
 **** Fit       0.056134
 **** Fit       0.040838
 **** Fit       0.043729
 **** Fit       0.046420
 **** Fit       0.049251
 -----------------------------------------------------------------
 Leave Link  602 at Wed Sep 18 20:18:42 2019, MaxMem=  1342177280 cpu:             119.6 elap:               2.5

 Test job not archived.
 1\1\GINC-C506-101\SP\RB3LYP\SVP\C54H83Ca1N15O23\PENGZHI\18-Sep-2019\0\
 \#b3lyp/svp scf=(tight,noincore) Test #IOP(5/87=12) Density=Current Po
 p=(MK,readradii) iop(6/33=2) iop(6/42=6)\\Ng-31_loop3_52.0\\0,1\C,0,0.
 984,77.71,12.79\C,0,2.204,77.11,13.49\O,0,2.064,76.32,14.42\H,0,0.185,
 77.858,13.517\H,0,1.254,78.669,12.347\H,0,0.642,77.031,12.009\N,0,3.40
 4,77.41,12.99\C,0,4.654,76.92,13.54\C,0,5.044,77.49,14.9\O,0,5.114,76.
 78,15.9\C,0,5.834,76.93,12.58\C,0,6.184,78.31,12.04\O,0,7.384,78.65,12
 .09\O,0,5.264,79.07,11.69\H,0,3.404,78.22,12.38\H,0,4.404,75.9,13.84\H
 ,0,5.514,76.25,11.79\H,0,6.704,76.44,13.02\N,0,5.354,78.78,15.04\C,0,5
 .894,79.38,16.24\C,0,7.304,78.85,16.46\O,0,8.184,78.87,15.6\C,0,5.824,
 80.9,16.13\C,0,5.834,81.65,17.46\C,0,6.194,83.11,17.19\C,0,6.244,84.05
 ,18.38\N,0,4.984,84.2,19.13\H,0,5.404,79.31,14.18\H,0,5.244,79.17,17.0
 9\H,0,4.954,81.25,15.58\H,0,6.604,81.35,15.51\H,0,6.634,81.19,18.04\H,
 0,4.904,81.49,17.99\H,0,5.414,83.49,16.53\H,0,7.124,83.16,16.62\H,0,6.
 554,85.01,17.95\H,0,7.084,83.71,18.99\H,0,5.094,84.67,20.02\H,0,4.194,
 84.51,18.59\H,0,4.824,83.28,19.51\N,0,7.484,78.65,17.77\C,0,8.664,78.0
 2,18.33\C,0,8.764,76.52,18.13\O,0,9.874,76.02,18.34\C,0,8.774,78.22,19
 .84\C,0,7.524,77.68,20.54\O,0,6.454,78.17,20.12\O,0,7.534,77.21,21.7\H
 ,0,6.614,78.64,18.28\H,0,9.554,78.43,17.85\H,0,8.784,79.3,20.03\H,0,9.
 694,77.78,20.22\N,0,7.694,75.9,17.63\C,0,7.734,74.6,17.\C,0,7.994,74.7
 1,15.5\O,0,8.694,75.57,14.98\H,0,6.854,76.46,17.68\H,0,6.734,74.18,17.
 05\H,0,8.504,73.97,17.46\N,0,7.364,73.85,14.7\C,0,6.624,72.63,14.94\C,
 0,5.484,72.53,13.92\O,0,5.734,72.18,12.77\C,0,7.554,71.42,14.85\C,0,8.
 534,71.5,16.01\N,0,8.284,70.67,17.03\O,0,9.524,72.22,16.04\H,0,7.624,7
 3.94,13.73\H,0,6.264,72.57,15.96\H,0,8.104,71.39,13.9\H,0,7.094,70.44,
 14.9\H,0,7.454,70.09,16.95\H,0,8.924,70.62,17.8\N,0,4.234,72.87,14.25\
 C,0,3.734,73.59,15.4\C,0,3.414,72.91,16.73\O,0,3.174,73.57,17.73\H,0,3
 .574,72.54,13.56\H,0,2.934,74.2,15.\H,0,4.524,74.33,15.56\N,0,3.424,71
 .58,16.61\C,0,3.174,70.71,17.74\C,0,4.414,70.54,18.62\O,0,5.464,70.22,
 18.07\C,0,2.804,69.34,17.18\C,0,1.604,69.32,16.27\C,0,0.414,69.99,16.5
 9\C,0,1.644,68.49,15.13\C,0,-0.726,69.8,15.8\C,0,0.494,68.3,14.35\C,0,
 -0.726,68.91,14.71\O,0,-1.866,68.75,13.98\H,0,3.624,71.12,15.73\H,0,2.
 344,71.11,18.32\H,0,2.434,68.86,18.09\H,0,3.674,68.86,16.73\H,0,0.294,
 70.64,17.44\H,0,2.544,67.97,14.86\H,0,-1.596,70.39,16.03\H,0,0.564,67.
 57,13.56\H,0,-1.646,68.07,13.34\N,0,4.344,70.83,19.92\C,0,5.494,70.83,
 20.8\C,0,5.174,70.26,22.17\O,0,6.124,69.66,22.67\C,0,6.034,72.24,21.02
 \C,0,7.464,72.28,21.57\C,0,5.864,73.14,19.8\C,0,7.974,73.69,21.85\H,0,
 3.434,71.11,20.25\H,0,6.324,70.32,20.3\H,0,5.374,72.68,21.77\H,0,8.144
 ,71.84,20.84\H,0,7.584,71.56,22.38\H,0,4.824,73.31,19.52\H,0,6.244,74.
 13,20.04\H,0,6.204,72.63,18.89\H,0,9.014,73.56,22.16\H,0,7.874,74.34,2
 0.98\H,0,7.394,74.18,22.63\N,0,4.004,70.52,22.76\C,0,3.584,70.13,24.08
 \C,0,2.474,70.97,24.69\O,0,1.454,71.24,24.05\C,0,3.154,68.66,24.05\O,0
 ,4.134,67.67,23.81\H,0,3.264,70.67,22.09\H,0,4.464,70.18,24.72\H,0,2.3
 74,68.56,23.3\H,0,2.774,68.42,25.04\H,0,4.814,67.84,24.47\N,0,2.644,71
 .36,25.96\C,0,1.684,72.25,26.57\C,0,1.584,73.64,25.96\O,0,2.524,74.28,
 25.5\C,0,1.974,72.43,28.05\H,0,3.584,71.14,26.27\H,0,0.674,71.81,26.57
 \H,0,3.024,72.7,28.13\H,0,1.334,73.16,28.55\H,0,1.854,71.44,28.51\N,0,
 0.314,74.04,25.94\C,0,-0.166,75.33,25.46\C,0,0.254,75.74,24.06\O,0,0.3
 04,76.93,23.76\C,0,0.114,76.36,26.55\H,0,-0.406,73.42,26.26\H,0,-1.246
 ,75.22,25.35\H,0,-0.556,77.21,26.39\H,0,-0.126,75.99,27.55\H,0,1.164,7
 6.66,26.52\N,0,0.474,74.81,23.12\C,0,0.634,75.12,21.72\C,0,-0.656,75.4
 4,20.97\O,0,-0.686,76.2,20.\C,0,1.384,73.96,21.06\C,0,2.804,73.73,21.5
 7\C,0,3.744,74.93,21.66\O,0,3.604,75.92,20.91\O,0,4.574,74.99,22.58\H,
 0,0.334,73.84,23.37\H,0,1.164,76.05,21.53\H,0,1.514,74.25,20.02\H,0,0.
 814,73.03,21.1\H,0,3.284,73.07,20.84\H,0,2.734,73.27,22.55\N,0,-1.756,
 74.85,21.44\C,0,-3.096,74.92,20.89\H,0,-3.741,75.472,21.574\H,0,-3.068
 ,75.43,19.927\H,0,-3.488,73.912,20.757\H,0,-1.636,74.27,22.26\Ca,0,4.8
 9,77.64,22.25\O,0,3.48,77.37,24.51\H,0,2.99,76.54,24.59\H,0,3.13,77.91
 ,25.22\\Version=ES64L-G16RevA.03\State=1-A\HF=-5333.3871884\RMSD=1.373
 e-10\Dipole=-9.5189585,7.7662237,15.5664246\Quadrupole=-118.8605159,18
 7.9929283,-69.1324124,18.9009334,20.7280885,83.6723375\PG=C01 [X(C54H8
 3Ca1N15O23)]\\@


 The best way to pay for a lovely moment is to enjoy it.
 -- Richard Bach
 Job cpu time:       0 days 13 hours 21 minutes 44.9 seconds.
 Elapsed time:       0 days  0 hours 16 minutes 53.9 seconds.
 File lengths (MBytes):  RWF=   1517 Int=      0 D2E=      0 Chk=    171 Scr=      1
 Normal termination of Gaussian 16 at Wed Sep 18 20:18:44 2019.
