 Entering Gaussian System, Link 0=g16
 Initial command:
 /home1/apps/gaussian/16rA.03/g16/l1.exe "/scratch/01990/pengzhi/4354913/Gau-158597.inp" -scrdir="/scratch/01990/pengzhi/4354913/"
 Entering Link 1 = /home1/apps/gaussian/16rA.03/g16/l1.exe PID=    158598.
  
 Copyright (c) 1988,1990,1992,1993,1995,1998,2003,2009,2016,
            Gaussian, Inc.  All Rights Reserved.
  
 This is part of the Gaussian(R) 16 program.  It is based on
 the Gaussian(R) 09 system (copyright 2009, Gaussian, Inc.),
 the Gaussian(R) 03 system (copyright 2003, Gaussian, Inc.),
 the Gaussian(R) 98 system (copyright 1998, Gaussian, Inc.),
 the Gaussian(R) 94 system (copyright 1995, Gaussian, Inc.),
 the Gaussian 92(TM) system (copyright 1992, Gaussian, Inc.),
 the Gaussian 90(TM) system (copyright 1990, Gaussian, Inc.),
 the Gaussian 88(TM) system (copyright 1988, Gaussian, Inc.),
 the Gaussian 86(TM) system (copyright 1986, Carnegie Mellon
 University), and the Gaussian 82(TM) system (copyright 1983,
 Carnegie Mellon University). Gaussian is a federally registered
 trademark of Gaussian, Inc.
  
 This software contains proprietary and confidential information,
 including trade secrets, belonging to Gaussian, Inc.
  
 This software is provided under written license and may be
 used, copied, transmitted, or stored only in accord with that
 written license.
  
 The following legend is applicable only to US Government
 contracts under FAR:
  
                    RESTRICTED RIGHTS LEGEND
  
 Use, reproduction and disclosure by the US Government is
 subject to restrictions as set forth in subparagraphs (a)
 and (c) of the Commercial Computer Software - Restricted
 Rights clause in FAR 52.227-19.
  
 Gaussian, Inc.
 340 Quinnipiac St., Bldg. 40, Wallingford CT 06492
  
  
 ---------------------------------------------------------------
 Warning -- This program may not be used in any manner that
 competes with the business of Gaussian, Inc. or will provide
 assistance to any competitor of Gaussian, Inc.  The licensee
 of this program is prohibited from giving any competitor of
 Gaussian, Inc. access to this program.  By using this program,
 the user acknowledges that Gaussian, Inc. is engaged in the
 business of creating and licensing software in the field of
 computational chemistry and represents and warrants to the
 licensee that it is not a competitor of Gaussian, Inc. and that
 it will not use this program in any manner prohibited above.
 ---------------------------------------------------------------
  

 Cite this work as:
 Gaussian 16, Revision A.03,
 M. J. Frisch, G. W. Trucks, H. B. Schlegel, G. E. Scuseria, 
 M. A. Robb, J. R. Cheeseman, G. Scalmani, V. Barone, 
 G. A. Petersson, H. Nakatsuji, X. Li, M. Caricato, A. V. Marenich, 
 J. Bloino, B. G. Janesko, R. Gomperts, B. Mennucci, H. P. Hratchian, 
 J. V. Ortiz, A. F. Izmaylov, J. L. Sonnenberg, D. Williams-Young, 
 F. Ding, F. Lipparini, F. Egidi, J. Goings, B. Peng, A. Petrone, 
 T. Henderson, D. Ranasinghe, V. G. Zakrzewski, J. Gao, N. Rega, 
 G. Zheng, W. Liang, M. Hada, M. Ehara, K. Toyota, R. Fukuda, 
 J. Hasegawa, M. Ishida, T. Nakajima, Y. Honda, O. Kitao, H. Nakai, 
 T. Vreven, K. Throssell, J. A. Montgomery, Jr., J. E. Peralta, 
 F. Ogliaro, M. J. Bearpark, J. J. Heyd, E. N. Brothers, K. N. Kudin, 
 V. N. Staroverov, T. A. Keith, R. Kobayashi, J. Normand, 
 K. Raghavachari, A. P. Rendell, J. C. Burant, S. S. Iyengar, 
 J. Tomasi, M. Cossi, J. M. Millam, M. Klene, C. Adamo, R. Cammi, 
 J. W. Ochterski, R. L. Martin, K. Morokuma, O. Farkas, 
 J. B. Foresman, and D. J. Fox, Gaussian, Inc., Wallingford CT, 2016.
 
 ******************************************
 Gaussian 16:  ES64L-G16RevA.03 25-Dec-2016
                18-Sep-2019 
 ******************************************
 %chk=Ng-31_loop3_11.0.chk
 %nprocshared=48
 Will use up to   48 processors via shared memory.
 %mem=10GB
 %nosave
 ----------------------------------------------------------------------
 #b3lyp/svp scf=(tight,noincore) Test #IOP(5/87=12) Density=Current Pop
 =(MK,readradii) iop(6/33=2) iop(6/42=6)
 ----------------------------------------------------------------------
 1/30=1,38=1,172=1/1;
 2/12=2,17=6,18=5,40=1/2;
 3/5=18,7=101,11=2,25=1,30=1,74=-5/1,2,3;
 4//1;
 5/5=4,32=2,38=5,87=12/2;
 6/7=2,8=2,9=2,10=2,15=8,20=101,22=-1,28=1,33=2,42=6/1,2;
 99/5=1,9=1/99;
 ----------------
 Ng-31_loop3_11.0
 ----------------
 Symbolic Z-matrix:
 Charge =  0 Multiplicity = 1
 C                     0.978     48.03     5.318 
 C                     2.428     48.15     4.868 
 O                     3.048     47.15     4.498 
 H                     0.339     47.882    4.447 
 H                     0.875     47.179    5.992 
 H                     0.681     48.942    5.836 
 N                     2.978     49.37     4.878 
 C                     4.338     49.83     4.658 
 C                     5.278     49.29     5.718 
 O                     4.898     49.01     6.858 
 C                     4.358     51.36     4.608 
 C                     3.648     51.96     5.808 
 O                     4.388     52.55     6.618 
 O                     2.398     51.91     5.848 
 H                     2.398     50.1      5.258 
 H                     4.698     49.49     3.698 
 H                     3.838     51.6      3.678 
 H                     5.378     51.75     4.628 
 N                     6.558     49.26     5.338 
 C                     7.728     49.19     6.198 
 C                     8.648     48.       5.938 
 O                     9.628     47.82     6.648 
 C                     8.598     50.45     6.138 
 C                     7.788     51.65     6.608 
 C                     7.338     51.53     8.058 
 C                     6.858     52.88     8.588 
 N                     6.798     52.83     10.058 
 H                     6.788     49.42     4.368 
 H                     7.388     49.03     7.218 
 H                     8.968     50.72     5.148 
 H                     9.418     50.31     6.838 
 H                     7.048     51.86     5.838 
 H                     8.458     52.52     6.608 
 H                     8.128     51.1      8.678 
 H                     6.508     50.83     8.058 
 H                     5.848     53.08     8.228 
 H                     7.508     53.7      8.308 
 H                     6.358     53.67     10.398 
 H                     6.248     52.1      10.468 
 H                     7.738     52.76     10.418 
 N                     8.268     47.19     4.948 
 C                     8.938     45.95     4.608 
 C                     9.748     46.01     3.328 
 O                     10.158    44.99     2.788 
 C                     7.918     44.81     4.598 
 C                     6.788     44.99     3.608 
 O                     6.098     43.99     3.278 
 O                     6.438     46.07     3.078 
 H                     7.388     47.32     4.478 
 H                     9.728     45.74     5.338 
 H                     7.458     44.64     5.578 
 H                     8.468     43.92     4.298 
 N                     9.858     47.17     2.668 
 C                     10.648    47.32     1.458 
 C                     11.048    48.72     1.048 
 O                     11.418    49.49     1.938 
 H                     9.398     48.01     2.958 
 H                     10.068    46.89     0.638 
 H                     11.508    46.7      1.698 
 N                     11.058    49.13    -0.232 
 C                     10.778    48.39    -1.442 
 C                     9.328     48.43    -1.892 
 O                     8.698     49.49    -1.802 
 C                     11.658    48.94    -2.562 
 C                     13.148    48.75    -2.322 
 N                     13.658    47.7     -1.672 
 O                     13.958    49.63    -2.612 
 H                     11.338    50.07    -0.462 
 H                     11.048    47.34    -1.282 
 H                     11.468    49.96    -2.882 
 H                     11.408    48.42    -3.482 
 H                     13.028    46.92    -1.522 
 H                     14.618    47.68    -1.352 
 N                     8.658     47.34    -2.252 
 C                     9.218     46.      -2.322 
 C                     8.228     44.86    -2.202 
 O                     7.238     44.99    -1.472 
 H                     7.668     47.53    -2.292 
 H                     9.858     45.84    -1.452 
 H                     9.738     46.      -3.282 
 N                     8.478     43.69    -2.792 
 C                     7.698     42.48    -2.582 
 C                     8.698     41.34    -2.502 
 O                     9.408     41.13    -3.472 
 C                     6.688     42.31    -3.712 
 C                     5.628     43.36    -3.932 
 C                     4.478     43.24    -3.152 
 C                     5.668     44.3     -4.962 
 C                     3.348     44.03    -3.362 
 C                     4.588     45.17    -5.152 
 C                     3.438     45.04    -4.352 
 O                     2.438     45.96    -4.502 
 H                     9.288     43.71    -3.392 
 H                     7.178     42.54    -1.632 
 H                     6.178     41.35    -3.572 
 H                     7.228     42.21    -4.662 
 H                     4.348     42.37    -2.512 
 H                     6.588     44.43    -5.522 
 H                     2.418     43.97    -2.822 
 H                     4.688     45.95    -5.882 
 H                     2.688     46.41    -5.312 
 N                     8.518     40.43    -1.532 
 C                     9.208     39.16    -1.602 
 C                     8.578     38.22    -2.632 
 O                     9.248     37.36    -3.192 
 C                     9.448     38.55    -0.222 
 C                     8.378     37.53     0.168 
 C                     10.858    38.01    -0.042 
 C                     8.208     37.48     1.678 
 H                     7.728     40.63    -0.942 
 H                     10.208    39.31    -1.992 
 H                     9.338     39.4      0.458 
 H                     8.758     36.58    -0.212 
 H                     7.378     37.65    -0.252 
 H                     10.978    37.22    -0.792 
 H                     11.468    38.88    -0.282 
 H                     10.968    37.67     0.988 
 H                     9.068     37.       2.158 
 H                     7.988     38.45     2.108 
 H                     7.368     36.81     1.858 
 N                     7.258     38.25    -2.852 
 C                     6.568     37.55    -3.912 
 C                     5.728     36.36    -3.472 
 O                     5.088     35.8     -4.362 
 C                     5.798     38.71    -4.552 
 O                     4.678     38.94    -3.732 
 H                     6.788     39.02    -2.402 
 H                     7.298     37.21    -4.652 
 H                     5.608     38.26    -5.522 
 H                     6.478     39.56    -4.642 
 H                     4.968     39.38    -2.932 
 N                     5.718     35.91    -2.222 
 C                     4.938     34.76    -1.802 
 C                     4.308     34.93    -0.422 
 O                     4.978     35.23     0.558 
 C                     5.818     33.52    -1.852 
 H                     6.358     36.36    -1.582 
 H                     4.148     34.64    -2.532 
 H                     6.598     33.67    -1.112 
 H                     5.188     32.68    -1.552 
 H                     6.348     33.31    -2.792 
 N                     3.048     34.56    -0.202 
 C                     2.288     34.75     1.018 
 C                     2.448     36.11     1.688 
 O                     2.368     36.2      2.918 
 C                     2.528     33.54     1.918 
 H                     2.648     33.98    -0.932 
 H                     1.248     34.68     0.708 
 H                     1.898     33.49     2.798 
 H                     2.368     32.7      1.248 
 H                     3.568     33.68     2.228 
 N                     2.598     37.22     0.958 
 C                     2.368     38.59     1.368 
 C                     0.878     38.86     1.278 
 O                     0.208     38.98     2.308 
 C                     3.178     39.56     0.508 
 C                     4.688     39.41     0.648 
 C                     5.398     40.31    -0.342 
 O                     5.858     41.39     0.078 
 O                     5.538     39.96    -1.532 
 H                     2.638     37.09    -0.042 
 H                     2.698     38.64     2.408 
 H                     2.888     40.55     0.858 
 H                     2.868     39.54    -0.542 
 H                     4.988     38.39     0.418 
 H                     4.898     39.69     1.688 
 N                     0.318     38.93     0.068 
 C                    -1.022     39.36    -0.272 
 H                    -1.674     39.232    0.592 
 H                    -1.005     40.411   -0.561 
 H                    -1.397     38.761   -1.102 
 H                     0.938     38.7     -0.702 
 Ca                    3.85      45.31     2.42 
 O                     4.27      47.79     1.54 
 H                     4.1       48.73     1.6 
 H                     4.85      47.69     0.79 
 
 Stoichiometry    C54H83CaN15O23
 Framework group  C1[X(C54H83CaN15O23)]
 Deg. of freedom   522
 Full point group                 C1      NOp   1
 Largest Abelian subgroup         C1      NOp   1
 Largest concise Abelian subgroup C1      NOp   1
                         Standard orientation:                         
 ---------------------------------------------------------------------
 Center     Atomic      Atomic             Coordinates (Angstroms)
 Number     Number       Type             X           Y           Z
 ---------------------------------------------------------------------
      1          6           0        4.883743   -6.159100    2.335946
      2          6           0        5.028025   -4.759822    1.752332
      3          8           0        4.074758   -4.223624    1.182180
      4          1           0        4.287243   -6.112166    3.247456
      5          1           0        4.388625   -6.806622    1.611613
      6          1           0        5.870464   -6.560415    2.567477
      7          7           0        6.209212   -4.148423    1.900617
      8          6           0        6.740018   -2.906567    1.366164
      9          6           0        6.846913   -2.961102   -0.145259
     10          8           0        7.014760   -4.018564   -0.758449
     11          6           0        8.091050   -2.605113    2.020104
     12          6           0        9.020052   -3.803098    1.943380
     13          8           0       10.002154   -3.661562    1.190224
     14          8           0        8.797780   -4.779413    2.694383
     15          1           0        6.931320   -4.705743    2.326827
     16          1           0        6.089743   -2.081727    1.618315
     17          1           0        7.835474   -2.366392    3.054799
     18          1           0        8.606892   -1.783776    1.517895
     19          7           0        6.859885   -1.759453   -0.727985
     20          6           0        7.339271   -1.435267   -2.061586
     21          6           0        6.308711   -0.774358   -2.973312
     22          8           0        6.597333   -0.516444   -4.133949
     23          6           0        8.576668   -0.531435   -2.055511
     24          6           0        9.721219   -1.241161   -1.346079
     25          6           0       10.151159   -2.521747   -2.049393
     26          6           0       11.506332   -2.995793   -1.527293
     27          7           0       12.067894   -3.983353   -2.463441
     28          1           0        6.632556   -0.943082   -0.179112
     29          1           0        7.570442   -2.366353   -2.572702
     30          1           0        8.461139    0.421516   -1.537402
     31          1           0        8.872020   -0.381161   -3.090975
     32          1           0        9.471614   -1.274986   -0.287234
     33          1           0       10.603731   -0.591163   -1.412977
     34          1           0       10.148887   -2.391523   -3.134029
     35          1           0        9.395874   -3.264105   -1.809918
     36          1           0       11.377518   -3.495381   -0.566294
     37          1           0       12.223740   -2.191293   -1.420497
     38          1           0       12.893426   -4.391384   -2.055019
     39          1           0       11.500993   -4.780068   -2.681083
     40          1           0       12.302136   -3.514916   -3.325877
     41          7           0        5.110353   -0.566675   -2.424310
     42          6           0        3.962697   -0.051773   -3.145325
     43          6           0        3.606226    1.382278   -2.806910
     44          8           0        2.531230    1.864808   -3.141050
     45          6           0        2.780032   -1.004269   -2.960517
     46          6           0        2.350835   -1.197389   -1.522500
     47          8           0        1.210704   -1.674429   -1.282633
     48          8           0        3.040731   -0.944843   -0.507579
     49          1           0        4.893050   -0.909993   -1.503923
     50          1           0        4.203322    0.045170   -4.210127
     51          1           0        2.966853   -2.002092   -3.373250
     52          1           0        1.943615   -0.547027   -3.485813
     53          7           0        4.384752    2.077604   -1.968031
     54          6           0        4.135009    3.467075   -1.624957
     55          6           0        5.278032    4.262174   -1.033844
     56          8           0        6.397170    4.103831   -1.528169
     57          1           0        5.186236    1.686260   -1.514407
     58          1           0        3.316737    3.479167   -0.901089
     59          1           0        3.814487    3.859907   -2.586492
     60          7           0        5.110353    5.151218   -0.039819
     61          6           0        3.898032    5.585738    0.617120
     62          6           0        3.519988    4.784920    1.850965
     63          8           0        4.408120    4.429069    2.634030
     64          6           0        4.057841    7.052454    1.010190
     65          6           0        4.219954    7.991901   -0.175119
     66          7           0        3.632021    7.788753   -1.357560
     67          8           0        5.011724    8.933390   -0.139066
     68          1           0        5.898553    5.664915    0.320398
     69          1           0        3.067589    5.512946   -0.094263
     70          1           0        4.806871    7.282237    1.761890
     71          1           0        3.168461    7.361948    1.551039
     72          1           0        2.899066    7.088589   -1.376196
     73          1           0        3.897355    8.306007   -2.186081
     74          7           0        2.289881    4.327046    2.060223
     75          6           0        1.148733    4.570810    1.192777
     76          6           0        0.025174    3.558337    1.274099
     77          8           0        0.293323    2.369627    1.486145
     78          1           0        2.289242    3.637556    2.796703
     79          1           0        1.469408    4.474012    0.153596
     80          1           0        0.827519    5.572879    1.483772
     81          7           0       -1.229832    3.927024    1.012319
     82          6           0       -2.345688    3.004073    0.872222
     83          6           0       -3.176690    3.517601   -0.290415
     84          8           0       -3.660444    4.634350   -0.201236
     85          6           0       -3.128003    2.932150    2.179398
     86          6           0       -2.445478    2.447353    3.433843
     87          6           0       -2.404929    1.064622    3.611915
     88          6           0       -2.029614    3.288372    4.466241
     89          6           0       -1.961714    0.477421    4.796759
     90          6           0       -1.498677    2.739480    5.639366
     91          6           0       -1.458699    1.342377    5.800316
     92          8           0       -0.853842    0.836715    6.917166
     93          1           0       -1.337314    4.922367    0.892981
     94          1           0       -1.974980    2.018342    0.612588
     95          1           0       -4.007537    2.298873    2.016054
     96          1           0       -3.531389    3.926306    2.409687
     97          1           0       -2.935482    0.415180    2.918994
     98          1           0       -2.004831    4.359552    4.296356
     99          1           0       -1.933799   -0.576943    5.015020
    100          1           0       -1.090999    3.408506    6.372512
    101          1           0       -0.751598    1.614766    7.469691
    102          7           0       -3.612602    2.614127   -1.182108
    103          6           0       -4.670915    2.967568   -2.103494
    104          6           0       -6.041192    2.990517   -1.422895
    105          8           0       -6.941002    3.708436   -1.843649
    106          6           0       -4.601437    2.170222   -3.404844
    107          6           0       -5.516995    0.945842   -3.397895
    108          6           0       -4.790024    3.029223   -4.645267
    109          6           0       -4.955779   -0.150080   -4.289798
    110          1           0       -3.309370    1.676830   -0.977844
    111          1           0       -4.544610    3.994388   -2.426432
    112          1           0       -3.573277    1.796669   -3.423451
    113          1           0       -6.467020    1.315740   -3.787677
    114          1           0       -5.740957    0.478604   -2.437515
    115          1           0       -5.792264    3.464777   -4.562754
    116          1           0       -4.017348    3.786466   -4.518169
    117          1           0       -4.645764    2.401159   -5.524656
    118          1           0       -5.050536    0.113560   -5.349003
    119          1           0       -3.942053   -0.427767   -4.026267
    120          1           0       -5.610396   -1.009353   -4.148285
    121          7           0       -6.311655    2.139928   -0.425375
    122          6           0       -7.489098    2.176632    0.412468
    123          6           0       -8.500064    1.065630    0.169731
    124          8           0       -9.473285    1.055321    0.923411
    125          6           0       -6.838975    2.195675    1.799940
    126          8           0       -6.463873    0.868394    2.078009
    127          1           0       -5.507347    1.627735   -0.098194
    128          1           0       -7.989730    3.140694    0.285773
    129          1           0       -7.677341    2.593830    2.363958
    130          1           0       -6.010493    2.907069    1.776760
    131          1           0       -5.690106    0.651995    1.556324
    132          7           0       -8.380737    0.188991   -0.821413
    133          6           0       -9.354965   -0.857404   -1.072881
    134          6           0       -8.722860   -2.180987   -1.495694
    135          8           0       -7.939902   -2.248507   -2.434692
    136          6           0      -10.348531   -0.368406   -2.116054
    137          1           0       -7.610628    0.339837   -1.458498
    138          1           0       -9.890835   -1.009262   -0.144882
    139          1           0       -9.783187   -0.225451   -3.031723
    140          1           0      -11.072348   -1.173861   -2.256879
    141          1           0      -10.847698    0.593551   -1.931472
    142          7           0       -9.157602   -3.332460   -0.987746
    143          6           0       -8.594816   -4.649083   -1.215504
    144          6           0       -7.072590   -4.727817   -1.188502
    145          8           0       -6.489390   -5.554672   -1.898142
    146          6           0       -9.263166   -5.241297   -2.454170
    147          1           0      -10.044407   -3.266781   -0.499317
    148          1           0       -8.948917   -5.247992   -0.379729
    149          1           0       -9.037286   -6.283804   -2.643793
    150          1           0      -10.320157   -5.076031   -2.265606
    151          1           0       -8.846436   -4.630739   -3.260926
    152          7           0       -6.361895   -3.966173   -0.350461
    153          6           0       -5.000226   -4.172130    0.098247
    154          6           0       -5.027946   -5.193570    1.219403
    155          8           0       -4.593369   -6.333256    1.028462
    156          6           0       -4.366645   -2.853503    0.541416
    157          6           0       -4.207516   -1.828781   -0.575196
    158          6           0       -3.706548   -0.514611   -0.012890
    159          8           0       -2.492902   -0.254877   -0.131210
    160          8           0       -4.496288    0.288807    0.524727
    161          1           0       -6.890777   -3.322272    0.218903
    162          1           0       -4.468658   -4.575755   -0.766346
    163          1           0       -3.379409   -3.129817    0.909810
    164          1           0       -4.872453   -2.423451    1.412170
    165          1           0       -5.169784   -1.626163   -1.040262
    166          1           0       -3.488822   -2.284620   -1.267865
    167          7           0       -5.559096   -4.835398    2.390809
    168          6           0       -5.525050   -5.558260    3.644767
    169          1           0       -5.379075   -6.620171    3.447228
    170          1           0       -4.703128   -5.186924    4.257109
    171          1           0       -6.466847   -5.413354    4.174244
    172          1           0       -5.990975   -3.916916    2.399374
    173         20           0        1.682953   -2.604755    1.255781
    174          8           0        3.598509   -1.316228    2.586774
    175          1           0        4.438214   -1.326117    3.046010
    176          1           0        3.285098   -0.418984    2.661781
 ---------------------------------------------------------------------
 Rotational constants (GHZ):           0.0209209           0.0092734           0.0078533
 Standard basis: SVP (5D, 7F)
 There are  1809 symmetry adapted cartesian basis functions of A   symmetry.
 There are  1717 symmetry adapted basis functions of A   symmetry.
  1717 basis functions,  2922 primitive gaussians,  1809 cartesian basis functions
   358 alpha electrons      358 beta electrons
       nuclear repulsion energy     19275.0841828509 Hartrees.
 NAtoms=  176 NActive=  176 NUniq=  176 SFac= 1.00D+00 NAtFMM=   60 NAOKFM=T Big=T
 Integral buffers will be    131072 words long.
 Raffenetti 2 integral format.
 Two-electron integral symmetry is turned on.
 One-electron integrals computed using PRISM.
 NBasis=  1717 RedAO= T EigKep=  2.82D-04  NBF=  1717
 NBsUse=  1717 1.00D-06 EigRej= -1.00D+00 NBFU=  1717
 ExpMin= 1.98D-02 ExpMax= 3.51D+04 ExpMxC= 5.28D+03 IAcc=3 IRadAn=         5 AccDes= 0.00D+00
 Harris functional with IExCor=  402 and IRadAn=       5 diagonalized for initial guess.
 HarFok:  IExCor=  402 AccDes= 0.00D+00 IRadAn=         5 IDoV= 1 UseB2=F ITyADJ=14
 ICtDFT=  3500011 ScaDFX=  1.000000  1.000000  1.000000  1.000000
 FoFCou: FMM=F IPFlag=           0 FMFlag=      100000 FMFlg1=        2001
         NFxFlg=           0 DoJE=T BraDBF=F KetDBF=T FulRan=T
         wScrn=  0.000000 ICntrl=       500 IOpCl=  0 I1Cent=   200000004 NGrid=           0
         NMat0=    1 NMatS0=      1 NMatT0=    0 NMatD0=    1 NMtDS0=    0 NMtDT0=    0
 Petite list used in FoFCou.
 Requested convergence on RMS density matrix=1.00D-08 within 128 cycles.
 Requested convergence on MAX density matrix=1.00D-06.
 Requested convergence on             energy=1.00D-06.
 No special actions if energy rises.
 SCF Done:  E(RB3LYP) =  -5333.38292845     A.U. after   18 cycles
            NFock= 18  Conv=0.17D-08     -V/T= 2.0081
 SCF density gives NOpUse=  1 NOpAll=  1.
 Hyperfine terms turned off by default for NAtoms > 100.

 **********************************************************************

            Population analysis using the SCF density.

 **********************************************************************

 Orbital symmetries:
 BldTbl:  Degeneracy threshold= 1.00D-02
       Occupied  (A) (A) (A) (A) (A) (A) (A) (A) (A) (A) (A) (A)
                 (A) (A) (A) (A) (A) (A) (A) (A) (A) (A) (A) (A)
                 (A) (A) (A) (A) (A) (A) (A) (A) (A) (A) (A) (A)
                 (A) (A) (A) (A) (A) (A) (A) (A) (A) (A) (A) (A)
                 (A) (A) (A) (A) (A) (A) (A) (A) (A) (A) (A) (A)
                 (A) (A) (A) (A) (A) (A) (A) (A) (A) (A) (A) (A)
                 (A) (A) (A) (A) (A) (A) (A) (A) (A) (A) (A) (A)
                 (A) (A) (A) (A) (A) (A) (A) (A) (A) (A) (A) (A)
                 (A) (A) (A) (A) (A) (A) (A) (A) (A) (A) (A) (A)
                 (A) (A) (A) (A) (A) (A) (A) (A) (A) (A) (A) (A)
                 (A) (A) (A) (A) (A) (A) (A) (A) (A) (A) (A) (A)
                 (A) (A) (A) (A) (A) (A) (A) (A) (A) (A) (A) (A)
                 (A) (A) (A) (A) (A) (A) (A) (A) (A) (A) (A) (A)
                 (A) (A) (A) (A) (A) (A) (A) (A) (A) (A) (A) (A)
                 (A) (A) (A) (A) (A) (A) (A) (A) (A) (A) (A) (A)
                 (A) (A) (A) (A) (A) (A) (A) (A) (A) (A) (A) (A)
                 (A) (A) (A) (A) (A) (A) (A) (A) (A) (A) (A) (A)
                 (A) (A) (A) (A) (A) (A) (A) (A) (A) (A) (A) (A)
                 (A) (A) (A) (A) (A) (A) (A) (A) (A) (A) (A) (A)
                 (A) (A) (A) (A) (A) (A) (A) (A) (A) (A) (A) (A)
                 (A) (A) (A) (A) (A) (A) (A) (A) (A) (A) (A) (A)
                 (A) (A) (A) (A) (A) (A) (A) (A) (A) (A) (A) (A)
                 (A) (A) (A) (A) (A) (A) (A) (A) (A) (A) (A) (A)
                 (A) (A) (A) (A) (A) (A) (A) (A) (A) (A) (A) (A)
                 (A) (A) (A) (A) (A) (A) (A) (A) (A) (A) (A) (A)
                 (A) (A) (A) (A) (A) (A) (A) (A) (A) (A) (A) (A)
                 (A) (A) (A) (A) (A) (A) (A) (A) (A) (A) (A) (A)
                 (A) (A) (A) (A) (A) (A) (A) (A) (A) (A) (A) (A)
                 (A) (A) (A) (A) (A) (A) (A) (A) (A) (A) (A) (A)
                 (A) (A) (A) (A) (A) (A) (A) (A) (A) (A)
       Virtual   (A) (A) (A) (A) (A) (A) (A) (A) (A) (A) (A) (A)
                 (A) (A) (A) (A) (A) (A) (A) (A) (A) (A) (A) (A)
                 (A) (A) (A) (A) (A) (A) (A) (A) (A) (A) (A) (A)
                 (A) (A) (A) (A) (A) (A) (A) (A) (A) (A) (A) (A)
                 (A) (A) (A) (A) (A) (A) (A) (A) (A) (A) (A) (A)
                 (A) (A) (A) (A) (A) (A) (A) (A) (A) (A) (A) (A)
                 (A) (A) (A) (A) (A) (A) (A) (A) (A) (A) (A) (A)
                 (A) (A) (A) (A) (A) (A) (A) (A) (A) (A) (A) (A)
                 (A) (A) (A) (A) (A) (A) (A) (A) (A) (A) (A) (A)
                 (A) (A) (A) (A) (A) (A) (A) (A) (A) (A) (A) (A)
                 (A) (A) (A) (A) (A) (A) (A) (A) (A) (A) (A) (A)
                 (A) (A) (A) (A) (A) (A) (A) (A) (A) (A) (A) (A)
                 (A) (A) (A) (A) (A) (A) (A) (A) (A) (A) (A) (A)
                 (A) (A) (A) (A) (A) (A) (A) (A) (A) (A) (A) (A)
                 (A) (A) (A) (A) (A) (A) (A) (A) (A) (A) (A) (A)
                 (A) (A) (A) (A) (A) (A) (A) (A) (A) (A) (A) (A)
                 (A) (A) (A) (A) (A) (A) (A) (A) (A) (A) (A) (A)
                 (A) (A) (A) (A) (A) (A) (A) (A) (A) (A) (A) (A)
                 (A) (A) (A) (A) (A) (A) (A) (A) (A) (A) (A) (A)
                 (A) (A) (A) (A) (A) (A) (A) (A) (A) (A) (A) (A)
                 (A) (A) (A) (A) (A) (A) (A) (A) (A) (A) (A) (A)
                 (A) (A) (A) (A) (A) (A) (A) (A) (A) (A) (A) (A)
                 (A) (A) (A) (A) (A) (A) (A) (A) (A) (A) (A) (A)
                 (A) (A) (A) (A) (A) (A) (A) (A) (A) (A) (A) (A)
                 (A) (A) (A) (A) (A) (A) (A) (A) (A) (A) (A) (A)
                 (A) (A) (A) (A) (A) (A) (A) (A) (A) (A) (A) (A)
                 (A) (A) (A) (A) (A) (A) (A) (A) (A) (A) (A) (A)
                 (A) (A) (A) (A) (A) (A) (A) (A) (A) (A) (A) (A)
                 (A) (A) (A) (A) (A) (A) (A) (A) (A) (A) (A) (A)
                 (A) (A) (A) (A) (A) (A) (A) (A) (A) (A) (A) (A)
                 (A) (A) (A) (A) (A) (A) (A) (A) (A) (A) (A) (A)
                 (A) (A) (A) (A) (A) (A) (A) (A) (A) (A) (A) (A)
                 (A) (A) (A) (A) (A) (A) (A) (A) (A) (A) (A) (A)
                 (A) (A) (A) (A) (A) (A) (A) (A) (A) (A) (A) (A)
                 (A) (A) (A) (A) (A) (A) (A) (A) (A) (A) (A) (A)
                 (A) (A) (A) (A) (A) (A) (A) (A) (A) (A) (A) (A)
                 (A) (A) (A) (A) (A) (A) (A) (A) (A) (A) (A) (A)
                 (A) (A) (A) (A) (A) (A) (A) (A) (A) (A) (A) (A)
                 (A) (A) (A) (A) (A) (A) (A) (A) (A) (A) (A) (A)
                 (A) (A) (A) (A) (A) (A) (A) (A) (A) (A) (A) (A)
                 (A) (A) (A) (A) (A) (A) (A) (A) (A) (A) (A) (A)
                 (A) (A) (A) (A) (A) (A) (A) (A) (A) (A) (A) (A)
                 (A) (A) (A) (A) (A) (A) (A) (A) (A) (A) (A) (A)
                 (A) (A) (A) (A) (A) (A) (A) (A) (A) (A) (A) (A)
                 (A) (A) (A) (A) (A) (A) (A) (A) (A) (A) (A) (A)
                 (A) (A) (A) (A) (A) (A) (A) (A) (A) (A) (A) (A)
                 (A) (A) (A) (A) (A) (A) (A) (A) (A) (A) (A) (A)
                 (A) (A) (A) (A) (A) (A) (A) (A) (A) (A) (A) (A)
                 (A) (A) (A) (A) (A) (A) (A) (A) (A) (A) (A) (A)
                 (A) (A) (A) (A) (A) (A) (A) (A) (A) (A) (A) (A)
                 (A) (A) (A) (A) (A) (A) (A) (A) (A) (A) (A) (A)
                 (A) (A) (A) (A) (A) (A) (A) (A) (A) (A) (A) (A)
                 (A) (A) (A) (A) (A) (A) (A) (A) (A) (A) (A) (A)
                 (A) (A) (A) (A) (A) (A) (A) (A) (A) (A) (A) (A)
                 (A) (A) (A) (A) (A) (A) (A) (A) (A) (A) (A) (A)
                 (A) (A) (A) (A) (A) (A) (A) (A) (A) (A) (A) (A)
                 (A) (A) (A) (A) (A) (A) (A) (A) (A) (A) (A) (A)
                 (A) (A) (A) (A) (A) (A) (A) (A) (A) (A) (A) (A)
                 (A) (A) (A) (A) (A) (A) (A) (A) (A) (A) (A) (A)
                 (A) (A) (A) (A) (A) (A) (A) (A) (A) (A) (A) (A)
                 (A) (A) (A) (A) (A) (A) (A) (A) (A) (A) (A) (A)
                 (A) (A) (A) (A) (A) (A) (A) (A) (A) (A) (A) (A)
                 (A) (A) (A) (A) (A) (A) (A) (A) (A) (A) (A) (A)
                 (A) (A) (A) (A) (A) (A) (A) (A) (A) (A) (A) (A)
                 (A) (A) (A) (A) (A) (A) (A) (A) (A) (A) (A) (A)
                 (A) (A) (A) (A) (A) (A) (A) (A) (A) (A) (A) (A)
                 (A) (A) (A) (A) (A) (A) (A) (A) (A) (A) (A) (A)
                 (A) (A) (A) (A) (A) (A) (A) (A) (A) (A) (A) (A)
                 (A) (A) (A) (A) (A) (A) (A) (A) (A) (A) (A) (A)
                 (A) (A) (A) (A) (A) (A) (A) (A) (A) (A) (A) (A)
                 (A) (A) (A) (A) (A) (A) (A) (A) (A) (A) (A) (A)
                 (A) (A) (A) (A) (A) (A) (A) (A) (A) (A) (A) (A)
                 (A) (A) (A) (A) (A) (A) (A) (A) (A) (A) (A) (A)
                 (A) (A) (A) (A) (A) (A) (A) (A) (A) (A) (A) (A)
                 (A) (A) (A) (A) (A) (A) (A) (A) (A) (A) (A) (A)
                 (A) (A) (A) (A) (A) (A) (A) (A) (A) (A) (A) (A)
                 (A) (A) (A) (A) (A) (A) (A) (A) (A) (A) (A) (A)
                 (A) (A) (A) (A) (A) (A) (A) (A) (A) (A) (A) (A)
                 (A) (A) (A) (A) (A) (A) (A) (A) (A) (A) (A) (A)
                 (A) (A) (A) (A) (A) (A) (A) (A) (A) (A) (A) (A)
                 (A) (A) (A) (A) (A) (A) (A) (A) (A) (A) (A) (A)
                 (A) (A) (A) (A) (A) (A) (A) (A) (A) (A) (A) (A)
                 (A) (A) (A) (A) (A) (A) (A) (A) (A) (A) (A) (A)
                 (A) (A) (A) (A) (A) (A) (A) (A) (A) (A) (A) (A)
                 (A) (A) (A) (A) (A) (A) (A) (A) (A) (A) (A) (A)
                 (A) (A) (A) (A) (A) (A) (A) (A) (A) (A) (A) (A)
                 (A) (A) (A) (A) (A) (A) (A) (A) (A) (A) (A) (A)
                 (A) (A) (A) (A) (A) (A) (A) (A) (A) (A) (A) (A)
                 (A) (A) (A) (A) (A) (A) (A) (A) (A) (A) (A) (A)
                 (A) (A) (A) (A) (A) (A) (A) (A) (A) (A) (A) (A)
                 (A) (A) (A) (A) (A) (A) (A) (A) (A) (A) (A) (A)
                 (A) (A) (A) (A) (A) (A) (A) (A) (A) (A) (A) (A)
                 (A) (A) (A) (A) (A) (A) (A) (A) (A) (A) (A) (A)
                 (A) (A) (A) (A) (A) (A) (A) (A) (A) (A) (A) (A)
                 (A) (A) (A) (A) (A) (A) (A) (A) (A) (A) (A) (A)
                 (A) (A) (A) (A) (A) (A) (A) (A) (A) (A) (A) (A)
                 (A) (A) (A) (A) (A) (A) (A) (A) (A) (A) (A) (A)
                 (A) (A) (A) (A) (A) (A) (A) (A) (A) (A) (A) (A)
                 (A) (A) (A) (A) (A) (A) (A) (A) (A) (A) (A) (A)
                 (A) (A) (A) (A) (A) (A) (A) (A) (A) (A) (A) (A)
                 (A) (A) (A) (A) (A) (A) (A) (A) (A) (A) (A) (A)
                 (A) (A) (A) (A) (A) (A) (A) (A) (A) (A) (A) (A)
                 (A) (A) (A) (A) (A) (A) (A) (A) (A) (A) (A) (A)
                 (A) (A) (A) (A) (A) (A) (A) (A) (A) (A) (A) (A)
                 (A) (A) (A) (A) (A) (A) (A) (A) (A) (A) (A) (A)
                 (A) (A) (A) (A) (A) (A) (A) (A) (A) (A) (A) (A)
                 (A) (A) (A) (A) (A) (A) (A) (A) (A) (A) (A) (A)
                 (A) (A) (A) (A) (A) (A) (A) (A) (A) (A) (A) (A)
                 (A) (A) (A) (A) (A) (A) (A) (A) (A) (A) (A) (A)
                 (A) (A) (A) (A) (A) (A) (A) (A) (A) (A) (A) (A)
                 (A) (A) (A) (A) (A) (A) (A) (A) (A) (A) (A) (A)
                 (A) (A) (A) (A) (A) (A) (A) (A) (A) (A) (A) (A)
                 (A) (A) (A) (A) (A) (A) (A) (A) (A) (A) (A) (A)
                 (A) (A) (A)
 The electronic state is 1-A.
 Alpha  occ. eigenvalues -- -145.54598 -19.23773 -19.16240 -19.14278 -19.11973
 Alpha  occ. eigenvalues --  -19.10697 -19.10504 -19.10465 -19.10261 -19.09481
 Alpha  occ. eigenvalues --  -19.09355 -19.09242 -19.09223 -19.08905 -19.07832
 Alpha  occ. eigenvalues --  -19.07398 -19.07058 -19.06485 -19.05101 -19.05030
 Alpha  occ. eigenvalues --  -19.04302 -19.04145 -19.03896 -19.03689 -15.60342
 Alpha  occ. eigenvalues --  -14.56295 -14.38560 -14.37565 -14.37330 -14.36703
 Alpha  occ. eigenvalues --  -14.36259 -14.36183 -14.35966 -14.35452 -14.35184
 Alpha  occ. eigenvalues --  -14.35125 -14.34075 -14.32479 -14.31961 -14.29317
 Alpha  occ. eigenvalues --  -12.73960 -12.73923 -12.73892 -10.32330 -10.31313
 Alpha  occ. eigenvalues --  -10.30641 -10.30436 -10.29787 -10.29460 -10.29396
 Alpha  occ. eigenvalues --  -10.28823 -10.28791 -10.28448 -10.27543 -10.26977
 Alpha  occ. eigenvalues --  -10.26954 -10.26769 -10.25822 -10.25762 -10.25473
 Alpha  occ. eigenvalues --  -10.25120 -10.24883 -10.24440 -10.24346 -10.24276
 Alpha  occ. eigenvalues --  -10.24026 -10.23819 -10.23650 -10.23150 -10.23071
 Alpha  occ. eigenvalues --  -10.22587 -10.22524 -10.22171 -10.21905 -10.21901
 Alpha  occ. eigenvalues --  -10.21822 -10.21665 -10.20645 -10.20002 -10.18949
 Alpha  occ. eigenvalues --  -10.18940 -10.18671 -10.18544 -10.18497 -10.18420
 Alpha  occ. eigenvalues --  -10.18277 -10.18013 -10.17678 -10.17638 -10.16761
 Alpha  occ. eigenvalues --  -10.16650 -10.16553 -10.15791 -10.15518 -10.14885
 Alpha  occ. eigenvalues --  -10.14624 -10.14040  -1.96571  -1.23961  -1.23589
 Alpha  occ. eigenvalues --   -1.23372  -1.11766  -1.09705  -1.06196  -1.05263
 Alpha  occ. eigenvalues --   -1.04978  -1.04637  -1.04482  -1.03820  -1.03547
 Alpha  occ. eigenvalues --   -1.02897  -1.02896  -1.02779  -1.02295  -1.01171
 Alpha  occ. eigenvalues --   -1.00554  -0.99999  -0.99647  -0.98894  -0.98616
 Alpha  occ. eigenvalues --   -0.97677  -0.95594  -0.95560  -0.94392  -0.94157
 Alpha  occ. eigenvalues --   -0.93715  -0.93477  -0.92851  -0.91936  -0.91701
 Alpha  occ. eigenvalues --   -0.91386  -0.91342  -0.90273  -0.90267  -0.89373
 Alpha  occ. eigenvalues --   -0.89250  -0.89210  -0.89013  -0.86645  -0.86504
 Alpha  occ. eigenvalues --   -0.83977  -0.82327  -0.80783  -0.80089  -0.79061
 Alpha  occ. eigenvalues --   -0.78800  -0.78689  -0.77508  -0.77160  -0.75652
 Alpha  occ. eigenvalues --   -0.74828  -0.74754  -0.74493  -0.74406  -0.73785
 Alpha  occ. eigenvalues --   -0.72543  -0.72237  -0.71842  -0.71148  -0.70971
 Alpha  occ. eigenvalues --   -0.70769  -0.70131  -0.68885  -0.68479  -0.67968
 Alpha  occ. eigenvalues --   -0.66731  -0.66562  -0.64961  -0.63789  -0.63686
 Alpha  occ. eigenvalues --   -0.63415  -0.63388  -0.63139  -0.62055  -0.61530
 Alpha  occ. eigenvalues --   -0.61267  -0.61253  -0.60771  -0.60157  -0.60026
 Alpha  occ. eigenvalues --   -0.59825  -0.59777  -0.59615  -0.58924  -0.58756
 Alpha  occ. eigenvalues --   -0.58179  -0.57512  -0.57435  -0.57121  -0.56796
 Alpha  occ. eigenvalues --   -0.56445  -0.56255  -0.55610  -0.55491  -0.54882
 Alpha  occ. eigenvalues --   -0.54695  -0.54305  -0.53859  -0.53560  -0.53535
 Alpha  occ. eigenvalues --   -0.53362  -0.53206  -0.52805  -0.52609  -0.52006
 Alpha  occ. eigenvalues --   -0.51874  -0.51702  -0.51258  -0.50771  -0.50353
 Alpha  occ. eigenvalues --   -0.50175  -0.50079  -0.49758  -0.48922  -0.48800
 Alpha  occ. eigenvalues --   -0.48706  -0.48477  -0.48296  -0.47791  -0.47650
 Alpha  occ. eigenvalues --   -0.47613  -0.47191  -0.47142  -0.47009  -0.46523
 Alpha  occ. eigenvalues --   -0.46424  -0.46389  -0.46204  -0.46077  -0.45866
 Alpha  occ. eigenvalues --   -0.45801  -0.45788  -0.45504  -0.45214  -0.45171
 Alpha  occ. eigenvalues --   -0.45127  -0.44903  -0.44675  -0.44261  -0.44147
 Alpha  occ. eigenvalues --   -0.43786  -0.43702  -0.43631  -0.43348  -0.43196
 Alpha  occ. eigenvalues --   -0.43151  -0.42750  -0.42700  -0.42509  -0.42419
 Alpha  occ. eigenvalues --   -0.42352  -0.42083  -0.41975  -0.41844  -0.41693
 Alpha  occ. eigenvalues --   -0.41566  -0.41512  -0.41440  -0.41199  -0.41078
 Alpha  occ. eigenvalues --   -0.41012  -0.40779  -0.40740  -0.40616  -0.40420
 Alpha  occ. eigenvalues --   -0.40181  -0.40064  -0.40030  -0.39950  -0.39922
 Alpha  occ. eigenvalues --   -0.39739  -0.39590  -0.39175  -0.39152  -0.38967
 Alpha  occ. eigenvalues --   -0.38899  -0.38793  -0.38669  -0.38553  -0.38489
 Alpha  occ. eigenvalues --   -0.38292  -0.38102  -0.38076  -0.37929  -0.37739
 Alpha  occ. eigenvalues --   -0.37504  -0.37437  -0.37431  -0.37013  -0.36760
 Alpha  occ. eigenvalues --   -0.36623  -0.36451  -0.36346  -0.36057  -0.35940
 Alpha  occ. eigenvalues --   -0.35830  -0.35697  -0.35588  -0.35477  -0.35282
 Alpha  occ. eigenvalues --   -0.35085  -0.34534  -0.34398  -0.34377  -0.34048
 Alpha  occ. eigenvalues --   -0.33913  -0.33904  -0.33635  -0.33183  -0.33142
 Alpha  occ. eigenvalues --   -0.32784  -0.32420  -0.32185  -0.31606  -0.30206
 Alpha  occ. eigenvalues --   -0.30203  -0.29977  -0.29843  -0.29723  -0.29364
 Alpha  occ. eigenvalues --   -0.28812  -0.28547  -0.28257  -0.27482  -0.27378
 Alpha  occ. eigenvalues --   -0.27328  -0.27280  -0.26873  -0.26471  -0.26437
 Alpha  occ. eigenvalues --   -0.26432  -0.26049  -0.25997  -0.25979  -0.25909
 Alpha  occ. eigenvalues --   -0.25500  -0.25112  -0.24955  -0.24868  -0.24772
 Alpha  occ. eigenvalues --   -0.24723  -0.24512  -0.24294  -0.23662  -0.23343
 Alpha  occ. eigenvalues --   -0.22766  -0.22508  -0.22364  -0.22173  -0.21887
 Alpha  occ. eigenvalues --   -0.21811  -0.21398  -0.21119  -0.21095  -0.20021
 Alpha  occ. eigenvalues --   -0.19772  -0.19520  -0.19181
 Alpha virt. eigenvalues --   -0.14898  -0.08690  -0.04808  -0.02729  -0.02431
 Alpha virt. eigenvalues --   -0.02192  -0.01815  -0.01257  -0.00847  -0.00743
 Alpha virt. eigenvalues --   -0.00543   0.00302   0.00772   0.00872   0.00958
 Alpha virt. eigenvalues --    0.01285   0.01313   0.01531   0.01678   0.01757
 Alpha virt. eigenvalues --    0.02238   0.02297   0.03047   0.03223   0.03452
 Alpha virt. eigenvalues --    0.03755   0.04015   0.04129   0.04598   0.05039
 Alpha virt. eigenvalues --    0.05155   0.05456   0.05639   0.05845   0.06183
 Alpha virt. eigenvalues --    0.06327   0.06674   0.07052   0.07097   0.07211
 Alpha virt. eigenvalues --    0.07621   0.07751   0.07830   0.07983   0.08097
 Alpha virt. eigenvalues --    0.08231   0.08551   0.08594   0.08709   0.09423
 Alpha virt. eigenvalues --    0.09541   0.09798   0.10024   0.10097   0.10278
 Alpha virt. eigenvalues --    0.10415   0.10850   0.10966   0.11053   0.11332
 Alpha virt. eigenvalues --    0.11389   0.11459   0.11754   0.11944   0.12166
 Alpha virt. eigenvalues --    0.12396   0.12668   0.13001   0.13099   0.13155
 Alpha virt. eigenvalues --    0.13221   0.13327   0.13397   0.13538   0.13821
 Alpha virt. eigenvalues --    0.13974   0.14060   0.14176   0.14448   0.14586
 Alpha virt. eigenvalues --    0.14889   0.14919   0.14987   0.15190   0.15291
 Alpha virt. eigenvalues --    0.15487   0.15795   0.15866   0.15939   0.16024
 Alpha virt. eigenvalues --    0.16142   0.16246   0.16514   0.16756   0.16828
 Alpha virt. eigenvalues --    0.16919   0.17187   0.17309   0.17599   0.17829
 Alpha virt. eigenvalues --    0.17916   0.18069   0.18205   0.18463   0.18557
 Alpha virt. eigenvalues --    0.18615   0.19078   0.19300   0.19443   0.19514
 Alpha virt. eigenvalues --    0.19618   0.20105   0.20253   0.20471   0.20642
 Alpha virt. eigenvalues --    0.20945   0.20971   0.21468   0.21664   0.22154
 Alpha virt. eigenvalues --    0.22199   0.22492   0.22643   0.22716   0.23002
 Alpha virt. eigenvalues --    0.23195   0.23262   0.23482   0.23714   0.23829
 Alpha virt. eigenvalues --    0.24100   0.24348   0.24410   0.24524   0.24705
 Alpha virt. eigenvalues --    0.24988   0.25414   0.25462   0.25733   0.25877
 Alpha virt. eigenvalues --    0.25975   0.26084   0.26154   0.26337   0.26595
 Alpha virt. eigenvalues --    0.26788   0.26992   0.27421   0.27646   0.27779
 Alpha virt. eigenvalues --    0.27969   0.28038   0.28304   0.29060   0.29370
 Alpha virt. eigenvalues --    0.29785   0.30328   0.30409   0.30520   0.30757
 Alpha virt. eigenvalues --    0.30946   0.31107   0.31657   0.31691   0.32074
 Alpha virt. eigenvalues --    0.32260   0.32389   0.32490   0.32769   0.32956
 Alpha virt. eigenvalues --    0.33374   0.33683   0.33860   0.34055   0.34099
 Alpha virt. eigenvalues --    0.34455   0.34590   0.34802   0.34992   0.35089
 Alpha virt. eigenvalues --    0.35219   0.35721   0.36248   0.37030   0.37350
 Alpha virt. eigenvalues --    0.37560   0.37740   0.38091   0.38419   0.39164
 Alpha virt. eigenvalues --    0.39490   0.39650   0.39803   0.40048   0.40746
 Alpha virt. eigenvalues --    0.40825   0.41109   0.41226   0.41568   0.41768
 Alpha virt. eigenvalues --    0.42020   0.42091   0.42292   0.42470   0.42714
 Alpha virt. eigenvalues --    0.42980   0.43096   0.43295   0.43685   0.43840
 Alpha virt. eigenvalues --    0.44019   0.44277   0.44465   0.44756   0.44798
 Alpha virt. eigenvalues --    0.44891   0.45135   0.45397   0.45617   0.46085
 Alpha virt. eigenvalues --    0.46369   0.46542   0.46667   0.46862   0.46901
 Alpha virt. eigenvalues --    0.47010   0.47225   0.47523   0.47568   0.47974
 Alpha virt. eigenvalues --    0.48014   0.48075   0.48316   0.48474   0.48579
 Alpha virt. eigenvalues --    0.48622   0.48765   0.48835   0.48978   0.49159
 Alpha virt. eigenvalues --    0.49534   0.49697   0.50210   0.50318   0.50463
 Alpha virt. eigenvalues --    0.50617   0.50778   0.51231   0.51274   0.51431
 Alpha virt. eigenvalues --    0.51704   0.51841   0.52208   0.52346   0.52651
 Alpha virt. eigenvalues --    0.52725   0.52859   0.52960   0.53376   0.53466
 Alpha virt. eigenvalues --    0.53743   0.53879   0.53944   0.54490   0.54591
 Alpha virt. eigenvalues --    0.54811   0.55032   0.55300   0.55520   0.55772
 Alpha virt. eigenvalues --    0.55802   0.56059   0.56169   0.56303   0.56354
 Alpha virt. eigenvalues --    0.56576   0.56927   0.56978   0.57161   0.57516
 Alpha virt. eigenvalues --    0.57547   0.57994   0.58034   0.58249   0.58309
 Alpha virt. eigenvalues --    0.58545   0.58654   0.58822   0.58976   0.59119
 Alpha virt. eigenvalues --    0.59420   0.59516   0.59561   0.59693   0.59850
 Alpha virt. eigenvalues --    0.59999   0.60154   0.60249   0.60483   0.60642
 Alpha virt. eigenvalues --    0.60722   0.60786   0.60832   0.61225   0.61252
 Alpha virt. eigenvalues --    0.61364   0.61502   0.61670   0.61980   0.62040
 Alpha virt. eigenvalues --    0.62186   0.62235   0.62333   0.62504   0.62539
 Alpha virt. eigenvalues --    0.62734   0.62907   0.62998   0.63130   0.63353
 Alpha virt. eigenvalues --    0.63434   0.63548   0.63809   0.63913   0.64019
 Alpha virt. eigenvalues --    0.64050   0.64162   0.64410   0.64565   0.64645
 Alpha virt. eigenvalues --    0.64703   0.64790   0.64856   0.64963   0.65146
 Alpha virt. eigenvalues --    0.65185   0.65253   0.65324   0.65392   0.65426
 Alpha virt. eigenvalues --    0.65643   0.65686   0.65734   0.65869   0.65980
 Alpha virt. eigenvalues --    0.66184   0.66328   0.66410   0.66419   0.66582
 Alpha virt. eigenvalues --    0.66671   0.66774   0.66925   0.66972   0.67232
 Alpha virt. eigenvalues --    0.67330   0.67418   0.67643   0.67691   0.67736
 Alpha virt. eigenvalues --    0.67771   0.67947   0.68003   0.68129   0.68191
 Alpha virt. eigenvalues --    0.68393   0.68472   0.68596   0.68697   0.68832
 Alpha virt. eigenvalues --    0.68902   0.68938   0.69023   0.69183   0.69267
 Alpha virt. eigenvalues --    0.69427   0.69646   0.69819   0.69929   0.69977
 Alpha virt. eigenvalues --    0.70171   0.70268   0.70371   0.70521   0.70579
 Alpha virt. eigenvalues --    0.70602   0.70682   0.70897   0.71029   0.71223
 Alpha virt. eigenvalues --    0.71431   0.71534   0.71690   0.71734   0.71955
 Alpha virt. eigenvalues --    0.72269   0.72275   0.72470   0.72875   0.73057
 Alpha virt. eigenvalues --    0.73340   0.73454   0.73516   0.73848   0.74094
 Alpha virt. eigenvalues --    0.74326   0.74429   0.74646   0.74787   0.75067
 Alpha virt. eigenvalues --    0.75296   0.75420   0.75472   0.75732   0.75764
 Alpha virt. eigenvalues --    0.75905   0.76414   0.76532   0.76712   0.76885
 Alpha virt. eigenvalues --    0.76925   0.77166   0.77255   0.77523   0.77624
 Alpha virt. eigenvalues --    0.78075   0.78367   0.78469   0.78645   0.78742
 Alpha virt. eigenvalues --    0.78977   0.79142   0.79659   0.79838   0.80016
 Alpha virt. eigenvalues --    0.80378   0.80554   0.81027   0.81153   0.81495
 Alpha virt. eigenvalues --    0.82100   0.82366   0.82516   0.82724   0.82763
 Alpha virt. eigenvalues --    0.83085   0.83229   0.83428   0.83644   0.83921
 Alpha virt. eigenvalues --    0.84098   0.84536   0.84640   0.84784   0.85164
 Alpha virt. eigenvalues --    0.85231   0.85394   0.85664   0.85940   0.86180
 Alpha virt. eigenvalues --    0.86253   0.86779   0.86996   0.87131   0.87510
 Alpha virt. eigenvalues --    0.87996   0.88072   0.88289   0.88535   0.88820
 Alpha virt. eigenvalues --    0.89050   0.89188   0.89885   0.89957   0.90227
 Alpha virt. eigenvalues --    0.90618   0.90697   0.91171   0.91629   0.91782
 Alpha virt. eigenvalues --    0.92099   0.92517   0.92728   0.92993   0.93264
 Alpha virt. eigenvalues --    0.93327   0.93826   0.94027   0.94674   0.95084
 Alpha virt. eigenvalues --    0.95241   0.95353   0.95622   0.95733   0.96608
 Alpha virt. eigenvalues --    0.96832   0.97336   0.97705   0.97949   0.98237
 Alpha virt. eigenvalues --    0.98318   0.98402   0.98455   0.98844   0.98952
 Alpha virt. eigenvalues --    0.99313   0.99393   0.99630   0.99812   1.00379
 Alpha virt. eigenvalues --    1.00825   1.01027   1.01215   1.01477   1.02092
 Alpha virt. eigenvalues --    1.02374   1.02436   1.02775   1.03102   1.03507
 Alpha virt. eigenvalues --    1.03792   1.04139   1.04302   1.05026   1.05167
 Alpha virt. eigenvalues --    1.05371   1.05664   1.06007   1.06253   1.06451
 Alpha virt. eigenvalues --    1.06783   1.06993   1.07252   1.07466   1.07747
 Alpha virt. eigenvalues --    1.08034   1.08186   1.08357   1.09059   1.09292
 Alpha virt. eigenvalues --    1.09520   1.09580   1.09873   1.10224   1.10310
 Alpha virt. eigenvalues --    1.10599   1.10775   1.11009   1.11437   1.11805
 Alpha virt. eigenvalues --    1.11992   1.12200   1.12522   1.12783   1.12999
 Alpha virt. eigenvalues --    1.13241   1.13312   1.13639   1.14033   1.14097
 Alpha virt. eigenvalues --    1.14279   1.14428   1.14989   1.15373   1.15674
 Alpha virt. eigenvalues --    1.16031   1.16391   1.16566   1.16716   1.16909
 Alpha virt. eigenvalues --    1.17118   1.17622   1.18019   1.18147   1.18516
 Alpha virt. eigenvalues --    1.18836   1.19072   1.19148   1.19270   1.19403
 Alpha virt. eigenvalues --    1.19919   1.19993   1.20464   1.20693   1.21059
 Alpha virt. eigenvalues --    1.21150   1.21300   1.21810   1.22051   1.22315
 Alpha virt. eigenvalues --    1.22689   1.22766   1.23095   1.23265   1.23714
 Alpha virt. eigenvalues --    1.23909   1.24361   1.24537   1.24778   1.24915
 Alpha virt. eigenvalues --    1.25704   1.25894   1.26287   1.26594   1.26719
 Alpha virt. eigenvalues --    1.26881   1.27005   1.27181   1.27536   1.27583
 Alpha virt. eigenvalues --    1.27957   1.28121   1.28702   1.28735   1.29106
 Alpha virt. eigenvalues --    1.29426   1.29738   1.29953   1.30441   1.30481
 Alpha virt. eigenvalues --    1.30962   1.31602   1.31744   1.31815   1.32067
 Alpha virt. eigenvalues --    1.32298   1.32784   1.32850   1.32928   1.33477
 Alpha virt. eigenvalues --    1.33688   1.33886   1.34179   1.34431   1.34483
 Alpha virt. eigenvalues --    1.35025   1.35170   1.35845   1.36022   1.36229
 Alpha virt. eigenvalues --    1.36899   1.37049   1.37359   1.37893   1.38017
 Alpha virt. eigenvalues --    1.38434   1.38576   1.39124   1.39158   1.39418
 Alpha virt. eigenvalues --    1.39774   1.40177   1.40404   1.40673   1.41057
 Alpha virt. eigenvalues --    1.41193   1.41274   1.41659   1.42105   1.42219
 Alpha virt. eigenvalues --    1.42330   1.42777   1.43222   1.43534   1.43717
 Alpha virt. eigenvalues --    1.43959   1.44413   1.44706   1.44870   1.45150
 Alpha virt. eigenvalues --    1.45352   1.45599   1.45921   1.46130   1.46336
 Alpha virt. eigenvalues --    1.46604   1.46702   1.47174   1.47435   1.48033
 Alpha virt. eigenvalues --    1.48104   1.48410   1.48772   1.49122   1.49244
 Alpha virt. eigenvalues --    1.49673   1.50511   1.50591   1.50828   1.51107
 Alpha virt. eigenvalues --    1.51411   1.51504   1.51741   1.52051   1.52267
 Alpha virt. eigenvalues --    1.52746   1.52867   1.53271   1.53695   1.53786
 Alpha virt. eigenvalues --    1.54182   1.54551   1.54790   1.55103   1.55741
 Alpha virt. eigenvalues --    1.56036   1.56083   1.56214   1.56337   1.56831
 Alpha virt. eigenvalues --    1.57269   1.57601   1.58127   1.58683   1.58825
 Alpha virt. eigenvalues --    1.59454   1.59778   1.59909   1.60273   1.60422
 Alpha virt. eigenvalues --    1.60801   1.61022   1.61351   1.61748   1.62176
 Alpha virt. eigenvalues --    1.62334   1.62843   1.63137   1.63311   1.64063
 Alpha virt. eigenvalues --    1.64490   1.64886   1.64943   1.65319   1.65558
 Alpha virt. eigenvalues --    1.65927   1.66309   1.66939   1.67022   1.68095
 Alpha virt. eigenvalues --    1.68348   1.68609   1.68777   1.69032   1.69073
 Alpha virt. eigenvalues --    1.69524   1.69683   1.69980   1.70471   1.70520
 Alpha virt. eigenvalues --    1.70670   1.70766   1.70942   1.71085   1.71460
 Alpha virt. eigenvalues --    1.71562   1.72083   1.72203   1.72365   1.72614
 Alpha virt. eigenvalues --    1.72797   1.73340   1.73539   1.73700   1.73857
 Alpha virt. eigenvalues --    1.74106   1.74288   1.74677   1.74694   1.74971
 Alpha virt. eigenvalues --    1.75120   1.75246   1.75274   1.75438   1.75761
 Alpha virt. eigenvalues --    1.76027   1.76076   1.76282   1.76446   1.76655
 Alpha virt. eigenvalues --    1.76782   1.77013   1.77286   1.77329   1.77489
 Alpha virt. eigenvalues --    1.77723   1.77775   1.77878   1.78147   1.78415
 Alpha virt. eigenvalues --    1.78444   1.78468   1.78664   1.78954   1.79020
 Alpha virt. eigenvalues --    1.79089   1.79415   1.79520   1.79852   1.80136
 Alpha virt. eigenvalues --    1.80249   1.80275   1.80346   1.80509   1.80738
 Alpha virt. eigenvalues --    1.80982   1.81128   1.81267   1.81539   1.81715
 Alpha virt. eigenvalues --    1.81842   1.82246   1.82458   1.82675   1.82842
 Alpha virt. eigenvalues --    1.83249   1.83449   1.83578   1.83683   1.83735
 Alpha virt. eigenvalues --    1.84111   1.84288   1.84501   1.84847   1.84952
 Alpha virt. eigenvalues --    1.85017   1.85314   1.85390   1.85483   1.85613
 Alpha virt. eigenvalues --    1.85735   1.85920   1.86029   1.86095   1.86251
 Alpha virt. eigenvalues --    1.86545   1.86809   1.86882   1.86943   1.87106
 Alpha virt. eigenvalues --    1.87328   1.87886   1.88018   1.88211   1.88343
 Alpha virt. eigenvalues --    1.88406   1.88953   1.89111   1.89158   1.89291
 Alpha virt. eigenvalues --    1.89527   1.89698   1.89905   1.90003   1.90238
 Alpha virt. eigenvalues --    1.90401   1.90484   1.90895   1.91360   1.91436
 Alpha virt. eigenvalues --    1.91777   1.91821   1.91918   1.92452   1.92594
 Alpha virt. eigenvalues --    1.92729   1.92858   1.92938   1.93040   1.93067
 Alpha virt. eigenvalues --    1.93360   1.93414   1.93725   1.93980   1.94191
 Alpha virt. eigenvalues --    1.94451   1.94535   1.94697   1.94860   1.95070
 Alpha virt. eigenvalues --    1.95254   1.95664   1.95833   1.96067   1.96576
 Alpha virt. eigenvalues --    1.96935   1.97136   1.97194   1.97244   1.97461
 Alpha virt. eigenvalues --    1.97681   1.97814   1.97988   1.98033   1.98209
 Alpha virt. eigenvalues --    1.98560   1.99048   1.99269   1.99552   1.99603
 Alpha virt. eigenvalues --    1.99693   1.99979   2.00056   2.00277   2.00768
 Alpha virt. eigenvalues --    2.00969   2.01341   2.01638   2.02147   2.02218
 Alpha virt. eigenvalues --    2.02523   2.02627   2.03216   2.03389   2.03607
 Alpha virt. eigenvalues --    2.03787   2.03989   2.04553   2.04839   2.04930
 Alpha virt. eigenvalues --    2.05201   2.05256   2.05619   2.06327   2.06390
 Alpha virt. eigenvalues --    2.06651   2.07166   2.07345   2.07715   2.08029
 Alpha virt. eigenvalues --    2.08112   2.08287   2.08676   2.08766   2.08981
 Alpha virt. eigenvalues --    2.09206   2.09513   2.09679   2.09825   2.10177
 Alpha virt. eigenvalues --    2.10420   2.10740   2.10852   2.10972   2.11325
 Alpha virt. eigenvalues --    2.11537   2.11940   2.12202   2.12248   2.12689
 Alpha virt. eigenvalues --    2.12824   2.13321   2.13456   2.14310   2.14345
 Alpha virt. eigenvalues --    2.14738   2.15042   2.15153   2.15349   2.15461
 Alpha virt. eigenvalues --    2.15634   2.16010   2.16499   2.16707   2.16871
 Alpha virt. eigenvalues --    2.16912   2.17150   2.17472   2.17718   2.18253
 Alpha virt. eigenvalues --    2.18483   2.18569   2.19101   2.19404   2.20017
 Alpha virt. eigenvalues --    2.20351   2.20547   2.20635   2.20721   2.20952
 Alpha virt. eigenvalues --    2.21063   2.21624   2.22337   2.22700   2.22871
 Alpha virt. eigenvalues --    2.23179   2.23632   2.23656   2.23782   2.23998
 Alpha virt. eigenvalues --    2.24922   2.25692   2.25978   2.26555   2.26846
 Alpha virt. eigenvalues --    2.27146   2.27500   2.27780   2.27846   2.28563
 Alpha virt. eigenvalues --    2.28700   2.28745   2.29633   2.29972   2.30231
 Alpha virt. eigenvalues --    2.30506   2.30785   2.31526   2.31534   2.31645
 Alpha virt. eigenvalues --    2.31864   2.32279   2.33096   2.33331   2.33618
 Alpha virt. eigenvalues --    2.34024   2.34395   2.34498   2.34658   2.35242
 Alpha virt. eigenvalues --    2.35347   2.35566   2.35856   2.36238   2.36300
 Alpha virt. eigenvalues --    2.36491   2.36570   2.37156   2.38122   2.38748
 Alpha virt. eigenvalues --    2.38908   2.38989   2.39243   2.39454   2.39893
 Alpha virt. eigenvalues --    2.40292   2.40393   2.40755   2.40919   2.41299
 Alpha virt. eigenvalues --    2.41494   2.41816   2.42143   2.42357   2.42441
 Alpha virt. eigenvalues --    2.43383   2.44333   2.44458   2.44507   2.44707
 Alpha virt. eigenvalues --    2.44761   2.45117   2.45379   2.45752   2.45775
 Alpha virt. eigenvalues --    2.46398   2.46459   2.47135   2.47142   2.47559
 Alpha virt. eigenvalues --    2.47990   2.48030   2.48322   2.48656   2.49190
 Alpha virt. eigenvalues --    2.49575   2.49810   2.50223   2.50392   2.50821
 Alpha virt. eigenvalues --    2.51029   2.51618   2.52573   2.53426   2.53908
 Alpha virt. eigenvalues --    2.54239   2.54783   2.54862   2.55162   2.55636
 Alpha virt. eigenvalues --    2.55680   2.56499   2.56635   2.56647   2.56720
 Alpha virt. eigenvalues --    2.57013   2.57263   2.57753   2.58168   2.58241
 Alpha virt. eigenvalues --    2.58660   2.58819   2.59080   2.59222   2.59670
 Alpha virt. eigenvalues --    2.59849   2.60037   2.60477   2.60591   2.60765
 Alpha virt. eigenvalues --    2.61264   2.61336   2.61674   2.62149   2.62537
 Alpha virt. eigenvalues --    2.63017   2.63041   2.63773   2.63975   2.64533
 Alpha virt. eigenvalues --    2.64759   2.64987   2.65138   2.65493   2.65679
 Alpha virt. eigenvalues --    2.66082   2.66285   2.66400   2.66539   2.66954
 Alpha virt. eigenvalues --    2.67159   2.67674   2.68032   2.68326   2.68606
 Alpha virt. eigenvalues --    2.69010   2.69192   2.69308   2.69433   2.69773
 Alpha virt. eigenvalues --    2.70771   2.70965   2.71724   2.71732   2.72058
 Alpha virt. eigenvalues --    2.72242   2.72712   2.72804   2.73016   2.73311
 Alpha virt. eigenvalues --    2.73578   2.73723   2.74056   2.74236   2.74393
 Alpha virt. eigenvalues --    2.74587   2.74689   2.74971   2.75372   2.75517
 Alpha virt. eigenvalues --    2.75898   2.76312   2.76680   2.76924   2.77103
 Alpha virt. eigenvalues --    2.77243   2.77490   2.77652   2.77958   2.78281
 Alpha virt. eigenvalues --    2.78318   2.78783   2.78946   2.79366   2.79728
 Alpha virt. eigenvalues --    2.80163   2.80681   2.81205   2.81340   2.81401
 Alpha virt. eigenvalues --    2.81953   2.82039   2.82567   2.82661   2.82767
 Alpha virt. eigenvalues --    2.82948   2.83145   2.84115   2.84149   2.84706
 Alpha virt. eigenvalues --    2.84805   2.85364   2.85883   2.85953   2.86018
 Alpha virt. eigenvalues --    2.86260   2.86366   2.86995   2.87121   2.87403
 Alpha virt. eigenvalues --    2.87709   2.88005   2.88171   2.88502   2.88578
 Alpha virt. eigenvalues --    2.88865   2.89201   2.89387   2.89519   2.89805
 Alpha virt. eigenvalues --    2.89853   2.90025   2.90168   2.90897   2.91076
 Alpha virt. eigenvalues --    2.91681   2.91716   2.92165   2.92631   2.92935
 Alpha virt. eigenvalues --    2.93073   2.93152   2.93534   2.93785   2.93955
 Alpha virt. eigenvalues --    2.94405   2.94508   2.94767   2.95143   2.95570
 Alpha virt. eigenvalues --    2.95632   2.96101   2.96739   2.96921   2.97180
 Alpha virt. eigenvalues --    2.97364   2.97875   2.98022   2.98366   2.98539
 Alpha virt. eigenvalues --    2.98914   2.99287   2.99588   3.00031   3.00155
 Alpha virt. eigenvalues --    3.00590   3.01099   3.01448   3.01879   3.02106
 Alpha virt. eigenvalues --    3.02644   3.03165   3.03675   3.04556   3.04582
 Alpha virt. eigenvalues --    3.05076   3.05318   3.06101   3.06262   3.06432
 Alpha virt. eigenvalues --    3.06889   3.07133   3.07795   3.08185   3.08277
 Alpha virt. eigenvalues --    3.08561   3.08920   3.09096   3.09504   3.10148
 Alpha virt. eigenvalues --    3.10259   3.10684   3.12489   3.12864   3.12985
 Alpha virt. eigenvalues --    3.13167   3.13745   3.14198   3.14971   3.15293
 Alpha virt. eigenvalues --    3.15310   3.15606   3.15698   3.16946   3.17037
 Alpha virt. eigenvalues --    3.17169   3.17614   3.17902   3.18030   3.18281
 Alpha virt. eigenvalues --    3.18465   3.18632   3.18690   3.19080   3.19487
 Alpha virt. eigenvalues --    3.19560   3.20542   3.21703   3.22182   3.22199
 Alpha virt. eigenvalues --    3.22227   3.22566   3.23323   3.23859   3.23866
 Alpha virt. eigenvalues --    3.25006   3.25033   3.25500   3.27034   3.27499
 Alpha virt. eigenvalues --    3.27863   3.28162   3.28479   3.29033   3.29625
 Alpha virt. eigenvalues --    3.29669   3.31333   3.31479   3.31871   3.34690
 Alpha virt. eigenvalues --    3.35311   3.37033   3.37581   3.39123   3.39233
 Alpha virt. eigenvalues --    3.40430   3.42197   3.43609   3.44586   3.45040
 Alpha virt. eigenvalues --    3.48347   3.50873   3.52818   3.53060   3.54431
 Alpha virt. eigenvalues --    3.54580   3.55892   3.56009   3.56147   3.57365
 Alpha virt. eigenvalues --    3.57627   3.58490   3.59974   3.61496   3.63021
 Alpha virt. eigenvalues --    3.63216   3.64770   3.64916   3.65358   3.65647
 Alpha virt. eigenvalues --    3.66283   3.66349   3.66605   3.67238   3.67303
 Alpha virt. eigenvalues --    3.68000   3.68121   3.68237   3.68540   3.69586
 Alpha virt. eigenvalues --    3.70343   3.72237   3.72428   3.73057   3.73268
 Alpha virt. eigenvalues --    3.77297   3.77594   3.82122   4.00315
          Condensed to atoms (all electrons):
 Mulliken charges:
               1
     1  C    0.045173
     2  C    0.053278
     3  O   -0.404884
     4  H    0.028179
     5  H    0.043911
     6  H    0.048735
     7  N   -0.089229
     8  C    0.054036
     9  C    0.105477
    10  O   -0.271733
    11  C    0.093958
    12  C    0.089897
    13  O   -0.386399
    14  O   -0.383142
    15  H    0.124306
    16  H   -0.054710
    17  H   -0.000999
    18  H   -0.013623
    19  N   -0.141814
    20  C    0.075254
    21  C    0.067228
    22  O   -0.268948
    23  C    0.053318
    24  C    0.032578
    25  C   -0.058358
    26  C    0.059103
    27  N    0.077597
    28  H    0.121176
    29  H    0.028830
    30  H    0.010438
    31  H    0.018195
    32  H    0.024044
    33  H   -0.014772
    34  H   -0.002372
    35  H    0.061444
    36  H    0.093185
    37  H    0.045669
    38  H    0.182329
    39  H    0.185114
    40  H    0.181089
    41  N   -0.156575
    42  C    0.138410
    43  C    0.061022
    44  O   -0.273523
    45  C    0.090810
    46  C    0.108587
    47  O   -0.413381
    48  O   -0.438432
    49  H    0.113079
    50  H    0.037280
    51  H    0.036740
    52  H    0.055839
    53  N   -0.149488
    54  C    0.220085
    55  C    0.009784
    56  O   -0.269860
    57  H    0.101305
    58  H    0.004283
    59  H    0.039908
    60  N   -0.062199
    61  C    0.010350
    62  C    0.058646
    63  O   -0.288495
    64  C    0.083857
    65  C   -0.007449
    66  N   -0.041278
    67  O   -0.254962
    68  H    0.138019
    69  H   -0.017316
    70  H    0.032727
    71  H    0.021545
    72  H    0.103721
    73  H    0.143920
    74  N   -0.110656
    75  C    0.186760
    76  C    0.022861
    77  O   -0.306914
    78  H    0.123717
    79  H    0.068052
    80  H    0.015123
    81  N   -0.130912
    82  C    0.163839
    83  C    0.044003
    84  O   -0.292730
    85  C    0.138207
    86  C   -0.003656
    87  C    0.025949
    88  C   -0.013338
    89  C   -0.040728
    90  C   -0.050670
    91  C    0.146612
    92  O   -0.199750
    93  H    0.110014
    94  H    0.016940
    95  H    0.016108
    96  H   -0.016312
    97  H    0.000736
    98  H   -0.038961
    99  H   -0.055833
   100  H   -0.051883
   101  H    0.166190
   102  N   -0.135038
   103  C    0.183548
   104  C    0.021674
   105  O   -0.284839
   106  C   -0.096657
   107  C   -0.029880
   108  C    0.081844
   109  C    0.037508
   110  H    0.142957
   111  H   -0.004065
   112  H   -0.013724
   113  H   -0.000792
   114  H    0.016110
   115  H    0.027221
   116  H    0.001789
   117  H    0.002400
   118  H   -0.004109
   119  H    0.012207
   120  H    0.015538
   121  N   -0.190457
   122  C    0.089315
   123  C    0.085166
   124  O   -0.307539
   125  C    0.260494
   126  O   -0.342983
   127  H    0.121013
   128  H    0.020919
   129  H   -0.010093
   130  H   -0.004736
   131  H    0.158072
   132  N   -0.125621
   133  C    0.131071
   134  C    0.039193
   135  O   -0.270432
   136  C    0.074705
   137  H    0.132366
   138  H   -0.011447
   139  H    0.014020
   140  H   -0.009968
   141  H    0.040949
   142  N   -0.143553
   143  C    0.068727
   144  C    0.085120
   145  O   -0.266278
   146  C    0.079868
   147  H    0.119625
   148  H    0.010143
   149  H    0.026456
   150  H   -0.015841
   151  H    0.042610
   152  N   -0.128982
   153  C    0.158589
   154  C    0.037182
   155  O   -0.262298
   156  C   -0.029950
   157  C    0.140210
   158  C    0.112244
   159  O   -0.368849
   160  O   -0.426341
   161  H    0.103723
   162  H    0.007610
   163  H   -0.031434
   164  H   -0.005646
   165  H    0.005358
   166  H   -0.004843
   167  N   -0.162652
   168  C    0.133588
   169  H    0.043793
   170  H    0.013276
   171  H    0.022762
   172  H    0.112989
   173  Ca   1.474600
   174  O   -0.308848
   175  H    0.208502
   176  H    0.198558
 Sum of Mulliken charges =  -0.00000
 Mulliken charges with hydrogens summed into heavy atoms:
               1
     1  C    0.165998
     2  C    0.053278
     3  O   -0.404884
     7  N    0.035076
     8  C   -0.000674
     9  C    0.105477
    10  O   -0.271733
    11  C    0.079336
    12  C    0.089897
    13  O   -0.386399
    14  O   -0.383142
    19  N   -0.020638
    20  C    0.104084
    21  C    0.067228
    22  O   -0.268948
    23  C    0.081952
    24  C    0.041849
    25  C    0.000714
    26  C    0.197957
    27  N    0.626130
    41  N   -0.043496
    42  C    0.175690
    43  C    0.061022
    44  O   -0.273523
    45  C    0.183389
    46  C    0.108587
    47  O   -0.413381
    48  O   -0.438432
    53  N   -0.048183
    54  C    0.264276
    55  C    0.009784
    56  O   -0.269860
    60  N    0.075821
    61  C   -0.006966
    62  C    0.058646
    63  O   -0.288495
    64  C    0.138130
    65  C   -0.007449
    66  N    0.206363
    67  O   -0.254962
    74  N    0.013061
    75  C    0.269935
    76  C    0.022861
    77  O   -0.306914
    81  N   -0.020898
    82  C    0.180779
    83  C    0.044003
    84  O   -0.292730
    85  C    0.138004
    86  C   -0.003656
    87  C    0.026685
    88  C   -0.052299
    89  C   -0.096561
    90  C   -0.102553
    91  C    0.146612
    92  O   -0.033560
   102  N    0.007918
   103  C    0.179484
   104  C    0.021674
   105  O   -0.284839
   106  C   -0.110381
   107  C   -0.014562
   108  C    0.113253
   109  C    0.061143
   121  N   -0.069444
   122  C    0.110234
   123  C    0.085166
   124  O   -0.307539
   125  C    0.245665
   126  O   -0.184910
   132  N    0.006745
   133  C    0.119624
   134  C    0.039193
   135  O   -0.270432
   136  C    0.119706
   142  N   -0.023928
   143  C    0.078871
   144  C    0.085120
   145  O   -0.266278
   146  C    0.133093
   152  N   -0.025258
   153  C    0.166198
   154  C    0.037182
   155  O   -0.262298
   156  C   -0.067030
   157  C    0.140725
   158  C    0.112244
   159  O   -0.368849
   160  O   -0.426341
   167  N   -0.049664
   168  C    0.213418
   173  Ca   1.474600
   174  O    0.098212
 DipInt: DoE/N= T F RetVal/Mat= T F Init=T NMatP=  1 IDeriv=0 Min/MaxMlt=  0  4
 Entering OneElI...
 OneElI was handed  1333951383 working-precision words.
 Multipole integrals L=0 to 4 MinM= 0 MaxM= 0.
 Requested accuracy = 0.1000D-12
 ShPair: Thresh= 1.00D-13 NBox=     0 BxSize= 0.00D+00 RnKept= 2.55D+01
         NSMCal=               327645 NSMKep=              128007
 PrmmSu-InSpLW:  IPartL=    0 NPrtUS=    1 NPrtUL=    1 DoSpLW=F IThBeg=    0 IThEnd=    0 NThAct=    1.
 PrsmSu:  NPrtUS=   1 ThrOK=F IAlg=1 NPAlg=1 LenDen=           0 ISkipM=0 DoSpLW=F IThBeg=    0 IThEnd=    0.
 Prism:   IPart=     0 DynPar=F LinDyn=F Incr=         512.
 PRISM was handed  1325129391 working-precision words and128007 shell-pairs
 IPart=  0 NShTot=      128007 NBatch=         300 AvBLen=       426.7
 PrsmSu-ThDecC:  IPartSL=    0    0 NPrtUSL=    1    1 IThBeg=    0 IThEnd=    0 CPU=   -1 GPU=   -1 NThAct=    1.
 PrSmSu:  NxtVal=            513.
 Electronic moments (au):
       -716.00000000         12.93808102         -5.25706133          0.99433961
     -91303.82016680     -32791.80195218     -14305.52860568        -54.74902397
        -95.52032921         14.45901220     -85808.89190391     -52393.72287797
     -27937.05824628     -56568.23587456     222494.90641292     109831.23189692
       9512.85929750      -6785.90939772     -18757.67243320      13048.15964036
  -21718415.22079271   -3593532.22145597    -918016.80969231    1502143.91228822
     -45404.68568337   -1210062.43182959     151991.44778161      77860.75416180
     -67940.36200823   -3844975.94348368   -1331891.18954172    -423397.53561155
    -130923.37861996    -166140.85722665     105599.80369182
 Electronic spatial extent (au):  <R**2>=         138401.1507
 DipInt: DoE/N= F T RetVal/Mat= T F Init=T NMatP=  1 IDeriv=0 Min/MaxMlt=  0  4
 Nuclear    moments (au):
        716.00000000          0.00000000          0.00000000          0.00000000
      91025.24595794      32343.21411321      13896.82697632          0.00000000
          0.00000000          0.00000000      92065.27938450      52112.48784000
      28130.82293534      56959.28814792    -225169.32061133    -112034.06122279
      -9159.25547896       6720.88298441      18719.09334795     -12079.92281107
   21553253.16027141    3463916.75502091     869658.05876347   -1536829.61490386
      -6737.41302274    1197047.24222981    -151659.29801704     -80129.58653541
      69394.01665264    3774627.23932980    1274069.65266503     398405.40775324
     149089.78446698     155572.13150240    -107952.53197323
 Total      moments (au):
         -0.00000000         12.93808102         -5.25706133          0.99433961
       -278.57420886       -448.58783897       -408.70162936        -54.74902397
        -95.52032921         14.45901220       6256.38748059       -281.23503797
        193.76468906        391.05227335      -2674.41419841      -2202.82932588
        353.60381854        -65.02641331        -38.57908525        968.23682930
    -165162.06052130    -129615.46643506     -48358.75092884     -34685.70261564
     -52142.09870612     -13015.18959978        332.14976457      -2268.83237361
       1453.65464441     -70348.70415388     -57821.53687668     -24992.12785831
      18166.40584702     -10568.72572425      -2352.72828141
 Traceless Quadrup. (au):
        100.04701687        -69.96661324        -30.08040363        -54.74902397
        -95.52032921         14.45901220
 Charge=             -0.0000 electrons
 Dipole moment (field-independent basis, Debye):
    X=             32.8853    Y=            -13.3621    Z=              2.5274  Tot=             35.5862
 Quadrupole moment (field-independent basis, Debye-Ang):
   XX=           -374.6919   YY=           -603.3660   ZZ=           -549.7177
   XY=            -73.6393   XZ=           -128.4781   YZ=             19.4479
 Traceless Quadrupole moment (field-independent basis, Debye-Ang):
   XX=            134.5667   YY=            -94.1075   ZZ=            -40.4592
   XY=            -73.6393   XZ=           -128.4781   YZ=             19.4479
 Octapole moment (field-independent basis, Debye-Ang**2):
  XXX=           4453.0556  YYY=           -200.1723  ZZZ=            137.9142  XYY=            278.3359
  XXY=          -1903.5450  XXZ=          -1567.8890  XZZ=            251.6816  YZZ=            -46.2833
  YYZ=            -27.4591  XYZ=            689.1537
 Hexadecapole moment (field-independent basis, Debye-Ang**3):
 XXXX=         -62207.9518 YYYY=         -48819.3999 ZZZZ=         -18214.2245 XXXY=         -13064.2988
 XXXZ=         -19639.2147 YYYX=          -4902.1445 YYYZ=            125.1035 ZZZX=           -854.5511
 ZZZY=            547.5160 XXYY=         -26496.6953 XXZZ=         -21778.3634 YYZZ=          -9413.2338
 XXYZ=           6842.3396 YYXZ=          -3980.6889 ZZXY=           -886.1503
 N-N= 1.927508418285D+04 E-N=-5.102658861538D+04  KE= 5.290512832081D+03
 Leave Link  601 at Wed Sep 18 14:21:40 2019, MaxMem=  1342177280 cpu:              40.3 elap:               1.1
 FitSet:  NAtFit=   176 NAtPot=   176 NAtFrz=     0 MDM=   180 TotChg=   0.00000
 Merz-Kollman atomic radii used.
 Read replacement radii for each type of atom:
 Rad(20) =   1.700000000000D+00
 Atom Element Radius
    1     6    1.50
    2     6    1.50
    3     8    1.40
    4     1    1.20
    5     1    1.20
    6     1    1.20
    7     7    1.50
    8     6    1.50
    9     6    1.50
   10     8    1.40
   11     6    1.50
   12     6    1.50
   13     8    1.40
   14     8    1.40
   15     1    1.20
   16     1    1.20
   17     1    1.20
   18     1    1.20
   19     7    1.50
   20     6    1.50
   21     6    1.50
   22     8    1.40
   23     6    1.50
   24     6    1.50
   25     6    1.50
   26     6    1.50
   27     7    1.50
   28     1    1.20
   29     1    1.20
   30     1    1.20
   31     1    1.20
   32     1    1.20
   33     1    1.20
   34     1    1.20
   35     1    1.20
   36     1    1.20
   37     1    1.20
   38     1    1.20
   39     1    1.20
   40     1    1.20
   41     7    1.50
   42     6    1.50
   43     6    1.50
   44     8    1.40
   45     6    1.50
   46     6    1.50
   47     8    1.40
   48     8    1.40
   49     1    1.20
   50     1    1.20
   51     1    1.20
   52     1    1.20
   53     7    1.50
   54     6    1.50
   55     6    1.50
   56     8    1.40
   57     1    1.20
   58     1    1.20
   59     1    1.20
   60     7    1.50
   61     6    1.50
   62     6    1.50
   63     8    1.40
   64     6    1.50
   65     6    1.50
   66     7    1.50
   67     8    1.40
   68     1    1.20
   69     1    1.20
   70     1    1.20
   71     1    1.20
   72     1    1.20
   73     1    1.20
   74     7    1.50
   75     6    1.50
   76     6    1.50
   77     8    1.40
   78     1    1.20
   79     1    1.20
   80     1    1.20
   81     7    1.50
   82     6    1.50
   83     6    1.50
   84     8    1.40
   85     6    1.50
   86     6    1.50
   87     6    1.50
   88     6    1.50
   89     6    1.50
   90     6    1.50
   91     6    1.50
   92     8    1.40
   93     1    1.20
   94     1    1.20
   95     1    1.20
   96     1    1.20
   97     1    1.20
   98     1    1.20
   99     1    1.20
  100     1    1.20
  101     1    1.20
  102     7    1.50
  103     6    1.50
  104     6    1.50
  105     8    1.40
  106     6    1.50
  107     6    1.50
  108     6    1.50
  109     6    1.50
  110     1    1.20
  111     1    1.20
  112     1    1.20
  113     1    1.20
  114     1    1.20
  115     1    1.20
  116     1    1.20
  117     1    1.20
  118     1    1.20
  119     1    1.20
  120     1    1.20
  121     7    1.50
  122     6    1.50
  123     6    1.50
  124     8    1.40
  125     6    1.50
  126     8    1.40
  127     1    1.20
  128     1    1.20
  129     1    1.20
  130     1    1.20
  131     1    1.20
  132     7    1.50
  133     6    1.50
  134     6    1.50
  135     8    1.40
  136     6    1.50
  137     1    1.20
  138     1    1.20
  139     1    1.20
  140     1    1.20
  141     1    1.20
  142     7    1.50
  143     6    1.50
  144     6    1.50
  145     8    1.40
  146     6    1.50
  147     1    1.20
  148     1    1.20
  149     1    1.20
  150     1    1.20
  151     1    1.20
  152     7    1.50
  153     6    1.50
  154     6    1.50
  155     8    1.40
  156     6    1.50
  157     6    1.50
  158     6    1.50
  159     8    1.40
  160     8    1.40
  161     1    1.20
  162     1    1.20
  163     1    1.20
  164     1    1.20
  165     1    1.20
  166     1    1.20
  167     7    1.50
  168     6    1.50
  169     1    1.20
  170     1    1.20
  171     1    1.20
  172     1    1.20
  173    20    1.70
  174     8    1.40
  175     1    1.20
  176     1    1.20
[...]
 **** Fit       0.026653
 **** Fit       0.018392
 **** Fit       0.008710
 **** Fit       0.008864
 **** Fit       0.008185
 **** Fit       0.008139
 **** Fit       0.008518
 **** Fit       0.008094
 **** Fit       0.007614
 **** Fit       0.007564
 **** Fit       0.007721
 **** Fit       0.007938
 **** Fit       0.008258
 **** Fit       0.008808
 **** Fit       0.008104
 **** Fit       0.007344
 **** Fit       0.007021
 **** Fit       0.007036
 **** Fit       0.007219
 **** Fit       0.007419
 **** Fit       0.007568
 **** Fit       0.007697
 **** Fit       0.007908
 **** Fit       0.008321
 **** Fit       0.007063
 **** Fit       0.006562
 **** Fit       0.006452
 **** Fit       0.006607
 **** Fit       0.006873
 **** Fit       0.007118
 **** Fit       0.007271
 **** Fit       0.007327
 **** Fit       0.007339
 **** Fit       0.007403
 **** Fit       0.007631
 **** Fit       0.006776
 **** Fit       0.006172
 **** Fit       0.005992
 **** Fit       0.006127
 **** Fit       0.006431
 **** Fit       0.006759
 **** Fit       0.007006
 **** Fit       0.007118
 **** Fit       0.007100
 **** Fit       0.006998
 **** Fit       0.006894
 **** Fit       0.006891
 **** Fit       0.007101
 **** Fit       0.006869
 **** Fit       0.006118
 **** Fit       0.005803
 **** Fit       0.005847
 **** Fit       0.006120
 **** Fit       0.006478
 **** Fit       0.006798
 **** Fit       0.006997
 **** Fit       0.007041
 **** Fit       0.006935
 **** Fit       0.006723
 **** Fit       0.006471
 **** Fit       0.006267
 **** Fit       0.006214
 **** Fit       0.007158
 **** Fit       0.006379
 **** Fit       0.006060
 **** Fit       0.006113
 **** Fit       0.006387
 **** Fit       0.006723
 **** Fit       0.006992
 **** Fit       0.007110
 **** Fit       0.007047
 **** Fit       0.006813
 **** Fit       0.006453
 **** Fit       0.006035
 **** Fit       0.005648
 **** Fit       0.005399
 **** Fit       0.008560
 **** Fit       0.007557
 **** Fit       0.007054
 **** Fit       0.006954
 **** Fit       0.007089
 **** Fit       0.007287
 **** Fit       0.007411
 **** Fit       0.007377
 **** Fit       0.007153
 **** Fit       0.006752
 **** Fit       0.006217
 **** Fit       0.005614
 **** Fit       0.005026
 **** Fit       0.004559
 **** Fit       0.009579
 **** Fit       0.008755
 **** Fit       0.008390
 **** Fit       0.008259
 **** Fit       0.008167
 **** Fit       0.007976
 **** Fit       0.007614
 **** Fit       0.007067
 **** Fit       0.006363
 **** Fit       0.005553
 **** Fit       0.004713
 **** Fit       0.003935
 **** Fit       0.011271
 **** Fit       0.010263
 **** Fit       0.009625
 **** Fit       0.009077
 **** Fit       0.008442
 **** Fit       0.007641
 **** Fit       0.006669
 **** Fit       0.005566
 **** Fit       0.004402
 **** Fit       0.003269
 **** Fit       0.011602
 **** Fit       0.010358
 **** Fit       0.009181
 **** Fit       0.007898
 **** Fit       0.006466
 **** Fit       0.004915
 **** Fit       0.003320
 **** Fit       0.009821
 **** Fit       0.007955
 **** Fit       0.005990
 **** Fit       0.007529
 **** Fit       0.008419
 **** Fit       0.004487
 **** Fit       0.002995
 **** Fit       0.003229
 **** Fit       0.005061
 **** Fit       0.007922
 **** Fit       0.003082
 **** Fit      -0.000276
 **** Fit      -0.002230
 **** Fit      -0.002173
 **** Fit      -0.000185
 **** Fit       0.003042
 **** Fit       0.006712
 **** Fit       0.010277
 **** Fit      -0.007936
 **** Fit      -0.008139
 **** Fit      -0.005957
 **** Fit      -0.002208
 **** Fit       0.002106
 **** Fit       0.006256
 **** Fit       0.009831
 **** Fit      -0.014167
 **** Fit      -0.012970
 **** Fit      -0.009040
 **** Fit      -0.003819
 **** Fit       0.001483
 **** Fit       0.006164
 **** Fit       0.009870
 **** Fit       0.012476
 **** Fit      -0.009668
 **** Fit      -0.003346
 **** Fit       0.002531
 **** Fit       0.007392
 **** Fit       0.010979
 **** Fit       0.013211
 **** Fit      -0.011305
 **** Fit      -0.004342
 **** Fit       0.002269
 **** Fit       0.007754
 **** Fit       0.011794
 **** Fit       0.014308
 **** Fit       0.082443
 **** Fit       0.080109
 **** Fit       0.079195
 **** Fit       0.080922
 **** Fit       0.083883
 **** Fit       0.085379
 **** Fit       0.083437
 **** Fit       0.078792
 **** Fit       0.081312
 **** Fit       0.084542
 **** Fit       0.087044
 **** Fit       0.087839
 **** Fit       0.086681
 **** Fit       0.083901
 **** Fit       0.080287
 **** Fit       0.075473
 **** Fit       0.075868
 **** Fit       0.077737
 **** Fit       0.080995
 **** Fit       0.084553
 **** Fit       0.087462
 **** Fit       0.089247
 **** Fit       0.089720
 **** Fit       0.088862
 **** Fit       0.086793
 **** Fit       0.083779
 **** Fit       0.080230
 **** Fit       0.072720
 **** Fit       0.071865
 **** Fit       0.073039
 **** Fit       0.076143
 **** Fit       0.080139
 **** Fit       0.083980
 **** Fit       0.087131
 **** Fit       0.089388
 **** Fit       0.090671
 **** Fit       0.090954
 **** Fit       0.090242
 **** Fit       0.088588
 **** Fit       0.086110
 **** Fit       0.082994
 **** Fit       0.079524
 **** Fit       0.067604
 **** Fit       0.066290
 **** Fit       0.076257
 **** Fit       0.080778
 **** Fit       0.084597
 **** Fit       0.087598
 **** Fit       0.089755
 **** Fit       0.091065
 **** Fit       0.091531
 **** Fit       0.091153
 **** Fit       0.089937
 **** Fit       0.087938
 **** Fit       0.085264
 **** Fit       0.082055
 **** Fit       0.078504
 **** Fit       0.075001
 **** Fit       0.064233
 **** Fit       0.059992
 **** Fit       0.076369
 **** Fit       0.080845
 **** Fit       0.084492
 **** Fit       0.087334
 **** Fit       0.089398
 **** Fit       0.090721
 **** Fit       0.091329
 **** Fit       0.091216
 **** Fit       0.090356
 **** Fit       0.088748
 **** Fit       0.086455
 **** Fit       0.083612
 **** Fit       0.052463
 **** Fit       0.073139
 **** Fit       0.078018
 **** Fit       0.082011
 **** Fit       0.085159
 **** Fit       0.087513
 **** Fit       0.089149
 **** Fit       0.090137
 **** Fit       0.090489
 **** Fit       0.090165
 **** Fit       0.089100
 **** Fit       0.087263
 **** Fit       0.084714
 **** Fit       0.043167
 **** Fit       0.068915
 **** Fit       0.074224
 **** Fit       0.078613
 **** Fit       0.082093
 **** Fit       0.084727
 **** Fit       0.086634
 **** Fit       0.087940
 **** Fit       0.088702
 **** Fit       0.088891
 **** Fit       0.088410
 **** Fit       0.087151
 **** Fit       0.085042
 **** Fit       0.082105
 **** Fit       0.056935
 **** Fit       0.063608
 **** Fit       0.069439
 **** Fit       0.074306
 **** Fit       0.078161
 **** Fit       0.081076
 **** Fit       0.083218
 **** Fit       0.084781
 **** Fit       0.085886
 **** Fit       0.086536
 **** Fit       0.086634
 **** Fit       0.086035
 **** Fit       0.084587
 **** Fit       0.082166
 **** Fit       0.078716
 **** Fit       0.049062
 **** Fit       0.056807
 **** Fit       0.063671
 **** Fit       0.069360
 **** Fit       0.073761
 **** Fit       0.076991
 **** Fit       0.079329
 **** Fit       0.081073
 **** Fit       0.082419
 **** Fit       0.083393
 **** Fit       0.083876
 **** Fit       0.083679
 **** Fit       0.082593
 **** Fit       0.080417
 **** Fit       0.076963
 **** Fit       0.039255
 **** Fit       0.072314
 **** Fit       0.074806
 **** Fit       0.076697
 **** Fit       0.078260
 **** Fit       0.079550
 **** Fit       0.080440
 **** Fit       0.080701
 **** Fit       0.080089
 **** Fit       0.078357
 **** Fit       0.075251
 **** Fit       0.070485
 **** Fit       0.071039
 **** Fit       0.072914
 **** Fit       0.074595
 **** Fit       0.076027
 **** Fit       0.076986
 **** Fit       0.077189
 **** Fit       0.076355
 **** Fit       0.074203
 **** Fit       0.070412
 **** Fit       0.066986
 **** Fit       0.068993
 **** Fit       0.070845
 **** Fit       0.072388
 **** Fit       0.073345
 **** Fit       0.073418
 **** Fit       0.072315
 **** Fit       0.069731
 **** Fit       0.065291
 **** Fit       0.060858
 **** Fit       0.063348
 **** Fit       0.065613
 **** Fit       0.067591
 **** Fit       0.069026
 **** Fit       0.069601
 **** Fit       0.068998
 **** Fit       0.066893
 **** Fit       0.062897
 **** Fit       0.053801
 **** Fit       0.057082
 **** Fit       0.059888
 **** Fit       0.062324
 **** Fit       0.064227
 **** Fit       0.065312
 **** Fit       0.065263
 **** Fit       0.063759
 **** Fit       0.060431
 **** Fit       0.054786
 **** Fit       0.048043
 **** Fit       0.052027
 **** Fit       0.055325
 **** Fit       0.058031
 **** Fit       0.059989
 **** Fit       0.060927
 **** Fit       0.060542
 **** Fit       0.058501
 **** Fit       0.054411
 **** Fit       0.016626
 **** Fit       0.027743
 **** Fit       0.035788
 **** Fit       0.041799
 **** Fit       0.046509
 **** Fit       0.050304
 **** Fit       0.053263
 **** Fit       0.055250
 **** Fit       0.056031
 **** Fit       0.055330
 **** Fit       0.052840
 **** Fit       0.048205
 **** Fit       0.019989
 **** Fit       0.029025
 **** Fit       0.035959
 **** Fit       0.041391
 **** Fit       0.045604
 **** Fit       0.048615
 **** Fit       0.050272
 **** Fit       0.050345
 **** Fit       0.048575
 **** Fit       0.044689
 **** Fit       0.029644
 **** Fit       0.035771
 **** Fit       0.040288
 **** Fit       0.043188
 **** Fit       0.044337
 **** Fit       0.043561
 **** Fit       0.040704
 **** Fit       0.035712
 **** Fit       0.029531
 **** Fit       0.034229
 **** Fit       0.036877
 **** Fit       0.037435
 **** Fit       0.035899
 **** Fit       0.032407
 **** Fit       0.027386
 **** Fit       0.029340
 **** Fit       0.030046
 **** Fit       0.028640
 **** Fit       0.025736
 **** Fit       0.051816
 **** Fit       0.052239
 **** Fit       0.050996
 **** Fit       0.051439
 **** Fit       0.052387
 **** Fit       0.052831
 **** Fit       0.051542
 **** Fit       0.050539
 **** Fit       0.050754
 **** Fit       0.052356
 **** Fit       0.054038
 **** Fit       0.054386
 **** Fit       0.053839
 **** Fit       0.052608
 **** Fit       0.051386
 **** Fit       0.050580
 **** Fit       0.050595
 **** Fit       0.052081
 **** Fit       0.054881
 **** Fit       0.057660
 **** Fit       0.058926
 **** Fit       0.058254
 **** Fit       0.056487
 **** Fit       0.054964
 **** Fit       0.053565
 **** Fit       0.052157
 **** Fit       0.055148
 **** Fit       0.059465
 **** Fit       0.063705
 **** Fit       0.066340
 **** Fit       0.066525
 **** Fit       0.064468
 **** Fit       0.061202
 **** Fit       0.057976
 **** Fit       0.055750
 **** Fit       0.057443
 **** Fit       0.063343
 **** Fit       0.069983
 **** Fit       0.075608
 **** Fit       0.078674
 **** Fit       0.078426
 **** Fit       0.075174
 **** Fit       0.070082
 **** Fit       0.064593
 **** Fit       0.059859
 **** Fit       0.056522
 **** Fit       0.063392
 **** Fit       0.072273
 **** Fit       0.069668
 **** Fit       0.062841
 **** Fit       0.057819
 **** Fit       0.047400
 **** Fit       0.049981
 **** Fit       0.045597
 **** Fit       0.048644
 **** Fit       0.043544
 **** Fit       0.044412
 **** Fit       0.038253
 **** Fit       0.050839
 **** Fit       0.049850
 **** Fit       0.050401
 **** Fit       0.051414
 **** Fit       0.052032
 **** Fit       0.051638
 **** Fit       0.050376
 **** Fit       0.048964
 **** Fit       0.049398
 **** Fit       0.050129
 **** Fit       0.051200
 **** Fit       0.052347
 **** Fit       0.053026
 **** Fit       0.051446
 **** Fit       0.049834
 **** Fit       0.048983
 **** Fit       0.048164
 **** Fit       0.048637
 **** Fit       0.049157
 **** Fit       0.049867
 **** Fit       0.050987
 **** Fit       0.052498
 **** Fit       0.053264
 **** Fit       0.050976
 **** Fit       0.049061
 **** Fit       0.048007
 **** Fit       0.047835
 **** Fit       0.047513
 **** Fit       0.048065
 **** Fit       0.048506
 **** Fit       0.048948
 **** Fit       0.049657
 **** Fit       0.050957
 **** Fit       0.052963
 **** Fit       0.053791
 **** Fit       0.050734
 **** Fit       0.048234
 **** Fit       0.046779
 **** Fit       0.046465
 **** Fit       0.046887
 **** Fit       0.047162
 **** Fit       0.047726
 **** Fit       0.048103
 **** Fit       0.048357
 **** Fit       0.048689
 **** Fit       0.049486
 **** Fit       0.051200
 **** Fit       0.055113
 **** Fit       0.051004
 **** Fit       0.047510
 **** Fit       0.045280
 **** Fit       0.044669
 **** Fit       0.047956
 **** Fit       0.048077
 **** Fit       0.048097
 **** Fit       0.048307
 **** Fit       0.049219
 **** Fit       0.051430
 **** Fit       0.048138
 **** Fit       0.048173
 **** Fit       0.047970
 **** Fit       0.047776
 **** Fit       0.048146
 **** Fit       0.049885
 **** Fit       0.048758
 **** Fit       0.048398
 **** Fit       0.047841
 **** Fit       0.047622
 **** Fit       0.048584
 **** Fit       0.050077
 **** Fit       0.049513
 **** Fit       0.048609
 **** Fit       0.047934
 **** Fit       0.048359
 **** Fit       0.051293
 **** Fit       0.049856
 **** Fit       0.048836
 **** Fit       0.051274
 **** Fit       0.051846
 **** Fit       0.049121
 **** Fit       0.048217
 **** Fit       0.049314
 **** Fit       0.050001
 **** Fit       0.047352
 **** Fit       0.046023
 **** Fit       0.045479
 **** Fit       0.046060
 **** Fit       0.048698
 **** Fit       0.051051
 **** Fit       0.046966
 **** Fit       0.044819
 **** Fit       0.043959
 **** Fit       0.043381
 **** Fit       0.042842
 **** Fit       0.043344
 **** Fit       0.046234
 **** Fit       0.052030
 **** Fit       0.051836
 **** Fit       0.046228
 **** Fit       0.042852
 **** Fit       0.041716
 **** Fit       0.041908
 **** Fit       0.041784
 **** Fit       0.040644
 **** Fit       0.039685
 **** Fit       0.040902
 **** Fit       0.045683
 **** Fit       0.054239
 **** Fit       0.045916
 **** Fit       0.040915
 **** Fit       0.038398
 **** Fit       0.038604
 **** Fit       0.040311
 **** Fit       0.039197
 **** Fit       0.036376
 **** Fit       0.035325
 **** Fit       0.038143
 **** Fit       0.045665
 **** Fit       0.057719
 **** Fit       0.044599
 **** Fit       0.038397
 **** Fit       0.034617
 **** Fit       0.034360
 **** Fit       0.033923
 **** Fit       0.045096
 **** Fit       0.043964
 **** Fit       0.037041
 **** Fit       0.031998
 **** Fit       0.043254
 **** Fit       0.036330
 **** Fit       0.041637
 **** Fit       0.035233
 **** Fit       0.039618
 **** Fit       0.034080
 **** Fit       0.030085
 **** Fit       0.036887
 **** Fit       0.032141
 **** Fit       0.028395
 **** Fit       0.025103
 **** Fit       0.030208
 **** Fit       0.025643
 **** Fit       0.021124
 **** Fit       0.015602
 -----------------------------------------------------------------
 Leave Link  602 at Wed Sep 18 14:21:43 2019, MaxMem=  1342177280 cpu:             124.0 elap:               2.6

 Test job not archived.
 1\1\GINC-C480-022\SP\RB3LYP\SVP\C54H83Ca1N15O23\PENGZHI\18-Sep-2019\0\
 \#b3lyp/svp scf=(tight,noincore) Test #IOP(5/87=12) Density=Current Po
 p=(MK,readradii) iop(6/33=2) iop(6/42=6)\\Ng-31_loop3_11.0\\0,1\C,0,0.
 978,48.03,5.318\C,0,2.428,48.15,4.868\O,0,3.048,47.15,4.498\H,0,0.339,
 47.882,4.447\H,0,0.875,47.179,5.992\H,0,0.681,48.942,5.836\N,0,2.978,4
 9.37,4.878\C,0,4.338,49.83,4.658\C,0,5.278,49.29,5.718\O,0,4.898,49.01
 ,6.858\C,0,4.358,51.36,4.608\C,0,3.648,51.96,5.808\O,0,4.388,52.55,6.6
 18\O,0,2.398,51.91,5.848\H,0,2.398,50.1,5.258\H,0,4.698,49.49,3.698\H,
 0,3.838,51.6,3.678\H,0,5.378,51.75,4.628\N,0,6.558,49.26,5.338\C,0,7.7
 28,49.19,6.198\C,0,8.648,48.,5.938\O,0,9.628,47.82,6.648\C,0,8.598,50.
 45,6.138\C,0,7.788,51.65,6.608\C,0,7.338,51.53,8.058\C,0,6.858,52.88,8
 .588\N,0,6.798,52.83,10.058\H,0,6.788,49.42,4.368\H,0,7.388,49.03,7.21
 8\H,0,8.968,50.72,5.148\H,0,9.418,50.31,6.838\H,0,7.048,51.86,5.838\H,
 0,8.458,52.52,6.608\H,0,8.128,51.1,8.678\H,0,6.508,50.83,8.058\H,0,5.8
 48,53.08,8.228\H,0,7.508,53.7,8.308\H,0,6.358,53.67,10.398\H,0,6.248,5
 2.1,10.468\H,0,7.738,52.76,10.418\N,0,8.268,47.19,4.948\C,0,8.938,45.9
 5,4.608\C,0,9.748,46.01,3.328\O,0,10.158,44.99,2.788\C,0,7.918,44.81,4
 .598\C,0,6.788,44.99,3.608\O,0,6.098,43.99,3.278\O,0,6.438,46.07,3.078
 \H,0,7.388,47.32,4.478\H,0,9.728,45.74,5.338\H,0,7.458,44.64,5.578\H,0
 ,8.468,43.92,4.298\N,0,9.858,47.17,2.668\C,0,10.648,47.32,1.458\C,0,11
 .048,48.72,1.048\O,0,11.418,49.49,1.938\H,0,9.398,48.01,2.958\H,0,10.0
 68,46.89,0.638\H,0,11.508,46.7,1.698\N,0,11.058,49.13,-0.232\C,0,10.77
 8,48.39,-1.442\C,0,9.328,48.43,-1.892\O,0,8.698,49.49,-1.802\C,0,11.65
 8,48.94,-2.562\C,0,13.148,48.75,-2.322\N,0,13.658,47.7,-1.672\O,0,13.9
 58,49.63,-2.612\H,0,11.338,50.07,-0.462\H,0,11.048,47.34,-1.282\H,0,11
 .468,49.96,-2.882\H,0,11.408,48.42,-3.482\H,0,13.028,46.92,-1.522\H,0,
 14.618,47.68,-1.352\N,0,8.658,47.34,-2.252\C,0,9.218,46.,-2.322\C,0,8.
 228,44.86,-2.202\O,0,7.238,44.99,-1.472\H,0,7.668,47.53,-2.292\H,0,9.8
 58,45.84,-1.452\H,0,9.738,46.,-3.282\N,0,8.478,43.69,-2.792\C,0,7.698,
 42.48,-2.582\C,0,8.698,41.34,-2.502\O,0,9.408,41.13,-3.472\C,0,6.688,4
 2.31,-3.712\C,0,5.628,43.36,-3.932\C,0,4.478,43.24,-3.152\C,0,5.668,44
 .3,-4.962\C,0,3.348,44.03,-3.362\C,0,4.588,45.17,-5.152\C,0,3.438,45.0
 4,-4.352\O,0,2.438,45.96,-4.502\H,0,9.288,43.71,-3.392\H,0,7.178,42.54
 ,-1.632\H,0,6.178,41.35,-3.572\H,0,7.228,42.21,-4.662\H,0,4.348,42.37,
 -2.512\H,0,6.588,44.43,-5.522\H,0,2.418,43.97,-2.822\H,0,4.688,45.95,-
 5.882\H,0,2.688,46.41,-5.312\N,0,8.518,40.43,-1.532\C,0,9.208,39.16,-1
 .602\C,0,8.578,38.22,-2.632\O,0,9.248,37.36,-3.192\C,0,9.448,38.55,-0.
 222\C,0,8.378,37.53,0.168\C,0,10.858,38.01,-0.042\C,0,8.208,37.48,1.67
 8\H,0,7.728,40.63,-0.942\H,0,10.208,39.31,-1.992\H,0,9.338,39.4,0.458\
 H,0,8.758,36.58,-0.212\H,0,7.378,37.65,-0.252\H,0,10.978,37.22,-0.792\
 H,0,11.468,38.88,-0.282\H,0,10.968,37.67,0.988\H,0,9.068,37.,2.158\H,0
 ,7.988,38.45,2.108\H,0,7.368,36.81,1.858\N,0,7.258,38.25,-2.852\C,0,6.
 568,37.55,-3.912\C,0,5.728,36.36,-3.472\O,0,5.088,35.8,-4.362\C,0,5.79
 8,38.71,-4.552\O,0,4.678,38.94,-3.732\H,0,6.788,39.02,-2.402\H,0,7.298
 ,37.21,-4.652\H,0,5.608,38.26,-5.522\H,0,6.478,39.56,-4.642\H,0,4.968,
 39.38,-2.932\N,0,5.718,35.91,-2.222\C,0,4.938,34.76,-1.802\C,0,4.308,3
 4.93,-0.422\O,0,4.978,35.23,0.558\C,0,5.818,33.52,-1.852\H,0,6.358,36.
 36,-1.582\H,0,4.148,34.64,-2.532\H,0,6.598,33.67,-1.112\H,0,5.188,32.6
 8,-1.552\H,0,6.348,33.31,-2.792\N,0,3.048,34.56,-0.202\C,0,2.288,34.75
 ,1.018\C,0,2.448,36.11,1.688\O,0,2.368,36.2,2.918\C,0,2.528,33.54,1.91
 8\H,0,2.648,33.98,-0.932\H,0,1.248,34.68,0.708\H,0,1.898,33.49,2.798\H
 ,0,2.368,32.7,1.248\H,0,3.568,33.68,2.228\N,0,2.598,37.22,0.958\C,0,2.
 368,38.59,1.368\C,0,0.878,38.86,1.278\O,0,0.208,38.98,2.308\C,0,3.178,
 39.56,0.508\C,0,4.688,39.41,0.648\C,0,5.398,40.31,-0.342\O,0,5.858,41.
 39,0.078\O,0,5.538,39.96,-1.532\H,0,2.638,37.09,-0.042\H,0,2.698,38.64
 ,2.408\H,0,2.888,40.55,0.858\H,0,2.868,39.54,-0.542\H,0,4.988,38.39,0.
 418\H,0,4.898,39.69,1.688\N,0,0.318,38.93,0.068\C,0,-1.022,39.36,-0.27
 2\H,0,-1.674,39.232,0.592\H,0,-1.005,40.411,-0.561\H,0,-1.397,38.761,-
 1.102\H,0,0.938,38.7,-0.702\Ca,0,3.85,45.31,2.42\O,0,4.27,47.79,1.54\H
 ,0,4.1,48.73,1.6\H,0,4.85,47.69,0.79\\Version=ES64L-G16RevA.03\State=1
 -A\HF=-5333.3829284\RMSD=1.695e-09\Dipole=-2.5877066,11.1128512,8.1134
 246\Quadrupole=-57.4166449,-12.186495,69.6031399,26.1041271,49.6466743
 ,113.7731357\PG=C01 [X(C54H83Ca1N15O23)]\\@


 TO SEE A WORLD IN A GRAIN OF SAND
 AND A HEAVEN IN A WILD FLOWER
 HOLD INFINITY IN THE PALM OF YOUR HAND
 AND ETERNITY IN AN HOUR

                       -- WILLIAM BLAKE
 Job cpu time:       0 days  5 hours 41 minutes 48.9 seconds.
 Elapsed time:       0 days  0 hours  7 minutes 13.5 seconds.
 File lengths (MBytes):  RWF=   1517 Int=      0 D2E=      0 Chk=    171 Scr=      1
 Normal termination of Gaussian 16 at Wed Sep 18 14:21:47 2019.
