 Entering Gaussian System, Link 0=g16
 Initial command:
 /home1/apps/gaussian/16rA.03/g16/l1.exe "/scratch/01990/pengzhi/4356757/Gau-166119.inp" -scrdir="/scratch/01990/pengzhi/4356757/"
 Entering Link 1 = /home1/apps/gaussian/16rA.03/g16/l1.exe PID=    166120.
  
 Copyright (c) 1988,1990,1992,1993,1995,1998,2003,2009,2016,
            Gaussian, Inc.  All Rights Reserved.
  
 This is part of the Gaussian(R) 16 program.  It is based on
 the Gaussian(R) 09 system (copyright 2009, Gaussian, Inc.),
 the Gaussian(R) 03 system (copyright 2003, Gaussian, Inc.),
 the Gaussian(R) 98 system (copyright 1998, Gaussian, Inc.),
 the Gaussian(R) 94 system (copyright 1995, Gaussian, Inc.),
 the Gaussian 92(TM) system (copyright 1992, Gaussian, Inc.),
 the Gaussian 90(TM) system (copyright 1990, Gaussian, Inc.),
 the Gaussian 88(TM) system (copyright 1988, Gaussian, Inc.),
 the Gaussian 86(TM) system (copyright 1986, Carnegie Mellon
 University), and the Gaussian 82(TM) system (copyright 1983,
 Carnegie Mellon University). Gaussian is a federally registered
 trademark of Gaussian, Inc.
  
 This software contains proprietary and confidential information,
 including trade secrets, belonging to Gaussian, Inc.
  
 This software is provided under written license and may be
 used, copied, transmitted, or stored only in accord with that
 written license.
  
 The following legend is applicable only to US Government
 contracts under FAR:
  
                    RESTRICTED RIGHTS LEGEND
  
 Use, reproduction and disclosure by the US Government is
 subject to restrictions as set forth in subparagraphs (a)
 and (c) of the Commercial Computer Software - Restricted
 Rights clause in FAR 52.227-19.
  
 Gaussian, Inc.
 340 Quinnipiac St., Bldg. 40, Wallingford CT 06492
  
  
 ---------------------------------------------------------------
 Warning -- This program may not be used in any manner that
 competes with the business of Gaussian, Inc. or will provide
 assistance to any competitor of Gaussian, Inc.  The licensee
 of this program is prohibited from giving any competitor of
 Gaussian, Inc. access to this program.  By using this program,
 the user acknowledges that Gaussian, Inc. is engaged in the
 business of creating and licensing software in the field of
 computational chemistry and represents and warrants to the
 licensee that it is not a competitor of Gaussian, Inc. and that
 it will not use this program in any manner prohibited above.
 ---------------------------------------------------------------
  

 Cite this work as:
 Gaussian 16, Revision A.03,
 M. J. Frisch, G. W. Trucks, H. B. Schlegel, G. E. Scuseria, 
 M. A. Robb, J. R. Cheeseman, G. Scalmani, V. Barone, 
 G. A. Petersson, H. Nakatsuji, X. Li, M. Caricato, A. V. Marenich, 
 J. Bloino, B. G. Janesko, R. Gomperts, B. Mennucci, H. P. Hratchian, 
 J. V. Ortiz, A. F. Izmaylov, J. L. Sonnenberg, D. Williams-Young, 
 F. Ding, F. Lipparini, F. Egidi, J. Goings, B. Peng, A. Petrone, 
 T. Henderson, D. Ranasinghe, V. G. Zakrzewski, J. Gao, N. Rega, 
 G. Zheng, W. Liang, M. Hada, M. Ehara, K. Toyota, R. Fukuda, 
 J. Hasegawa, M. Ishida, T. Nakajima, Y. Honda, O. Kitao, H. Nakai, 
 T. Vreven, K. Throssell, J. A. Montgomery, Jr., J. E. Peralta, 
 F. Ogliaro, M. J. Bearpark, J. J. Heyd, E. N. Brothers, K. N. Kudin, 
 V. N. Staroverov, T. A. Keith, R. Kobayashi, J. Normand, 
 K. Raghavachari, A. P. Rendell, J. C. Burant, S. S. Iyengar, 
 J. Tomasi, M. Cossi, J. M. Millam, M. Klene, C. Adamo, R. Cammi, 
 J. W. Ochterski, R. L. Martin, K. Morokuma, O. Farkas, 
 J. B. Foresman, and D. J. Fox, Gaussian, Inc., Wallingford CT, 2016.
 
 ******************************************
 Gaussian 16:  ES64L-G16RevA.03 25-Dec-2016
                18-Sep-2019 
 ******************************************
 %chk=Ng-31_loop3_38.0.chk
 %nprocshared=48
 Will use up to   48 processors via shared memory.
 %mem=10GB
 %nosave
 ----------------------------------------------------------------------
 #b3lyp/svp scf=(tight,noincore) Test #IOP(5/87=12) Density=Current Pop
 =(MK,readradii) iop(6/33=2) iop(6/42=6)
 ----------------------------------------------------------------------
 1/30=1,38=1,172=1/1;
 2/12=2,17=6,18=5,40=1/2;
 3/5=18,7=101,11=2,25=1,30=1,74=-5/1,2,3;
 4//1;
 5/5=4,32=2,38=5,87=12/2;
 6/7=2,8=2,9=2,10=2,15=8,20=101,22=-1,28=1,33=2,42=6/1,2;
 99/5=1,9=1/99;
 ----------------
 Ng-31_loop3_38.0
 ----------------
 Symbolic Z-matrix:
 Charge =  0 Multiplicity = 1
 C                     61.82     64.61     32.14 
 C                     62.22     63.92     33.44 
 O                     61.38     63.12     33.85 
 H                     60.966    65.262    32.323 
 H                     62.657    65.203    31.77 
 H                     61.55     63.859    31.398 
 N                     63.37     64.2      34.04 
 C                     63.82     63.55     35.26 
 C                     63.11     63.97     36.54 
 O                     62.75     63.15     37.38 
 C                     65.33     63.72     35.39 
 C                     65.89     65.13     35.51 
 O                     67.09     65.12     35.87 
 O                     65.24     66.14     35.17 
 H                     63.81     65.05     33.72 
 H                     63.6      62.5      35.08 
 H                     65.85     63.24     34.56 
 H                     65.66     63.25     36.32 
 N                     62.88     65.28     36.65 
 C                     62.51     65.9      37.91 
 C                     63.71     65.95     38.84 
 O                     64.25     67.       39.18 
 C                     61.75     67.2      37.62 
 C                     60.65     67.44     38.65 
 C                     59.88     68.74     38.43 
 C                     58.62     68.73     39.29 
 N                     57.55     69.67     38.89 
 H                     63.22     65.95     35.98 
 H                     61.72     65.28     38.34 
 H                     61.24     67.15     36.66 
 H                     62.42     68.05     37.6 
 H                     60.98     67.37     39.69 
 H                     59.96     66.61     38.49 
 H                     59.59     68.85     37.39 
 H                     60.47     69.61     38.7 
 H                     58.87     68.89     40.33 
 H                     58.19     67.73     39.23 
 H                     56.72     69.53     39.44 
 H                     57.85     70.62     39.02 
 H                     57.24     69.5      37.94 
 N                     63.97     64.75     39.36 
 C                     65.04     64.44     40.29 
 C                     65.66     63.06     40.07 
 O                     66.45     62.67     40.92 
 C                     64.46     64.64     41.69 
 C                     63.21     63.84     42.01 
 O                     62.77     62.9      41.32 
 O                     62.56     64.       43.07 
 H                     63.34     64.       39.11 
 H                     65.88     65.11     40.12 
 H                     64.28     65.7      41.86 
 H                     65.19     64.26     42.4 
 N                     65.28     62.33     39.02 
 C                     65.77     61.03     38.64 
 C                     67.26     60.73     38.47 
 O                     67.96     61.6      37.97 
 H                     64.55     62.73     38.44 
 H                     65.27     60.84     37.69 
 H                     65.42     60.23     39.3 
 N                     67.81     59.56     38.8 
 C                     67.14     58.32     39.13 
 C                     68.11     57.23     38.7 
 O                     69.01     56.96     39.5 
 C                     66.8      58.32     40.62 
 C                     65.92     57.16     41.04 
 N                     64.69     57.4      41.51 
 O                     66.33     56.       41.05 
 H                     68.81     59.64     38.91 
 H                     66.21     58.2      38.57 
 H                     66.56     59.29     41.06 
 H                     67.73     58.05     41.13 
 H                     64.31     58.32     41.7 
 H                     64.15     56.59     41.77 
 N                     68.14     56.67     37.49 
 C                     67.42     57.12     36.31 
 C                     66.07     56.45     36.12 
 O                     65.12     57.16     35.79 
 H                     68.69     55.83     37.38 
 H                     68.       57.       35.39 
 H                     67.28     58.2      36.39 
 N                     65.85     55.19     36.51 
 C                     64.52     54.61     36.58 
 C                     63.92     55.04     37.91 
 O                     64.66     55.28     38.86 
 C                     64.63     53.09     36.53 
 C                     64.78     52.53     35.13 
 C                     63.7      51.89     34.52 
 C                     65.98     52.72     34.43 
 C                     63.87     51.32     33.25 
 C                     66.12     52.21     33.13 
 C                     65.05     51.54     32.51 
 O                     65.02     51.2      31.19 
 H                     66.61     54.66     36.9 
 H                     63.88     54.88     35.75 
 H                     63.7      52.74     36.98 
 H                     65.29     52.56     37.22 
 H                     62.87     51.61     35.15 
 H                     66.76     53.37     34.76 
 H                     63.06     50.83     32.73 
 H                     67.04     52.47     32.63 
 H                     65.85     51.27     30.72 
 N                     62.6      55.17     38.07 
 C                     61.99     55.85     39.19 
 C                     61.13     54.91     40.04 
 O                     60.68     53.88     39.55 
 C                     61.41     57.19     38.75 
 C                     62.49     58.07     38.14 
 C                     60.31     57.02     37.71 
 C                     62.11     59.52     37.82 
 H                     61.95     54.81     37.38 
 H                     62.75     56.06     39.95 
 H                     61.05     57.72     39.63 
 H                     62.74     57.64     37.17 
 H                     63.32     58.2      38.83 
 H                     60.79     56.62     36.82 
 H                     59.62     56.26     38.07 
 H                     59.78     57.96     37.51 
 H                     63.01     60.12     37.68 
 H                     61.51     59.48     36.92 
 H                     61.51     60.07     38.55 
 N                     61.01     55.28     41.32 
 C                     60.21     54.58     42.3 
 C                     58.72     54.55     42. 
 O                     58.21     54.93     40.95 
 C                     60.84     53.26     42.74 
 O                     62.13     53.53     43.24 
 H                     61.33     56.17     41.67 
 H                     60.2      55.12     43.25 
 H                     60.88     52.52     41.94 
 H                     60.31     53.06     43.67 
 H                     62.55     54.1      42.59 
 N                     58.01     54.23     43.09 
 C                     56.57     54.12     43.2 
 C                     55.92     55.48     43.02 
 O                     56.41     56.48     43.53 
 C                     56.09     53.44     44.48 
 H                     58.51     53.93     43.92 
 H                     56.33     53.48     42.35 
 H                     56.52     52.44     44.54 
 H                     56.36     54.       45.37 
 H                     55.02     53.24     44.41 
 N                     54.79     55.51     42.31 
 C                     54.       56.7      42.09 
 C                     54.57     57.94     41.42 
 O                     53.91     58.97     41.51 
 C                     53.29     57.02     43.4 
 H                     54.59     54.62     41.87 
 H                     53.21     56.39     41.4 
 H                     52.36     57.51     43.12 
 H                     53.07     56.1      43.95 
 H                     53.95     57.72     43.92 
 N                     55.78     57.82     40.87 
 C                     56.3      58.78     39.91 
 C                     55.59     58.76     38.57 
 O                     55.21     59.76     37.96 
 C                     57.81     58.56     39.82 
 C                     58.59     59.84     39.53 
 C                     59.15     60.5      40.79 
 O                     60.3      60.22     41.2 
 O                     58.47     61.41     41.31 
 H                     56.2      56.92     41.01 
 H                     56.1      59.77     40.33 
 H                     57.98     57.93     38.95 
 H                     58.25     58.05     40.67 
 H                     57.89     60.47     38.98 
 H                     59.37     59.52     38.84 
 N                     55.35     57.58     37.99 
 C                     54.31     57.29     37.02 
 H                     53.465    57.959    37.183 
 H                     54.7      57.437    36.013 
 H                     53.982    56.257    37.136 
 H                     55.68     56.75     38.47 
 Ca                    60.41     62.5      42.7 
 O                     59.98     63.86     40.45 
 H                     59.07     64.16     40.51 
 H                     60.02     63.41     39.61 
 
 Stoichiometry    C54H83CaN15O23
 Framework group  C1[X(C54H83CaN15O23)]
 Deg. of freedom   522
 Full point group                 C1      NOp   1
 Largest Abelian subgroup         C1      NOp   1
 Largest concise Abelian subgroup C1      NOp   1
                         Standard orientation:                         
 ---------------------------------------------------------------------
 Center     Atomic      Atomic             Coordinates (Angstroms)
 Number     Number       Type             X           Y           Z
 ---------------------------------------------------------------------
      1          6           0        5.960114    1.360625    5.977671
      2          6           0        5.218291    1.321112    4.645666
      3          8           0        4.175330    0.669575    4.683531
      4          1           0        6.331667    0.364080    6.215905
      5          1           0        6.799001    2.053713    5.906859
      6          1           0        5.280362    1.691072    6.762660
      7          7           0        5.700048    1.936484    3.573227
      8          6           0        5.021095    1.962971    2.288034
      9          6           0        5.050068    0.665173    1.491931
     10          8           0        4.051581    0.230958    0.924409
     11          6           0        5.560442    3.125245    1.460916
     12          6           0        7.035123    3.120530    1.084892
     13          8           0        7.288105    3.972536    0.201837
     14          8           0        7.877532    2.423079    1.686646
     15          1           0        6.672765    2.195849    3.644298
     16          1           0        3.987735    2.173040    2.555127
     17          1           0        5.359172    4.079197    1.949963
     18          1           0        5.063782    3.126824    0.487249
     19          7           0        6.223614    0.029674    1.497522
     20          6           0        6.535462   -1.032775    0.557919
     21          6           0        6.763069   -0.454398   -0.828110
     22          8           0        7.857158   -0.466769   -1.387141
     23          6           0        7.618452   -1.932165    1.166138
     24          6           0        7.409654   -3.392310    0.775138
     25          6           0        8.479875   -4.331517    1.326334
     26          6           0        8.015244   -5.775242    1.161785
     27          7           0        8.689421   -6.778475    2.014726
     28          1           0        7.049108    0.415742    1.925204
     29          1           0        5.674445   -1.705108    0.553781
     30          1           0        7.576148   -1.916063    2.253406
     31          1           0        8.608004   -1.613681    0.864219
     32          1           0        7.278671   -3.559911   -0.297314
     33          1           0        6.460028   -3.652895    1.245144
     34          1           0        8.659510   -4.142217    2.379756
     35          1           0        9.425493   -4.216458    0.806270
     36          1           0        8.082712   -6.079118    0.126021
     37          1           0        6.957120   -5.810808    1.421804
     38          1           0        8.258464   -7.682125    1.921482
     39          1           0        9.655603   -6.868792    1.754466
     40          1           0        8.583631   -6.562493    2.999439
     41          7           0        5.611021   -0.109158   -1.403953
     42          6           0        5.461076    0.467609   -2.727114
     43          6           0        4.338969    1.501822   -2.819201
     44          8           0        4.050864    1.902662   -3.939479
     45          6           0        5.296857   -0.708629   -3.689349
     46          6           0        4.159418   -1.665044   -3.378863
     47          8           0        3.247230   -1.444444   -2.558772
     48          8           0        3.987961   -2.735747   -4.008066
     49          1           0        4.766499   -0.302822   -0.883206
     50          1           0        6.345223    1.050451   -2.976070
     51          1           0        6.236306   -1.254033   -3.759135
     52          1           0        5.022850   -0.298517   -4.657920
     53          7           0        3.695047    1.871492   -1.710820
     54          6           0        2.638362    2.844030   -1.600876
     55          6           0        2.767543    4.264834   -2.151902
     56          8           0        3.853617    4.817875   -2.044716
     57          1           0        3.969292    1.397081   -0.856991
     58          1           0        2.463664    2.906013   -0.526521
     59          1           0        1.687669    2.492976   -2.014450
     60          7           0        1.747710    4.930501   -2.696995
     61          6           0        0.341145    4.589825   -2.666752
     62          6           0       -0.382061    5.926061   -2.739881
     63          8           0       -0.519584    6.406000   -3.868440
     64          6           0        0.036011    3.635237   -3.820596
     65          6           0       -1.362348    3.053393   -3.771103
     66          7           0       -1.524070    1.734948   -3.606940
     67          8           0       -2.362974    3.741700   -3.968031
     68          1           0        2.070342    5.699258   -3.265696
     69          1           0        0.063933    4.093828   -1.733992
     70          1           0        0.834725    2.945175   -4.099828
     71          1           0       -0.051611    4.270508   -4.707531
     72          1           0       -0.773538    1.054106   -3.599478
     73          1           0       -2.476154    1.406304   -3.578139
     74          7           0       -0.733079    6.661806   -1.684388
     75          6           0       -0.321542    6.449943   -0.306327
     76          6           0       -1.287258    5.599115    0.500509
     77          8           0       -0.811189    4.734442    1.236172
     78          1           0       -1.374300    7.425948   -1.842887
     79          1           0       -0.150573    7.386926    0.232220
     80          1           0        0.660523    5.972596   -0.315679
     81          7           0       -2.603587    5.616448    0.265824
     82          6           0       -3.515878    4.638882    0.833529
     83          6           0       -3.455764    3.408288   -0.058562
     84          8           0       -3.170423    3.533420   -1.246258
     85          6           0       -4.929942    5.209340    0.832511
     86          6           0       -5.221950    6.131351    1.999014
     87          6           0       -6.027359    5.687266    3.048874
     88          6           0       -4.624517    7.398860    2.049934
     89          6           0       -6.342506    6.570807    4.091341
     90          6           0       -4.885939    8.252618    3.132734
     91          6           0       -5.715898    7.830428    4.186833
     92          8           0       -5.856816    8.499072    5.366646
     93          1           0       -2.966451    6.240288   -0.434000
     94          1           0       -3.305822    4.391334    1.866000
     95          1           0       -5.572980    4.329254    0.875526
     96          1           0       -5.362515    5.614420   -0.084762
     97          1           0       -6.603479    4.789681    2.885695
     98          1           0       -3.847658    7.712913    1.388375
     99          1           0       -6.947044    6.268772    4.933902
    100          1           0       -4.324141    9.173674    3.138929
    101          1           0       -5.504239    9.387813    5.389643
    102          7           0       -3.701102    2.186054    0.421910
    103          6           0       -3.374659    0.966326   -0.281367
    104          6           0       -4.620207    0.142548   -0.621510
    105          8           0       -5.649871    0.291989    0.027304
    106          6           0       -2.184560    0.273800    0.374127
    107          6           0       -0.973345    1.193165    0.399177
    108          6           0       -2.484483   -0.135081    1.810568
    109          6           0        0.356756    0.582273    0.854083
    110          1           0       -4.115012    2.056048    1.338412
    111          1           0       -3.085154    1.202505   -1.310787
    112          1           0       -1.900875   -0.582828   -0.234652
    113          1           0       -1.177428    1.967571    1.138734
    114          1           0       -0.731661    1.543653   -0.601147
    115          1           0       -2.611222    0.788131    2.371031
    116          1           0       -3.442697   -0.649866    1.821653
    117          1           0       -1.697679   -0.773304    2.232600
    118          1           0        1.185507    1.223155    0.550699
    119          1           0        0.291693    0.492682    1.930810
    120          1           0        0.618324   -0.415165    0.490627
    121          7           0       -4.484208   -0.643453   -1.695478
    122          6           0       -5.503892   -1.546921   -2.179617
    123          6           0       -5.879786   -2.658052   -1.212615
    124          8           0       -5.498802   -2.730415   -0.047877
    125          6           0       -6.661797   -0.818284   -2.858766
    126          8           0       -6.138370   -0.037174   -3.908953
    127          1           0       -3.601912   -0.797625   -2.158927
    128          1           0       -5.129024   -2.143219   -3.015143
    129          1           0       -7.241349   -0.204079   -2.168786
    130          1           0       -7.126400   -1.621773   -3.428282
    131          1           0       -5.390201    0.437249   -3.536173
    132          7           0       -6.529271   -3.648922   -1.837871
    133          6           0       -7.027804   -4.877871   -1.255679
    134          6           0       -5.874667   -5.751948   -0.796586
    135          8           0       -4.866034   -5.867688   -1.481760
    136          6           0       -7.987970   -5.652425   -2.155317
    137          1           0       -6.804665   -3.510274   -2.804223
    138          1           0       -7.578134   -4.506979   -0.390072
    139          1           0       -8.837950   -5.017640   -2.406478
    140          1           0       -7.511894   -5.992027   -3.069987
    141          1           0       -8.449244   -6.462114   -1.588369
    142          7           0       -6.039480   -6.394022    0.362067
    143          6           0       -5.079450   -7.317113    0.923177
    144          6           0       -3.649829   -6.908148    1.239929
    145          8           0       -2.853287   -7.812873    1.467071
    146          6           0       -5.150230   -8.598406    0.101059
    147          1           0       -6.877261   -6.098436    0.848331
    148          1           0       -5.482373   -7.579989    1.905445
    149          1           0       -4.886055   -9.402749    0.784172
    150          1           0       -6.165373   -8.754702   -0.276243
    151          1           0       -4.384679   -8.485598   -0.671732
    152          7           0       -3.367270   -5.606616    1.155217
    153          6           0       -2.175862   -5.025795    1.752539
    154          6           0       -2.186916   -5.016658    3.269079
    155          8           0       -1.244103   -5.362657    3.981743
    156          6           0       -1.976708   -3.648000    1.121176
    157          6           0       -0.508931   -3.244622    1.003632
    158          6           0        0.084974   -3.535937   -0.374488
    159          8           0        0.060002   -2.667565   -1.276877
    160          8           0        0.699458   -4.614411   -0.516623
    161          1           0       -4.136063   -5.046094    0.837771
    162          1           0       -1.344678   -5.679196    1.472004
    163          1           0       -2.407075   -2.925888    1.811132
    164          1           0       -2.471086   -3.505929    0.166396
    165          1           0       -0.011735   -3.776137    1.815844
    166          1           0       -0.509658   -2.182463    1.245951
    167          7           0       -3.291569   -4.605076    3.898953
    168          6           0       -3.700390   -4.958876    5.245909
    169          1           0       -3.307358   -5.943965    5.497465
    170          1           0       -3.311906   -4.222860    5.949557
    171          1           0       -4.788758   -4.977604    5.302776
    172          1           0       -4.066463   -4.293807    3.323756
    173         20           0        2.046670   -3.930818   -2.661738
    174          8           0        3.557539   -3.691217   -0.480714
    175          1           0        3.596408   -4.574287   -0.106046
    176          1           0        3.260459   -3.145958    0.243259
 ---------------------------------------------------------------------
 Rotational constants (GHZ):           0.0153591           0.0132706           0.0092582
 Standard basis: SVP (5D, 7F)
 There are  1809 symmetry adapted cartesian basis functions of A   symmetry.
 There are  1717 symmetry adapted basis functions of A   symmetry.
  1717 basis functions,  2922 primitive gaussians,  1809 cartesian basis functions
   358 alpha electrons      358 beta electrons
       nuclear repulsion energy     19758.6506005258 Hartrees.
 NAtoms=  176 NActive=  176 NUniq=  176 SFac= 1.00D+00 NAtFMM=   60 NAOKFM=T Big=T
 Integral buffers will be    131072 words long.
 Raffenetti 2 integral format.
 Two-electron integral symmetry is turned on.
 One-electron integrals computed using PRISM.
 NBasis=  1717 RedAO= T EigKep=  3.22D-04  NBF=  1717
 NBsUse=  1717 1.00D-06 EigRej= -1.00D+00 NBFU=  1717
 ExpMin= 1.98D-02 ExpMax= 3.51D+04 ExpMxC= 5.28D+03 IAcc=3 IRadAn=         5 AccDes= 0.00D+00
 Harris functional with IExCor=  402 and IRadAn=       5 diagonalized for initial guess.
 HarFok:  IExCor=  402 AccDes= 0.00D+00 IRadAn=         5 IDoV= 1 UseB2=F ITyADJ=14
 ICtDFT=  3500011 ScaDFX=  1.000000  1.000000  1.000000  1.000000
 FoFCou: FMM=F IPFlag=           0 FMFlag=      100000 FMFlg1=        2001
         NFxFlg=           0 DoJE=T BraDBF=F KetDBF=T FulRan=T
         wScrn=  0.000000 ICntrl=       500 IOpCl=  0 I1Cent=   200000004 NGrid=           0
         NMat0=    1 NMatS0=      1 NMatT0=    0 NMatD0=    1 NMtDS0=    0 NMtDT0=    0
 Petite list used in FoFCou.
 Requested convergence on RMS density matrix=1.00D-08 within 128 cycles.
 Requested convergence on MAX density matrix=1.00D-06.
 Requested convergence on             energy=1.00D-06.
 No special actions if energy rises.
 EnCoef did     2 forward-backward iterations
 EnCoef did     3 forward-backward iterations
 EnCoef did     4 forward-backward iterations
 EnCoef did     1 forward-backward iterations
 EnCoef did    19 forward-backward iterations
 EnCoef did    25 forward-backward iterations
 EnCoef did   100 forward-backward iterations
 EnCoef did   100 forward-backward iterations
 EnCoef did   100 forward-backward iterations
 EnCoef did   100 forward-backward iterations
 EnCoef did     2 forward-backward iterations
 Restarting incremental Fock formation.
 Rare condition: small coef for last iteration:  0.000D+00
 EnCoef did   100 forward-backward iterations
 SCF Done:  E(RB3LYP) =  -5333.34947970     A.U. after   33 cycles
            NFock= 33  Conv=0.98D-09     -V/T= 2.0081
 SCF density gives NOpUse=  1 NOpAll=  1.
 Hyperfine terms turned off by default for NAtoms > 100.

 **********************************************************************

            Population analysis using the SCF density.

 **********************************************************************

 Orbital symmetries:
 BldTbl:  Degeneracy threshold= 1.00D-02
       Occupied  (A) (A) (A) (A) (A) (A) (A) (A) (A) (A) (A) (A)
                 (A) (A) (A) (A) (A) (A) (A) (A) (A) (A) (A) (A)
                 (A) (A) (A) (A) (A) (A) (A) (A) (A) (A) (A) (A)
                 (A) (A) (A) (A) (A) (A) (A) (A) (A) (A) (A) (A)
                 (A) (A) (A) (A) (A) (A) (A) (A) (A) (A) (A) (A)
                 (A) (A) (A) (A) (A) (A) (A) (A) (A) (A) (A) (A)
                 (A) (A) (A) (A) (A) (A) (A) (A) (A) (A) (A) (A)
                 (A) (A) (A) (A) (A) (A) (A) (A) (A) (A) (A) (A)
                 (A) (A) (A) (A) (A) (A) (A) (A) (A) (A) (A) (A)
                 (A) (A) (A) (A) (A) (A) (A) (A) (A) (A) (A) (A)
                 (A) (A) (A) (A) (A) (A) (A) (A) (A) (A) (A) (A)
                 (A) (A) (A) (A) (A) (A) (A) (A) (A) (A) (A) (A)
                 (A) (A) (A) (A) (A) (A) (A) (A) (A) (A) (A) (A)
                 (A) (A) (A) (A) (A) (A) (A) (A) (A) (A) (A) (A)
                 (A) (A) (A) (A) (A) (A) (A) (A) (A) (A) (A) (A)
                 (A) (A) (A) (A) (A) (A) (A) (A) (A) (A) (A) (A)
                 (A) (A) (A) (A) (A) (A) (A) (A) (A) (A) (A) (A)
                 (A) (A) (A) (A) (A) (A) (A) (A) (A) (A) (A) (A)
                 (A) (A) (A) (A) (A) (A) (A) (A) (A) (A) (A) (A)
                 (A) (A) (A) (A) (A) (A) (A) (A) (A) (A) (A) (A)
                 (A) (A) (A) (A) (A) (A) (A) (A) (A) (A) (A) (A)
                 (A) (A) (A) (A) (A) (A) (A) (A) (A) (A) (A) (A)
                 (A) (A) (A) (A) (A) (A) (A) (A) (A) (A) (A) (A)
                 (A) (A) (A) (A) (A) (A) (A) (A) (A) (A) (A) (A)
                 (A) (A) (A) (A) (A) (A) (A) (A) (A) (A) (A) (A)
                 (A) (A) (A) (A) (A) (A) (A) (A) (A) (A) (A) (A)
                 (A) (A) (A) (A) (A) (A) (A) (A) (A) (A) (A) (A)
                 (A) (A) (A) (A) (A) (A) (A) (A) (A) (A) (A) (A)
                 (A) (A) (A) (A) (A) (A) (A) (A) (A) (A) (A) (A)
                 (A) (A) (A) (A) (A) (A) (A) (A) (A) (A)
       Virtual   (A) (A) (A) (A) (A) (A) (A) (A) (A) (A) (A) (A)
                 (A) (A) (A) (A) (A) (A) (A) (A) (A) (A) (A) (A)
                 (A) (A) (A) (A) (A) (A) (A) (A) (A) (A) (A) (A)
                 (A) (A) (A) (A) (A) (A) (A) (A) (A) (A) (A) (A)
                 (A) (A) (A) (A) (A) (A) (A) (A) (A) (A) (A) (A)
                 (A) (A) (A) (A) (A) (A) (A) (A) (A) (A) (A) (A)
                 (A) (A) (A) (A) (A) (A) (A) (A) (A) (A) (A) (A)
                 (A) (A) (A) (A) (A) (A) (A) (A) (A) (A) (A) (A)
                 (A) (A) (A) (A) (A) (A) (A) (A) (A) (A) (A) (A)
                 (A) (A) (A) (A) (A) (A) (A) (A) (A) (A) (A) (A)
                 (A) (A) (A) (A) (A) (A) (A) (A) (A) (A) (A) (A)
                 (A) (A) (A) (A) (A) (A) (A) (A) (A) (A) (A) (A)
                 (A) (A) (A) (A) (A) (A) (A) (A) (A) (A) (A) (A)
                 (A) (A) (A) (A) (A) (A) (A) (A) (A) (A) (A) (A)
                 (A) (A) (A) (A) (A) (A) (A) (A) (A) (A) (A) (A)
                 (A) (A) (A) (A) (A) (A) (A) (A) (A) (A) (A) (A)
                 (A) (A) (A) (A) (A) (A) (A) (A) (A) (A) (A) (A)
                 (A) (A) (A) (A) (A) (A) (A) (A) (A) (A) (A) (A)
                 (A) (A) (A) (A) (A) (A) (A) (A) (A) (A) (A) (A)
                 (A) (A) (A) (A) (A) (A) (A) (A) (A) (A) (A) (A)
                 (A) (A) (A) (A) (A) (A) (A) (A) (A) (A) (A) (A)
                 (A) (A) (A) (A) (A) (A) (A) (A) (A) (A) (A) (A)
                 (A) (A) (A) (A) (A) (A) (A) (A) (A) (A) (A) (A)
                 (A) (A) (A) (A) (A) (A) (A) (A) (A) (A) (A) (A)
                 (A) (A) (A) (A) (A) (A) (A) (A) (A) (A) (A) (A)
                 (A) (A) (A) (A) (A) (A) (A) (A) (A) (A) (A) (A)
                 (A) (A) (A) (A) (A) (A) (A) (A) (A) (A) (A) (A)
                 (A) (A) (A) (A) (A) (A) (A) (A) (A) (A) (A) (A)
                 (A) (A) (A) (A) (A) (A) (A) (A) (A) (A) (A) (A)
                 (A) (A) (A) (A) (A) (A) (A) (A) (A) (A) (A) (A)
                 (A) (A) (A) (A) (A) (A) (A) (A) (A) (A) (A) (A)
                 (A) (A) (A) (A) (A) (A) (A) (A) (A) (A) (A) (A)
                 (A) (A) (A) (A) (A) (A) (A) (A) (A) (A) (A) (A)
                 (A) (A) (A) (A) (A) (A) (A) (A) (A) (A) (A) (A)
                 (A) (A) (A) (A) (A) (A) (A) (A) (A) (A) (A) (A)
                 (A) (A) (A) (A) (A) (A) (A) (A) (A) (A) (A) (A)
                 (A) (A) (A) (A) (A) (A) (A) (A) (A) (A) (A) (A)
                 (A) (A) (A) (A) (A) (A) (A) (A) (A) (A) (A) (A)
                 (A) (A) (A) (A) (A) (A) (A) (A) (A) (A) (A) (A)
                 (A) (A) (A) (A) (A) (A) (A) (A) (A) (A) (A) (A)
                 (A) (A) (A) (A) (A) (A) (A) (A) (A) (A) (A) (A)
                 (A) (A) (A) (A) (A) (A) (A) (A) (A) (A) (A) (A)
                 (A) (A) (A) (A) (A) (A) (A) (A) (A) (A) (A) (A)
                 (A) (A) (A) (A) (A) (A) (A) (A) (A) (A) (A) (A)
                 (A) (A) (A) (A) (A) (A) (A) (A) (A) (A) (A) (A)
                 (A) (A) (A) (A) (A) (A) (A) (A) (A) (A) (A) (A)
                 (A) (A) (A) (A) (A) (A) (A) (A) (A) (A) (A) (A)
                 (A) (A) (A) (A) (A) (A) (A) (A) (A) (A) (A) (A)
                 (A) (A) (A) (A) (A) (A) (A) (A) (A) (A) (A) (A)
                 (A) (A) (A) (A) (A) (A) (A) (A) (A) (A) (A) (A)
                 (A) (A) (A) (A) (A) (A) (A) (A) (A) (A) (A) (A)
                 (A) (A) (A) (A) (A) (A) (A) (A) (A) (A) (A) (A)
                 (A) (A) (A) (A) (A) (A) (A) (A) (A) (A) (A) (A)
                 (A) (A) (A) (A) (A) (A) (A) (A) (A) (A) (A) (A)
                 (A) (A) (A) (A) (A) (A) (A) (A) (A) (A) (A) (A)
                 (A) (A) (A) (A) (A) (A) (A) (A) (A) (A) (A) (A)
                 (A) (A) (A) (A) (A) (A) (A) (A) (A) (A) (A) (A)
                 (A) (A) (A) (A) (A) (A) (A) (A) (A) (A) (A) (A)
                 (A) (A) (A) (A) (A) (A) (A) (A) (A) (A) (A) (A)
                 (A) (A) (A) (A) (A) (A) (A) (A) (A) (A) (A) (A)
                 (A) (A) (A) (A) (A) (A) (A) (A) (A) (A) (A) (A)
                 (A) (A) (A) (A) (A) (A) (A) (A) (A) (A) (A) (A)
                 (A) (A) (A) (A) (A) (A) (A) (A) (A) (A) (A) (A)
                 (A) (A) (A) (A) (A) (A) (A) (A) (A) (A) (A) (A)
                 (A) (A) (A) (A) (A) (A) (A) (A) (A) (A) (A) (A)
                 (A) (A) (A) (A) (A) (A) (A) (A) (A) (A) (A) (A)
                 (A) (A) (A) (A) (A) (A) (A) (A) (A) (A) (A) (A)
                 (A) (A) (A) (A) (A) (A) (A) (A) (A) (A) (A) (A)
                 (A) (A) (A) (A) (A) (A) (A) (A) (A) (A) (A) (A)
                 (A) (A) (A) (A) (A) (A) (A) (A) (A) (A) (A) (A)
                 (A) (A) (A) (A) (A) (A) (A) (A) (A) (A) (A) (A)
                 (A) (A) (A) (A) (A) (A) (A) (A) (A) (A) (A) (A)
                 (A) (A) (A) (A) (A) (A) (A) (A) (A) (A) (A) (A)
                 (A) (A) (A) (A) (A) (A) (A) (A) (A) (A) (A) (A)
                 (A) (A) (A) (A) (A) (A) (A) (A) (A) (A) (A) (A)
                 (A) (A) (A) (A) (A) (A) (A) (A) (A) (A) (A) (A)
                 (A) (A) (A) (A) (A) (A) (A) (A) (A) (A) (A) (A)
                 (A) (A) (A) (A) (A) (A) (A) (A) (A) (A) (A) (A)
                 (A) (A) (A) (A) (A) (A) (A) (A) (A) (A) (A) (A)
                 (A) (A) (A) (A) (A) (A) (A) (A) (A) (A) (A) (A)
                 (A) (A) (A) (A) (A) (A) (A) (A) (A) (A) (A) (A)
                 (A) (A) (A) (A) (A) (A) (A) (A) (A) (A) (A) (A)
                 (A) (A) (A) (A) (A) (A) (A) (A) (A) (A) (A) (A)
                 (A) (A) (A) (A) (A) (A) (A) (A) (A) (A) (A) (A)
                 (A) (A) (A) (A) (A) (A) (A) (A) (A) (A) (A) (A)
                 (A) (A) (A) (A) (A) (A) (A) (A) (A) (A) (A) (A)
                 (A) (A) (A) (A) (A) (A) (A) (A) (A) (A) (A) (A)
                 (A) (A) (A) (A) (A) (A) (A) (A) (A) (A) (A) (A)
                 (A) (A) (A) (A) (A) (A) (A) (A) (A) (A) (A) (A)
                 (A) (A) (A) (A) (A) (A) (A) (A) (A) (A) (A) (A)
                 (A) (A) (A) (A) (A) (A) (A) (A) (A) (A) (A) (A)
                 (A) (A) (A) (A) (A) (A) (A) (A) (A) (A) (A) (A)
                 (A) (A) (A) (A) (A) (A) (A) (A) (A) (A) (A) (A)
                 (A) (A) (A) (A) (A) (A) (A) (A) (A) (A) (A) (A)
                 (A) (A) (A) (A) (A) (A) (A) (A) (A) (A) (A) (A)
                 (A) (A) (A) (A) (A) (A) (A) (A) (A) (A) (A) (A)
                 (A) (A) (A) (A) (A) (A) (A) (A) (A) (A) (A) (A)
                 (A) (A) (A) (A) (A) (A) (A) (A) (A) (A) (A) (A)
                 (A) (A) (A) (A) (A) (A) (A) (A) (A) (A) (A) (A)
                 (A) (A) (A) (A) (A) (A) (A) (A) (A) (A) (A) (A)
                 (A) (A) (A) (A) (A) (A) (A) (A) (A) (A) (A) (A)
                 (A) (A) (A) (A) (A) (A) (A) (A) (A) (A) (A) (A)
                 (A) (A) (A) (A) (A) (A) (A) (A) (A) (A) (A) (A)
                 (A) (A) (A) (A) (A) (A) (A) (A) (A) (A) (A) (A)
                 (A) (A) (A) (A) (A) (A) (A) (A) (A) (A) (A) (A)
                 (A) (A) (A) (A) (A) (A) (A) (A) (A) (A) (A) (A)
                 (A) (A) (A) (A) (A) (A) (A) (A) (A) (A) (A) (A)
                 (A) (A) (A) (A) (A) (A) (A) (A) (A) (A) (A) (A)
                 (A) (A) (A) (A) (A) (A) (A) (A) (A) (A) (A) (A)
                 (A) (A) (A) (A) (A) (A) (A) (A) (A) (A) (A) (A)
                 (A) (A) (A) (A) (A) (A) (A) (A) (A) (A) (A) (A)
                 (A) (A) (A) (A) (A) (A) (A) (A) (A) (A) (A) (A)
                 (A) (A) (A) (A) (A) (A) (A) (A) (A) (A) (A) (A)
                 (A) (A) (A)
 The electronic state is 1-A.
 Alpha  occ. eigenvalues -- -145.46438 -19.19755 -19.15863 -19.13369 -19.12097
 Alpha  occ. eigenvalues --  -19.11226 -19.10206 -19.09766 -19.09497 -19.08903
 Alpha  occ. eigenvalues --  -19.08649 -19.08330 -19.08071 -19.07648 -19.07227
 Alpha  occ. eigenvalues --  -19.07082 -19.06076 -19.05565 -19.05245 -19.05168
 Alpha  occ. eigenvalues --  -19.04766 -19.04152 -18.98439 -18.96596 -15.52357
 Alpha  occ. eigenvalues --  -14.58847 -14.37845 -14.37728 -14.37455 -14.35447
 Alpha  occ. eigenvalues --  -14.34874 -14.34695 -14.34615 -14.34183 -14.32934
 Alpha  occ. eigenvalues --  -14.32599 -14.32209 -14.31555 -14.31499 -14.30679
 Alpha  occ. eigenvalues --  -12.65965 -12.65945 -12.65842 -10.35415 -10.30522
 Alpha  occ. eigenvalues --  -10.29750 -10.28834 -10.28466 -10.27758 -10.27678
 Alpha  occ. eigenvalues --  -10.27403 -10.26940 -10.26772 -10.26641 -10.26103
 Alpha  occ. eigenvalues --  -10.25808 -10.25586 -10.25244 -10.25020 -10.25019
 Alpha  occ. eigenvalues --  -10.24899 -10.24705 -10.24426 -10.24417 -10.24037
 Alpha  occ. eigenvalues --  -10.23931 -10.23483 -10.23009 -10.22774 -10.22522
 Alpha  occ. eigenvalues --  -10.22343 -10.22315 -10.22173 -10.21956 -10.21750
 Alpha  occ. eigenvalues --  -10.20459 -10.19774 -10.19687 -10.19078 -10.18714
 Alpha  occ. eigenvalues --  -10.18713 -10.18701 -10.18661 -10.18629 -10.18433
 Alpha  occ. eigenvalues --  -10.18252 -10.18228 -10.17625 -10.17404 -10.17022
 Alpha  occ. eigenvalues --  -10.16476 -10.16348 -10.16102 -10.15779 -10.14757
 Alpha  occ. eigenvalues --  -10.13618 -10.11645  -1.89034  -1.16619  -1.16327
 Alpha  occ. eigenvalues --   -1.15703  -1.14166  -1.05768  -1.05378  -1.04398
 Alpha  occ. eigenvalues --   -1.04345  -1.03721  -1.03126  -1.02701  -1.02171
 Alpha  occ. eigenvalues --   -1.01900  -1.01608  -1.01596  -1.01308  -1.00944
 Alpha  occ. eigenvalues --   -1.00512  -0.99470  -0.98801  -0.98673  -0.97952
 Alpha  occ. eigenvalues --   -0.97385  -0.94824  -0.94581  -0.93737  -0.93392
 Alpha  occ. eigenvalues --   -0.92830  -0.91965  -0.91437  -0.90686  -0.90657
 Alpha  occ. eigenvalues --   -0.90524  -0.90236  -0.89737  -0.89328  -0.89220
 Alpha  occ. eigenvalues --   -0.88884  -0.87586  -0.87337  -0.86839  -0.84507
 Alpha  occ. eigenvalues --   -0.82393  -0.82096  -0.81601  -0.80141  -0.79849
 Alpha  occ. eigenvalues --   -0.78340  -0.77960  -0.76691  -0.76320  -0.75110
 Alpha  occ. eigenvalues --   -0.74650  -0.74048  -0.73945  -0.73583  -0.73216
 Alpha  occ. eigenvalues --   -0.72970  -0.72004  -0.71851  -0.70707  -0.70462
 Alpha  occ. eigenvalues --   -0.69514  -0.69093  -0.68717  -0.68471  -0.67618
 Alpha  occ. eigenvalues --   -0.66787  -0.66674  -0.65677  -0.64820  -0.64690
 Alpha  occ. eigenvalues --   -0.63300  -0.62984  -0.62191  -0.61733  -0.61451
 Alpha  occ. eigenvalues --   -0.61120  -0.60677  -0.60306  -0.60096  -0.59341
 Alpha  occ. eigenvalues --   -0.58970  -0.58796  -0.58628  -0.57956  -0.57920
 Alpha  occ. eigenvalues --   -0.57664  -0.57428  -0.57264  -0.56826  -0.56800
 Alpha  occ. eigenvalues --   -0.56119  -0.55994  -0.55464  -0.55053  -0.54751
 Alpha  occ. eigenvalues --   -0.54171  -0.54112  -0.53624  -0.53290  -0.53049
 Alpha  occ. eigenvalues --   -0.52901  -0.52198  -0.51989  -0.51762  -0.51446
 Alpha  occ. eigenvalues --   -0.51419  -0.50635  -0.50584  -0.50358  -0.50303
 Alpha  occ. eigenvalues --   -0.49720  -0.49091  -0.48973  -0.48418  -0.48111
 Alpha  occ. eigenvalues --   -0.47833  -0.47775  -0.47501  -0.47444  -0.47056
 Alpha  occ. eigenvalues --   -0.46989  -0.46389  -0.46294  -0.46021  -0.45852
 Alpha  occ. eigenvalues --   -0.45657  -0.45573  -0.45116  -0.44937  -0.44759
 Alpha  occ. eigenvalues --   -0.44738  -0.44653  -0.44386  -0.44215  -0.44059
 Alpha  occ. eigenvalues --   -0.43893  -0.43715  -0.43593  -0.43493  -0.43330
 Alpha  occ. eigenvalues --   -0.43231  -0.43080  -0.42898  -0.42725  -0.42671
 Alpha  occ. eigenvalues --   -0.42490  -0.42242  -0.42229  -0.41931  -0.41795
 Alpha  occ. eigenvalues --   -0.41755  -0.41627  -0.41520  -0.41375  -0.41257
 Alpha  occ. eigenvalues --   -0.41101  -0.41046  -0.40900  -0.40677  -0.40619
 Alpha  occ. eigenvalues --   -0.40514  -0.40197  -0.40042  -0.39901  -0.39742
 Alpha  occ. eigenvalues --   -0.39362  -0.39192  -0.39113  -0.39035  -0.38833
 Alpha  occ. eigenvalues --   -0.38828  -0.38628  -0.38374  -0.38365  -0.38296
 Alpha  occ. eigenvalues --   -0.38038  -0.37908  -0.37722  -0.37419  -0.37228
 Alpha  occ. eigenvalues --   -0.37198  -0.37139  -0.37070  -0.36755  -0.36676
 Alpha  occ. eigenvalues --   -0.36282  -0.36218  -0.36116  -0.36108  -0.35781
 Alpha  occ. eigenvalues --   -0.35772  -0.35642  -0.35433  -0.35342  -0.35270
 Alpha  occ. eigenvalues --   -0.34926  -0.34723  -0.34622  -0.34534  -0.34397
 Alpha  occ. eigenvalues --   -0.34210  -0.34124  -0.33921  -0.33684  -0.33617
 Alpha  occ. eigenvalues --   -0.33567  -0.33079  -0.32917  -0.32661  -0.32653
 Alpha  occ. eigenvalues --   -0.32112  -0.32052  -0.31653  -0.31483  -0.30226
 Alpha  occ. eigenvalues --   -0.29554  -0.29358  -0.29072  -0.28990  -0.28738
 Alpha  occ. eigenvalues --   -0.28727  -0.27481  -0.27379  -0.27280  -0.26659
 Alpha  occ. eigenvalues --   -0.26557  -0.26388  -0.26314  -0.26040  -0.25746
 Alpha  occ. eigenvalues --   -0.25572  -0.25282  -0.25129  -0.25084  -0.25027
 Alpha  occ. eigenvalues --   -0.24752  -0.24646  -0.24224  -0.24063  -0.23857
 Alpha  occ. eigenvalues --   -0.23704  -0.23658  -0.23514  -0.22879  -0.22702
 Alpha  occ. eigenvalues --   -0.22498  -0.22178  -0.22038  -0.21792  -0.21084
 Alpha  occ. eigenvalues --   -0.20939  -0.20533  -0.20180  -0.19927  -0.19840
 Alpha  occ. eigenvalues --   -0.14997  -0.14790  -0.12450
 Alpha virt. eigenvalues --   -0.11465  -0.09852  -0.05116  -0.04848  -0.02925
 Alpha virt. eigenvalues --   -0.01396  -0.01093  -0.00586  -0.00449   0.00312
 Alpha virt. eigenvalues --    0.00340   0.00924   0.01353   0.01515   0.01979
 Alpha virt. eigenvalues --    0.02065   0.02124   0.02294   0.02388   0.02704
 Alpha virt. eigenvalues --    0.02962   0.03280   0.03406   0.03671   0.03788
 Alpha virt. eigenvalues --    0.04585   0.04731   0.04860   0.05191   0.05321
 Alpha virt. eigenvalues --    0.05367   0.05672   0.06065   0.06245   0.06327
 Alpha virt. eigenvalues --    0.06507   0.06693   0.06849   0.07187   0.07303
 Alpha virt. eigenvalues --    0.07443   0.07837   0.08138   0.08360   0.08537
 Alpha virt. eigenvalues --    0.08734   0.08768   0.08999   0.09128   0.09246
 Alpha virt. eigenvalues --    0.09519   0.09875   0.10441   0.10496   0.10592
 Alpha virt. eigenvalues --    0.10759   0.10809   0.11091   0.11452   0.11780
 Alpha virt. eigenvalues --    0.11882   0.12010   0.12171   0.12311   0.12542
 Alpha virt. eigenvalues --    0.12762   0.12912   0.13151   0.13167   0.13198
 Alpha virt. eigenvalues --    0.13294   0.13389   0.13735   0.13832   0.13922
 Alpha virt. eigenvalues --    0.14061   0.14110   0.14242   0.14338   0.14373
 Alpha virt. eigenvalues --    0.14561   0.14732   0.14876   0.15133   0.15211
 Alpha virt. eigenvalues --    0.15427   0.15545   0.15822   0.15956   0.16079
 Alpha virt. eigenvalues --    0.16347   0.16460   0.16528   0.16872   0.17034
 Alpha virt. eigenvalues --    0.17263   0.17475   0.17609   0.17677   0.17870
 Alpha virt. eigenvalues --    0.17931   0.18106   0.18363   0.18434   0.18692
 Alpha virt. eigenvalues --    0.18854   0.19487   0.19768   0.19900   0.20208
 Alpha virt. eigenvalues --    0.20467   0.20632   0.20825   0.21032   0.21330
 Alpha virt. eigenvalues --    0.21697   0.21786   0.22093   0.22189   0.22248
 Alpha virt. eigenvalues --    0.22517   0.22668   0.22952   0.23216   0.23335
 Alpha virt. eigenvalues --    0.23666   0.23735   0.24056   0.24178   0.24363
 Alpha virt. eigenvalues --    0.24481   0.24680   0.24835   0.25208   0.25340
 Alpha virt. eigenvalues --    0.25665   0.25797   0.26145   0.26271   0.26471
 Alpha virt. eigenvalues --    0.26885   0.27196   0.27397   0.27603   0.27952
 Alpha virt. eigenvalues --    0.27984   0.28386   0.28464   0.28645   0.28954
 Alpha virt. eigenvalues --    0.29126   0.29440   0.29816   0.29892   0.30069
 Alpha virt. eigenvalues --    0.30214   0.30536   0.30636   0.30765   0.31019
 Alpha virt. eigenvalues --    0.31046   0.31451   0.31776   0.31910   0.32257
 Alpha virt. eigenvalues --    0.32320   0.32665   0.32868   0.32989   0.33393
 Alpha virt. eigenvalues --    0.33555   0.33827   0.34086   0.34477   0.34792
 Alpha virt. eigenvalues --    0.35066   0.35086   0.35295   0.36040   0.36137
 Alpha virt. eigenvalues --    0.36418   0.36503   0.36913   0.37715   0.37816
 Alpha virt. eigenvalues --    0.37937   0.38480   0.38893   0.39153   0.39354
 Alpha virt. eigenvalues --    0.39659   0.39722   0.40031   0.40502   0.40561
 Alpha virt. eigenvalues --    0.40985   0.41407   0.41587   0.41740   0.41876
 Alpha virt. eigenvalues --    0.41967   0.42003   0.42483   0.42641   0.42855
 Alpha virt. eigenvalues --    0.42976   0.43387   0.43455   0.43653   0.43804
 Alpha virt. eigenvalues --    0.44130   0.44418   0.44439   0.44833   0.45010
 Alpha virt. eigenvalues --    0.45248   0.45453   0.45734   0.46034   0.46234
 Alpha virt. eigenvalues --    0.46448   0.46586   0.46659   0.47026   0.47269
 Alpha virt. eigenvalues --    0.47370   0.47734   0.47963   0.48043   0.48142
 Alpha virt. eigenvalues --    0.48499   0.48697   0.48890   0.49201   0.49213
 Alpha virt. eigenvalues --    0.49300   0.49690   0.49910   0.50018   0.50082
 Alpha virt. eigenvalues --    0.50548   0.50621   0.50753   0.51232   0.51512
 Alpha virt. eigenvalues --    0.51675   0.51957   0.52260   0.52393   0.52703
 Alpha virt. eigenvalues --    0.52843   0.52930   0.53082   0.53272   0.53332
 Alpha virt. eigenvalues --    0.53473   0.53808   0.53971   0.54097   0.54151
 Alpha virt. eigenvalues --    0.54346   0.54373   0.54662   0.54794   0.55099
 Alpha virt. eigenvalues --    0.55167   0.55481   0.55528   0.55705   0.55938
 Alpha virt. eigenvalues --    0.56010   0.56320   0.56617   0.56693   0.56904
 Alpha virt. eigenvalues --    0.56984   0.57415   0.57741   0.57806   0.57936
 Alpha virt. eigenvalues --    0.58226   0.58253   0.58488   0.58602   0.58838
 Alpha virt. eigenvalues --    0.59004   0.59198   0.59258   0.59405   0.59571
 Alpha virt. eigenvalues --    0.59677   0.59737   0.60242   0.60288   0.60459
 Alpha virt. eigenvalues --    0.60532   0.60566   0.60952   0.61123   0.61229
 Alpha virt. eigenvalues --    0.61336   0.61498   0.61643   0.61883   0.61908
 Alpha virt. eigenvalues --    0.61983   0.62044   0.62175   0.62403   0.62548
 Alpha virt. eigenvalues --    0.62583   0.62788   0.62805   0.62886   0.63063
 Alpha virt. eigenvalues --    0.63134   0.63412   0.63561   0.63681   0.63811
 Alpha virt. eigenvalues --    0.63877   0.64037   0.64174   0.64456   0.64515
 Alpha virt. eigenvalues --    0.64621   0.64760   0.64827   0.64909   0.64985
 Alpha virt. eigenvalues --    0.65082   0.65231   0.65244   0.65404   0.65496
 Alpha virt. eigenvalues --    0.65544   0.65732   0.65955   0.66032   0.66083
 Alpha virt. eigenvalues --    0.66258   0.66340   0.66403   0.66491   0.66754
 Alpha virt. eigenvalues --    0.66814   0.66900   0.67161   0.67186   0.67304
 Alpha virt. eigenvalues --    0.67410   0.67547   0.67663   0.67708   0.67811
 Alpha virt. eigenvalues --    0.67909   0.68097   0.68206   0.68258   0.68336
 Alpha virt. eigenvalues --    0.68497   0.68566   0.68678   0.68851   0.68894
 Alpha virt. eigenvalues --    0.68980   0.69068   0.69192   0.69340   0.69559
 Alpha virt. eigenvalues --    0.69646   0.69677   0.69830   0.70081   0.70176
 Alpha virt. eigenvalues --    0.70274   0.70340   0.70625   0.70629   0.70775
 Alpha virt. eigenvalues --    0.71018   0.71039   0.71262   0.71381   0.71678
 Alpha virt. eigenvalues --    0.71690   0.71877   0.71949   0.72116   0.72233
 Alpha virt. eigenvalues --    0.72283   0.72407   0.72650   0.72717   0.72976
 Alpha virt. eigenvalues --    0.73098   0.73345   0.73469   0.73662   0.73785
 Alpha virt. eigenvalues --    0.73980   0.74092   0.74250   0.74331   0.74511
 Alpha virt. eigenvalues --    0.74804   0.74951   0.75174   0.75383   0.75659
 Alpha virt. eigenvalues --    0.75728   0.75919   0.76023   0.76433   0.76580
 Alpha virt. eigenvalues --    0.76682   0.76949   0.77025   0.77426   0.77553
 Alpha virt. eigenvalues --    0.77910   0.78081   0.78336   0.78619   0.78950
 Alpha virt. eigenvalues --    0.79019   0.79087   0.79221   0.79483   0.79649
 Alpha virt. eigenvalues --    0.79877   0.80024   0.80315   0.80507   0.80884
 Alpha virt. eigenvalues --    0.81240   0.81671   0.82006   0.82406   0.82500
 Alpha virt. eigenvalues --    0.82612   0.82994   0.83242   0.83329   0.83480
 Alpha virt. eigenvalues --    0.83792   0.83960   0.84280   0.84474   0.84668
 Alpha virt. eigenvalues --    0.84976   0.85124   0.85163   0.85490   0.86031
 Alpha virt. eigenvalues --    0.86272   0.86376   0.86946   0.87166   0.87320
 Alpha virt. eigenvalues --    0.87648   0.87896   0.88106   0.88844   0.88864
 Alpha virt. eigenvalues --    0.89134   0.89406   0.89588   0.89743   0.89956
 Alpha virt. eigenvalues --    0.90532   0.90711   0.90892   0.91156   0.91216
 Alpha virt. eigenvalues --    0.91474   0.91683   0.92023   0.92346   0.92508
 Alpha virt. eigenvalues --    0.92932   0.93379   0.93896   0.94177   0.94308
 Alpha virt. eigenvalues --    0.94521   0.94981   0.95245   0.95300   0.95716
 Alpha virt. eigenvalues --    0.96093   0.96236   0.96531   0.96848   0.96938
 Alpha virt. eigenvalues --    0.97317   0.97655   0.97857   0.97939   0.98430
 Alpha virt. eigenvalues --    0.99141   0.99367   0.99830   0.99994   1.00361
 Alpha virt. eigenvalues --    1.00642   1.00741   1.01212   1.01477   1.01822
 Alpha virt. eigenvalues --    1.01839   1.02294   1.02402   1.02705   1.02847
 Alpha virt. eigenvalues --    1.03040   1.03278   1.03537   1.03893   1.04103
 Alpha virt. eigenvalues --    1.04364   1.04607   1.04768   1.04857   1.05467
 Alpha virt. eigenvalues --    1.05528   1.05753   1.06088   1.06389   1.06507
 Alpha virt. eigenvalues --    1.06896   1.07006   1.07211   1.07705   1.08037
 Alpha virt. eigenvalues --    1.08337   1.08574   1.08696   1.09161   1.09462
 Alpha virt. eigenvalues --    1.09753   1.10319   1.10584   1.10906   1.11017
 Alpha virt. eigenvalues --    1.11264   1.11567   1.11863   1.11984   1.12022
 Alpha virt. eigenvalues --    1.12341   1.12615   1.12905   1.13209   1.13373
 Alpha virt. eigenvalues --    1.13490   1.13792   1.14163   1.14343   1.14501
 Alpha virt. eigenvalues --    1.14729   1.15067   1.15291   1.15607   1.15972
 Alpha virt. eigenvalues --    1.16495   1.16800   1.16965   1.17221   1.17621
 Alpha virt. eigenvalues --    1.17765   1.17960   1.18377   1.18736   1.19146
 Alpha virt. eigenvalues --    1.19337   1.19793   1.19875   1.20276   1.20778
 Alpha virt. eigenvalues --    1.20790   1.20958   1.21242   1.21501   1.21663
 Alpha virt. eigenvalues --    1.22003   1.22090   1.22632   1.23031   1.23242
 Alpha virt. eigenvalues --    1.23360   1.23781   1.23883   1.24090   1.24398
 Alpha virt. eigenvalues --    1.24507   1.24724   1.24939   1.25289   1.25446
 Alpha virt. eigenvalues --    1.25790   1.25885   1.26034   1.26469   1.26717
 Alpha virt. eigenvalues --    1.27207   1.27413   1.27551   1.27664   1.27907
 Alpha virt. eigenvalues --    1.28097   1.28578   1.28617   1.28739   1.29041
 Alpha virt. eigenvalues --    1.29437   1.29617   1.29830   1.29970   1.30350
 Alpha virt. eigenvalues --    1.30557   1.30684   1.31088   1.31148   1.31353
 Alpha virt. eigenvalues --    1.31800   1.32153   1.32357   1.32542   1.32926
 Alpha virt. eigenvalues --    1.33533   1.33908   1.34172   1.34329   1.34921
 Alpha virt. eigenvalues --    1.35227   1.35450   1.35848   1.36133   1.36160
 Alpha virt. eigenvalues --    1.36770   1.37304   1.37396   1.37690   1.37846
 Alpha virt. eigenvalues --    1.38021   1.38271   1.38588   1.38988   1.39120
 Alpha virt. eigenvalues --    1.39415   1.39827   1.40269   1.40560   1.40682
 Alpha virt. eigenvalues --    1.40864   1.41158   1.41448   1.42431   1.42631
 Alpha virt. eigenvalues --    1.42921   1.43519   1.43724   1.43915   1.44146
 Alpha virt. eigenvalues --    1.44366   1.44823   1.44970   1.45159   1.45584
 Alpha virt. eigenvalues --    1.45716   1.45911   1.46266   1.46450   1.47027
 Alpha virt. eigenvalues --    1.47252   1.47551   1.47857   1.48196   1.48361
 Alpha virt. eigenvalues --    1.48711   1.49276   1.49724   1.49985   1.50305
 Alpha virt. eigenvalues --    1.50627   1.51048   1.51186   1.51764   1.51786
 Alpha virt. eigenvalues --    1.52090   1.52256   1.52370   1.52808   1.52891
 Alpha virt. eigenvalues --    1.53035   1.53614   1.54215   1.54618   1.54816
 Alpha virt. eigenvalues --    1.55047   1.55402   1.55626   1.55964   1.56182
 Alpha virt. eigenvalues --    1.57141   1.57274   1.57498   1.57708   1.59097
 Alpha virt. eigenvalues --    1.59269   1.59487   1.59663   1.60175   1.60586
 Alpha virt. eigenvalues --    1.60730   1.60934   1.61050   1.61106   1.61188
 Alpha virt. eigenvalues --    1.61475   1.62194   1.62362   1.62407   1.62791
 Alpha virt. eigenvalues --    1.63003   1.63381   1.64082   1.64222   1.64660
 Alpha virt. eigenvalues --    1.64735   1.65058   1.65495   1.65800   1.66485
 Alpha virt. eigenvalues --    1.66654   1.66699   1.66971   1.67604   1.67641
 Alpha virt. eigenvalues --    1.67736   1.67980   1.68305   1.68736   1.68845
 Alpha virt. eigenvalues --    1.69104   1.69316   1.69476   1.69626   1.69931
 Alpha virt. eigenvalues --    1.70257   1.70556   1.70671   1.71120   1.71433
 Alpha virt. eigenvalues --    1.71630   1.71950   1.72192   1.72522   1.72775
 Alpha virt. eigenvalues --    1.72795   1.73041   1.73442   1.73822   1.73931
 Alpha virt. eigenvalues --    1.74136   1.74336   1.74666   1.74803   1.75105
 Alpha virt. eigenvalues --    1.75217   1.75409   1.75556   1.75819   1.75943
 Alpha virt. eigenvalues --    1.76016   1.76227   1.76300   1.76434   1.76506
 Alpha virt. eigenvalues --    1.76543   1.76766   1.77026   1.77308   1.77449
 Alpha virt. eigenvalues --    1.77618   1.77895   1.77956   1.78193   1.78305
 Alpha virt. eigenvalues --    1.78382   1.78693   1.78840   1.79013   1.79156
 Alpha virt. eigenvalues --    1.79285   1.79603   1.79648   1.79714   1.80085
 Alpha virt. eigenvalues --    1.80153   1.80229   1.80495   1.80693   1.80994
 Alpha virt. eigenvalues --    1.81287   1.81362   1.81560   1.81734   1.81750
 Alpha virt. eigenvalues --    1.81904   1.82001   1.82106   1.82536   1.82648
 Alpha virt. eigenvalues --    1.82787   1.82941   1.83017   1.83281   1.83694
 Alpha virt. eigenvalues --    1.83881   1.84042   1.84160   1.84467   1.84573
 Alpha virt. eigenvalues --    1.84911   1.85193   1.85397   1.85472   1.85611
 Alpha virt. eigenvalues --    1.85841   1.86057   1.86211   1.86354   1.86447
 Alpha virt. eigenvalues --    1.86773   1.86840   1.87053   1.87135   1.87410
 Alpha virt. eigenvalues --    1.88071   1.88213   1.88478   1.88651   1.88741
 Alpha virt. eigenvalues --    1.88988   1.89094   1.89136   1.89224   1.89336
 Alpha virt. eigenvalues --    1.89799   1.90070   1.90441   1.90679   1.90950
 Alpha virt. eigenvalues --    1.91269   1.91439   1.91655   1.91881   1.91995
 Alpha virt. eigenvalues --    1.92163   1.92530   1.92732   1.93104   1.93310
 Alpha virt. eigenvalues --    1.93566   1.93657   1.93788   1.94039   1.94064
 Alpha virt. eigenvalues --    1.94390   1.94544   1.94594   1.95025   1.95058
 Alpha virt. eigenvalues --    1.95510   1.96147   1.96196   1.96249   1.96526
 Alpha virt. eigenvalues --    1.96635   1.97071   1.97108   1.97198   1.97311
 Alpha virt. eigenvalues --    1.97655   1.97790   1.97989   1.98276   1.98458
 Alpha virt. eigenvalues --    1.98488   1.99177   1.99442   1.99518   1.99869
 Alpha virt. eigenvalues --    2.00131   2.00222   2.00514   2.00682   2.00910
 Alpha virt. eigenvalues --    2.01040   2.01218   2.01695   2.01954   2.02554
 Alpha virt. eigenvalues --    2.02639   2.02850   2.03244   2.03312   2.03803
 Alpha virt. eigenvalues --    2.03871   2.04089   2.04224   2.04430   2.04714
 Alpha virt. eigenvalues --    2.04938   2.05080   2.05421   2.05611   2.05948
 Alpha virt. eigenvalues --    2.06054   2.06146   2.06422   2.06739   2.07070
 Alpha virt. eigenvalues --    2.07156   2.07347   2.07592   2.07684   2.08121
 Alpha virt. eigenvalues --    2.08458   2.08538   2.09009   2.09509   2.09893
 Alpha virt. eigenvalues --    2.10153   2.10491   2.10747   2.10820   2.11147
 Alpha virt. eigenvalues --    2.11633   2.11838   2.11984   2.12377   2.12383
 Alpha virt. eigenvalues --    2.12757   2.12839   2.13251   2.13299   2.13464
 Alpha virt. eigenvalues --    2.13545   2.13914   2.14103   2.14500   2.14515
 Alpha virt. eigenvalues --    2.14707   2.15184   2.15350   2.15441   2.15528
 Alpha virt. eigenvalues --    2.15871   2.16498   2.16664   2.16894   2.17063
 Alpha virt. eigenvalues --    2.17602   2.17847   2.17959   2.18457   2.18663
 Alpha virt. eigenvalues --    2.18876   2.19359   2.19801   2.20101   2.20357
 Alpha virt. eigenvalues --    2.20725   2.21209   2.21287   2.21693   2.22016
 Alpha virt. eigenvalues --    2.22064   2.22378   2.22670   2.23026   2.23105
 Alpha virt. eigenvalues --    2.23923   2.24176   2.24226   2.24740   2.24804
 Alpha virt. eigenvalues --    2.24974   2.25412   2.26194   2.26540   2.26785
 Alpha virt. eigenvalues --    2.26899   2.27347   2.27858   2.28286   2.28749
 Alpha virt. eigenvalues --    2.28921   2.29403   2.29558   2.29821   2.29990
 Alpha virt. eigenvalues --    2.30282   2.30667   2.30955   2.31055   2.31088
 Alpha virt. eigenvalues --    2.31542   2.31572   2.32285   2.32463   2.32939
 Alpha virt. eigenvalues --    2.33194   2.33448   2.33602   2.34298   2.34497
 Alpha virt. eigenvalues --    2.34847   2.35369   2.35589   2.36249   2.36553
 Alpha virt. eigenvalues --    2.36660   2.37152   2.37395   2.37674   2.38088
 Alpha virt. eigenvalues --    2.38415   2.38476   2.38877   2.39021   2.39256
 Alpha virt. eigenvalues --    2.39376   2.39812   2.40510   2.40761   2.40892
 Alpha virt. eigenvalues --    2.41403   2.41806   2.41923   2.42168   2.42398
 Alpha virt. eigenvalues --    2.42642   2.43216   2.43666   2.44218   2.44611
 Alpha virt. eigenvalues --    2.44697   2.45067   2.45308   2.45467   2.45973
 Alpha virt. eigenvalues --    2.46727   2.46765   2.47364   2.47568   2.48085
 Alpha virt. eigenvalues --    2.48643   2.48859   2.49114   2.49235   2.50061
 Alpha virt. eigenvalues --    2.50741   2.50912   2.50958   2.51491   2.51883
 Alpha virt. eigenvalues --    2.52189   2.52266   2.52709   2.53182   2.53292
 Alpha virt. eigenvalues --    2.53647   2.54344   2.54808   2.54846   2.55120
 Alpha virt. eigenvalues --    2.55572   2.55863   2.56186   2.56400   2.56908
 Alpha virt. eigenvalues --    2.57329   2.57704   2.58297   2.59196   2.59569
 Alpha virt. eigenvalues --    2.59615   2.59853   2.60594   2.60967   2.61147
 Alpha virt. eigenvalues --    2.61317   2.61656   2.61882   2.61981   2.62132
 Alpha virt. eigenvalues --    2.62221   2.62307   2.62766   2.62976   2.63133
 Alpha virt. eigenvalues --    2.63529   2.63772   2.63938   2.64229   2.64815
 Alpha virt. eigenvalues --    2.64880   2.65047   2.65339   2.65437   2.65786
 Alpha virt. eigenvalues --    2.65936   2.66050   2.66397   2.66942   2.67173
 Alpha virt. eigenvalues --    2.67790   2.68513   2.68879   2.69099   2.69180
 Alpha virt. eigenvalues --    2.69303   2.69515   2.69572   2.69830   2.70041
 Alpha virt. eigenvalues --    2.71929   2.72349   2.72662   2.72755   2.72960
 Alpha virt. eigenvalues --    2.73033   2.73576   2.73662   2.74154   2.74521
 Alpha virt. eigenvalues --    2.74848   2.75336   2.75624   2.75681   2.75919
 Alpha virt. eigenvalues --    2.76055   2.76201   2.76500   2.76752   2.77265
 Alpha virt. eigenvalues --    2.77448   2.77497   2.77744   2.78143   2.78329
 Alpha virt. eigenvalues --    2.78480   2.78548   2.78971   2.79214   2.79354
 Alpha virt. eigenvalues --    2.79555   2.79625   2.79779   2.80176   2.80519
 Alpha virt. eigenvalues --    2.80738   2.80850   2.81054   2.81408   2.81689
 Alpha virt. eigenvalues --    2.81808   2.81832   2.82098   2.82515   2.83214
 Alpha virt. eigenvalues --    2.83678   2.83870   2.84344   2.84772   2.84986
 Alpha virt. eigenvalues --    2.85136   2.85428   2.85937   2.86296   2.86533
 Alpha virt. eigenvalues --    2.86999   2.87252   2.87581   2.88001   2.88251
 Alpha virt. eigenvalues --    2.88472   2.88734   2.89055   2.89156   2.89291
 Alpha virt. eigenvalues --    2.89408   2.89679   2.89826   2.89994   2.90469
 Alpha virt. eigenvalues --    2.91234   2.91411   2.91513   2.91635   2.92104
 Alpha virt. eigenvalues --    2.92498   2.93326   2.93402   2.93410   2.93623
 Alpha virt. eigenvalues --    2.93955   2.94349   2.94460   2.94512   2.94712
 Alpha virt. eigenvalues --    2.94809   2.95086   2.95254   2.95525   2.96207
 Alpha virt. eigenvalues --    2.96352   2.96812   2.96938   2.97670   2.97685
 Alpha virt. eigenvalues --    2.98110   2.98498   2.98880   2.99262   2.99296
 Alpha virt. eigenvalues --    2.99706   2.99809   3.00133   3.00453   3.01372
 Alpha virt. eigenvalues --    3.01993   3.02016   3.02074   3.02358   3.02391
 Alpha virt. eigenvalues --    3.03028   3.03283   3.03873   3.04323   3.04698
 Alpha virt. eigenvalues --    3.05213   3.05455   3.06006   3.07229   3.07604
 Alpha virt. eigenvalues --    3.08125   3.08139   3.08612   3.09317   3.09617
 Alpha virt. eigenvalues --    3.09942   3.10232   3.10415   3.10735   3.11607
 Alpha virt. eigenvalues --    3.12206   3.12636   3.12998   3.13527   3.13877
 Alpha virt. eigenvalues --    3.14111   3.14251   3.14416   3.15185   3.15503
 Alpha virt. eigenvalues --    3.15594   3.15825   3.16201   3.16587   3.16821
 Alpha virt. eigenvalues --    3.16970   3.17508   3.18220   3.18453   3.18857
 Alpha virt. eigenvalues --    3.18944   3.19181   3.19749   3.19914   3.20802
 Alpha virt. eigenvalues --    3.20979   3.21607   3.21772   3.22056   3.22148
 Alpha virt. eigenvalues --    3.22450   3.22765   3.23212   3.23357   3.23560
 Alpha virt. eigenvalues --    3.23983   3.24338   3.25048   3.25725   3.26560
 Alpha virt. eigenvalues --    3.27324   3.27768   3.28642   3.29776   3.32188
 Alpha virt. eigenvalues --    3.32927   3.33553   3.33588   3.35229   3.37251
 Alpha virt. eigenvalues --    3.37939   3.38250   3.38592   3.39138   3.39645
 Alpha virt. eigenvalues --    3.40122   3.43225   3.43625   3.45402   3.49799
 Alpha virt. eigenvalues --    3.51003   3.52231   3.52646   3.53906   3.54516
 Alpha virt. eigenvalues --    3.55387   3.56364   3.57976   3.58111   3.58590
 Alpha virt. eigenvalues --    3.59450   3.59723   3.60300   3.60735   3.62445
 Alpha virt. eigenvalues --    3.63211   3.63496   3.66421   3.66520   3.68243
 Alpha virt. eigenvalues --    3.68478   3.68686   3.68741   3.68809   3.69651
 Alpha virt. eigenvalues --    3.70128   3.70274   3.70319   3.71742   3.72241
 Alpha virt. eigenvalues --    3.72585   3.73483   3.73791   3.74672   3.75086
 Alpha virt. eigenvalues --    3.77629   3.80163   3.80954   3.81983
          Condensed to atoms (all electrons):
 Mulliken charges:
               1
     1  C    0.072371
     2  C   -0.018790
     3  O   -0.318768
     4  H    0.013922
     5  H   -0.010792
     6  H    0.031956
     7  N   -0.114790
     8  C    0.168197
     9  C    0.081935
    10  O   -0.312831
    11  C    0.009109
    12  C    0.067827
    13  O   -0.343630
    14  O   -0.397763
    15  H    0.113641
    16  H   -0.007046
    17  H    0.017628
    18  H    0.001869
    19  N   -0.115144
    20  C    0.072709
    21  C    0.117685
    22  O   -0.271643
    23  C    0.097762
    24  C   -0.056413
    25  C    0.028054
    26  C    0.008527
    27  N    0.114606
    28  H    0.119988
    29  H   -0.019838
    30  H   -0.007823
    31  H    0.026479
    32  H    0.033508
    33  H   -0.006583
    34  H    0.007469
    35  H    0.040073
    36  H    0.067937
    37  H    0.045330
    38  H    0.153046
    39  H    0.166314
    40  H    0.166411
    41  N   -0.179420
    42  C    0.139108
    43  C    0.071884
    44  O   -0.290144
    45  C    0.111807
    46  C    0.089764
    47  O   -0.407628
    48  O   -0.476858
    49  H    0.143642
    50  H    0.048948
    51  H    0.015348
    52  H    0.035203
    53  N   -0.116843
    54  C    0.176713
    55  C    0.009770
    56  O   -0.234022
    57  H    0.138543
    58  H    0.046970
    59  H   -0.008610
    60  N   -0.117561
    61  C    0.020534
    62  C    0.095160
    63  O   -0.268538
    64  C    0.138822
    65  C   -0.000011
    66  N   -0.061038
    67  O   -0.257425
    68  H    0.137752
    69  H    0.031388
    70  H    0.015641
    71  H    0.027607
    72  H    0.119253
    73  H    0.112214
    74  N   -0.122814
    75  C    0.187570
    76  C    0.045209
    77  O   -0.284801
    78  H    0.126018
    79  H    0.036659
    80  H    0.044980
    81  N   -0.101889
    82  C    0.140637
    83  C    0.079584
    84  O   -0.264280
    85  C    0.106916
    86  C   -0.031038
    87  C    0.020426
    88  C    0.007147
    89  C   -0.013301
    90  C   -0.053890
    91  C    0.171559
    92  O   -0.202859
    93  H    0.112183
    94  H    0.006453
    95  H   -0.020543
    96  H    0.016729
    97  H   -0.019419
    98  H   -0.056038
    99  H   -0.020277
   100  H   -0.041879
   101  H    0.175072
   102  N   -0.130708
   103  C    0.115310
   104  C    0.124290
   105  O   -0.258924
   106  C   -0.065326
   107  C   -0.001663
   108  C    0.045654
   109  C    0.021774
   110  H    0.120163
   111  H   -0.018042
   112  H   -0.026537
   113  H    0.021923
   114  H   -0.011318
   115  H   -0.012855
   116  H    0.015097
   117  H    0.034856
   118  H    0.010793
   119  H   -0.001157
   120  H    0.022223
   121  N   -0.148914
   122  C   -0.049329
   123  C    0.130027
   124  O   -0.262592
   125  C    0.321783
   126  O   -0.320198
   127  H    0.135425
   128  H    0.014204
   129  H    0.031699
   130  H   -0.034846
   131  H    0.155818
   132  N   -0.125200
   133  C    0.046535
   134  C    0.057445
   135  O   -0.274613
   136  C    0.073677
   137  H    0.117428
   138  H   -0.007251
   139  H    0.025620
   140  H    0.035931
   141  H    0.020452
   142  N   -0.137337
   143  C    0.044167
   144  C    0.063920
   145  O   -0.263988
   146  C    0.071362
   147  H    0.119475
   148  H    0.012788
   149  H    0.020838
   150  H   -0.001077
   151  H    0.039507
   152  N   -0.118335
   153  C    0.117946
   154  C    0.045626
   155  O   -0.261768
   156  C    0.029773
   157  C    0.114704
   158  C    0.104927
   159  O   -0.399332
   160  O   -0.454245
   161  H    0.128058
   162  H    0.020423
   163  H   -0.014819
   164  H    0.014022
   165  H    0.000338
   166  H   -0.005389
   167  N   -0.157406
   168  C    0.130670
   169  H    0.033638
   170  H    0.032809
   171  H    0.008233
   172  H    0.101681
   173  Ca   1.327123
   174  O   -0.284718
   175  H    0.159718
   176  H    0.213430
 Sum of Mulliken charges =  -0.00000
 Mulliken charges with hydrogens summed into heavy atoms:
               1
     1  C    0.107458
     2  C   -0.018790
     3  O   -0.318768
     7  N   -0.001149
     8  C    0.161151
     9  C    0.081935
    10  O   -0.312831
    11  C    0.028605
    12  C    0.067827
    13  O   -0.343630
    14  O   -0.397763
    19  N    0.004844
    20  C    0.052870
    21  C    0.117685
    22  O   -0.271643
    23  C    0.116418
    24  C   -0.029487
    25  C    0.075595
    26  C    0.121795
    27  N    0.600377
    41  N   -0.035778
    42  C    0.188056
    43  C    0.071884
    44  O   -0.290144
    45  C    0.162358
    46  C    0.089764
    47  O   -0.407628
    48  O   -0.476858
    53  N    0.021700
    54  C    0.215073
    55  C    0.009770
    56  O   -0.234022
    60  N    0.020192
    61  C    0.051922
    62  C    0.095160
    63  O   -0.268538
    64  C    0.182069
    65  C   -0.000011
    66  N    0.170429
    67  O   -0.257425
    74  N    0.003204
    75  C    0.269208
    76  C    0.045209
    77  O   -0.284801
    81  N    0.010294
    82  C    0.147090
    83  C    0.079584
    84  O   -0.264280
    85  C    0.103102
    86  C   -0.031038
    87  C    0.001007
    88  C   -0.048890
    89  C   -0.033578
    90  C   -0.095769
    91  C    0.171559
    92  O   -0.027787
   102  N   -0.010545
   103  C    0.097268
   104  C    0.124290
   105  O   -0.258924
   106  C   -0.091863
   107  C    0.008942
   108  C    0.082751
   109  C    0.053633
   121  N   -0.013489
   122  C   -0.035126
   123  C    0.130027
   124  O   -0.262592
   125  C    0.318636
   126  O   -0.164380
   132  N   -0.007772
   133  C    0.039284
   134  C    0.057445
   135  O   -0.274613
   136  C    0.155679
   142  N   -0.017862
   143  C    0.056955
   144  C    0.063920
   145  O   -0.263988
   146  C    0.130630
   152  N    0.009724
   153  C    0.138369
   154  C    0.045626
   155  O   -0.261768
   156  C    0.028976
   157  C    0.109653
   158  C    0.104927
   159  O   -0.399332
   160  O   -0.454245
   167  N   -0.055725
   168  C    0.205350
   173  Ca   1.327123
   174  O    0.088429
 DipInt: DoE/N= T F RetVal/Mat= T F Init=T NMatP=  1 IDeriv=0 Min/MaxMlt=  0  4
 Entering OneElI...
 OneElI was handed  1333951383 working-precision words.
 Multipole integrals L=0 to 4 MinM= 0 MaxM= 0.
 Requested accuracy = 0.1000D-12
 ShPair: Thresh= 1.00D-13 NBox=     0 BxSize= 0.00D+00 RnKept= 3.27D+01
         NSMCal=               327645 NSMKep=              135522
 PrmmSu-InSpLW:  IPartL=    0 NPrtUS=    1 NPrtUL=    1 DoSpLW=F IThBeg=    0 IThEnd=    0 NThAct=    1.
 PrsmSu:  NPrtUS=   1 ThrOK=F IAlg=1 NPAlg=1 LenDen=           0 ISkipM=0 DoSpLW=F IThBeg=    0 IThEnd=    0.
 Prism:   IPart=     0 DynPar=F LinDyn=F Incr=         512.
 PRISM was handed  1324858359 working-precision words and135522 shell-pairs
 IPart=  0 NShTot=      135522 NBatch=         314 AvBLen=       431.6
 PrsmSu-ThDecC:  IPartSL=    0    0 NPrtUSL=    1    1 IThBeg=    0 IThEnd=    0 CPU=   -1 GPU=   -1 NThAct=    1.
 PrSmSu:  NxtVal=            513.
 Electronic moments (au):
       -716.00000000          0.03668682        -16.05055095          2.95247970
     -57672.55512752     -47405.07508244     -16150.70328690       -207.04771047
         48.06899563         24.75548307    -116681.55601369     -10405.86503090
     -22666.91655301     170309.83863558      78459.40434247     -45073.77743816
       -152.24588495     -31135.87088195     -63741.80654927      44383.30418091
   -8357845.80775893   -6560194.69411508    -935776.72555858     364803.83190350
    -600420.78041907     461489.07411235    -300466.67695655      47074.10274215
     -74294.36167730   -3862188.12537317   -1243699.21743558   -1140821.42473966
    -513869.59820485     636699.50199676     201246.14975091
 Electronic spatial extent (au):  <R**2>=         121228.3335
 DipInt: DoE/N= F T RetVal/Mat= T F Init=T NMatP=  1 IDeriv=0 Min/MaxMlt=  0  4
 Nuclear    moments (au):
        716.00000000          0.00000000          0.00000000         -0.00000000
      57361.65492925      47123.64158231      15714.54092937          0.00000000
          0.00000000          0.00000000     117379.53195177       9367.79984752
      22801.52689812    -168888.87259111     -82883.14136936      46137.49750996
        222.63341840      30633.37657502      64360.86889768     -45035.47113898
    8191627.38764919    6427229.97374119     877768.65613523    -411978.97927356
     616834.70598372    -497255.33405728     305462.65267653     -46267.82230102
      76727.05366694    3838641.81895548    1203334.71216150    1106245.43601922
     503523.61147853    -631370.82552707    -202155.98083040
 Total      moments (au):
         -0.00000000          0.03668682        -16.05055095          2.95247970
       -310.90019826       -281.43350013       -436.16235753       -207.04771047
         48.06899563         24.75548307        697.97593807      -1038.06518338
        134.61034511       1420.96604447      -4423.73702688       1063.72007180
         70.38753346       -502.49430692        619.06234842       -652.16695807
    -166218.42010975    -132964.72037389     -58008.06942335     -47175.14737005
      16413.92556465     -35766.25994493       4995.97571998        806.28044113
       2432.69198963     -23546.30641769     -40364.50527407     -34575.98872045
     -10345.98672632       5328.67646969       -909.83107949
 Traceless Quadrup. (au):
         31.93182038         61.39851851        -93.33033889       -207.04771047
         48.06899563         24.75548307
 Charge=             -0.0000 electrons
 Dipole moment (field-independent basis, Debye):
    X=              0.0932    Y=            -40.7964    Z=              7.5045  Tot=             41.4810
 Quadrupole moment (field-independent basis, Debye-Ang):
   XX=           -418.1714   YY=           -378.5377   ZZ=           -586.6533
   XY=           -278.4863   XZ=             64.6544   YZ=             33.2970
 Traceless Quadrupole moment (field-independent basis, Debye-Ang):
   XX=             42.9494   YY=             82.5831   ZZ=           -125.5325
   XY=           -278.4863   XZ=             64.6544   YZ=             33.2970
 Octapole moment (field-independent basis, Debye-Ang**2):
  XXX=            496.7924  YYY=           -738.8548  ZZZ=             95.8105  XYY=           1011.3889
  XXY=          -3148.6456  XXZ=            757.1150  XZZ=             50.0991  YZZ=           -357.6561
  YYZ=            440.6247  XYZ=           -464.1873
 Hexadecapole moment (field-independent basis, Debye-Ang**3):
 XXXX=         -62605.8275 YYYY=         -50080.8896 ZZZZ=         -21848.6205 XXXY=         -17768.4226
 XXXZ=           6182.2714 YYYX=         -13471.2885 YYYZ=           1881.7240 ZZZX=            303.6839
 ZZZY=            916.2685 XXYY=          -8868.6681 XXZZ=         -15203.2082 YYZZ=         -13022.9753
 XXYZ=          -3896.7947 YYXZ=           2007.0351 ZZXY=           -342.6860
 N-N= 1.975865060053D+04 E-N=-5.200011662741D+04  KE= 5.290555166532D+03
 Leave Link  601 at Wed Sep 18 17:41:49 2019, MaxMem=  1342177280 cpu:              40.4 elap:               1.0
 FitSet:  NAtFit=   176 NAtPot=   176 NAtFrz=     0 MDM=   180 TotChg=   0.00000
 Merz-Kollman atomic radii used.
 Read replacement radii for each type of atom:
 Rad(20) =   1.700000000000D+00
 Atom Element Radius
    1     6    1.50
    2     6    1.50
    3     8    1.40
    4     1    1.20
    5     1    1.20
    6     1    1.20
    7     7    1.50
    8     6    1.50
    9     6    1.50
   10     8    1.40
   11     6    1.50
   12     6    1.50
   13     8    1.40
   14     8    1.40
   15     1    1.20
   16     1    1.20
   17     1    1.20
   18     1    1.20
   19     7    1.50
   20     6    1.50
   21     6    1.50
   22     8    1.40
   23     6    1.50
   24     6    1.50
   25     6    1.50
   26     6    1.50
   27     7    1.50
   28     1    1.20
   29     1    1.20
   30     1    1.20
   31     1    1.20
   32     1    1.20
   33     1    1.20
   34     1    1.20
   35     1    1.20
   36     1    1.20
   37     1    1.20
   38     1    1.20
   39     1    1.20
   40     1    1.20
   41     7    1.50
   42     6    1.50
   43     6    1.50
   44     8    1.40
   45     6    1.50
   46     6    1.50
   47     8    1.40
   48     8    1.40
   49     1    1.20
   50     1    1.20
   51     1    1.20
   52     1    1.20
   53     7    1.50
   54     6    1.50
   55     6    1.50
   56     8    1.40
   57     1    1.20
   58     1    1.20
   59     1    1.20
   60     7    1.50
   61     6    1.50
   62     6    1.50
   63     8    1.40
   64     6    1.50
   65     6    1.50
   66     7    1.50
   67     8    1.40
   68     1    1.20
   69     1    1.20
   70     1    1.20
   71     1    1.20
   72     1    1.20
   73     1    1.20
   74     7    1.50
   75     6    1.50
   76     6    1.50
   77     8    1.40
   78     1    1.20
   79     1    1.20
   80     1    1.20
   81     7    1.50
   82     6    1.50
   83     6    1.50
   84     8    1.40
   85     6    1.50
   86     6    1.50
   87     6    1.50
   88     6    1.50
   89     6    1.50
   90     6    1.50
   91     6    1.50
   92     8    1.40
   93     1    1.20
   94     1    1.20
   95     1    1.20
   96     1    1.20
   97     1    1.20
   98     1    1.20
   99     1    1.20
  100     1    1.20
  101     1    1.20
  102     7    1.50
  103     6    1.50
  104     6    1.50
  105     8    1.40
  106     6    1.50
  107     6    1.50
  108     6    1.50
  109     6    1.50
  110     1    1.20
  111     1    1.20
  112     1    1.20
  113     1    1.20
  114     1    1.20
  115     1    1.20
  116     1    1.20
  117     1    1.20
  118     1    1.20
  119     1    1.20
  120     1    1.20
  121     7    1.50
  122     6    1.50
  123     6    1.50
  124     8    1.40
  125     6    1.50
  126     8    1.40
  127     1    1.20
  128     1    1.20
  129     1    1.20
  130     1    1.20
  131     1    1.20
  132     7    1.50
  133     6    1.50
  134     6    1.50
  135     8    1.40
  136     6    1.50
  137     1    1.20
  138     1    1.20
  139     1    1.20
  140     1    1.20
  141     1    1.20
  142     7    1.50
  143     6    1.50
  144     6    1.50
[...]
 **** Fit      -0.011580
 **** Fit      -0.009934
 **** Fit      -0.008249
 **** Fit      -0.006544
 **** Fit      -0.004831
 **** Fit      -0.003126
 **** Fit      -0.001443
 **** Fit       0.000213
 **** Fit       0.001848
 **** Fit       0.003483
 **** Fit       0.005139
 **** Fit      -0.015091
 **** Fit      -0.019904
 **** Fit      -0.017652
 **** Fit      -0.015289
 **** Fit      -0.013024
 **** Fit      -0.010887
 **** Fit      -0.008848
 **** Fit      -0.006873
 **** Fit      -0.004945
 **** Fit      -0.003060
 **** Fit      -0.001214
 **** Fit       0.000606
 **** Fit       0.002425
 **** Fit       0.004278
 **** Fit      -0.021569
 **** Fit      -0.023279
 **** Fit      -0.019643
 **** Fit      -0.016476
 **** Fit      -0.013734
 **** Fit      -0.011291
 **** Fit      -0.009035
 **** Fit      -0.006894
 **** Fit      -0.004826
 **** Fit      -0.002806
 **** Fit      -0.000813
 **** Fit       0.001182
 **** Fit       0.003215
 **** Fit      -0.019920
 **** Fit      -0.016348
 **** Fit      -0.013395
 **** Fit      -0.010816
 **** Fit      -0.008448
 **** Fit      -0.006188
 **** Fit      -0.003975
 **** Fit      -0.001770
 **** Fit       0.000463
 **** Fit       0.002765
 **** Fit      -0.022485
 **** Fit      -0.017952
 **** Fit      -0.014477
 **** Fit      -0.011587
 **** Fit      -0.008983
 **** Fit      -0.006479
 **** Fit      -0.003966
 **** Fit      -0.001383
 **** Fit       0.009829
 **** Fit       0.010724
 **** Fit       0.011361
 **** Fit       0.011628
 **** Fit       0.011499
 **** Fit       0.009307
 **** Fit       0.010379
 **** Fit       0.011368
 **** Fit       0.012151
 **** Fit       0.012638
 **** Fit       0.012776
 **** Fit       0.012560
 **** Fit       0.012037
 **** Fit       0.009158
 **** Fit       0.010331
 **** Fit       0.011484
 **** Fit       0.012512
 **** Fit       0.013326
 **** Fit       0.013855
 **** Fit       0.014052
 **** Fit       0.013899
 **** Fit       0.013416
 **** Fit       0.012663
 **** Fit       0.009099
 **** Fit       0.010319
 **** Fit       0.011560
 **** Fit       0.012743
 **** Fit       0.013789
 **** Fit       0.014628
 **** Fit       0.015200
 **** Fit       0.015460
 **** Fit       0.015385
 **** Fit       0.014974
 **** Fit       0.014257
 **** Fit       0.013299
 **** Fit       0.010017
 **** Fit       0.011352
 **** Fit       0.012696
 **** Fit       0.013978
 **** Fit       0.015122
 **** Fit       0.016056
 **** Fit       0.016713
 **** Fit       0.017044
 **** Fit       0.017015
 **** Fit       0.016618
 **** Fit       0.015866
 **** Fit       0.014804
 **** Fit       0.011228
 **** Fit       0.012626
 **** Fit       0.014041
 **** Fit       0.015405
 **** Fit       0.016642
 **** Fit       0.017671
 **** Fit       0.018423
 **** Fit       0.018842
 **** Fit       0.018886
 **** Fit       0.018538
 **** Fit       0.017797
 **** Fit       0.016687
 **** Fit       0.015262
 **** Fit       0.011872
 **** Fit       0.013271
 **** Fit       0.014750
 **** Fit       0.016250
 **** Fit       0.017685
 **** Fit       0.018964
 **** Fit       0.019998
 **** Fit       0.020711
 **** Fit       0.021042
 **** Fit       0.020953
 **** Fit       0.020426
 **** Fit       0.019459
 **** Fit       0.018068
 **** Fit       0.013931
 **** Fit       0.015392
 **** Fit       0.016999
 **** Fit       0.018659
 **** Fit       0.020249
 **** Fit       0.021644
 **** Fit       0.022727
 **** Fit       0.023399
 **** Fit       0.023592
 **** Fit       0.023265
 **** Fit       0.022403
 **** Fit       0.021000
 **** Fit       0.019061
 **** Fit       0.015922
 **** Fit       0.017198
 **** Fit       0.018801
 **** Fit       0.020611
 **** Fit       0.022450
 **** Fit       0.024130
 **** Fit       0.025471
 **** Fit       0.026321
 **** Fit       0.026577
 **** Fit       0.026187
 **** Fit       0.025132
 **** Fit       0.023386
 **** Fit       0.021425
 **** Fit       0.023162
 **** Fit       0.025133
 **** Fit       0.027051
 **** Fit       0.028640
 **** Fit       0.029667
 **** Fit       0.029979
 **** Fit       0.029517
 **** Fit       0.028272
 **** Fit       0.028277
 **** Fit       0.030365
 **** Fit       0.032195
 **** Fit       0.033331
 **** Fit       0.033513
 **** Fit       0.035871
 **** Fit       0.036804
 **** Fit       0.011364
 **** Fit       0.015000
 **** Fit       0.018947
 **** Fit       0.003964
 **** Fit       0.006628
 **** Fit       0.009852
 **** Fit       0.013657
 **** Fit       0.017903
 **** Fit       0.022352
 **** Fit       0.026701
 **** Fit       0.000604
 **** Fit       0.002446
 **** Fit       0.005205
 **** Fit       0.008943
 **** Fit       0.013494
 **** Fit       0.018565
 **** Fit       0.023801
 **** Fit       0.028813
 **** Fit       0.033163
 **** Fit       0.036378
 **** Fit       0.038058
 **** Fit      -0.001365
 **** Fit       0.001750
 **** Fit       0.006423
 **** Fit       0.012270
 **** Fit       0.018794
 **** Fit       0.025463
 **** Fit       0.031716
 **** Fit       0.014526
 **** Fit       0.023318
 **** Fit       0.053985
 **** Fit       0.065039
 **** Fit       0.074832
 **** Fit       0.045042
 **** Fit       0.055291
 **** Fit       0.064533
 **** Fit       0.072652
 **** Fit       0.079501
 **** Fit       0.084836
 **** Fit       0.040102
 **** Fit       0.049091
 **** Fit       0.057516
 **** Fit       0.065175
 **** Fit       0.071914
 **** Fit       0.077584
 **** Fit       0.081996
 **** Fit       0.084893
 **** Fit       0.085923
 **** Fit       0.084652
 **** Fit       0.080610
 **** Fit       0.036442
 **** Fit       0.043882
 **** Fit       0.051289
 **** Fit       0.058380
 **** Fit       0.064932
 **** Fit       0.070765
 **** Fit       0.075723
 **** Fit       0.079640
 **** Fit       0.082324
 **** Fit       0.083532
 **** Fit       0.082969
 **** Fit       0.080303
 **** Fit       0.075207
 **** Fit       0.067444
 **** Fit       0.056988
 **** Fit       0.019839
 **** Fit       0.023013
 **** Fit       0.026755
 **** Fit       0.031225
 **** Fit       0.036375
 **** Fit       0.042041
 **** Fit       0.048005
 **** Fit       0.054032
 **** Fit       0.059896
 **** Fit       0.065395
 **** Fit       0.070355
 **** Fit       0.074618
 **** Fit       0.078028
 **** Fit       0.080422
 **** Fit       0.081610
 **** Fit       0.081369
 **** Fit       0.079443
 **** Fit       0.075558
 **** Fit       0.069450
 **** Fit       0.060928
 **** Fit       0.049951
 **** Fit       0.024741
 **** Fit       0.028122
 **** Fit       0.031467
 **** Fit       0.035121
 **** Fit       0.039223
 **** Fit       0.043758
 **** Fit       0.048626
 **** Fit       0.053679
 **** Fit       0.058745
 **** Fit       0.063645
 **** Fit       0.068205
 **** Fit       0.072256
 **** Fit       0.075639
 **** Fit       0.078192
 **** Fit       0.079743
 **** Fit       0.080100
 **** Fit       0.079041
 **** Fit       0.076313
 **** Fit       0.071641
 **** Fit       0.064745
 **** Fit       0.055377
 **** Fit       0.043375
 **** Fit      -0.007729
 **** Fit       0.028487
 **** Fit       0.032102
 **** Fit       0.035398
 **** Fit       0.038646
 **** Fit       0.042074
 **** Fit       0.045787
 **** Fit       0.049780
 **** Fit       0.053980
 **** Fit       0.058273
 **** Fit       0.062527
 **** Fit       0.066596
 **** Fit       0.070328
 **** Fit       0.073569
 **** Fit       0.076161
 **** Fit       0.077941
 **** Fit       0.078733
 **** Fit       0.078340
 **** Fit       0.076539
 **** Fit       0.073070
 **** Fit       0.067643
 **** Fit       0.059942
 **** Fit       0.049632
 **** Fit       0.005325
 **** Fit       0.011575
 **** Fit       0.029665
 **** Fit       0.033337
 **** Fit       0.036818
 **** Fit       0.040071
 **** Fit       0.043200
 **** Fit       0.046362
 **** Fit       0.049676
 **** Fit       0.053179
 **** Fit       0.056833
 **** Fit       0.060553
 **** Fit       0.064227
 **** Fit       0.067728
 **** Fit       0.070917
 **** Fit       0.073645
 **** Fit       0.075755
 **** Fit       0.077077
 **** Fit       0.077429
 **** Fit       0.076605
 **** Fit       0.074369
 **** Fit       0.070447
 **** Fit       0.064519
 **** Fit       0.056209
 **** Fit       0.045073
 **** Fit       0.007849
 **** Fit       0.015508
 **** Fit       0.021156
 **** Fit       0.025585
 **** Fit       0.029459
 **** Fit       0.033128
 **** Fit       0.036691
 **** Fit       0.040120
 **** Fit       0.043377
 **** Fit       0.046480
 **** Fit       0.049506
 **** Fit       0.052553
 **** Fit       0.055682
 **** Fit       0.058894
 **** Fit       0.062137
 **** Fit       0.065322
 **** Fit       0.068338
 **** Fit       0.071057
 **** Fit       0.073340
 **** Fit       0.075031
 **** Fit       0.075961
 **** Fit       0.075945
 **** Fit       0.074771
 **** Fit       0.072196
 **** Fit       0.067935
 **** Fit       0.061645
 **** Fit       0.052909
 **** Fit       0.041197
 **** Fit       0.005268
 **** Fit       0.014685
 **** Fit       0.022174
 **** Fit       0.028091
 **** Fit       0.032984
 **** Fit       0.037276
 **** Fit       0.041195
 **** Fit       0.044831
 **** Fit       0.048226
 **** Fit       0.051433
 **** Fit       0.054529
 **** Fit       0.057583
 **** Fit       0.060624
 **** Fit       0.063625
 **** Fit       0.066509
 **** Fit       0.069166
 **** Fit       0.071459
 **** Fit       0.073232
 **** Fit       0.074308
 **** Fit       0.074487
 **** Fit       0.073544
 **** Fit       0.071215
 **** Fit       0.067195
 **** Fit       0.061110
 **** Fit       0.052496
 **** Fit       0.040756
 **** Fit       0.001333
 **** Fit       0.011802
 **** Fit       0.020762
 **** Fit       0.028129
 **** Fit       0.034191
 **** Fit       0.039321
 **** Fit       0.043810
 **** Fit       0.047829
 **** Fit       0.051485
 **** Fit       0.054862
 **** Fit       0.058039
 **** Fit       0.061064
 **** Fit       0.063941
 **** Fit       0.066616
 **** Fit       0.068985
 **** Fit       0.070907
 **** Fit       0.072206
 **** Fit       0.072680
 **** Fit       0.072092
 **** Fit       0.070168
 **** Fit       0.066586
 **** Fit       0.060959
 **** Fit       0.052811
 **** Fit       0.041529
 **** Fit       0.007600
 **** Fit       0.017682
 **** Fit       0.026316
 **** Fit       0.033546
 **** Fit       0.039612
 **** Fit       0.044788
 **** Fit       0.049290
 **** Fit       0.053271
 **** Fit       0.056837
 **** Fit       0.060067
 **** Fit       0.062992
 **** Fit       0.065588
 **** Fit       0.067767
 **** Fit       0.069389
 **** Fit       0.070262
 **** Fit       0.070153
 **** Fit       0.068786
 **** Fit       0.065834
 **** Fit       0.060908
 **** Fit       0.053542
 **** Fit       0.043160
 **** Fit       0.016561
 **** Fit       0.026123
 **** Fit       0.034203
 **** Fit       0.040971
 **** Fit       0.046668
 **** Fit       0.051511
 **** Fit       0.055663
 **** Fit       0.059230
 **** Fit       0.062256
 **** Fit       0.064705
 **** Fit       0.066462
 **** Fit       0.067329
 **** Fit       0.067040
 **** Fit       0.065260
 **** Fit       0.061589
 **** Fit       0.055556
 **** Fit       0.046610
 **** Fit       0.034128
 **** Fit       0.014763
 **** Fit       0.025222
 **** Fit       0.034111
 **** Fit       0.041527
 **** Fit       0.047660
 **** Fit       0.052708
 **** Fit       0.056810
 **** Fit       0.060024
 **** Fit       0.062298
 **** Fit       0.063460
 **** Fit       0.063224
 **** Fit       0.061200
 **** Fit       0.056909
 **** Fit       0.049814
 **** Fit       0.039363
 **** Fit       0.016135
 **** Fit       0.027240
 **** Fit       0.036692
 **** Fit       0.044377
 **** Fit       0.050389
 **** Fit       0.054825
 **** Fit       0.057654
 **** Fit       0.058645
 **** Fit       0.057355
 **** Fit       0.053180
 **** Fit       0.045478
 **** Fit       0.033819
 **** Fit       0.029345
 **** Fit       0.039240
 **** Fit       0.046654
 **** Fit       0.051166
 **** Fit       0.052309
 **** Fit       0.049314
 **** Fit       0.041408
 **** Fit       0.028868
 **** Fit       0.025724
 **** Fit       0.031716
 **** Fit       0.041402
 **** Fit       0.044313
 **** Fit       0.037720
 **** Fit       0.034486
 **** Fit       0.069013
 **** Fit       0.069806
 **** Fit       0.062511
 **** Fit       0.077518
 **** Fit       0.068345
 **** Fit       0.058968
 **** Fit       0.049226
 **** Fit       0.046879
 **** Fit       0.034353
 **** Fit       0.022085
 **** Fit       0.044620
 **** Fit       0.051564
 **** Fit       0.037759
 **** Fit       0.042977
 **** Fit       0.050794
 **** Fit       0.058751
 **** Fit       0.030714
 **** Fit       0.033439
 **** Fit       0.040930
 **** Fit       0.050216
 **** Fit       0.057967
 **** Fit       0.061251
 **** Fit       0.023070
 **** Fit       0.024200
 **** Fit       0.029950
 **** Fit       0.038672
 **** Fit       0.048421
 **** Fit       0.057767
 **** Fit       0.065527
 **** Fit       0.070265
 **** Fit       0.023305
 **** Fit       0.033004
 **** Fit       0.043409
 **** Fit       0.053596
 **** Fit       0.063115
 **** Fit       0.071540
 **** Fit       0.022882
 **** Fit       0.034568
 **** Fit       0.045720
 **** Fit       0.056125
 **** Fit       0.065825
 **** Fit       0.074818
 **** Fit       0.037397
 **** Fit       0.048517
 **** Fit       0.058537
 **** Fit       0.067797
 **** Fit       0.076513
 **** Fit       0.033425
 **** Fit       0.045677
 **** Fit       0.056083
 **** Fit       0.065314
 **** Fit       0.073823
 **** Fit       0.081830
 **** Fit       0.043921
 **** Fit       0.054491
 **** Fit       0.063358
 **** Fit       0.071190
 **** Fit       0.078365
 **** Fit       0.084989
 **** Fit       0.051930
 **** Fit       0.060861
 **** Fit       0.068183
 **** Fit       0.074521
 **** Fit       0.080178
 **** Fit       0.085173
 **** Fit       0.089232
 **** Fit       0.056297
 **** Fit       0.064395
 **** Fit       0.070564
 **** Fit       0.075586
 **** Fit       0.079823
 **** Fit       0.083320
 **** Fit       0.085832
 **** Fit       0.086832
 **** Fit       0.074566
 **** Fit       0.077862
 **** Fit       0.080360
 **** Fit       0.082146
 **** Fit       0.083015
 **** Fit       0.082498
 **** Fit       0.079913
 **** Fit       0.084299
 **** Fit       0.083662
 **** Fit       0.082385
 **** Fit       0.079991
 **** Fit       0.075853
 **** Fit       0.086885
 **** Fit       0.082029
 **** Fit       0.014810
 **** Fit       0.019562
 **** Fit       0.009208
 **** Fit       0.005685
 **** Fit       0.010827
 **** Fit       0.019094
 **** Fit       0.024316
 **** Fit       0.025033
 **** Fit       0.013642
 **** Fit       0.002443
 **** Fit      -0.003683
 **** Fit      -0.002989
 **** Fit       0.001725
 **** Fit       0.007587
 **** Fit       0.014166
 **** Fit       0.022055
 **** Fit       0.029876
 **** Fit       0.034194
 **** Fit       0.032582
 **** Fit       0.019709
 **** Fit       0.006811
 **** Fit      -0.011127
 **** Fit      -0.005526
 **** Fit       0.015818
 **** Fit       0.023764
 **** Fit       0.032761
 **** Fit       0.040375
 **** Fit       0.044480
 **** Fit       0.044167
 **** Fit      -0.016293
 **** Fit       0.020969
 -----------------------------------------------------------------
 Leave Link  602 at Wed Sep 18 17:41:52 2019, MaxMem=  1342177280 cpu:             126.4 elap:               2.7

 Test job not archived.
 1\1\GINC-C504-031\SP\RB3LYP\SVP\C54H83Ca1N15O23\PENGZHI\18-Sep-2019\0\
 \#b3lyp/svp scf=(tight,noincore) Test #IOP(5/87=12) Density=Current Po
 p=(MK,readradii) iop(6/33=2) iop(6/42=6)\\Ng-31_loop3_38.0\\0,1\C,0,61
 .82,64.61,32.14\C,0,62.22,63.92,33.44\O,0,61.38,63.12,33.85\H,0,60.966
 ,65.262,32.323\H,0,62.657,65.203,31.77\H,0,61.55,63.859,31.398\N,0,63.
 37,64.2,34.04\C,0,63.82,63.55,35.26\C,0,63.11,63.97,36.54\O,0,62.75,63
 .15,37.38\C,0,65.33,63.72,35.39\C,0,65.89,65.13,35.51\O,0,67.09,65.12,
 35.87\O,0,65.24,66.14,35.17\H,0,63.81,65.05,33.72\H,0,63.6,62.5,35.08\
 H,0,65.85,63.24,34.56\H,0,65.66,63.25,36.32\N,0,62.88,65.28,36.65\C,0,
 62.51,65.9,37.91\C,0,63.71,65.95,38.84\O,0,64.25,67.,39.18\C,0,61.75,6
 7.2,37.62\C,0,60.65,67.44,38.65\C,0,59.88,68.74,38.43\C,0,58.62,68.73,
 39.29\N,0,57.55,69.67,38.89\H,0,63.22,65.95,35.98\H,0,61.72,65.28,38.3
 4\H,0,61.24,67.15,36.66\H,0,62.42,68.05,37.6\H,0,60.98,67.37,39.69\H,0
 ,59.96,66.61,38.49\H,0,59.59,68.85,37.39\H,0,60.47,69.61,38.7\H,0,58.8
 7,68.89,40.33\H,0,58.19,67.73,39.23\H,0,56.72,69.53,39.44\H,0,57.85,70
 .62,39.02\H,0,57.24,69.5,37.94\N,0,63.97,64.75,39.36\C,0,65.04,64.44,4
 0.29\C,0,65.66,63.06,40.07\O,0,66.45,62.67,40.92\C,0,64.46,64.64,41.69
 \C,0,63.21,63.84,42.01\O,0,62.77,62.9,41.32\O,0,62.56,64.,43.07\H,0,63
 .34,64.,39.11\H,0,65.88,65.11,40.12\H,0,64.28,65.7,41.86\H,0,65.19,64.
 26,42.4\N,0,65.28,62.33,39.02\C,0,65.77,61.03,38.64\C,0,67.26,60.73,38
 .47\O,0,67.96,61.6,37.97\H,0,64.55,62.73,38.44\H,0,65.27,60.84,37.69\H
 ,0,65.42,60.23,39.3\N,0,67.81,59.56,38.8\C,0,67.14,58.32,39.13\C,0,68.
 11,57.23,38.7\O,0,69.01,56.96,39.5\C,0,66.8,58.32,40.62\C,0,65.92,57.1
 6,41.04\N,0,64.69,57.4,41.51\O,0,66.33,56.,41.05\H,0,68.81,59.64,38.91
 \H,0,66.21,58.2,38.57\H,0,66.56,59.29,41.06\H,0,67.73,58.05,41.13\H,0,
 64.31,58.32,41.7\H,0,64.15,56.59,41.77\N,0,68.14,56.67,37.49\C,0,67.42
 ,57.12,36.31\C,0,66.07,56.45,36.12\O,0,65.12,57.16,35.79\H,0,68.69,55.
 83,37.38\H,0,68.,57.,35.39\H,0,67.28,58.2,36.39\N,0,65.85,55.19,36.51\
 C,0,64.52,54.61,36.58\C,0,63.92,55.04,37.91\O,0,64.66,55.28,38.86\C,0,
 64.63,53.09,36.53\C,0,64.78,52.53,35.13\C,0,63.7,51.89,34.52\C,0,65.98
 ,52.72,34.43\C,0,63.87,51.32,33.25\C,0,66.12,52.21,33.13\C,0,65.05,51.
 54,32.51\O,0,65.02,51.2,31.19\H,0,66.61,54.66,36.9\H,0,63.88,54.88,35.
 75\H,0,63.7,52.74,36.98\H,0,65.29,52.56,37.22\H,0,62.87,51.61,35.15\H,
 0,66.76,53.37,34.76\H,0,63.06,50.83,32.73\H,0,67.04,52.47,32.63\H,0,65
 .85,51.27,30.72\N,0,62.6,55.17,38.07\C,0,61.99,55.85,39.19\C,0,61.13,5
 4.91,40.04\O,0,60.68,53.88,39.55\C,0,61.41,57.19,38.75\C,0,62.49,58.07
 ,38.14\C,0,60.31,57.02,37.71\C,0,62.11,59.52,37.82\H,0,61.95,54.81,37.
 38\H,0,62.75,56.06,39.95\H,0,61.05,57.72,39.63\H,0,62.74,57.64,37.17\H
 ,0,63.32,58.2,38.83\H,0,60.79,56.62,36.82\H,0,59.62,56.26,38.07\H,0,59
 .78,57.96,37.51\H,0,63.01,60.12,37.68\H,0,61.51,59.48,36.92\H,0,61.51,
 60.07,38.55\N,0,61.01,55.28,41.32\C,0,60.21,54.58,42.3\C,0,58.72,54.55
 ,42.\O,0,58.21,54.93,40.95\C,0,60.84,53.26,42.74\O,0,62.13,53.53,43.24
 \H,0,61.33,56.17,41.67\H,0,60.2,55.12,43.25\H,0,60.88,52.52,41.94\H,0,
 60.31,53.06,43.67\H,0,62.55,54.1,42.59\N,0,58.01,54.23,43.09\C,0,56.57
 ,54.12,43.2\C,0,55.92,55.48,43.02\O,0,56.41,56.48,43.53\C,0,56.09,53.4
 4,44.48\H,0,58.51,53.93,43.92\H,0,56.33,53.48,42.35\H,0,56.52,52.44,44
 .54\H,0,56.36,54.,45.37\H,0,55.02,53.24,44.41\N,0,54.79,55.51,42.31\C,
 0,54.,56.7,42.09\C,0,54.57,57.94,41.42\O,0,53.91,58.97,41.51\C,0,53.29
 ,57.02,43.4\H,0,54.59,54.62,41.87\H,0,53.21,56.39,41.4\H,0,52.36,57.51
 ,43.12\H,0,53.07,56.1,43.95\H,0,53.95,57.72,43.92\N,0,55.78,57.82,40.8
 7\C,0,56.3,58.78,39.91\C,0,55.59,58.76,38.57\O,0,55.21,59.76,37.96\C,0
 ,57.81,58.56,39.82\C,0,58.59,59.84,39.53\C,0,59.15,60.5,40.79\O,0,60.3
 ,60.22,41.2\O,0,58.47,61.41,41.31\H,0,56.2,56.92,41.01\H,0,56.1,59.77,
 40.33\H,0,57.98,57.93,38.95\H,0,58.25,58.05,40.67\H,0,57.89,60.47,38.9
 8\H,0,59.37,59.52,38.84\N,0,55.35,57.58,37.99\C,0,54.31,57.29,37.02\H,
 0,53.465,57.959,37.183\H,0,54.7,57.437,36.013\H,0,53.982,56.257,37.136
 \H,0,55.68,56.75,38.47\Ca,0,60.41,62.5,42.7\O,0,59.98,63.86,40.45\H,0,
 59.07,64.16,40.51\H,0,60.02,63.41,39.61\\Version=ES64L-G16RevA.03\Stat
 e=1-A\HF=-5333.3494797\RMSD=9.755e-10\Dipole=-14.8975472,4.8308161,4.5
 896591\Quadrupole=-97.9815124,152.6000451,-54.6185327,-176.0311823,-34
 .559986,49.2510435\PG=C01 [X(C54H83Ca1N15O23)]\\@


 NOTHING MAKES A PERSON MORE PRODUCTIVE THAN THE LAST MINUTE.
 Job cpu time:       0 days 11 hours 15 minutes 52.6 seconds.
 Elapsed time:       0 days  0 hours 14 minutes 15.3 seconds.
 File lengths (MBytes):  RWF=   1517 Int=      0 D2E=      0 Chk=    171 Scr=      1
 Normal termination of Gaussian 16 at Wed Sep 18 17:41:53 2019.
