 Entering Gaussian System, Link 0=g16
 Initial command:
 /home1/apps/gaussian/16rA.03/g16/l1.exe "/scratch/01990/pengzhi/4356766/Gau-342332.inp" -scrdir="/scratch/01990/pengzhi/4356766/"
 Entering Link 1 = /home1/apps/gaussian/16rA.03/g16/l1.exe PID=    342333.
  
 Copyright (c) 1988,1990,1992,1993,1995,1998,2003,2009,2016,
            Gaussian, Inc.  All Rights Reserved.
  
 This is part of the Gaussian(R) 16 program.  It is based on
 the Gaussian(R) 09 system (copyright 2009, Gaussian, Inc.),
 the Gaussian(R) 03 system (copyright 2003, Gaussian, Inc.),
 the Gaussian(R) 98 system (copyright 1998, Gaussian, Inc.),
 the Gaussian(R) 94 system (copyright 1995, Gaussian, Inc.),
 the Gaussian 92(TM) system (copyright 1992, Gaussian, Inc.),
 the Gaussian 90(TM) system (copyright 1990, Gaussian, Inc.),
 the Gaussian 88(TM) system (copyright 1988, Gaussian, Inc.),
 the Gaussian 86(TM) system (copyright 1986, Carnegie Mellon
 University), and the Gaussian 82(TM) system (copyright 1983,
 Carnegie Mellon University). Gaussian is a federally registered
 trademark of Gaussian, Inc.
  
 This software contains proprietary and confidential information,
 including trade secrets, belonging to Gaussian, Inc.
  
 This software is provided under written license and may be
 used, copied, transmitted, or stored only in accord with that
 written license.
  
 The following legend is applicable only to US Government
 contracts under FAR:
  
                    RESTRICTED RIGHTS LEGEND
  
 Use, reproduction and disclosure by the US Government is
 subject to restrictions as set forth in subparagraphs (a)
 and (c) of the Commercial Computer Software - Restricted
 Rights clause in FAR 52.227-19.
  
 Gaussian, Inc.
 340 Quinnipiac St., Bldg. 40, Wallingford CT 06492
  
  
 ---------------------------------------------------------------
 Warning -- This program may not be used in any manner that
 competes with the business of Gaussian, Inc. or will provide
 assistance to any competitor of Gaussian, Inc.  The licensee
 of this program is prohibited from giving any competitor of
 Gaussian, Inc. access to this program.  By using this program,
 the user acknowledges that Gaussian, Inc. is engaged in the
 business of creating and licensing software in the field of
 computational chemistry and represents and warrants to the
 licensee that it is not a competitor of Gaussian, Inc. and that
 it will not use this program in any manner prohibited above.
 ---------------------------------------------------------------
  

 Cite this work as:
 Gaussian 16, Revision A.03,
 M. J. Frisch, G. W. Trucks, H. B. Schlegel, G. E. Scuseria, 
 M. A. Robb, J. R. Cheeseman, G. Scalmani, V. Barone, 
 G. A. Petersson, H. Nakatsuji, X. Li, M. Caricato, A. V. Marenich, 
 J. Bloino, B. G. Janesko, R. Gomperts, B. Mennucci, H. P. Hratchian, 
 J. V. Ortiz, A. F. Izmaylov, J. L. Sonnenberg, D. Williams-Young, 
 F. Ding, F. Lipparini, F. Egidi, J. Goings, B. Peng, A. Petrone, 
 T. Henderson, D. Ranasinghe, V. G. Zakrzewski, J. Gao, N. Rega, 
 G. Zheng, W. Liang, M. Hada, M. Ehara, K. Toyota, R. Fukuda, 
 J. Hasegawa, M. Ishida, T. Nakajima, Y. Honda, O. Kitao, H. Nakai, 
 T. Vreven, K. Throssell, J. A. Montgomery, Jr., J. E. Peralta, 
 F. Ogliaro, M. J. Bearpark, J. J. Heyd, E. N. Brothers, K. N. Kudin, 
 V. N. Staroverov, T. A. Keith, R. Kobayashi, J. Normand, 
 K. Raghavachari, A. P. Rendell, J. C. Burant, S. S. Iyengar, 
 J. Tomasi, M. Cossi, J. M. Millam, M. Klene, C. Adamo, R. Cammi, 
 J. W. Ochterski, R. L. Martin, K. Morokuma, O. Farkas, 
 J. B. Foresman, and D. J. Fox, Gaussian, Inc., Wallingford CT, 2016.
 
 ******************************************
 Gaussian 16:  ES64L-G16RevA.03 25-Dec-2016
                18-Sep-2019 
 ******************************************
 %chk=Ng-31_loop3_43.0.chk
 %nprocshared=48
 Will use up to   48 processors via shared memory.
 %mem=10GB
 %nosave
 ----------------------------------------------------------------------
 #b3lyp/svp scf=(tight,noincore) Test #IOP(5/87=12) Density=Current Pop
 =(MK,readradii) iop(6/33=2) iop(6/42=6)
 ----------------------------------------------------------------------
 1/30=1,38=1,172=1/1;
 2/12=2,17=6,18=5,40=1/2;
 3/5=18,7=101,11=2,25=1,30=1,74=-5/1,2,3;
 4//1;
 5/5=4,32=2,38=5,87=12/2;
 6/7=2,8=2,9=2,10=2,15=8,20=101,22=-1,28=1,33=2,42=6/1,2;
 99/5=1,9=1/99;
 ----------------
 Ng-31_loop3_43.0
 ----------------
 Symbolic Z-matrix:
 Charge =  0 Multiplicity = 1
 C                    -0.296     90.26     14.73 
 C                    -0.226     89.04     15.63 
 O                    -1.246     88.63     16.18 
 H                    -0.766     91.082    15.27 
 H                     0.711     90.55     14.431 
 H                    -0.885     90.025    13.843 
 N                     0.944     88.4      15.74 
 C                     1.134     87.14     16.44 
 C                     1.834     87.27     17.78 
 O                     1.844     86.31     18.54 
 C                     1.824     86.19     15.46 
 C                     3.094     86.66     14.76 
 O                     3.524     87.83     14.87 
 O                     3.664     85.84     14.01 
 H                     1.774     88.84     15.38 
 H                     0.154     86.72     16.67 
 H                     1.034     85.85     14.79 
 H                     2.084     85.31     16.05 
 N                     2.384     88.46     18.06 
 C                     3.014     88.75     19.33 
 C                     4.324     88.       19.53 
 O                     5.304     88.3      18.84 
 C                     3.184     90.25     19.53 
 C                     1.954     91.15     19.63 
 C                     2.104     92.62     20. 
 C                     0.814     93.38     19.69 
 N                    -0.426     92.83     20.26 
 H                     2.344     89.21     17.39 
 H                     2.394     88.39     20.15 
 H                     3.684     90.64     18.65 
 H                     3.694     90.47     20.47 
 H                     1.244     90.61     20.26 
 H                     1.344     91.08     18.73 
 H                     2.924     93.03     19.42 
 H                     2.314     92.66     21.07 
 H                     0.534     93.48     18.65 
 H                     0.964     94.34     20.2 
 H                    -0.156     92.54     21.18 
 H                    -1.166     93.52     20.34 
 H                    -0.766     92.01     19.78 
 N                     4.394     87.05     20.46 
 C                     5.464     86.08     20.6 
 C                     5.194     84.72     19.96 
 O                     6.054     83.84     19.93 
 C                     5.584     85.79     22.1 
 C                     4.304     85.35     22.8 
 O                     4.284     84.23     23.37 
 O                     3.244     85.97     22.6 
 H                     3.604     86.88     21.07 
 H                     6.434     86.4      20.23 
 H                     5.854     86.77     22.48 
 H                     6.454     85.17     22.32 
 N                     3.984     84.5      19.44 
 C                     3.414     83.33     18.82 
 C                     4.104     83.06     17.49 
 O                     4.964     83.78     16.98 
 H                     3.384     85.31     19.5 
 H                     2.354     83.52     18.64 
 H                     3.494     82.42     19.42 
 N                     3.664     82.06     16.72 
 C                     2.624     81.09     16.97 
 C                     1.904     80.8      15.66 
 O                     2.414     80.21     14.71 
 C                     3.364     79.84     17.43 
 C                     4.154     79.93     18.74 
 N                     3.444     79.89     19.87 
 O                     5.374     80.06     18.68 
 H                     4.094     82.06     15.81 
 H                     2.024     81.36     17.84 
 H                     4.004     79.4      16.67 
 H                     2.574     79.11     17.57 
 H                     2.464     79.65     19.83 
 H                     3.834     80.01     20.79 
 N                     0.694     81.33     15.46 
 C                     0.034     82.38     16.21 
 C                    -0.606     82.       17.54 
 O                    -0.686     82.86     18.42 
 H                     0.374     81.18     14.51 
 H                    -0.726     82.86     15.6 
 H                     0.804     83.13     16.33 
 N                    -0.806     80.72     17.85 
 C                    -1.506     80.22     19.01 
 C                    -0.496     80.06     20.14 
 O                     0.654     79.65     19.99 
 C                    -2.266     78.94     18.64 
 C                    -3.026     78.9      17.34 
 C                    -3.906     79.92     16.95 
 C                    -3.076     77.7      16.62 
 C                    -4.746     79.81     15.83 
 C                    -3.916     77.5      15.52 
 C                    -4.756     78.58     15.15 
 O                    -5.496     78.49     14.01 
 H                    -0.736     80.05     17.09 
 H                    -2.256     80.97     19.26 
 H                    -2.946     78.88     19.49 
 H                    -1.506     78.17     18.49 
 H                    -3.876     80.83     17.53 
 H                    -2.406     76.9      16.89 
 H                    -5.316     80.71     15.63 
 H                    -3.956     76.6      14.94 
 H                    -5.506     77.61     13.64 
 N                    -1.066     80.42     21.29 
 C                    -0.496     80.94     22.52 
 C                    -0.786     80.08     23.74 
 O                    -0.106     80.11     24.76 
 C                    -0.886     82.4      22.78 
 C                    -0.476     83.43     21.73 
 C                    -2.386     82.65     22.9 
 C                     0.934     83.24     21.18 
 H                    -2.066     80.5      21.17 
 H                     0.584     80.96     22.39 
 H                    -0.376     82.71     23.69 
 H                    -0.446     84.39     22.24 
 H                    -1.126     83.25     20.87 
 H                    -2.586     83.71     23.06 
 H                    -2.916     82.37     22. 
 H                    -2.906     82.12     23.69 
 H                     1.234     84.13     20.62 
 H                     1.664     83.12     21.98 
 H                     0.954     82.45     20.43 
 N                    -1.786     79.21     23.58 
 C                    -2.216     78.27     24.58 
 C                    -3.256     78.99     25.43 
 O                    -4.036     79.76     24.87 
 C                    -2.846     77.01     23.99 
 O                    -2.066     76.45     22.95 
 H                    -2.346     79.27     22.74 
 H                    -1.466     77.95     25.31 
 H                    -3.796     77.29     23.53 
 H                    -3.066     76.22     24.71 
 H                    -2.676     75.95     22.4 
 N                    -3.286     78.72     26.74 
 C                    -4.226     79.24     27.71 
 C                    -4.016     80.62     28.32 
 O                    -2.956     81.21     28.15 
 C                    -4.246     78.2      28.83 
 H                    -2.576     78.08     27.06 
 H                    -5.206     79.18     27.23 
 H                    -3.306     77.92     29.29 
 H                    -4.976     78.47     29.6 
 H                    -4.606     77.24     28.44 
 N                    -5.006     81.12     29.06 
 C                    -4.836     82.28     29.91 
 C                    -4.596     83.63     29.25 
 O                    -4.406     84.66     29.89 
 C                    -3.936     81.96     31.1 
 H                    -5.806     80.52     29.22 
 H                    -5.866     82.4      30.26 
 H                    -4.246     81.01     31.55 
 H                    -2.876     81.91     30.83 
 H                    -4.176     82.73     31.84 
 N                    -4.756     83.75     27.93 
 C                    -4.676     85.02     27.23 
 C                    -5.856     85.43     26.36 
 O                    -6.166     86.62     26.31 
 C                    -3.376     84.96     26.43 
 C                    -2.956     86.36     25.99 
 C                    -1.526     86.31     25.47 
 O                    -1.366     86.36     24.24 
 O                    -0.546     86.26     26.25 
 H                    -5.186     82.98     27.44 
 H                    -4.576     85.82     27.97 
 H                    -3.486     84.19     25.67 
 H                    -2.586     84.62     27.1 
 H                    -2.936     86.96     26.9 
 H                    -3.676     86.58     25.2 
 N                    -6.686     84.49     25.91 
 C                    -7.786     84.87     25.05 
 H                    -8.606     85.253    25.658 
 H                    -7.456     85.644    24.357 
 H                    -8.126     84.       24.488 
 H                    -6.356     83.53     25.88 
 Ca                    1.17      86.87     23.86 
 O                     3.        88.78     23.84 
 H                     3.95      88.81     23.74 
 H                     2.76      89.64     24.16 
 
 Stoichiometry    C54H83CaN15O23
 Framework group  C1[X(C54H83CaN15O23)]
 Deg. of freedom   522
 Full point group                 C1      NOp   1
 Largest Abelian subgroup         C1      NOp   1
 Largest concise Abelian subgroup C1      NOp   1
                         Standard orientation:                         
 ---------------------------------------------------------------------
 Center     Atomic      Atomic             Coordinates (Angstroms)
 Number     Number       Type             X           Y           Z
 ---------------------------------------------------------------------
      1          6           0        7.348596   -2.312194    5.030914
      2          6           0        6.229839   -1.741698    4.178731
      3          8           0        5.113670   -1.580634    4.667837
      4          1           0        7.018381   -3.247201    5.483578
      5          1           0        8.222374   -2.498893    4.407051
      6          1           0        7.607636   -1.600933    5.815721
      7          7           0        6.516738   -1.361123    2.928350
      8          6           0        5.595887   -0.664750    2.044723
      9          6           0        5.014878   -1.529849    0.941758
     10          8           0        4.071755   -1.103409    0.287566
     11          6           0        6.322322    0.585363    1.546215
     12          6           0        7.707476    0.427157    0.929675
     13          8           0        8.315240   -0.666680    0.923022
     14          8           0        8.249033    1.459235    0.480976
     15          1           0        7.401346   -1.627908    2.530361
     16          1           0        4.736882   -0.334231    2.630016
     17          1           0        6.270448    1.293115    2.373860
     18          1           0        5.671065    1.007902    0.779779
     19          7           0        5.566897   -2.739318    0.770115
     20          6           0        5.064282   -3.698313   -0.189888
     21          6           0        5.314732   -3.283243   -1.633353
     22          8           0        6.471171   -3.274800   -2.068185
     23          6           0        5.596605   -5.095678    0.098041
     24          6           0        5.223004   -5.800380    1.400622
     25          6           0        5.605439   -7.257780    1.624291
     26          6           0        5.452013   -7.626635    3.100165
     27          7           0        4.148677   -7.336128    3.718164
     28          1           0        6.343755   -3.030262    1.340065
     29          1           0        3.978077   -3.755850   -0.132888
     30          1           0        6.675836   -5.021727    0.177357
     31          1           0        5.249931   -5.814100   -0.647471
     32          1           0        4.160348   -5.598378    1.550818
     33          1           0        5.545731   -5.221143    2.265106
     34          1           0        6.637790   -7.384877    1.316073
     35          1           0        4.930846   -7.861840    1.015492
     36          1           0        6.122154   -7.150870    3.803413
     37          1           0        5.528278   -8.721300    3.090631
     38          1           0        3.488193   -7.587257    3.008168
     39          1           0        3.967650   -7.896924    4.544503
     40          1           0        4.004178   -6.358637    3.923183
     41          7           0        4.280026   -2.958350   -2.405446
     42          6           0        4.361076   -2.302626   -3.697289
     43          6           0        4.160635   -0.788967   -3.669734
     44          8           0        4.292998   -0.103044   -4.683090
     45          6           0        3.186138   -2.838258   -4.522588
     46          6           0        1.807507   -2.704700   -3.887341
     47          8           0        0.927716   -2.041331   -4.491996
     48          8           0        1.638641   -3.032115   -2.698945
     49          1           0        3.335834   -3.054062   -2.052685
     50          1           0        5.280242   -2.474942   -4.250138
     51          1           0        3.431516   -3.894210   -4.572148
     52          1           0        3.239025   -2.503528   -5.559341
     53          7           0        3.820443   -0.221765   -2.509798
     54          6           0        3.520525    1.147433   -2.172832
     55          6           0        4.777610    1.997931   -2.292367
     56          8           0        5.901075    1.566846   -2.557118
     57          1           0        3.776169   -0.887542   -1.751853
     58          1           0        3.166999    1.176293   -1.140220
     59          1           0        2.754262    1.607081   -2.802168
     60          7           0        4.726298    3.287335   -1.944078
     61          6           0        3.603392    4.081986   -1.505202
     62          6           0        4.088152    5.069900   -0.452760
     63          8           0        4.838477    6.014366   -0.688762
     64          6           0        3.158709    4.842346   -2.748507
     65          6           0        2.632240    4.018441   -3.928469
     66          7           0        1.392111    3.536960   -3.815089
     67          8           0        3.376962    3.825438   -4.886091
     68          1           0        5.636923    3.715673   -1.927066
     69          1           0        2.738927    3.459811   -1.269832
     70          1           0        3.894908    5.549141   -3.121671
     71          1           0        2.345831    5.465830   -2.392001
     72          1           0        0.806503    3.852944   -3.055604
     73          1           0        0.957187    2.925196   -4.485526
     74          7           0        3.804045    4.833108    0.831068
     75          6           0        3.305405    3.613300    1.434414
     76          6           0        1.818419    3.312278    1.288956
     77          8           0        1.455651    2.133813    1.284660
     78          1           0        4.286824    5.479395    1.444776
     79          1           0        3.548060    3.588373    2.492996
     80          1           0        3.920667    2.840854    0.993304
     81          7           0        0.974698    4.262490    0.889289
     82          6           0       -0.464109    4.156787    0.824013
     83          6           0       -0.837373    3.618222   -0.551931
     84          8           0       -0.275474    3.938348   -1.598301
     85          6           0       -1.095801    5.508742    1.179095
     86          6           0       -0.541153    6.282099    2.346778
     87          6           0       -0.314103    5.694767    3.599930
     88          6           0       -0.501565    7.680135    2.277291
     89          6           0        0.035488    6.442603    4.735988
     90          6           0       -0.202477    8.494404    3.374156
     91          6           0        0.054518    7.841927    4.605873
     92          8           0        0.480143    8.573736    5.672925
     93          1           0        1.317177    5.218173    0.917174
     94          1           0       -0.754196    3.458306    1.608534
     95          1           0       -2.118009    5.185587    1.376990
     96          1           0       -0.883243    6.171897    0.337641
     97          1           0       -0.373816    4.617831    3.645127
     98          1           0       -0.663483    8.161120    1.326378
     99          1           0        0.237549    5.831090    5.607838
    100          1           0       -0.144133    9.563742    3.340808
    101          1           0        0.404923    9.515203    5.533701
    102          7           0       -1.860249    2.772489   -0.427591
    103          6           0       -2.274020    1.643563   -1.241544
    104          6           0       -3.681925    1.775891   -1.800467
    105          8           0       -4.073172    1.162528   -2.787590
    106          6           0       -2.100104    0.301320   -0.520826
    107          6           0       -0.688758   -0.074512   -0.075456
    108          6           0       -2.888683    0.165457    0.777860
    109          6           0        0.397956    0.239771   -1.098676
    110          1           0       -2.270259    2.858693    0.491789
    111          1           0       -1.594648    1.593320   -2.089854
    112          1           0       -2.388779   -0.478390   -1.222979
    113          1           0       -0.676275   -1.158058    0.016045
    114          1           0       -0.460676    0.581625    0.768324
    115          1           0       -2.696656   -0.801953    1.243095
    116          1           0       -2.606295    0.916301    1.502974
    117          1           0       -3.966328    0.259010    0.704865
    118          1           0        1.328324   -0.258619   -0.812805
    119          1           0        0.138993   -0.137166   -2.087694
    120          1           0        0.659014    1.297240   -1.074008
    121          7           0       -4.436805    2.692527   -1.190194
    122          6           0       -5.785792    3.019213   -1.567035
    123          6           0       -6.691575    2.064486   -0.798560
    124          8           0       -6.382598    1.768470    0.355480
    125          6           0       -6.175599    4.455259   -1.222910
    126          8           0       -5.202469    5.395435   -1.638465
    127          1           0       -4.081178    3.125440   -0.348222
    128          1           0       -6.060574    2.846932   -2.612317
    129          1           0       -6.225278    4.541260   -0.135419
    130          1           0       -7.143913    4.778671   -1.608493
    131          1           0       -5.311746    6.161166   -1.067226
    132          7           0       -7.795939    1.623456   -1.411562
    133          6           0       -8.817429    0.768219   -0.845852
    134          6           0       -8.618502   -0.741495   -0.803534
    135          8           0       -7.694868   -1.255217   -1.422882
    136          6           0      -10.077895    1.080422   -1.652174
    137          1           0       -7.910940    1.938614   -2.362115
    138          1           0       -9.002220    1.157132    0.158638
    139          1           0      -10.033531    0.995348   -2.731245
    140          1           0      -10.936505    0.521743   -1.265695
    141          1           0      -10.355723    2.132809   -1.515813
    142          7           0       -9.502068   -1.456717   -0.106778
    143          6           0       -9.591096   -2.898657   -0.206195
    144          6           0       -8.436159   -3.732178    0.329589
    145          8           0       -8.408451   -4.957106    0.256229
    146          6           0      -10.130932   -3.321501   -1.569382
    147          1           0      -10.283957   -0.953418    0.294395
    148          1           0      -10.353547   -3.085581    0.556385
    149          1           0      -11.007842   -2.714442   -1.821588
    150          1           0       -9.384877   -3.238189   -2.366540
    151          1           0      -10.509321   -4.336390   -1.411510
    152          7           0       -7.484475   -3.140525    1.055293
    153          6           0       -6.416167   -3.870442    1.715019
    154          6           0       -6.229493   -3.663011    3.211523
    155          8           0       -5.887238   -4.623007    3.901427
    156          6           0       -5.149243   -3.528167    0.933130
    157          6           0       -4.043800   -4.534178    1.242866
    158          6           0       -2.913700   -4.356530    0.238319
    159          8           0       -1.887008   -3.781160    0.633101
    160          8           0       -2.997171   -4.806017   -0.928855
    161          1           0       -7.649587   -2.192174    1.357399
    162          1           0       -6.602002   -4.942411    1.596911
    163          1           0       -4.941895   -2.470556    1.078276
    164          1           0       -5.365683   -3.656235   -0.127696
    165          1           0       -4.478492   -5.515701    1.052719
    166          1           0       -3.747559   -4.248560    2.253591
    167          7           0       -6.704273   -2.553252    3.775457
    168          6           0       -6.494410   -2.332804    5.190151
    169          1           0       -7.234846   -2.896127    5.758637
    170          1           0       -5.494180   -2.666660    5.466386
    171          1           0       -6.597177   -1.270502    5.412181
    172          1           0       -6.885182   -1.750019    3.180908
    173         20           0       -0.053016   -4.255413   -1.168940
    174          8           0        1.688305   -6.042928   -2.046433
    175          1           0        2.280039   -6.105084   -2.794354
    176          1           0        1.660230   -6.918455   -1.682750
 ---------------------------------------------------------------------
 Rotational constants (GHZ):           0.0176131           0.0117131           0.0091394
 Standard basis: SVP (5D, 7F)
 There are  1809 symmetry adapted cartesian basis functions of A   symmetry.
 There are  1717 symmetry adapted basis functions of A   symmetry.
  1717 basis functions,  2922 primitive gaussians,  1809 cartesian basis functions
   358 alpha electrons      358 beta electrons
       nuclear repulsion energy     19689.6324096350 Hartrees.
 NAtoms=  176 NActive=  176 NUniq=  176 SFac= 1.00D+00 NAtFMM=   60 NAOKFM=T Big=T
 Integral buffers will be    131072 words long.
 Raffenetti 2 integral format.
 Two-electron integral symmetry is turned on.
 One-electron integrals computed using PRISM.
 NBasis=  1717 RedAO= T EigKep=  2.94D-04  NBF=  1717
 NBsUse=  1717 1.00D-06 EigRej= -1.00D+00 NBFU=  1717
 ExpMin= 1.98D-02 ExpMax= 3.51D+04 ExpMxC= 5.28D+03 IAcc=3 IRadAn=         5 AccDes= 0.00D+00
 Harris functional with IExCor=  402 and IRadAn=       5 diagonalized for initial guess.
 HarFok:  IExCor=  402 AccDes= 0.00D+00 IRadAn=         5 IDoV= 1 UseB2=F ITyADJ=14
 ICtDFT=  3500011 ScaDFX=  1.000000  1.000000  1.000000  1.000000
 FoFCou: FMM=F IPFlag=           0 FMFlag=      100000 FMFlg1=        2001
         NFxFlg=           0 DoJE=T BraDBF=F KetDBF=T FulRan=T
         wScrn=  0.000000 ICntrl=       500 IOpCl=  0 I1Cent=   200000004 NGrid=           0
         NMat0=    1 NMatS0=      1 NMatT0=    0 NMatD0=    1 NMtDS0=    0 NMtDT0=    0
 Petite list used in FoFCou.
 Requested convergence on RMS density matrix=1.00D-08 within 128 cycles.
 Requested convergence on MAX density matrix=1.00D-06.
 Requested convergence on             energy=1.00D-06.
 No special actions if energy rises.
 EnCoef did     2 forward-backward iterations
 EnCoef did     3 forward-backward iterations
 EnCoef did     4 forward-backward iterations
 EnCoef did     3 forward-backward iterations
 EnCoef did     9 forward-backward iterations
 EnCoef did    95 forward-backward iterations
 EnCoef did   100 forward-backward iterations
 Rare condition: small coef for last iteration:  0.000D+00
 EnCoef did   100 forward-backward iterations
 Rare condition: small coef for last iteration:  0.000D+00
 EnCoef did   100 forward-backward iterations
 Rare condition: small coef for last iteration:  0.000D+00
 EnCoef did   100 forward-backward iterations
 Rare condition: small coef for last iteration:  0.000D+00
 Restarting incremental Fock formation.
 EnCoef did   100 forward-backward iterations
 EnCoef did   100 forward-backward iterations
 EnCoef did   100 forward-backward iterations
 Rare condition: small coef for last iteration:  0.000D+00
 EnCoef did   100 forward-backward iterations
 EnCoef did   100 forward-backward iterations
 Rare condition: small coef for last iteration:  0.821D-15
 EnCoef did   100 forward-backward iterations
 EnCoef did   100 forward-backward iterations
 Rare condition: small coef for last iteration: -0.480D-15
 SCF Done:  E(RB3LYP) =  -5333.29248523     A.U. after   40 cycles
            NFock= 40  Conv=0.68D-09     -V/T= 2.0081
 SCF density gives NOpUse=  1 NOpAll=  1.
 Hyperfine terms turned off by default for NAtoms > 100.

 **********************************************************************

            Population analysis using the SCF density.

 **********************************************************************

 Orbital symmetries:
 BldTbl:  Degeneracy threshold= 1.00D-02
       Occupied  (A) (A) (A) (A) (A) (A) (A) (A) (A) (A) (A) (A)
                 (A) (A) (A) (A) (A) (A) (A) (A) (A) (A) (A) (A)
                 (A) (A) (A) (A) (A) (A) (A) (A) (A) (A) (A) (A)
                 (A) (A) (A) (A) (A) (A) (A) (A) (A) (A) (A) (A)
                 (A) (A) (A) (A) (A) (A) (A) (A) (A) (A) (A) (A)
                 (A) (A) (A) (A) (A) (A) (A) (A) (A) (A) (A) (A)
                 (A) (A) (A) (A) (A) (A) (A) (A) (A) (A) (A) (A)
                 (A) (A) (A) (A) (A) (A) (A) (A) (A) (A) (A) (A)
                 (A) (A) (A) (A) (A) (A) (A) (A) (A) (A) (A) (A)
                 (A) (A) (A) (A) (A) (A) (A) (A) (A) (A) (A) (A)
                 (A) (A) (A) (A) (A) (A) (A) (A) (A) (A) (A) (A)
                 (A) (A) (A) (A) (A) (A) (A) (A) (A) (A) (A) (A)
                 (A) (A) (A) (A) (A) (A) (A) (A) (A) (A) (A) (A)
                 (A) (A) (A) (A) (A) (A) (A) (A) (A) (A) (A) (A)
                 (A) (A) (A) (A) (A) (A) (A) (A) (A) (A) (A) (A)
                 (A) (A) (A) (A) (A) (A) (A) (A) (A) (A) (A) (A)
                 (A) (A) (A) (A) (A) (A) (A) (A) (A) (A) (A) (A)
                 (A) (A) (A) (A) (A) (A) (A) (A) (A) (A) (A) (A)
                 (A) (A) (A) (A) (A) (A) (A) (A) (A) (A) (A) (A)
                 (A) (A) (A) (A) (A) (A) (A) (A) (A) (A) (A) (A)
                 (A) (A) (A) (A) (A) (A) (A) (A) (A) (A) (A) (A)
                 (A) (A) (A) (A) (A) (A) (A) (A) (A) (A) (A) (A)
                 (A) (A) (A) (A) (A) (A) (A) (A) (A) (A) (A) (A)
                 (A) (A) (A) (A) (A) (A) (A) (A) (A) (A) (A) (A)
                 (A) (A) (A) (A) (A) (A) (A) (A) (A) (A) (A) (A)
                 (A) (A) (A) (A) (A) (A) (A) (A) (A) (A) (A) (A)
                 (A) (A) (A) (A) (A) (A) (A) (A) (A) (A) (A) (A)
                 (A) (A) (A) (A) (A) (A) (A) (A) (A) (A) (A) (A)
                 (A) (A) (A) (A) (A) (A) (A) (A) (A) (A) (A) (A)
                 (A) (A) (A) (A) (A) (A) (A) (A) (A) (A)
       Virtual   (A) (A) (A) (A) (A) (A) (A) (A) (A) (A) (A) (A)
                 (A) (A) (A) (A) (A) (A) (A) (A) (A) (A) (A) (A)
                 (A) (A) (A) (A) (A) (A) (A) (A) (A) (A) (A) (A)
                 (A) (A) (A) (A) (A) (A) (A) (A) (A) (A) (A) (A)
                 (A) (A) (A) (A) (A) (A) (A) (A) (A) (A) (A) (A)
                 (A) (A) (A) (A) (A) (A) (A) (A) (A) (A) (A) (A)
                 (A) (A) (A) (A) (A) (A) (A) (A) (A) (A) (A) (A)
                 (A) (A) (A) (A) (A) (A) (A) (A) (A) (A) (A) (A)
                 (A) (A) (A) (A) (A) (A) (A) (A) (A) (A) (A) (A)
                 (A) (A) (A) (A) (A) (A) (A) (A) (A) (A) (A) (A)
                 (A) (A) (A) (A) (A) (A) (A) (A) (A) (A) (A) (A)
                 (A) (A) (A) (A) (A) (A) (A) (A) (A) (A) (A) (A)
                 (A) (A) (A) (A) (A) (A) (A) (A) (A) (A) (A) (A)
                 (A) (A) (A) (A) (A) (A) (A) (A) (A) (A) (A) (A)
                 (A) (A) (A) (A) (A) (A) (A) (A) (A) (A) (A) (A)
                 (A) (A) (A) (A) (A) (A) (A) (A) (A) (A) (A) (A)
                 (A) (A) (A) (A) (A) (A) (A) (A) (A) (A) (A) (A)
                 (A) (A) (A) (A) (A) (A) (A) (A) (A) (A) (A) (A)
                 (A) (A) (A) (A) (A) (A) (A) (A) (A) (A) (A) (A)
                 (A) (A) (A) (A) (A) (A) (A) (A) (A) (A) (A) (A)
                 (A) (A) (A) (A) (A) (A) (A) (A) (A) (A) (A) (A)
                 (A) (A) (A) (A) (A) (A) (A) (A) (A) (A) (A) (A)
                 (A) (A) (A) (A) (A) (A) (A) (A) (A) (A) (A) (A)
                 (A) (A) (A) (A) (A) (A) (A) (A) (A) (A) (A) (A)
                 (A) (A) (A) (A) (A) (A) (A) (A) (A) (A) (A) (A)
                 (A) (A) (A) (A) (A) (A) (A) (A) (A) (A) (A) (A)
                 (A) (A) (A) (A) (A) (A) (A) (A) (A) (A) (A) (A)
                 (A) (A) (A) (A) (A) (A) (A) (A) (A) (A) (A) (A)
                 (A) (A) (A) (A) (A) (A) (A) (A) (A) (A) (A) (A)
                 (A) (A) (A) (A) (A) (A) (A) (A) (A) (A) (A) (A)
                 (A) (A) (A) (A) (A) (A) (A) (A) (A) (A) (A) (A)
                 (A) (A) (A) (A) (A) (A) (A) (A) (A) (A) (A) (A)
                 (A) (A) (A) (A) (A) (A) (A) (A) (A) (A) (A) (A)
                 (A) (A) (A) (A) (A) (A) (A) (A) (A) (A) (A) (A)
                 (A) (A) (A) (A) (A) (A) (A) (A) (A) (A) (A) (A)
                 (A) (A) (A) (A) (A) (A) (A) (A) (A) (A) (A) (A)
                 (A) (A) (A) (A) (A) (A) (A) (A) (A) (A) (A) (A)
                 (A) (A) (A) (A) (A) (A) (A) (A) (A) (A) (A) (A)
                 (A) (A) (A) (A) (A) (A) (A) (A) (A) (A) (A) (A)
                 (A) (A) (A) (A) (A) (A) (A) (A) (A) (A) (A) (A)
                 (A) (A) (A) (A) (A) (A) (A) (A) (A) (A) (A) (A)
                 (A) (A) (A) (A) (A) (A) (A) (A) (A) (A) (A) (A)
                 (A) (A) (A) (A) (A) (A) (A) (A) (A) (A) (A) (A)
                 (A) (A) (A) (A) (A) (A) (A) (A) (A) (A) (A) (A)
                 (A) (A) (A) (A) (A) (A) (A) (A) (A) (A) (A) (A)
                 (A) (A) (A) (A) (A) (A) (A) (A) (A) (A) (A) (A)
                 (A) (A) (A) (A) (A) (A) (A) (A) (A) (A) (A) (A)
                 (A) (A) (A) (A) (A) (A) (A) (A) (A) (A) (A) (A)
                 (A) (A) (A) (A) (A) (A) (A) (A) (A) (A) (A) (A)
                 (A) (A) (A) (A) (A) (A) (A) (A) (A) (A) (A) (A)
                 (A) (A) (A) (A) (A) (A) (A) (A) (A) (A) (A) (A)
                 (A) (A) (A) (A) (A) (A) (A) (A) (A) (A) (A) (A)
                 (A) (A) (A) (A) (A) (A) (A) (A) (A) (A) (A) (A)
                 (A) (A) (A) (A) (A) (A) (A) (A) (A) (A) (A) (A)
                 (A) (A) (A) (A) (A) (A) (A) (A) (A) (A) (A) (A)
                 (A) (A) (A) (A) (A) (A) (A) (A) (A) (A) (A) (A)
                 (A) (A) (A) (A) (A) (A) (A) (A) (A) (A) (A) (A)
                 (A) (A) (A) (A) (A) (A) (A) (A) (A) (A) (A) (A)
                 (A) (A) (A) (A) (A) (A) (A) (A) (A) (A) (A) (A)
                 (A) (A) (A) (A) (A) (A) (A) (A) (A) (A) (A) (A)
                 (A) (A) (A) (A) (A) (A) (A) (A) (A) (A) (A) (A)
                 (A) (A) (A) (A) (A) (A) (A) (A) (A) (A) (A) (A)
                 (A) (A) (A) (A) (A) (A) (A) (A) (A) (A) (A) (A)
                 (A) (A) (A) (A) (A) (A) (A) (A) (A) (A) (A) (A)
                 (A) (A) (A) (A) (A) (A) (A) (A) (A) (A) (A) (A)
                 (A) (A) (A) (A) (A) (A) (A) (A) (A) (A) (A) (A)
                 (A) (A) (A) (A) (A) (A) (A) (A) (A) (A) (A) (A)
                 (A) (A) (A) (A) (A) (A) (A) (A) (A) (A) (A) (A)
                 (A) (A) (A) (A) (A) (A) (A) (A) (A) (A) (A) (A)
                 (A) (A) (A) (A) (A) (A) (A) (A) (A) (A) (A) (A)
                 (A) (A) (A) (A) (A) (A) (A) (A) (A) (A) (A) (A)
                 (A) (A) (A) (A) (A) (A) (A) (A) (A) (A) (A) (A)
                 (A) (A) (A) (A) (A) (A) (A) (A) (A) (A) (A) (A)
                 (A) (A) (A) (A) (A) (A) (A) (A) (A) (A) (A) (A)
                 (A) (A) (A) (A) (A) (A) (A) (A) (A) (A) (A) (A)
                 (A) (A) (A) (A) (A) (A) (A) (A) (A) (A) (A) (A)
                 (A) (A) (A) (A) (A) (A) (A) (A) (A) (A) (A) (A)
                 (A) (A) (A) (A) (A) (A) (A) (A) (A) (A) (A) (A)
                 (A) (A) (A) (A) (A) (A) (A) (A) (A) (A) (A) (A)
                 (A) (A) (A) (A) (A) (A) (A) (A) (A) (A) (A) (A)
                 (A) (A) (A) (A) (A) (A) (A) (A) (A) (A) (A) (A)
                 (A) (A) (A) (A) (A) (A) (A) (A) (A) (A) (A) (A)
                 (A) (A) (A) (A) (A) (A) (A) (A) (A) (A) (A) (A)
                 (A) (A) (A) (A) (A) (A) (A) (A) (A) (A) (A) (A)
                 (A) (A) (A) (A) (A) (A) (A) (A) (A) (A) (A) (A)
                 (A) (A) (A) (A) (A) (A) (A) (A) (A) (A) (A) (A)
                 (A) (A) (A) (A) (A) (A) (A) (A) (A) (A) (A) (A)
                 (A) (A) (A) (A) (A) (A) (A) (A) (A) (A) (A) (A)
                 (A) (A) (A) (A) (A) (A) (A) (A) (A) (A) (A) (A)
                 (A) (A) (A) (A) (A) (A) (A) (A) (A) (A) (A) (A)
                 (A) (A) (A) (A) (A) (A) (A) (A) (A) (A) (A) (A)
                 (A) (A) (A) (A) (A) (A) (A) (A) (A) (A) (A) (A)
                 (A) (A) (A) (A) (A) (A) (A) (A) (A) (A) (A) (A)
                 (A) (A) (A) (A) (A) (A) (A) (A) (A) (A) (A) (A)
                 (A) (A) (A) (A) (A) (A) (A) (A) (A) (A) (A) (A)
                 (A) (A) (A) (A) (A) (A) (A) (A) (A) (A) (A) (A)
                 (A) (A) (A) (A) (A) (A) (A) (A) (A) (A) (A) (A)
                 (A) (A) (A) (A) (A) (A) (A) (A) (A) (A) (A) (A)
                 (A) (A) (A) (A) (A) (A) (A) (A) (A) (A) (A) (A)
                 (A) (A) (A) (A) (A) (A) (A) (A) (A) (A) (A) (A)
                 (A) (A) (A) (A) (A) (A) (A) (A) (A) (A) (A) (A)
                 (A) (A) (A) (A) (A) (A) (A) (A) (A) (A) (A) (A)
                 (A) (A) (A) (A) (A) (A) (A) (A) (A) (A) (A) (A)
                 (A) (A) (A) (A) (A) (A) (A) (A) (A) (A) (A) (A)
                 (A) (A) (A) (A) (A) (A) (A) (A) (A) (A) (A) (A)
                 (A) (A) (A) (A) (A) (A) (A) (A) (A) (A) (A) (A)
                 (A) (A) (A) (A) (A) (A) (A) (A) (A) (A) (A) (A)
                 (A) (A) (A) (A) (A) (A) (A) (A) (A) (A) (A) (A)
                 (A) (A) (A) (A) (A) (A) (A) (A) (A) (A) (A) (A)
                 (A) (A) (A) (A) (A) (A) (A) (A) (A) (A) (A) (A)
                 (A) (A) (A) (A) (A) (A) (A) (A) (A) (A) (A) (A)
                 (A) (A) (A) (A) (A) (A) (A) (A) (A) (A) (A) (A)
                 (A) (A) (A) (A) (A) (A) (A) (A) (A) (A) (A) (A)
                 (A) (A) (A)
 The electronic state is 1-A.
 Alpha  occ. eigenvalues -- -145.49471 -19.25017 -19.17260 -19.14618 -19.12156
 Alpha  occ. eigenvalues --  -19.11316 -19.11251 -19.09863 -19.09777 -19.09688
 Alpha  occ. eigenvalues --  -19.09410 -19.09374 -19.08997 -19.08566 -19.08410
 Alpha  occ. eigenvalues --  -19.07991 -19.06839 -19.06791 -19.03480 -19.03401
 Alpha  occ. eigenvalues --  -19.02342 -19.02232 -18.98781 -18.97763 -15.55327
 Alpha  occ. eigenvalues --  -14.58264 -14.38297 -14.38041 -14.37264 -14.36930
 Alpha  occ. eigenvalues --  -14.36145 -14.35893 -14.35776 -14.35525 -14.34522
 Alpha  occ. eigenvalues --  -14.32564 -14.32213 -14.29457 -14.29309 -14.28844
 Alpha  occ. eigenvalues --  -12.68964 -12.68937 -12.68808 -10.36276 -10.30397
 Alpha  occ. eigenvalues --  -10.30117 -10.29911 -10.29742 -10.28854 -10.28735
 Alpha  occ. eigenvalues --  -10.28461 -10.27943 -10.27432 -10.27357 -10.26981
 Alpha  occ. eigenvalues --  -10.26916 -10.26511 -10.26393 -10.26199 -10.26128
 Alpha  occ. eigenvalues --  -10.25951 -10.25616 -10.25043 -10.24930 -10.24926
 Alpha  occ. eigenvalues --  -10.24730 -10.23733 -10.23242 -10.23239 -10.23032
 Alpha  occ. eigenvalues --  -10.22920 -10.22349 -10.22300 -10.21944 -10.21840
 Alpha  occ. eigenvalues --  -10.21748 -10.20926 -10.20923 -10.20744 -10.20713
 Alpha  occ. eigenvalues --  -10.20706 -10.20444 -10.19885 -10.19808 -10.19431
 Alpha  occ. eigenvalues --  -10.18619 -10.18439 -10.18011 -10.17938 -10.17907
 Alpha  occ. eigenvalues --  -10.17644 -10.16915 -10.16357 -10.15775 -10.14455
 Alpha  occ. eigenvalues --  -10.14210 -10.13304  -1.91831  -1.19505  -1.19361
 Alpha  occ. eigenvalues --   -1.18399  -1.14197  -1.11104  -1.06172  -1.05099
 Alpha  occ. eigenvalues --   -1.04603  -1.04268  -1.03879  -1.03396  -1.02965
 Alpha  occ. eigenvalues --   -1.02858  -1.02679  -1.02522  -1.01961  -1.01404
 Alpha  occ. eigenvalues --   -1.01298  -0.99948  -0.99725  -0.96426  -0.95875
 Alpha  occ. eigenvalues --   -0.95127  -0.95049  -0.95005  -0.94670  -0.93240
 Alpha  occ. eigenvalues --   -0.93203  -0.93096  -0.93027  -0.92690  -0.92172
 Alpha  occ. eigenvalues --   -0.91614  -0.90840  -0.90440  -0.90003  -0.89115
 Alpha  occ. eigenvalues --   -0.89050  -0.86891  -0.86527  -0.85097  -0.84587
 Alpha  occ. eigenvalues --   -0.83606  -0.82464  -0.82184  -0.81672  -0.80098
 Alpha  occ. eigenvalues --   -0.79702  -0.78329  -0.78259  -0.77048  -0.76095
 Alpha  occ. eigenvalues --   -0.75464  -0.75249  -0.75102  -0.73807  -0.73539
 Alpha  occ. eigenvalues --   -0.73486  -0.72997  -0.72723  -0.71804  -0.71181
 Alpha  occ. eigenvalues --   -0.70452  -0.70439  -0.70080  -0.68899  -0.68791
 Alpha  occ. eigenvalues --   -0.67225  -0.67063  -0.65777  -0.65248  -0.64834
 Alpha  occ. eigenvalues --   -0.64331  -0.63655  -0.63620  -0.62929  -0.62072
 Alpha  occ. eigenvalues --   -0.61726  -0.61536  -0.61110  -0.61102  -0.61063
 Alpha  occ. eigenvalues --   -0.60576  -0.59889  -0.59729  -0.59510  -0.59213
 Alpha  occ. eigenvalues --   -0.58893  -0.57795  -0.57729  -0.57589  -0.57105
 Alpha  occ. eigenvalues --   -0.56824  -0.56368  -0.56317  -0.55780  -0.55719
 Alpha  occ. eigenvalues --   -0.54921  -0.54483  -0.54261  -0.54187  -0.53216
 Alpha  occ. eigenvalues --   -0.52902  -0.52871  -0.52345  -0.52251  -0.52032
 Alpha  occ. eigenvalues --   -0.51851  -0.51697  -0.51237  -0.51148  -0.50927
 Alpha  occ. eigenvalues --   -0.50316  -0.50111  -0.49924  -0.49868  -0.49438
 Alpha  occ. eigenvalues --   -0.48908  -0.48581  -0.48481  -0.48415  -0.48200
 Alpha  occ. eigenvalues --   -0.48047  -0.47728  -0.47711  -0.47554  -0.47498
 Alpha  occ. eigenvalues --   -0.47069  -0.46500  -0.46462  -0.46182  -0.46025
 Alpha  occ. eigenvalues --   -0.45759  -0.45694  -0.45247  -0.45168  -0.44817
 Alpha  occ. eigenvalues --   -0.44627  -0.44435  -0.44212  -0.44040  -0.43930
 Alpha  occ. eigenvalues --   -0.43748  -0.43691  -0.43448  -0.43413  -0.43236
 Alpha  occ. eigenvalues --   -0.43109  -0.43027  -0.42892  -0.42625  -0.42538
 Alpha  occ. eigenvalues --   -0.42457  -0.42338  -0.42292  -0.42209  -0.41894
 Alpha  occ. eigenvalues --   -0.41818  -0.41560  -0.41397  -0.41345  -0.41223
 Alpha  occ. eigenvalues --   -0.41159  -0.41086  -0.40829  -0.40659  -0.40499
 Alpha  occ. eigenvalues --   -0.40279  -0.40187  -0.40110  -0.40044  -0.39963
 Alpha  occ. eigenvalues --   -0.39896  -0.39576  -0.39426  -0.38918  -0.38770
 Alpha  occ. eigenvalues --   -0.38611  -0.38514  -0.38384  -0.38302  -0.38222
 Alpha  occ. eigenvalues --   -0.38093  -0.38036  -0.37915  -0.37718  -0.37656
 Alpha  occ. eigenvalues --   -0.37556  -0.37241  -0.36854  -0.36747  -0.36681
 Alpha  occ. eigenvalues --   -0.36483  -0.36051  -0.35681  -0.35311  -0.35284
 Alpha  occ. eigenvalues --   -0.35157  -0.35064  -0.34977  -0.34891  -0.34603
 Alpha  occ. eigenvalues --   -0.34554  -0.34507  -0.34275  -0.34114  -0.34034
 Alpha  occ. eigenvalues --   -0.33616  -0.33545  -0.33375  -0.32934  -0.32744
 Alpha  occ. eigenvalues --   -0.32529  -0.32105  -0.30837  -0.30551  -0.30258
 Alpha  occ. eigenvalues --   -0.29602  -0.29388  -0.29225  -0.29208  -0.29173
 Alpha  occ. eigenvalues --   -0.28773  -0.28241  -0.27934  -0.27920  -0.27549
 Alpha  occ. eigenvalues --   -0.27305  -0.27129  -0.27115  -0.26785  -0.26737
 Alpha  occ. eigenvalues --   -0.26544  -0.26537  -0.26493  -0.26373  -0.25903
 Alpha  occ. eigenvalues --   -0.25208  -0.24826  -0.24741  -0.24360  -0.24190
 Alpha  occ. eigenvalues --   -0.24106  -0.23942  -0.23848  -0.23587  -0.23128
 Alpha  occ. eigenvalues --   -0.23058  -0.22551  -0.22268  -0.21640  -0.19888
 Alpha  occ. eigenvalues --   -0.19396  -0.19235  -0.18624  -0.18252  -0.17554
 Alpha  occ. eigenvalues --   -0.15982  -0.15199  -0.12763
 Alpha virt. eigenvalues --   -0.11648  -0.10390  -0.05698  -0.05066  -0.03674
 Alpha virt. eigenvalues --   -0.03385  -0.02120  -0.02090  -0.01547  -0.00771
 Alpha virt. eigenvalues --   -0.00651  -0.00368  -0.00327   0.00195   0.00338
 Alpha virt. eigenvalues --    0.00573   0.00908   0.01542   0.01755   0.01984
 Alpha virt. eigenvalues --    0.02236   0.02430   0.02448   0.02521   0.02610
 Alpha virt. eigenvalues --    0.02871   0.03066   0.03219   0.03825   0.03835
 Alpha virt. eigenvalues --    0.03907   0.04050   0.04444   0.04744   0.04904
 Alpha virt. eigenvalues --    0.05344   0.06080   0.06098   0.06349   0.06467
 Alpha virt. eigenvalues --    0.06586   0.06687   0.07233   0.07302   0.07384
 Alpha virt. eigenvalues --    0.07778   0.07970   0.08117   0.08254   0.08344
 Alpha virt. eigenvalues --    0.08630   0.08990   0.09169   0.09277   0.09444
 Alpha virt. eigenvalues --    0.09531   0.09899   0.10217   0.10507   0.10574
 Alpha virt. eigenvalues --    0.10682   0.10909   0.11223   0.11365   0.11512
 Alpha virt. eigenvalues --    0.11686   0.12083   0.12297   0.12401   0.12725
 Alpha virt. eigenvalues --    0.12861   0.13158   0.13386   0.13525   0.13648
 Alpha virt. eigenvalues --    0.13805   0.13944   0.14119   0.14336   0.14470
 Alpha virt. eigenvalues --    0.14576   0.14650   0.14741   0.14787   0.14966
 Alpha virt. eigenvalues --    0.15222   0.15394   0.15446   0.15523   0.15785
 Alpha virt. eigenvalues --    0.15828   0.16034   0.16287   0.16395   0.16581
 Alpha virt. eigenvalues --    0.16904   0.16959   0.17130   0.17388   0.17595
 Alpha virt. eigenvalues --    0.17776   0.17987   0.18346   0.18448   0.18606
 Alpha virt. eigenvalues --    0.18794   0.18961   0.19064   0.19233   0.19257
 Alpha virt. eigenvalues --    0.19925   0.20045   0.20107   0.20679   0.20817
 Alpha virt. eigenvalues --    0.21041   0.21147   0.21337   0.21357   0.21431
 Alpha virt. eigenvalues --    0.21561   0.21720   0.22031   0.22247   0.22667
 Alpha virt. eigenvalues --    0.22910   0.22943   0.23131   0.23443   0.23644
 Alpha virt. eigenvalues --    0.23989   0.24227   0.24331   0.24613   0.24864
 Alpha virt. eigenvalues --    0.25086   0.25301   0.25561   0.25656   0.25897
 Alpha virt. eigenvalues --    0.26205   0.26412   0.26634   0.26839   0.26874
 Alpha virt. eigenvalues --    0.26996   0.27136   0.27449   0.27887   0.28136
 Alpha virt. eigenvalues --    0.28518   0.28846   0.29039   0.29139   0.29276
 Alpha virt. eigenvalues --    0.29769   0.29980   0.30048   0.30167   0.30395
 Alpha virt. eigenvalues --    0.30639   0.30927   0.31084   0.31313   0.31407
 Alpha virt. eigenvalues --    0.31576   0.31983   0.32473   0.32730   0.32866
 Alpha virt. eigenvalues --    0.33272   0.33624   0.33990   0.34189   0.34347
 Alpha virt. eigenvalues --    0.34544   0.34705   0.34851   0.35006   0.35204
 Alpha virt. eigenvalues --    0.35587   0.35606   0.36010   0.36757   0.36858
 Alpha virt. eigenvalues --    0.37076   0.37353   0.37522   0.38031   0.38300
 Alpha virt. eigenvalues --    0.38681   0.39032   0.39220   0.39260   0.39547
 Alpha virt. eigenvalues --    0.39946   0.40162   0.40559   0.40665   0.40837
 Alpha virt. eigenvalues --    0.41003   0.41505   0.41789   0.41851   0.41969
 Alpha virt. eigenvalues --    0.42440   0.42476   0.42740   0.43044   0.43314
 Alpha virt. eigenvalues --    0.43563   0.43630   0.44139   0.44210   0.44732
 Alpha virt. eigenvalues --    0.44889   0.44923   0.45070   0.45147   0.45232
 Alpha virt. eigenvalues --    0.45504   0.45656   0.45941   0.46087   0.46108
 Alpha virt. eigenvalues --    0.46472   0.46575   0.46960   0.47098   0.47396
 Alpha virt. eigenvalues --    0.47627   0.47861   0.47963   0.48058   0.48186
 Alpha virt. eigenvalues --    0.48432   0.48933   0.49071   0.49407   0.49519
 Alpha virt. eigenvalues --    0.49612   0.50065   0.50099   0.50282   0.50379
 Alpha virt. eigenvalues --    0.50495   0.50790   0.51050   0.51295   0.51488
 Alpha virt. eigenvalues --    0.51603   0.51669   0.51997   0.52120   0.52493
 Alpha virt. eigenvalues --    0.52534   0.52897   0.53050   0.53240   0.53532
 Alpha virt. eigenvalues --    0.53577   0.53706   0.53834   0.53988   0.54107
 Alpha virt. eigenvalues --    0.54241   0.54561   0.54725   0.54785   0.55396
 Alpha virt. eigenvalues --    0.55513   0.55573   0.55840   0.56257   0.56328
 Alpha virt. eigenvalues --    0.56503   0.56761   0.56899   0.57079   0.57113
 Alpha virt. eigenvalues --    0.57303   0.57476   0.57774   0.58043   0.58082
 Alpha virt. eigenvalues --    0.58252   0.58485   0.58664   0.58778   0.58907
 Alpha virt. eigenvalues --    0.59050   0.59165   0.59281   0.59375   0.59417
 Alpha virt. eigenvalues --    0.59623   0.59830   0.59924   0.60106   0.60258
 Alpha virt. eigenvalues --    0.60395   0.60599   0.60825   0.60867   0.60962
 Alpha virt. eigenvalues --    0.61023   0.61217   0.61391   0.61422   0.61602
 Alpha virt. eigenvalues --    0.61693   0.61833   0.62061   0.62280   0.62368
 Alpha virt. eigenvalues --    0.62518   0.62614   0.62651   0.62991   0.63048
 Alpha virt. eigenvalues --    0.63241   0.63410   0.63566   0.63621   0.63728
 Alpha virt. eigenvalues --    0.63852   0.64012   0.64037   0.64094   0.64185
 Alpha virt. eigenvalues --    0.64289   0.64436   0.64599   0.64669   0.64769
 Alpha virt. eigenvalues --    0.64915   0.65064   0.65082   0.65306   0.65325
 Alpha virt. eigenvalues --    0.65453   0.65663   0.65764   0.65894   0.66014
 Alpha virt. eigenvalues --    0.66056   0.66149   0.66237   0.66250   0.66349
 Alpha virt. eigenvalues --    0.66384   0.66520   0.66673   0.66699   0.66819
 Alpha virt. eigenvalues --    0.66827   0.66971   0.67068   0.67148   0.67282
 Alpha virt. eigenvalues --    0.67481   0.67617   0.67713   0.67876   0.68118
 Alpha virt. eigenvalues --    0.68216   0.68312   0.68495   0.68690   0.68831
 Alpha virt. eigenvalues --    0.69006   0.69027   0.69283   0.69319   0.69471
 Alpha virt. eigenvalues --    0.69582   0.69860   0.70011   0.70211   0.70371
 Alpha virt. eigenvalues --    0.70384   0.70453   0.70702   0.70811   0.70908
 Alpha virt. eigenvalues --    0.71109   0.71227   0.71376   0.71514   0.71651
 Alpha virt. eigenvalues --    0.71703   0.71803   0.71980   0.72199   0.72366
 Alpha virt. eigenvalues --    0.72495   0.72577   0.72834   0.72986   0.73155
 Alpha virt. eigenvalues --    0.73372   0.73536   0.73718   0.73877   0.74254
 Alpha virt. eigenvalues --    0.74311   0.74401   0.74591   0.74754   0.74970
 Alpha virt. eigenvalues --    0.75055   0.75450   0.75563   0.75670   0.75826
 Alpha virt. eigenvalues --    0.76211   0.76399   0.76476   0.76563   0.76879
 Alpha virt. eigenvalues --    0.77172   0.77243   0.77415   0.77482   0.77618
 Alpha virt. eigenvalues --    0.77765   0.78191   0.78327   0.78735   0.78954
 Alpha virt. eigenvalues --    0.79074   0.79466   0.79572   0.79760   0.80320
 Alpha virt. eigenvalues --    0.80912   0.81253   0.81560   0.81779   0.81935
 Alpha virt. eigenvalues --    0.82241   0.82402   0.82601   0.82898   0.83049
 Alpha virt. eigenvalues --    0.83173   0.83537   0.83820   0.84016   0.84260
 Alpha virt. eigenvalues --    0.84429   0.84741   0.84979   0.85366   0.85708
 Alpha virt. eigenvalues --    0.85992   0.86181   0.86304   0.86463   0.87110
 Alpha virt. eigenvalues --    0.87217   0.87675   0.87875   0.88200   0.88351
 Alpha virt. eigenvalues --    0.88627   0.88909   0.89153   0.89309   0.89729
 Alpha virt. eigenvalues --    0.89822   0.89950   0.90667   0.90765   0.91044
 Alpha virt. eigenvalues --    0.91147   0.91389   0.91788   0.92237   0.92264
 Alpha virt. eigenvalues --    0.92847   0.92972   0.93176   0.93420   0.93572
 Alpha virt. eigenvalues --    0.93774   0.94213   0.94665   0.94742   0.94992
 Alpha virt. eigenvalues --    0.95157   0.95243   0.95900   0.96182   0.96734
 Alpha virt. eigenvalues --    0.96937   0.97063   0.97313   0.97385   0.97532
 Alpha virt. eigenvalues --    0.97707   0.98053   0.98390   0.98774   0.99046
 Alpha virt. eigenvalues --    0.99068   0.99632   0.99800   1.00273   1.00386
 Alpha virt. eigenvalues --    1.00633   1.00969   1.01145   1.01543   1.02099
 Alpha virt. eigenvalues --    1.02593   1.02763   1.02930   1.03314   1.03751
 Alpha virt. eigenvalues --    1.03982   1.04135   1.04598   1.04734   1.05074
 Alpha virt. eigenvalues --    1.05462   1.05759   1.06025   1.06183   1.06454
 Alpha virt. eigenvalues --    1.06699   1.06884   1.07076   1.07539   1.07836
 Alpha virt. eigenvalues --    1.07951   1.08184   1.08584   1.09028   1.09230
 Alpha virt. eigenvalues --    1.09462   1.09824   1.10226   1.10343   1.10517
 Alpha virt. eigenvalues --    1.10594   1.11074   1.11323   1.11490   1.11872
 Alpha virt. eigenvalues --    1.12113   1.12212   1.12646   1.12819   1.12904
 Alpha virt. eigenvalues --    1.13306   1.13685   1.14057   1.14472   1.14616
 Alpha virt. eigenvalues --    1.14918   1.15382   1.15564   1.15705   1.16235
 Alpha virt. eigenvalues --    1.16615   1.16868   1.17023   1.17301   1.17594
 Alpha virt. eigenvalues --    1.17948   1.18128   1.18238   1.18813   1.19049
 Alpha virt. eigenvalues --    1.19197   1.19657   1.19868   1.20138   1.20240
 Alpha virt. eigenvalues --    1.20575   1.20675   1.21018   1.21158   1.21283
 Alpha virt. eigenvalues --    1.21644   1.21813   1.22145   1.22375   1.22457
 Alpha virt. eigenvalues --    1.22625   1.22829   1.23053   1.23368   1.23571
 Alpha virt. eigenvalues --    1.23704   1.23988   1.24140   1.24341   1.24819
 Alpha virt. eigenvalues --    1.25100   1.25264   1.25634   1.25956   1.26179
 Alpha virt. eigenvalues --    1.26274   1.26525   1.26613   1.26948   1.27175
 Alpha virt. eigenvalues --    1.27335   1.27468   1.27695   1.27870   1.27996
 Alpha virt. eigenvalues --    1.28100   1.28277   1.28749   1.29138   1.29418
 Alpha virt. eigenvalues --    1.29833   1.30047   1.30347   1.30596   1.30767
 Alpha virt. eigenvalues --    1.31241   1.31297   1.31407   1.31778   1.32083
 Alpha virt. eigenvalues --    1.32510   1.32824   1.33124   1.33494   1.33608
 Alpha virt. eigenvalues --    1.33820   1.33929   1.34078   1.34407   1.34726
 Alpha virt. eigenvalues --    1.34954   1.35344   1.35684   1.35886   1.36339
 Alpha virt. eigenvalues --    1.36876   1.36920   1.37611   1.38004   1.38813
 Alpha virt. eigenvalues --    1.38937   1.39230   1.39327   1.39491   1.40050
 Alpha virt. eigenvalues --    1.40541   1.40651   1.40893   1.41300   1.41317
 Alpha virt. eigenvalues --    1.41591   1.42060   1.42601   1.43411   1.43555
 Alpha virt. eigenvalues --    1.44002   1.44264   1.44764   1.44964   1.45196
 Alpha virt. eigenvalues --    1.45573   1.45762   1.45870   1.46165   1.46258
 Alpha virt. eigenvalues --    1.46468   1.46762   1.46850   1.47195   1.47889
 Alpha virt. eigenvalues --    1.48182   1.48587   1.48702   1.48807   1.49149
 Alpha virt. eigenvalues --    1.49352   1.49475   1.49950   1.50735   1.50903
 Alpha virt. eigenvalues --    1.51038   1.51222   1.51435   1.51514   1.51831
 Alpha virt. eigenvalues --    1.52009   1.52402   1.52454   1.52771   1.52911
 Alpha virt. eigenvalues --    1.53460   1.53716   1.54019   1.54521   1.54686
 Alpha virt. eigenvalues --    1.54885   1.55139   1.55342   1.55726   1.56859
 Alpha virt. eigenvalues --    1.57080   1.57591   1.57988   1.58058   1.58477
 Alpha virt. eigenvalues --    1.58800   1.59140   1.59492   1.59537   1.59688
 Alpha virt. eigenvalues --    1.60071   1.60250   1.60812   1.61354   1.61416
 Alpha virt. eigenvalues --    1.61810   1.61869   1.62415   1.62674   1.62964
 Alpha virt. eigenvalues --    1.63157   1.63827   1.63856   1.64650   1.64799
 Alpha virt. eigenvalues --    1.65264   1.65634   1.65938   1.66283   1.66593
 Alpha virt. eigenvalues --    1.66925   1.67550   1.67769   1.67996   1.68872
 Alpha virt. eigenvalues --    1.69081   1.69230   1.69474   1.69660   1.69833
 Alpha virt. eigenvalues --    1.69944   1.70266   1.70390   1.70478   1.70667
 Alpha virt. eigenvalues --    1.70959   1.71301   1.71516   1.71852   1.72022
 Alpha virt. eigenvalues --    1.72047   1.72195   1.72533   1.72965   1.73387
 Alpha virt. eigenvalues --    1.73614   1.73797   1.73898   1.74215   1.74462
 Alpha virt. eigenvalues --    1.74613   1.74662   1.75038   1.75291   1.75497
 Alpha virt. eigenvalues --    1.75619   1.75657   1.75724   1.75914   1.76029
 Alpha virt. eigenvalues --    1.76265   1.76516   1.76616   1.76709   1.76775
 Alpha virt. eigenvalues --    1.76961   1.77103   1.77248   1.77712   1.77829
 Alpha virt. eigenvalues --    1.78023   1.78099   1.78136   1.78513   1.78636
 Alpha virt. eigenvalues --    1.78678   1.78819   1.79089   1.79194   1.79368
 Alpha virt. eigenvalues --    1.79566   1.79705   1.79925   1.80153   1.80201
 Alpha virt. eigenvalues --    1.80366   1.80714   1.80889   1.81085   1.81243
 Alpha virt. eigenvalues --    1.81261   1.81626   1.81836   1.82242   1.82331
 Alpha virt. eigenvalues --    1.82423   1.82702   1.82844   1.82879   1.83311
 Alpha virt. eigenvalues --    1.83439   1.83480   1.83964   1.84279   1.84328
 Alpha virt. eigenvalues --    1.84373   1.84462   1.84822   1.85000   1.85163
 Alpha virt. eigenvalues --    1.85643   1.85880   1.85936   1.86057   1.86318
 Alpha virt. eigenvalues --    1.86517   1.86652   1.87004   1.87037   1.87131
 Alpha virt. eigenvalues --    1.87432   1.87817   1.88002   1.88193   1.88412
 Alpha virt. eigenvalues --    1.88494   1.88572   1.88722   1.88944   1.88977
 Alpha virt. eigenvalues --    1.89107   1.89437   1.89630   1.89863   1.90289
 Alpha virt. eigenvalues --    1.90354   1.90699   1.90777   1.90951   1.91170
 Alpha virt. eigenvalues --    1.91623   1.91819   1.91901   1.92383   1.92605
 Alpha virt. eigenvalues --    1.92815   1.92895   1.92975   1.93086   1.93554
 Alpha virt. eigenvalues --    1.93948   1.94031   1.94171   1.94383   1.94467
 Alpha virt. eigenvalues --    1.94582   1.95000   1.95067   1.95541   1.95879
 Alpha virt. eigenvalues --    1.95957   1.96213   1.96284   1.96495   1.96666
 Alpha virt. eigenvalues --    1.97022   1.97057   1.97150   1.97457   1.97633
 Alpha virt. eigenvalues --    1.97831   1.98322   1.98334   1.98500   1.98872
 Alpha virt. eigenvalues --    1.99136   1.99244   1.99335   1.99460   1.99772
 Alpha virt. eigenvalues --    1.99984   2.00137   2.00244   2.00555   2.00794
 Alpha virt. eigenvalues --    2.00965   2.01430   2.01535   2.01647   2.01971
 Alpha virt. eigenvalues --    2.02134   2.02745   2.03031   2.03218   2.03816
 Alpha virt. eigenvalues --    2.03922   2.04040   2.04206   2.04475   2.04592
 Alpha virt. eigenvalues --    2.04877   2.05285   2.05816   2.06060   2.06225
 Alpha virt. eigenvalues --    2.06563   2.06623   2.07087   2.07241   2.07886
 Alpha virt. eigenvalues --    2.08166   2.08206   2.08636   2.08712   2.08916
 Alpha virt. eigenvalues --    2.09245   2.09434   2.10232   2.10276   2.10427
 Alpha virt. eigenvalues --    2.10554   2.11021   2.11183   2.11386   2.11574
 Alpha virt. eigenvalues --    2.11735   2.12061   2.12136   2.12538   2.12770
 Alpha virt. eigenvalues --    2.12920   2.13289   2.13688   2.13763   2.13845
 Alpha virt. eigenvalues --    2.14087   2.14394   2.14726   2.15226   2.15372
 Alpha virt. eigenvalues --    2.15463   2.15615   2.15697   2.16528   2.17022
 Alpha virt. eigenvalues --    2.17028   2.17208   2.17252   2.17410   2.17549
 Alpha virt. eigenvalues --    2.17932   2.18089   2.18580   2.18887   2.19305
 Alpha virt. eigenvalues --    2.20188   2.20494   2.20777   2.20952   2.21274
 Alpha virt. eigenvalues --    2.21491   2.21876   2.21975   2.22351   2.22773
 Alpha virt. eigenvalues --    2.23160   2.23371   2.23852   2.24201   2.24370
 Alpha virt. eigenvalues --    2.24743   2.25356   2.25496   2.25782   2.25834
 Alpha virt. eigenvalues --    2.25925   2.26348   2.26464   2.26712   2.27075
 Alpha virt. eigenvalues --    2.27497   2.27987   2.28332   2.28390   2.28985
 Alpha virt. eigenvalues --    2.29216   2.29761   2.30390   2.30478   2.30579
 Alpha virt. eigenvalues --    2.30889   2.31169   2.31755   2.31879   2.31999
 Alpha virt. eigenvalues --    2.32591   2.33309   2.33460   2.33894   2.34158
 Alpha virt. eigenvalues --    2.34451   2.34902   2.35263   2.35506   2.35780
 Alpha virt. eigenvalues --    2.36264   2.36379   2.36519   2.36956   2.37254
 Alpha virt. eigenvalues --    2.37386   2.37663   2.38079   2.38876   2.39182
 Alpha virt. eigenvalues --    2.39540   2.39681   2.39697   2.40272   2.40653
 Alpha virt. eigenvalues --    2.40821   2.41325   2.41639   2.42253   2.42512
 Alpha virt. eigenvalues --    2.42580   2.43102   2.43461   2.43610   2.44049
 Alpha virt. eigenvalues --    2.44408   2.44538   2.45152   2.45717   2.45856
 Alpha virt. eigenvalues --    2.46528   2.46742   2.47503   2.47741   2.48196
 Alpha virt. eigenvalues --    2.48323   2.48695   2.49170   2.49608   2.49756
 Alpha virt. eigenvalues --    2.50325   2.50370   2.50745   2.51092   2.51746
 Alpha virt. eigenvalues --    2.51954   2.52684   2.53407   2.53558   2.53938
 Alpha virt. eigenvalues --    2.54234   2.54397   2.54624   2.54938   2.55031
 Alpha virt. eigenvalues --    2.55704   2.56032   2.56259   2.56444   2.56660
 Alpha virt. eigenvalues --    2.57652   2.57914   2.58130   2.59052   2.59341
 Alpha virt. eigenvalues --    2.59621   2.59684   2.59805   2.60000   2.60180
 Alpha virt. eigenvalues --    2.60198   2.60760   2.60959   2.61076   2.61476
 Alpha virt. eigenvalues --    2.62226   2.62325   2.62450   2.62783   2.63014
 Alpha virt. eigenvalues --    2.63071   2.63311   2.63474   2.63551   2.64105
 Alpha virt. eigenvalues --    2.64443   2.64943   2.65360   2.65702   2.65834
 Alpha virt. eigenvalues --    2.66117   2.66326   2.66406   2.66737   2.67022
 Alpha virt. eigenvalues --    2.67446   2.68464   2.68636   2.69106   2.69323
 Alpha virt. eigenvalues --    2.69449   2.69570   2.69797   2.69830   2.70041
 Alpha virt. eigenvalues --    2.70262   2.70832   2.71197   2.71307   2.71560
 Alpha virt. eigenvalues --    2.71987   2.72127   2.72208   2.72628   2.72743
 Alpha virt. eigenvalues --    2.72949   2.73545   2.73881   2.74067   2.74543
 Alpha virt. eigenvalues --    2.74644   2.74992   2.75503   2.75730   2.75965
 Alpha virt. eigenvalues --    2.76019   2.76350   2.76502   2.76896   2.77032
 Alpha virt. eigenvalues --    2.77211   2.77826   2.78117   2.78127   2.78293
 Alpha virt. eigenvalues --    2.78437   2.79243   2.79537   2.79717   2.80103
 Alpha virt. eigenvalues --    2.80197   2.80340   2.80387   2.80786   2.80916
 Alpha virt. eigenvalues --    2.81587   2.81936   2.82519   2.82760   2.82903
 Alpha virt. eigenvalues --    2.83105   2.83439   2.83457   2.83648   2.83824
 Alpha virt. eigenvalues --    2.84102   2.84648   2.84863   2.84903   2.85202
 Alpha virt. eigenvalues --    2.85808   2.85986   2.86161   2.86368   2.86721
 Alpha virt. eigenvalues --    2.87645   2.88233   2.88560   2.88650   2.88765
 Alpha virt. eigenvalues --    2.88827   2.88953   2.88974   2.89230   2.89539
 Alpha virt. eigenvalues --    2.89588   2.90364   2.90407   2.90666   2.90953
 Alpha virt. eigenvalues --    2.90987   2.91348   2.91402   2.91727   2.92413
 Alpha virt. eigenvalues --    2.92636   2.92761   2.92918   2.93709   2.93824
 Alpha virt. eigenvalues --    2.93977   2.94725   2.94803   2.95852   2.96243
 Alpha virt. eigenvalues --    2.96290   2.97028   2.97222   2.97390   2.97570
 Alpha virt. eigenvalues --    2.97834   2.97905   2.98010   2.98313   2.98425
 Alpha virt. eigenvalues --    2.98756   2.99458   2.99887   2.99927   3.00165
 Alpha virt. eigenvalues --    3.00486   3.01158   3.01614   3.01638   3.01929
 Alpha virt. eigenvalues --    3.02284   3.02445   3.02650   3.03265   3.03535
 Alpha virt. eigenvalues --    3.03883   3.03948   3.05354   3.05848   3.06008
 Alpha virt. eigenvalues --    3.06307   3.06504   3.07129   3.07359   3.08064
 Alpha virt. eigenvalues --    3.08389   3.09553   3.09846   3.10183   3.11165
 Alpha virt. eigenvalues --    3.11983   3.12938   3.13188   3.13496   3.13528
 Alpha virt. eigenvalues --    3.14149   3.15291   3.15517   3.15773   3.16118
 Alpha virt. eigenvalues --    3.16235   3.16686   3.17013   3.17345   3.17450
 Alpha virt. eigenvalues --    3.17499   3.17657   3.17832   3.17919   3.17985
 Alpha virt. eigenvalues --    3.18663   3.19084   3.19316   3.19837   3.20165
 Alpha virt. eigenvalues --    3.20220   3.20443   3.20625   3.20818   3.21177
 Alpha virt. eigenvalues --    3.22388   3.23142   3.23878   3.24250   3.24886
 Alpha virt. eigenvalues --    3.25213   3.25361   3.25544   3.25930   3.26701
 Alpha virt. eigenvalues --    3.27388   3.28175   3.28683   3.29667   3.30767
 Alpha virt. eigenvalues --    3.31414   3.32299   3.33624   3.34086   3.34312
 Alpha virt. eigenvalues --    3.34587   3.35411   3.37560   3.39139   3.40501
 Alpha virt. eigenvalues --    3.41143   3.41911   3.44592   3.45063   3.47490
 Alpha virt. eigenvalues --    3.52592   3.52972   3.53073   3.53321   3.54882
 Alpha virt. eigenvalues --    3.55437   3.56395   3.56825   3.58011   3.58379
 Alpha virt. eigenvalues --    3.58751   3.58841   3.58875   3.59398   3.59905
 Alpha virt. eigenvalues --    3.63873   3.65680   3.65943   3.66333   3.66485
 Alpha virt. eigenvalues --    3.67322   3.68175   3.68339   3.68901   3.68975
 Alpha virt. eigenvalues --    3.69350   3.69968   3.70674   3.71564   3.71638
 Alpha virt. eigenvalues --    3.73096   3.73183   3.73978   3.74282   3.75716
 Alpha virt. eigenvalues --    3.76266   3.76979   3.78966   3.79702
          Condensed to atoms (all electrons):
 Mulliken charges:
               1
     1  C    0.079488
     2  C   -0.029526
     3  O   -0.313669
     4  H   -0.013297
     5  H    0.004521
     6  H    0.050607
     7  N   -0.150776
     8  C    0.134843
     9  C    0.098822
    10  O   -0.288038
    11  C    0.002217
    12  C    0.107351
    13  O   -0.374594
    14  O   -0.322021
    15  H    0.115542
    16  H    0.011578
    17  H   -0.004855
    18  H    0.035240
    19  N   -0.094366
    20  C    0.169259
    21  C    0.064372
    22  O   -0.267456
    23  C    0.050604
    24  C   -0.052518
    25  C    0.053786
    26  C    0.028923
    27  N    0.107843
    28  H    0.107737
    29  H   -0.074725
    30  H    0.040285
    31  H   -0.012226
    32  H   -0.062778
    33  H   -0.012202
    34  H    0.067061
    35  H    0.016274
    36  H    0.072259
    37  H    0.061716
    38  H    0.122053
    39  H    0.154730
    40  H    0.170592
    41  N   -0.138094
    42  C    0.100372
    43  C    0.071900
    44  O   -0.258684
    45  C    0.089881
    46  C    0.103351
    47  O   -0.317801
    48  O   -0.505274
    49  H    0.110828
    50  H    0.033366
    51  H   -0.053840
    52  H    0.030871
    53  N   -0.136332
    54  C    0.151060
    55  C    0.044984
    56  O   -0.244178
    57  H    0.125246
    58  H    0.030576
    59  H    0.035794
    60  N   -0.120365
    61  C    0.033718
    62  C    0.078107
    63  O   -0.253185
    64  C    0.128392
    65  C   -0.004858
    66  N   -0.062322
    67  O   -0.238747
    68  H    0.135537
    69  H    0.011635
    70  H    0.017197
    71  H   -0.039809
    72  H    0.112306
    73  H    0.125199
    74  N   -0.140943
    75  C    0.198139
    76  C    0.030978
    77  O   -0.280266
    78  H    0.124819
    79  H    0.038993
    80  H    0.051603
    81  N   -0.097197
    82  C   -0.040091
    83  C    0.155765
    84  O   -0.264449
    85  C    0.207278
    86  C   -0.048643
    87  C   -0.042012
    88  C   -0.015919
    89  C   -0.003035
    90  C   -0.000884
    91  C    0.165716
    92  O   -0.195668
    93  H    0.125135
    94  H    0.009108
    95  H   -0.000041
    96  H    0.007518
    97  H   -0.024570
    98  H   -0.022659
    99  H   -0.016266
   100  H   -0.039002
   101  H    0.172306
   102  N   -0.139832
   103  C    0.145374
   104  C    0.101631
   105  O   -0.253597
   106  C   -0.102273
   107  C    0.027968
   108  C    0.038025
   109  C   -0.026122
   110  H    0.124350
   111  H    0.032737
   112  H    0.008379
   113  H   -0.035103
   114  H    0.012811
   115  H    0.019373
   116  H   -0.032236
   117  H    0.015844
   118  H    0.009288
   119  H    0.028945
   120  H    0.022843
   121  N   -0.095428
   122  C    0.096323
   123  C    0.058382
   124  O   -0.298809
   125  C    0.240003
   126  O   -0.297781
   127  H    0.095669
   128  H    0.010535
   129  H   -0.022542
   130  H   -0.007462
   131  H    0.165754
   132  N   -0.095292
   133  C    0.100969
   134  C    0.084139
   135  O   -0.232394
   136  C    0.002093
   137  H    0.126235
   138  H    0.006904
   139  H    0.032344
   140  H    0.005201
   141  H    0.019171
   142  N   -0.164771
   143  C    0.060760
   144  C    0.084776
   145  O   -0.272750
   146  C    0.073399
   147  H    0.118612
   148  H    0.012504
   149  H   -0.008185
   150  H    0.053698
   151  H    0.034223
   152  N   -0.102743
   153  C    0.083681
   154  C    0.071762
   155  O   -0.280501
   156  C   -0.022490
   157  C    0.163015
   158  C    0.074499
   159  O   -0.449333
   160  O   -0.385617
   161  H    0.099914
   162  H    0.034853
   163  H   -0.008983
   164  H    0.032913
   165  H    0.004992
   166  H    0.001366
   167  N   -0.159604
   168  C    0.136185
   169  H    0.031463
   170  H    0.033144
   171  H    0.010277
   172  H    0.115276
   173  Ca   1.351231
   174  O   -0.306102
   175  H    0.210192
   176  H    0.168726
 Sum of Mulliken charges =  -0.00000
 Mulliken charges with hydrogens summed into heavy atoms:
               1
     1  C    0.121319
     2  C   -0.029526
     3  O   -0.313669
     7  N   -0.035235
     8  C    0.146421
     9  C    0.098822
    10  O   -0.288038
    11  C    0.032602
    12  C    0.107351
    13  O   -0.374594
    14  O   -0.322021
    19  N    0.013371
    20  C    0.094534
    21  C    0.064372
    22  O   -0.267456
    23  C    0.078663
    24  C   -0.127498
    25  C    0.137120
    26  C    0.162898
    27  N    0.555217
    41  N   -0.027266
    42  C    0.133738
    43  C    0.071900
    44  O   -0.258684
    45  C    0.066913
    46  C    0.103351
    47  O   -0.317801
    48  O   -0.505274
    53  N   -0.011086
    54  C    0.217431
    55  C    0.044984
    56  O   -0.244178
    60  N    0.015172
    61  C    0.045354
    62  C    0.078107
    63  O   -0.253185
    64  C    0.105780
    65  C   -0.004858
    66  N    0.175183
    67  O   -0.238747
    74  N   -0.016124
    75  C    0.288735
    76  C    0.030978
    77  O   -0.280266
    81  N    0.027938
    82  C   -0.030983
    83  C    0.155765
    84  O   -0.264449
    85  C    0.214755
    86  C   -0.048643
    87  C   -0.066582
    88  C   -0.038578
    89  C   -0.019301
    90  C   -0.039886
    91  C    0.165716
    92  O   -0.023362
   102  N   -0.015481
   103  C    0.178111
   104  C    0.101631
   105  O   -0.253597
   106  C   -0.093894
   107  C    0.005676
   108  C    0.041006
   109  C    0.034954
   121  N    0.000241
   122  C    0.106858
   123  C    0.058382
   124  O   -0.298809
   125  C    0.209998
   126  O   -0.132027
   132  N    0.030942
   133  C    0.107872
   134  C    0.084139
   135  O   -0.232394
   136  C    0.058809
   142  N   -0.046159
   143  C    0.073264
   144  C    0.084776
   145  O   -0.272750
   146  C    0.153133
   152  N   -0.002830
   153  C    0.118534
   154  C    0.071762
   155  O   -0.280501
   156  C    0.001440
   157  C    0.169374
   158  C    0.074499
   159  O   -0.449333
   160  O   -0.385617
   167  N   -0.044328
   168  C    0.211070
   173  Ca   1.351231
   174  O    0.072816
 DipInt: DoE/N= T F RetVal/Mat= T F Init=T NMatP=  1 IDeriv=0 Min/MaxMlt=  0  4
 Entering OneElI...
 OneElI was handed  1333951383 working-precision words.
 Multipole integrals L=0 to 4 MinM= 0 MaxM= 0.
 Requested accuracy = 0.1000D-12
 ShPair: Thresh= 1.00D-13 NBox=     0 BxSize= 0.00D+00 RnKept= 2.90D+01
         NSMCal=               327645 NSMKep=              135056
 PrmmSu-InSpLW:  IPartL=    0 NPrtUS=    1 NPrtUL=    1 DoSpLW=F IThBeg=    0 IThEnd=    0 NThAct=    1.
 PrsmSu:  NPrtUS=   1 ThrOK=F IAlg=1 NPAlg=1 LenDen=           0 ISkipM=0 DoSpLW=F IThBeg=    0 IThEnd=    0.
 Prism:   IPart=     0 DynPar=F LinDyn=F Incr=         512.
 PRISM was handed  1324878161 working-precision words and135056 shell-pairs
 IPart=  0 NShTot=      135056 NBatch=         314 AvBLen=       430.1
 PrsmSu-ThDecC:  IPartSL=    0    0 NPrtUSL=    1    1 IThBeg=    0 IThEnd=    0 CPU=   -1 GPU=   -1 NThAct=    1.
 PrSmSu:  NxtVal=            513.
 Electronic moments (au):
       -716.00000000         -9.15888413         -9.84889526         10.48132327
     -67137.82109904     -39430.49591266     -16298.51470646       -191.63998568
         76.24894022        -17.70334293     244237.77699301     -58042.77098624
     -20519.51659596     -35269.69384359     138077.40910909     -20814.00291856
     -36984.26975125     -13755.25100995     -81360.21075039       1509.43013202
  -12672020.76473204   -4950421.36702842    -982293.27165761    -668483.99260693
    -658313.46047317     403598.03459112    -555076.81925326     129138.56353793
    -118445.04852700   -2460636.52474622   -1203055.24798151   -1171564.76700042
     637714.92666515     -93033.07797313      51673.65934453
 Electronic spatial extent (au):  <R**2>=         122866.8317
 DipInt: DoE/N= F T RetVal/Mat= T F Init=T NMatP=  1 IDeriv=0 Min/MaxMlt=  0  4
 Nuclear    moments (au):
        716.00000000          0.00000000         -0.00000000          0.00000000
      66658.06755525      39233.51388483      15848.38879546         -0.00000000
         -0.00000000          0.00000000    -248548.68689829      56172.85986478
      21149.42246786      36904.14237659    -138513.92352105      21555.43382399
      36889.65830271      13232.76719012      82511.00954617      -1944.64613818
   12439711.29546833    4867708.72565077     922317.17414256     648469.30525179
     667532.93623382    -434949.70927150     551935.19775084    -124921.58596490
     117038.30712071    2403831.97515276    1155261.41346143    1147108.55504656
    -642301.51363892     103828.81827305     -57876.32422044
 Total      moments (au):
         -0.00000000         -9.15888413         -9.84889526         10.48132327
       -479.75354379       -196.98202782       -450.12591100       -191.63998568
         76.24894022        -17.70334293      -4310.90990529      -1869.91112146
        629.90587191       1634.44853301       -436.51441196        741.43090543
        -94.61144854       -522.48381983       1150.79879578       -435.21600616
    -232309.46926371     -82712.64137765     -59976.09751504     -20014.68735514
       9219.47576065     -31351.67468038      -3141.62150243       4216.97757303
      -1406.74140629     -56804.54959346     -47793.83452008     -24456.21195386
      -4586.58697377      10795.74029992      -6202.66487591
 Traceless Quadrup. (au):
       -104.13304958        178.63846638        -74.50541679       -191.63998568
         76.24894022        -17.70334293
 Charge=             -0.0000 electrons
 Dipole moment (field-independent basis, Debye):
    X=            -23.2796    Y=            -25.0334    Z=             26.6409  Tot=             43.3399
 Quadrupole moment (field-independent basis, Debye-Ang):
   XX=           -645.2849   YY=           -264.9476   ZZ=           -605.4348
   XY=           -257.7623   XZ=            102.5574   YZ=            -23.8116
 Traceless Quadrupole moment (field-independent basis, Debye-Ang):
   XX=           -140.0625   YY=            240.2749   ZZ=           -100.2123
   XY=           -257.7623   XZ=            102.5574   YZ=            -23.8116
 Octapole moment (field-independent basis, Debye-Ang**2):
  XXX=          -3068.3396  YYY=          -1330.9307  ZZZ=            448.3427  XYY=           1163.3375
  XXY=           -310.6941  XXZ=            527.7220  XZZ=            -67.3408  YZZ=           -371.8839
  YYZ=            819.0942  XYZ=           -309.7700
 Hexadecapole moment (field-independent basis, Debye-Ang**3):
 XXXX=         -87498.8857 YYYY=         -31153.5469 ZZZZ=         -22589.8743 XXXY=          -7538.4910
 XXXZ=           3472.4967 YYYX=         -11808.5440 YYYZ=          -1183.2853 ZZZX=           1588.3160
 ZZZY=           -529.8463 XXYY=         -21395.3172 XXZZ=         -18001.4499 YYZZ=          -9211.3821
 XXYZ=          -1727.5286 YYXZ=           4066.1935 ZZXY=          -2336.2210
 N-N= 1.968963240963D+04 E-N=-5.185716074811D+04  KE= 5.290575073256D+03
 Leave Link  601 at Wed Sep 18 19:36:30 2019, MaxMem=  1342177280 cpu:              48.1 elap:               1.2
 FitSet:  NAtFit=   176 NAtPot=   176 NAtFrz=     0 MDM=   180 TotChg=   0.00000
 Merz-Kollman atomic radii used.
 Read replacement radii for each type of atom:
 Rad(20) =   1.700000000000D+00
 Atom Element Radius
    1     6    1.50
    2     6    1.50
    3     8    1.40
    4     1    1.20
    5     1    1.20
    6     1    1.20
    7     7    1.50
    8     6    1.50
    9     6    1.50
   10     8    1.40
   11     6    1.50
   12     6    1.50
   13     8    1.40
   14     8    1.40
   15     1    1.20
   16     1    1.20
   17     1    1.20
   18     1    1.20
   19     7    1.50
   20     6    1.50
   21     6    1.50
   22     8    1.40
   23     6    1.50
   24     6    1.50
   25     6    1.50
   26     6    1.50
   27     7    1.50
   28     1    1.20
   29     1    1.20
   30     1    1.20
   31     1    1.20
   32     1    1.20
   33     1    1.20
   34     1    1.20
   35     1    1.20
   36     1    1.20
   37     1    1.20
   38     1    1.20
   39     1    1.20
   40     1    1.20
   41     7    1.50
   42     6    1.50
   43     6    1.50
   44     8    1.40
   45     6    1.50
   46     6    1.50
   47     8    1.40
   48     8    1.40
   49     1    1.20
   50     1    1.20
   51     1    1.20
   52     1    1.20
   53     7    1.50
   54     6    1.50
   55     6    1.50
   56     8    1.40
   57     1    1.20
   58     1    1.20
   59     1    1.20
   60     7    1.50
   61     6    1.50
   62     6    1.50
   63     8    1.40
   64     6    1.50
   65     6    1.50
   66     7    1.50
   67     8    1.40
   68     1    1.20
   69     1    1.20
   70     1    1.20
   71     1    1.20
   72     1    1.20
   73     1    1.20
   74     7    1.50
   75     6    1.50
   76     6    1.50
   77     8    1.40
   78     1    1.20
   79     1    1.20
   80     1    1.20
   81     7    1.50
   82     6    1.50
   83     6    1.50
   84     8    1.40
   85     6    1.50
   86     6    1.50
   87     6    1.50
   88     6    1.50
   89     6    1.50
   90     6    1.50
   91     6    1.50
   92     8    1.40
   93     1    1.20
   94     1    1.20
   95     1    1.20
   96     1    1.20
   97     1    1.20
   98     1    1.20
   99     1    1.20
  100     1    1.20
  101     1    1.20
  102     7    1.50
  103     6    1.50
  104     6    1.50
  105     8    1.40
  106     6    1.50
  107     6    1.50
  108     6    1.50
  109     6    1.50
  110     1    1.20
  111     1    1.20
  112     1    1.20
  113     1    1.20
  114     1    1.20
  115     1    1.20
[...]
 **** Fit       0.012766
 **** Fit       0.013620
 **** Fit       0.014614
 **** Fit      -0.008769
 **** Fit      -0.005699
 **** Fit      -0.001927
 **** Fit       0.001840
 **** Fit       0.005132
 **** Fit       0.007729
 **** Fit       0.009623
 **** Fit       0.010340
 **** Fit       0.011385
 **** Fit       0.012270
 **** Fit       0.013179
 **** Fit       0.014237
 **** Fit      -0.005278
 **** Fit      -0.000328
 **** Fit       0.003720
 **** Fit       0.006757
 **** Fit       0.008887
 **** Fit       0.009485
 **** Fit       0.010637
 **** Fit       0.011613
 **** Fit       0.012609
 **** Fit       0.013752
 **** Fit      -0.002767
 **** Fit       0.002037
 **** Fit       0.005507
 **** Fit       0.007883
 **** Fit       0.008398
 **** Fit       0.009734
 **** Fit       0.010874
 **** Fit       0.012029
 **** Fit       0.013330
 **** Fit      -0.000288
 **** Fit       0.003806
 **** Fit       0.006554
 **** Fit       0.007175
 **** Fit       0.008813
 **** Fit       0.010223
 **** Fit       0.011654
 **** Fit       0.013252
 **** Fit       0.001516
 **** Fit       0.004925
 **** Fit       0.006070
 **** Fit       0.008071
 **** Fit       0.009824
 **** Fit       0.011610
 **** Fit      -0.000929
 **** Fit       0.003333
 **** Fit       0.005562
 **** Fit       0.007832
 **** Fit       0.009882
 **** Fit       0.017888
 **** Fit       0.018286
 **** Fit       0.018445
 **** Fit       0.017640
 **** Fit       0.018161
 **** Fit       0.018639
 **** Fit       0.018975
 **** Fit       0.019108
 **** Fit       0.019015
 **** Fit       0.017416
 **** Fit       0.017973
 **** Fit       0.018561
 **** Fit       0.019098
 **** Fit       0.019524
 **** Fit       0.019794
 **** Fit       0.019875
 **** Fit       0.019756
 **** Fit       0.019457
 **** Fit       0.017221
 **** Fit       0.017805
 **** Fit       0.018462
 **** Fit       0.019110
 **** Fit       0.019695
 **** Fit       0.020178
 **** Fit       0.020530
 **** Fit       0.020721
 **** Fit       0.020727
 **** Fit       0.020538
 **** Fit       0.020172
 **** Fit       0.017617
 **** Fit       0.018308
 **** Fit       0.019019
 **** Fit       0.019696
 **** Fit       0.020311
 **** Fit       0.020844
 **** Fit       0.021278
 **** Fit       0.021586
 **** Fit       0.021738
 **** Fit       0.021707
 **** Fit       0.021480
 **** Fit       0.021068
 **** Fit       0.017564
 **** Fit       0.018323
 **** Fit       0.019105
 **** Fit       0.019859
 **** Fit       0.020563
 **** Fit       0.021210
 **** Fit       0.021793
 **** Fit       0.022292
 **** Fit       0.022673
 **** Fit       0.022894
 **** Fit       0.022914
 **** Fit       0.022703
 **** Fit       0.022259
 **** Fit       0.017548
 **** Fit       0.018347
 **** Fit       0.019171
 **** Fit       0.019967
 **** Fit       0.020723
 **** Fit       0.021448
 **** Fit       0.022150
 **** Fit       0.022823
 **** Fit       0.023436
 **** Fit       0.023941
 **** Fit       0.024279
 **** Fit       0.024393
 **** Fit       0.024234
 **** Fit       0.017679
 **** Fit       0.018510
 **** Fit       0.019357
 **** Fit       0.020172
 **** Fit       0.020958
 **** Fit       0.021742
 **** Fit       0.022553
 **** Fit       0.023396
 **** Fit       0.024242
 **** Fit       0.025032
 **** Fit       0.025688
 **** Fit       0.026124
 **** Fit       0.026259
 **** Fit       0.026027
 **** Fit       0.018958
 **** Fit       0.019816
 **** Fit       0.020641
 **** Fit       0.021470
 **** Fit       0.022368
 **** Fit       0.023382
 **** Fit       0.024512
 **** Fit       0.025702
 **** Fit       0.026847
 **** Fit       0.027819
 **** Fit       0.028480
 **** Fit       0.028702
 **** Fit       0.019690
 **** Fit       0.020516
 **** Fit       0.021351
 **** Fit       0.022295
 **** Fit       0.023461
 **** Fit       0.024897
 **** Fit       0.026553
 **** Fit       0.028288
 **** Fit       0.029903
 **** Fit       0.031176
 **** Fit       0.031886
 **** Fit       0.020822
 **** Fit       0.021594
 **** Fit       0.022502
 **** Fit       0.023727
 **** Fit       0.025408
 **** Fit       0.027546
 **** Fit       0.029980
 **** Fit       0.032431
 **** Fit       0.034568
 **** Fit       0.023147
 **** Fit       0.024134
 **** Fit       0.025668
 **** Fit       0.028000
 **** Fit       0.033369
 **** Fit       0.034918
 **** Fit       0.035952
 **** Fit       0.022838
 **** Fit       0.023757
 **** Fit       0.025189
 **** Fit       0.027296
 **** Fit       0.029947
 **** Fit       0.032767
 **** Fit       0.035299
 **** Fit       0.037154
 **** Fit       0.038053
 **** Fit       0.018434
 **** Fit       0.018371
 **** Fit       0.018596
 **** Fit       0.019725
 **** Fit       0.022140
 **** Fit       0.025732
 **** Fit       0.029943
 **** Fit       0.034055
 **** Fit       0.037470
 **** Fit       0.039814
 **** Fit       0.040897
 **** Fit       0.014244
 **** Fit       0.012986
 **** Fit       0.023031
 **** Fit       0.029402
 **** Fit       0.035304
 **** Fit       0.039941
 **** Fit       0.042980
 **** Fit       0.044370
 **** Fit       0.032798
 **** Fit       0.039919
 **** Fit       0.061908
 **** Fit       0.049810
 **** Fit       0.066821
 **** Fit       0.068621
 **** Fit       0.070647
 **** Fit       0.059176
 **** Fit       0.046773
 **** Fit       0.034189
 **** Fit       0.071946
 **** Fit       0.080622
 **** Fit       0.083082
 **** Fit       0.079320
 **** Fit       0.076645
 **** Fit       0.065222
 **** Fit       0.053526
 **** Fit       0.042418
 **** Fit       0.031950
 **** Fit       0.074286
 **** Fit       0.085479
 **** Fit       0.092767
 **** Fit       0.095402
 **** Fit       0.093105
 **** Fit       0.086440
 **** Fit       0.079971
 **** Fit       0.068116
 **** Fit       0.056229
 **** Fit       0.045222
 **** Fit       0.035553
 **** Fit       0.026925
 **** Fit       0.071828
 **** Fit       0.084602
 **** Fit       0.094920
 **** Fit       0.102116
 **** Fit       0.105415
 **** Fit       0.104362
 **** Fit       0.099193
 **** Fit       0.090709
 **** Fit       0.056623
 **** Fit       0.045270
 **** Fit       0.035563
 **** Fit       0.027730
 **** Fit       0.068415
 **** Fit       0.081454
 **** Fit       0.092953
 **** Fit       0.102473
 **** Fit       0.109372
 **** Fit       0.112908
 **** Fit       0.112589
 **** Fit       0.023896
 **** Fit       0.018417
 **** Fit       0.060318
 **** Fit       0.073666
 **** Fit       0.086055
 **** Fit       0.097181
 **** Fit       0.106623
 **** Fit       0.113736
 **** Fit       0.117760
 **** Fit       0.118138
 **** Fit       0.064808
 **** Fit       0.077567
 **** Fit       0.089455
 **** Fit       0.100279
 **** Fit       0.109645
 **** Fit       0.116857
 **** Fit       0.121045
 **** Fit       0.121581
 **** Fit       0.068029
 **** Fit       0.080375
 **** Fit       0.091932
 **** Fit       0.102668
 **** Fit       0.062391
 **** Fit       0.075421
 **** Fit       0.087606
 **** Fit       0.099267
 **** Fit       0.055782
 **** Fit       0.069518
 **** Fit       0.082167
 **** Fit       0.094447
 **** Fit       0.058722
 **** Fit       0.072167
 **** Fit       0.084823
 **** Fit       0.047178
 **** Fit       0.061416
 **** Fit       0.074144
 **** Fit       0.055633
 **** Fit       0.068245
 **** Fit       0.050124
 **** Fit       0.062153
 **** Fit       0.041171
 **** Fit       0.053069
 **** Fit       0.063259
 **** Fit      -0.011731
 **** Fit      -0.014585
 **** Fit       0.033482
 **** Fit       0.044916
 **** Fit       0.054521
 **** Fit      -0.017031
 **** Fit      -0.013792
 **** Fit      -0.012906
 **** Fit      -0.013993
 **** Fit       0.030684
 **** Fit       0.041140
 **** Fit       0.049919
 **** Fit      -0.019638
 **** Fit      -0.014297
 **** Fit      -0.011552
 **** Fit      -0.010540
 **** Fit       0.018169
 **** Fit       0.028262
 **** Fit       0.037568
 **** Fit       0.045503
 **** Fit       0.051774
 **** Fit      -0.019533
 **** Fit      -0.012410
 **** Fit      -0.007839
 **** Fit      -0.004506
 **** Fit      -0.001119
 **** Fit       0.003432
 **** Fit       0.009688
 **** Fit       0.017411
 **** Fit       0.025803
 **** Fit       0.033935
 **** Fit       0.041060
 **** Fit       0.046704
 **** Fit      -0.012874
 **** Fit      -0.005366
 **** Fit       0.000532
 **** Fit       0.006226
 **** Fit       0.012583
 **** Fit       0.019738
 **** Fit       0.027189
 **** Fit       0.034156
 **** Fit       0.039944
 **** Fit       0.044151
 **** Fit      -0.003221
 **** Fit       0.004796
 **** Fit       0.012120
 **** Fit       0.019349
 **** Fit       0.026292
 **** Fit       0.032332
 **** Fit       0.036869
 **** Fit       0.003812
 **** Fit       0.012862
 **** Fit       0.020586
 **** Fit       0.026727
 **** Fit       0.030657
 **** Fit       0.031994
 **** Fit       0.001017
 **** Fit       0.011793
 **** Fit       0.018951
 **** Fit       0.021839
 **** Fit       0.120379
 **** Fit       0.082425
 **** Fit       0.067740
 **** Fit       0.061379
 **** Fit       0.062629
 **** Fit       0.055883
 **** Fit       0.056683
 **** Fit       0.058940
 **** Fit       0.051017
 **** Fit       0.051862
 **** Fit       0.054084
 **** Fit       0.057172
 **** Fit       0.060677
 **** Fit       0.046571
 **** Fit       0.047052
 **** Fit       0.048943
 **** Fit       0.051834
 **** Fit       0.055295
 **** Fit       0.058921
 **** Fit       0.062358
 **** Fit       0.041747
 **** Fit       0.042591
 **** Fit       0.044418
 **** Fit       0.047183
 **** Fit       0.050601
 **** Fit       0.054310
 **** Fit       0.057956
 **** Fit       0.033810
 **** Fit       0.036699
 **** Fit       0.039054
 **** Fit       0.041775
 **** Fit       0.045125
 **** Fit       0.048952
 **** Fit       0.029816
 **** Fit       0.034238
 **** Fit       0.038089
 **** Fit       0.042120
 **** Fit       0.079448
 **** Fit       0.074492
 **** Fit       0.069243
 **** Fit       0.076033
 **** Fit       0.071978
 **** Fit       0.067497
 **** Fit       0.062453
 **** Fit       0.056695
 **** Fit       0.037832
 **** Fit       0.072875
 **** Fit       0.069936
 **** Fit       0.066433
 **** Fit       0.062320
 **** Fit       0.057498
 **** Fit       0.051855
 **** Fit       0.045302
 **** Fit       0.035195
 **** Fit       0.068397
 **** Fit       0.067026
 **** Fit       0.064846
 **** Fit       0.061921
 **** Fit       0.058245
 **** Fit       0.053769
 **** Fit       0.048430
 **** Fit       0.042208
 **** Fit       0.033811
 **** Fit       0.061495
 **** Fit       0.061975
 **** Fit       0.061455
 **** Fit       0.060011
 **** Fit       0.057704
 **** Fit       0.054557
 **** Fit       0.050562
 **** Fit       0.045716
 **** Fit       0.040070
 **** Fit       0.053544
 **** Fit       0.055347
 **** Fit       0.056101
 **** Fit       0.055759
 **** Fit       0.054347
 **** Fit       0.051905
 **** Fit       0.048465
 **** Fit       0.044071
 **** Fit       0.038835
 **** Fit       0.044916
 **** Fit       0.047807
 **** Fit       0.049847
 **** Fit       0.050788
 **** Fit       0.050515
 **** Fit       0.049013
 **** Fit       0.046323
 **** Fit       0.042525
 **** Fit       0.037788
 **** Fit       0.027642
 **** Fit       0.032985
 **** Fit       0.037509
 **** Fit       0.041251
 **** Fit       0.044053
 **** Fit       0.045608
 **** Fit       0.045679
 **** Fit       0.044191
 **** Fit       0.041212
 **** Fit       0.036962
 **** Fit       0.025968
 **** Fit       0.031510
 **** Fit       0.036327
 **** Fit       0.039656
 **** Fit       0.040919
 **** Fit       0.039770
 **** Fit       0.036339
 **** Fit       0.030883
 **** Fit       0.030831
 **** Fit       0.035231
 **** Fit       0.035285
 **** Fit       0.030676
 **** Fit       0.120398
 **** Fit       0.120373
 **** Fit       0.119538
 **** Fit       0.117148
 **** Fit       0.119540
 **** Fit       0.112794
 **** Fit       0.111992
 **** Fit       0.114666
 **** Fit       0.118359
 **** Fit       0.120154
 **** Fit       0.109326
 **** Fit       0.105806
 **** Fit       0.105891
 **** Fit       0.108271
 **** Fit       0.111885
 **** Fit       0.115636
 **** Fit       0.118134
 **** Fit       0.102651
 **** Fit       0.099423
 **** Fit       0.099214
 **** Fit       0.100891
 **** Fit       0.103732
 **** Fit       0.107196
 **** Fit       0.110746
 **** Fit       0.098173
 **** Fit       0.093900
 **** Fit       0.092800
 **** Fit       0.093592
 **** Fit       0.095541
 **** Fit       0.098198
 **** Fit       0.101244
 **** Fit       0.104386
 **** Fit       0.107289
 **** Fit       0.088764
 **** Fit       0.087110
 **** Fit       0.087299
 **** Fit       0.088584
 **** Fit       0.090534
 **** Fit       0.092878
 **** Fit       0.095423
 **** Fit       0.097999
 **** Fit       0.100429
 **** Fit       0.102486
 **** Fit       0.083417
 **** Fit       0.081814
 **** Fit       0.081955
 **** Fit       0.083092
 **** Fit       0.084804
 **** Fit       0.086837
 **** Fit       0.089022
 **** Fit       0.091225
 **** Fit       0.093321
 **** Fit       0.095168
 **** Fit       0.096572
 **** Fit       0.078381
 **** Fit       0.076972
 **** Fit       0.077142
 **** Fit       0.078193
 **** Fit       0.079734
 **** Fit       0.081532
 **** Fit       0.083437
 **** Fit       0.085337
 **** Fit       0.087139
 **** Fit       0.088743
 **** Fit       0.090033
 **** Fit       0.090856
 **** Fit       0.091022
 **** Fit       0.090368
 **** Fit       0.074953
 **** Fit       0.072851
 **** Fit       0.072623
 **** Fit       0.073412
 **** Fit       0.074753
 **** Fit       0.076376
 **** Fit       0.078116
 **** Fit       0.079862
 **** Fit       0.081530
 **** Fit       0.083047
 **** Fit       0.084334
 **** Fit       0.085303
 **** Fit       0.085848
 **** Fit       0.085854
 **** Fit       0.085240
 **** Fit       0.069115
 **** Fit       0.068711
 **** Fit       0.069455
 **** Fit       0.070796
 **** Fit       0.072426
 **** Fit       0.074160
 **** Fit       0.075884
 **** Fit       0.077515
 **** Fit       0.078988
 **** Fit       0.080245
 **** Fit       0.081224
 **** Fit       0.081862
 **** Fit       0.082100
 **** Fit       0.065282
 **** Fit       0.065561
 **** Fit       0.066735
 **** Fit       0.068344
 **** Fit       0.070127
 **** Fit       0.071931
 **** Fit       0.073662
 **** Fit       0.075258
 **** Fit       0.076677
 **** Fit       0.077891
 **** Fit       0.078890
 **** Fit       0.079688
 **** Fit       0.063123
 **** Fit       0.064652
 **** Fit       0.066469
 **** Fit       0.068371
 **** Fit       0.070244
 **** Fit       0.072026
 **** Fit       0.073695
 **** Fit       0.075262
 **** Fit       0.076785
 **** Fit       0.061877
 **** Fit       0.063892
 **** Fit       0.066047
 **** Fit       0.068210
 **** Fit       0.070335
 **** Fit       0.072450
 **** Fit       0.064286
 **** Fit       0.066842
 **** Fit       0.069493
 -----------------------------------------------------------------
 Leave Link  602 at Wed Sep 18 19:36:32 2019, MaxMem=  1342177280 cpu:             120.0 elap:               2.5

 Test job not archived.
 1\1\GINC-C506-132\SP\RB3LYP\SVP\C54H83Ca1N15O23\PENGZHI\18-Sep-2019\0\
 \#b3lyp/svp scf=(tight,noincore) Test #IOP(5/87=12) Density=Current Po
 p=(MK,readradii) iop(6/33=2) iop(6/42=6)\\Ng-31_loop3_43.0\\0,1\C,0,-0
 .296,90.26,14.73\C,0,-0.226,89.04,15.63\O,0,-1.246,88.63,16.18\H,0,-0.
 766,91.082,15.27\H,0,0.711,90.55,14.431\H,0,-0.885,90.025,13.843\N,0,0
 .944,88.4,15.74\C,0,1.134,87.14,16.44\C,0,1.834,87.27,17.78\O,0,1.844,
 86.31,18.54\C,0,1.824,86.19,15.46\C,0,3.094,86.66,14.76\O,0,3.524,87.8
 3,14.87\O,0,3.664,85.84,14.01\H,0,1.774,88.84,15.38\H,0,0.154,86.72,16
 .67\H,0,1.034,85.85,14.79\H,0,2.084,85.31,16.05\N,0,2.384,88.46,18.06\
 C,0,3.014,88.75,19.33\C,0,4.324,88.,19.53\O,0,5.304,88.3,18.84\C,0,3.1
 84,90.25,19.53\C,0,1.954,91.15,19.63\C,0,2.104,92.62,20.\C,0,0.814,93.
 38,19.69\N,0,-0.426,92.83,20.26\H,0,2.344,89.21,17.39\H,0,2.394,88.39,
 20.15\H,0,3.684,90.64,18.65\H,0,3.694,90.47,20.47\H,0,1.244,90.61,20.2
 6\H,0,1.344,91.08,18.73\H,0,2.924,93.03,19.42\H,0,2.314,92.66,21.07\H,
 0,0.534,93.48,18.65\H,0,0.964,94.34,20.2\H,0,-0.156,92.54,21.18\H,0,-1
 .166,93.52,20.34\H,0,-0.766,92.01,19.78\N,0,4.394,87.05,20.46\C,0,5.46
 4,86.08,20.6\C,0,5.194,84.72,19.96\O,0,6.054,83.84,19.93\C,0,5.584,85.
 79,22.1\C,0,4.304,85.35,22.8\O,0,4.284,84.23,23.37\O,0,3.244,85.97,22.
 6\H,0,3.604,86.88,21.07\H,0,6.434,86.4,20.23\H,0,5.854,86.77,22.48\H,0
 ,6.454,85.17,22.32\N,0,3.984,84.5,19.44\C,0,3.414,83.33,18.82\C,0,4.10
 4,83.06,17.49\O,0,4.964,83.78,16.98\H,0,3.384,85.31,19.5\H,0,2.354,83.
 52,18.64\H,0,3.494,82.42,19.42\N,0,3.664,82.06,16.72\C,0,2.624,81.09,1
 6.97\C,0,1.904,80.8,15.66\O,0,2.414,80.21,14.71\C,0,3.364,79.84,17.43\
 C,0,4.154,79.93,18.74\N,0,3.444,79.89,19.87\O,0,5.374,80.06,18.68\H,0,
 4.094,82.06,15.81\H,0,2.024,81.36,17.84\H,0,4.004,79.4,16.67\H,0,2.574
 ,79.11,17.57\H,0,2.464,79.65,19.83\H,0,3.834,80.01,20.79\N,0,0.694,81.
 33,15.46\C,0,0.034,82.38,16.21\C,0,-0.606,82.,17.54\O,0,-0.686,82.86,1
 8.42\H,0,0.374,81.18,14.51\H,0,-0.726,82.86,15.6\H,0,0.804,83.13,16.33
 \N,0,-0.806,80.72,17.85\C,0,-1.506,80.22,19.01\C,0,-0.496,80.06,20.14\
 O,0,0.654,79.65,19.99\C,0,-2.266,78.94,18.64\C,0,-3.026,78.9,17.34\C,0
 ,-3.906,79.92,16.95\C,0,-3.076,77.7,16.62\C,0,-4.746,79.81,15.83\C,0,-
 3.916,77.5,15.52\C,0,-4.756,78.58,15.15\O,0,-5.496,78.49,14.01\H,0,-0.
 736,80.05,17.09\H,0,-2.256,80.97,19.26\H,0,-2.946,78.88,19.49\H,0,-1.5
 06,78.17,18.49\H,0,-3.876,80.83,17.53\H,0,-2.406,76.9,16.89\H,0,-5.316
 ,80.71,15.63\H,0,-3.956,76.6,14.94\H,0,-5.506,77.61,13.64\N,0,-1.066,8
 0.42,21.29\C,0,-0.496,80.94,22.52\C,0,-0.786,80.08,23.74\O,0,-0.106,80
 .11,24.76\C,0,-0.886,82.4,22.78\C,0,-0.476,83.43,21.73\C,0,-2.386,82.6
 5,22.9\C,0,0.934,83.24,21.18\H,0,-2.066,80.5,21.17\H,0,0.584,80.96,22.
 39\H,0,-0.376,82.71,23.69\H,0,-0.446,84.39,22.24\H,0,-1.126,83.25,20.8
 7\H,0,-2.586,83.71,23.06\H,0,-2.916,82.37,22.\H,0,-2.906,82.12,23.69\H
 ,0,1.234,84.13,20.62\H,0,1.664,83.12,21.98\H,0,0.954,82.45,20.43\N,0,-
 1.786,79.21,23.58\C,0,-2.216,78.27,24.58\C,0,-3.256,78.99,25.43\O,0,-4
 .036,79.76,24.87\C,0,-2.846,77.01,23.99\O,0,-2.066,76.45,22.95\H,0,-2.
 346,79.27,22.74\H,0,-1.466,77.95,25.31\H,0,-3.796,77.29,23.53\H,0,-3.0
 66,76.22,24.71\H,0,-2.676,75.95,22.4\N,0,-3.286,78.72,26.74\C,0,-4.226
 ,79.24,27.71\C,0,-4.016,80.62,28.32\O,0,-2.956,81.21,28.15\C,0,-4.246,
 78.2,28.83\H,0,-2.576,78.08,27.06\H,0,-5.206,79.18,27.23\H,0,-3.306,77
 .92,29.29\H,0,-4.976,78.47,29.6\H,0,-4.606,77.24,28.44\N,0,-5.006,81.1
 2,29.06\C,0,-4.836,82.28,29.91\C,0,-4.596,83.63,29.25\O,0,-4.406,84.66
 ,29.89\C,0,-3.936,81.96,31.1\H,0,-5.806,80.52,29.22\H,0,-5.866,82.4,30
 .26\H,0,-4.246,81.01,31.55\H,0,-2.876,81.91,30.83\H,0,-4.176,82.73,31.
 84\N,0,-4.756,83.75,27.93\C,0,-4.676,85.02,27.23\C,0,-5.856,85.43,26.3
 6\O,0,-6.166,86.62,26.31\C,0,-3.376,84.96,26.43\C,0,-2.956,86.36,25.99
 \C,0,-1.526,86.31,25.47\O,0,-1.366,86.36,24.24\O,0,-0.546,86.26,26.25\
 H,0,-5.186,82.98,27.44\H,0,-4.576,85.82,27.97\H,0,-3.486,84.19,25.67\H
 ,0,-2.586,84.62,27.1\H,0,-2.936,86.96,26.9\H,0,-3.676,86.58,25.2\N,0,-
 6.686,84.49,25.91\C,0,-7.786,84.87,25.05\H,0,-8.606,85.253,25.658\H,0,
 -7.456,85.644,24.357\H,0,-8.126,84.,24.488\H,0,-6.356,83.53,25.88\Ca,0
 ,1.17,86.87,23.86\O,0,3.,88.78,23.84\H,0,3.95,88.81,23.74\H,0,2.76,89.
 64,24.16\\Version=ES64L-G16RevA.03\State=1-A\HF=-5333.2924852\RMSD=6.8
 34e-10\Dipole=-12.7803713,8.3762365,7.5660296\Quadrupole=-132.8326712,
 264.7538754,-131.9212043,84.0456997,85.8525958,0.94989\PG=C01 [X(C54H8
 3Ca1N15O23)]\\@


       THE DEATH-KNELL OF THE ATOM

 SO THE ATOMS IN TURN, WE NOW CLEARLY DISCERN,
 FLY TO BITS WITH THE UTMOST FACILITY;
 THEY WEND ON THEIR WAY, AND, IN SPLITTING, DISPLAY
 AN ABSOLUTE LACK OF STABILITY.

          SIR WM. RAMSAY, 1905
 Job cpu time:       0 days 14 hours  0 minutes 10.4 seconds.
 Elapsed time:       0 days  0 hours 17 minutes 44.1 seconds.
 File lengths (MBytes):  RWF=   1517 Int=      0 D2E=      0 Chk=    171 Scr=      1
 Normal termination of Gaussian 16 at Wed Sep 18 19:36:34 2019.
