 Entering Gaussian System, Link 0=g16
 Initial command:
 /home1/apps/gaussian/16rA.03/g16/l1.exe "/scratch/01990/pengzhi/4354917/Gau-456057.inp" -scrdir="/scratch/01990/pengzhi/4354917/"
 Entering Link 1 = /home1/apps/gaussian/16rA.03/g16/l1.exe PID=    456058.
  
 Copyright (c) 1988,1990,1992,1993,1995,1998,2003,2009,2016,
            Gaussian, Inc.  All Rights Reserved.
  
 This is part of the Gaussian(R) 16 program.  It is based on
 the Gaussian(R) 09 system (copyright 2009, Gaussian, Inc.),
 the Gaussian(R) 03 system (copyright 2003, Gaussian, Inc.),
 the Gaussian(R) 98 system (copyright 1998, Gaussian, Inc.),
 the Gaussian(R) 94 system (copyright 1995, Gaussian, Inc.),
 the Gaussian 92(TM) system (copyright 1992, Gaussian, Inc.),
 the Gaussian 90(TM) system (copyright 1990, Gaussian, Inc.),
 the Gaussian 88(TM) system (copyright 1988, Gaussian, Inc.),
 the Gaussian 86(TM) system (copyright 1986, Carnegie Mellon
 University), and the Gaussian 82(TM) system (copyright 1983,
 Carnegie Mellon University). Gaussian is a federally registered
 trademark of Gaussian, Inc.
  
 This software contains proprietary and confidential information,
 including trade secrets, belonging to Gaussian, Inc.
  
 This software is provided under written license and may be
 used, copied, transmitted, or stored only in accord with that
 written license.
  
 The following legend is applicable only to US Government
 contracts under FAR:
  
                    RESTRICTED RIGHTS LEGEND
  
 Use, reproduction and disclosure by the US Government is
 subject to restrictions as set forth in subparagraphs (a)
 and (c) of the Commercial Computer Software - Restricted
 Rights clause in FAR 52.227-19.
  
 Gaussian, Inc.
 340 Quinnipiac St., Bldg. 40, Wallingford CT 06492
  
  
 ---------------------------------------------------------------
 Warning -- This program may not be used in any manner that
 competes with the business of Gaussian, Inc. or will provide
 assistance to any competitor of Gaussian, Inc.  The licensee
 of this program is prohibited from giving any competitor of
 Gaussian, Inc. access to this program.  By using this program,
 the user acknowledges that Gaussian, Inc. is engaged in the
 business of creating and licensing software in the field of
 computational chemistry and represents and warrants to the
 licensee that it is not a competitor of Gaussian, Inc. and that
 it will not use this program in any manner prohibited above.
 ---------------------------------------------------------------
  

 Cite this work as:
 Gaussian 16, Revision A.03,
 M. J. Frisch, G. W. Trucks, H. B. Schlegel, G. E. Scuseria, 
 M. A. Robb, J. R. Cheeseman, G. Scalmani, V. Barone, 
 G. A. Petersson, H. Nakatsuji, X. Li, M. Caricato, A. V. Marenich, 
 J. Bloino, B. G. Janesko, R. Gomperts, B. Mennucci, H. P. Hratchian, 
 J. V. Ortiz, A. F. Izmaylov, J. L. Sonnenberg, D. Williams-Young, 
 F. Ding, F. Lipparini, F. Egidi, J. Goings, B. Peng, A. Petrone, 
 T. Henderson, D. Ranasinghe, V. G. Zakrzewski, J. Gao, N. Rega, 
 G. Zheng, W. Liang, M. Hada, M. Ehara, K. Toyota, R. Fukuda, 
 J. Hasegawa, M. Ishida, T. Nakajima, Y. Honda, O. Kitao, H. Nakai, 
 T. Vreven, K. Throssell, J. A. Montgomery, Jr., J. E. Peralta, 
 F. Ogliaro, M. J. Bearpark, J. J. Heyd, E. N. Brothers, K. N. Kudin, 
 V. N. Staroverov, T. A. Keith, R. Kobayashi, J. Normand, 
 K. Raghavachari, A. P. Rendell, J. C. Burant, S. S. Iyengar, 
 J. Tomasi, M. Cossi, J. M. Millam, M. Klene, C. Adamo, R. Cammi, 
 J. W. Ochterski, R. L. Martin, K. Morokuma, O. Farkas, 
 J. B. Foresman, and D. J. Fox, Gaussian, Inc., Wallingford CT, 2016.
 
 ******************************************
 Gaussian 16:  ES64L-G16RevA.03 25-Dec-2016
                18-Sep-2019 
 ******************************************
 %chk=Ng-31_loop3_14.0.chk
 %nprocshared=48
 Will use up to   48 processors via shared memory.
 %mem=10GB
 %nosave
 ----------------------------------------------------------------------
 #b3lyp/svp scf=(tight,noincore) Test #IOP(5/87=12) Density=Current Pop
 =(MK,readradii) iop(6/33=2) iop(6/42=6)
 ----------------------------------------------------------------------
 1/30=1,38=1,172=1/1;
 2/12=2,17=6,18=5,40=1/2;
 3/5=18,7=101,11=2,25=1,30=1,74=-5/1,2,3;
 4//1;
 5/5=4,32=2,38=5,87=12/2;
 6/7=2,8=2,9=2,10=2,15=8,20=101,22=-1,28=1,33=2,42=6/1,2;
 99/5=1,9=1/99;
 ----------------
 Ng-31_loop3_14.0
 ----------------
 Symbolic Z-matrix:
 Charge =  0 Multiplicity = 1
 C                     88.17     73.95     28.91 
 C                     87.35     73.33     30.03 
 O                     86.27     73.79     30.38 
 H                     89.155    73.483    28.88 
 H                     87.664    73.791    27.958 
 H                     88.281    75.019    29.089 
 N                     87.89     72.28     30.66 
 C                     87.22     71.57     31.73 
 C                     87.55     71.96     33.17 
 O                     86.82     71.54     34.06 
 C                     87.43     70.06     31.66 
 C                     88.83     69.48     31.54 
 O                     89.64     70.19     30.91 
 O                     89.04     68.28     31.85 
 H                     88.74     71.89     30.28 
 H                     86.15     71.72     31.59 
 H                     87.02     69.65     30.73 
 H                     86.88     69.66     32.51 
 N                     88.62     72.72     33.41 
 C                     88.86     73.38     34.68 
 C                     89.2      72.33     35.73 
 O                     89.9      71.36     35.49 
 C                     89.91     74.46     34.45 
 C                     89.34     75.82     34.04 
 C                     90.43     76.85     33.77 
 C                     89.9      78.15     33.17 
 N                     89.32     79.01     34.2 
 H                     89.16     73.04     32.62 
 H                     87.97     73.91     35.03 
 H                     90.64     74.09     33.73 
 H                     90.49     74.69     35.34 
 H                     88.69     76.19     34.83 
 H                     88.65     75.62     33.22 
 H                     91.05     76.36     33.02 
 H                     90.99     76.94     34.71 
 H                     89.2      77.86     32.38 
 H                     90.8      78.53     32.69 
 H                     88.78     79.72     33.73 
 H                     88.75     78.41     34.78 
 H                     89.95     79.46     34.85 
 N                     88.7      72.61     36.94 
 C                     88.72     71.62     38. 
 C                     87.69     70.5      37.95 
 O                     87.42     69.79     38.92 
 C                     88.62     72.38     39.33 
 C                     87.37     73.24     39.42 
 O                     87.41     74.38     38.9 
 O                     86.32     72.76     39.89 
 H                     88.24     73.49     37.13 
 H                     89.74     71.24     37.99 
 H                     89.41     73.12     39.46 
 H                     88.63     71.75     40.22 
 N                     86.98     70.48     36.82 
 C                     86.02     69.45     36.46 
 C                     86.57     68.11     36.01 
 O                     87.78     67.92     36.16 
 H                     87.18     71.14     36.09 
 H                     85.38     69.87     35.69 
 H                     85.39     69.29     37.33 
 N                     85.74     67.11     35.71 
 C                     84.29     67.06     35.63 
 C                     83.78     66.42     34.35 
 O                     83.74     65.19     34.28 
 C                     83.81     66.25     36.83 
 C                     84.29     66.77     38.18 
 N                     85.38     66.26     38.76 
 O                     83.63     67.64     38.75 
 H                     86.23     66.3      35.37 
 H                     83.82     68.03     35.8 
 H                     84.23     65.25     36.75 
 H                     82.73     66.38     36.78 
 H                     85.81     65.53     38.2 
 H                     85.95     66.71     39.45 
 N                     83.2      67.16     33.4 
 C                     83.34     68.58     33.17 
 C                     82.41     69.42     34.03 
 O                     82.81     70.49     34.5 
 H                     82.82     66.66     32.62 
 H                     83.23     68.9      32.13 
 H                     84.32     68.92     33.49 
 N                     81.14     69.03     34.18 
 C                     80.15     69.76     34.95 
 C                     80.6      69.74     36.4 
 O                     81.18     68.83     36.98 
 C                     78.84     69.06     34.6 
 C                     78.28     69.38     33.23 
 C                     77.99     70.69     32.84 
 C                     77.96     68.32     32.37 
 C                     77.41     70.97     31.6 
 C                     77.59     68.6      31.05 
 C                     77.23     69.91     30.68 
 O                     76.85     70.14     29.39 
 H                     80.82     68.21     33.69 
 H                     80.19     70.76     34.52 
 H                     78.12     69.48     35.3 
 H                     78.99     68.       34.76 
 H                     78.26     71.5      33.5 
 H                     78.17     67.31     32.67 
 H                     77.3      72.01     31.32 
 H                     77.41     67.81     30.34 
 H                     76.78     69.34     28.87 
 N                     80.06     70.77     37.06 
 C                     80.44     71.21     38.39 
 C                     79.42     70.93     39.49 
 O                     79.72     70.87     40.68 
 C                     80.82     72.69     38.37 
 C                     82.05     73.06     37.54 
 C                     79.62     73.54     37.98 
 C                     83.34     72.31     37.86 
 H                     79.42     71.31     36.49 
 H                     81.25     70.58     38.75 
 H                     81.18     72.98     39.36 
 H                     82.31     74.11     37.66 
 H                     81.82     72.9      36.48 
 H                     79.38     73.45     36.92 
 H                     78.74     73.25     38.56 
 H                     79.86     74.57     38.25 
 H                     84.16     72.76     37.3 
 H                     83.54     72.38     38.92 
 H                     83.23     71.26     37.56 
 N                     78.18     70.62     39.12 
 C                     77.19     70.03     40. 
 C                     76.49     71.12     40.79 
 O                     76.04     72.11     40.23 
 C                     76.24     69.23     39.11 
 O                     75.59     68.27     39.91 
 H                     78.03     70.7      38.12 
 H                     77.65     69.31     40.69 
 H                     76.81     68.73     38.32 
 H                     75.59     69.87     38.52 
 H                     75.24     67.51     39.42 
 N                     76.65     70.99     42.11 
 C                     75.85     71.81     43. 
 C                     76.78     72.69     43.83 
 O                     77.86     72.3      44.25 
 C                     75.04     70.93     43.95 
 H                     77.18     70.2      42.44 
 H                     75.06     72.34     42.48 
 H                     75.69     70.53     44.72 
 H                     74.43     71.68     44.46 
 H                     74.36     70.19     43.53 
 N                     76.19     73.86     44.11 
 C                     76.8      75.       44.75 
 C                     78.07     75.44     44.04 
 O                     79.04     75.74     44.73 
 C                     76.93     74.66     46.23 
 H                     75.29     74.07     43.68 
 H                     76.11     75.84     44.63 
 H                     77.44     75.45     46.77 
 H                     75.92     74.78     46.61 
 H                     77.4      73.68     46.37 
 N                     78.       75.46     42.71 
 C                     79.09     76.01     41.92 
 C                     78.62     76.8      40.71 
 O                     79.12     77.92     40.59 
 C                     80.08     74.91     41.55 
 C                     81.47     75.43     41.18 
 C                     82.6      74.46     41.5 
 O                     82.53     73.74     42.51 
 O                     83.55     74.28     40.7 
 H                     77.12     75.19     42.28 
 H                     79.62     76.76     42.5 
 H                     79.7      74.43     40.64 
 H                     80.09     74.27     42.43 
 H                     81.77     76.39     41.6 
 H                     81.51     75.57     40.1 
 N                     77.56     76.45     39.97 
 C                     76.93     77.38     39.05 
 H                     76.017    77.771    39.498 
 H                     77.613    78.203    38.84 
 H                     76.686    76.864    38.121 
 H                     77.09     75.58     40.14 
 Ca                    84.75     72.24     41.81 
 O                     87.04     71.76     42.99 
 H                     86.73     71.69     43.89 
 H                     87.72     72.44     43.02 
 
 Stoichiometry    C54H83CaN15O23
 Framework group  C1[X(C54H83CaN15O23)]
 Deg. of freedom   522
 Full point group                 C1      NOp   1
 Largest Abelian subgroup         C1      NOp   1
 Largest concise Abelian subgroup C1      NOp   1
                         Standard orientation:                         
 ---------------------------------------------------------------------
 Center     Atomic      Atomic             Coordinates (Angstroms)
 Number     Number       Type             X           Y           Z
 ---------------------------------------------------------------------
      1          6           0        9.180769    0.467487    4.404598
      2          6           0        7.906483    0.662184    3.598692
      3          8           0        6.809993    0.785177    4.130748
      4          1           0       10.001832    0.219564    3.731097
      5          1           0        9.416095    1.386779    4.940456
      6          1           0        9.039755   -0.343718    5.118171
      7          7           0        8.028649    0.639594    2.266188
      8          6           0        6.910272    0.833819    1.366516
      9          6           0        6.205799   -0.405096    0.815691
     10          8           0        5.125648   -0.250805    0.258137
     11          6           0        7.273580    1.671641    0.143749
     12          6           0        8.481000    1.312524   -0.707117
     13          8           0        9.426553    0.790151   -0.082492
     14          8           0        8.570129    1.746391   -1.883559
     15          1           0        8.961046    0.619197    1.879899
     16          1           0        6.165572    1.417771    1.906351
     17          1           0        7.594610    2.677086    0.438912
     18          1           0        6.354387    1.736440   -0.435806
     19          7           0        6.791534   -1.597243    0.941386
     20          6           0        6.098087   -2.852976    0.721462
     21          6           0        5.800216   -3.003210   -0.764911
     22          8           0        6.589672   -2.668413   -1.632764
     23          6           0        6.933934   -3.960532    1.351128
     24          6           0        6.616418   -4.234201    2.823164
     25          6           0        7.513527   -5.310963    3.421226
     26          6           0        7.353726   -5.462460    4.931992
     27          7           0        6.165070   -6.246717    5.262049
     28          1           0        7.673304   -1.642140    1.429817
     29          1           0        5.139519   -2.878082    1.246835
     30          1           0        7.988746   -3.732903    1.196997
     31          1           0        6.787175   -4.928737    0.879491
     32          1           0        5.578244   -4.546146    2.914733
     33          1           0        6.631414   -3.262799    3.317788
     34          1           0        8.515899   -4.932381    3.223932
     35          1           0        7.334347   -6.211665    2.819620
     36          1           0        7.351427   -4.448034    5.343250
     37          1           0        8.307261   -5.920288    5.188826
     38          1           0        5.976767   -6.109149    6.242976
     39          1           0        5.423274   -5.896049    4.672074
     40          1           0        6.186131   -7.239508    5.072781
     41          7           0        4.619015   -3.582964   -1.012195
     42          6           0        4.063853   -3.597234   -2.352229
     43          6           0        3.425578   -2.317306   -2.873945
     44          8           0        2.676609   -2.288704   -3.851763
     45          6           0        3.061831   -4.758551   -2.413827
     46          6           0        1.958826   -4.635443   -1.375354
     47          8           0        2.200681   -5.052577   -0.218156
     48          8           0        0.907454   -4.027904   -1.656979
     49          1           0        4.054275   -3.968297   -0.267422
     50          1           0        4.889836   -3.928710   -2.978947
     51          1           0        3.505562   -5.720262   -2.155340
     52          1           0        2.569424   -4.888665   -3.378039
     53          7           0        3.603592   -1.267502   -2.069195
     54          6           0        3.206572    0.095291   -2.381080
     55          6           0        4.053693    0.857136   -3.382369
     56          8           0        4.903256    0.213853   -4.004566
     57          1           0        4.151636   -1.363385   -1.233161
     58          1           0        3.163019    0.634818   -1.439851
     59          1           0        2.188346    0.047812   -2.755729
     60          7           0        3.714753    2.095311   -3.744227
     61          6           0        2.662336    2.977682   -3.269634
     62          6           0        3.153629    4.377176   -2.940775
     63          8           0        3.296468    5.184427   -3.861288
     64          6           0        1.617010    3.052858   -4.377850
     65          6           0        1.070834    1.702937   -4.828078
     66          7           0        1.588695    1.075690   -5.887787
     67          8           0        0.112546    1.218770   -4.224202
     68          1           0        4.390499    2.506868   -4.365346
     69          1           0        2.093240    2.554761   -2.440196
     70          1           0        2.093781    3.470574   -5.261593
     71          1           0        0.809517    3.603297   -3.897463
     72          1           0        2.350114    1.597291   -6.311548
     73          1           0        1.538444    0.093523   -6.078369
     74          7           0        3.236900    4.791842   -1.672857
     75          6           0        3.341412    3.984496   -0.478634
     76          6           0        1.995400    3.503742    0.038305
     77          8           0        1.890138    2.365652    0.506784
     78          1           0        3.494891    5.749805   -1.536664
     79          1           0        3.885260    4.443366    0.351889
     80          1           0        3.851471    3.051361   -0.696576
     81          7           0        0.969936    4.361148    0.066187
     82          6           0       -0.353177    4.031604    0.562850
     83          6           0       -0.929304    2.968645   -0.355625
     84          8           0       -0.759426    2.867427   -1.564673
     85          6           0       -1.058718    5.383471    0.620011
     86          6           0       -0.649009    6.280362    1.769196
     87          6           0       -0.759942    5.869857    3.100165
     88          6           0       -0.235580    7.589724    1.485916
     89          6           0       -0.444016    6.728162    4.156528
     90          6           0        0.291777    8.376719    2.515592
     91          6           0        0.114606    7.993776    3.858933
     92          8           0        0.620476    8.799562    4.836791
     93          1           0        1.122881    5.314652   -0.220757
     94          1           0       -0.153895    3.648096    1.562704
     95          1           0       -2.098404    5.131364    0.820746
     96          1           0       -0.934726    5.851216   -0.348255
     97          1           0       -1.058191    4.853528    3.306861
     98          1           0       -0.160001    7.914169    0.464533
     99          1           0       -0.459008    6.318540    5.158568
    100          1           0        0.688537    9.359308    2.321427
    101          1           0        0.981534    9.618949    4.499830
    102          7           0       -1.869861    2.269600    0.288416
    103          6           0       -2.471384    1.035148   -0.181902
    104          6           0       -3.921482    1.146488   -0.644091
    105          8           0       -4.442724    0.339089   -1.409672
    106          6           0       -2.323244   -0.061499    0.871957
    107          6           0       -0.893760   -0.497754    1.195927
    108          6           0       -3.081677    0.312878    2.136560
    109          6           0       -0.032477   -0.942963    0.017376
    110          1           0       -2.053196    2.622667    1.219991
    111          1           0       -2.015083    0.761491   -1.130322
    112          1           0       -2.708086   -1.000558    0.467154
    113          1           0       -0.881345   -1.346771    1.876747
    114          1           0       -0.378632    0.330047    1.697412
    115          1           0       -2.581530    1.103833    2.696509
    116          1           0       -4.092957    0.648175    1.892044
    117          1           0       -3.177862   -0.598217    2.729903
    118          1           0        0.903445   -1.353195    0.397191
    119          1           0       -0.561109   -1.699551   -0.545317
    120          1           0        0.184271   -0.075001   -0.618441
    121          7           0       -4.601656    2.234515   -0.291727
    122          6           0       -5.856405    2.642113   -0.893448
    123          6           0       -7.008256    1.921775   -0.217761
    124          8           0       -7.099851    1.890837    1.001604
    125          6           0       -5.932783    4.161463   -0.750824
    126          8           0       -6.837941    4.649599   -1.713379
    127          1           0       -4.088680    2.838286    0.341690
    128          1           0       -5.868143    2.429968   -1.970925
    129          1           0       -4.942146    4.596668   -0.918860
    130          1           0       -6.121521    4.470885    0.273303
    131          1           0       -6.714219    5.583441   -1.943232
    132          7           0       -7.711878    1.160718   -1.060736
    133          6           0       -8.975490    0.602703   -0.617560
    134          6           0       -8.884623   -0.919861   -0.659289
    135          8           0       -8.285217   -1.523238   -1.537668
    136          6           0      -10.106759    1.046053   -1.543125
    137          1           0       -7.433792    1.156812   -2.028493
    138          1           0       -9.304255    1.016827    0.328915
    139          1           0      -10.057657    0.488846   -2.471839
    140          1           0      -10.976084    0.640902   -1.018886
    141          1           0      -10.281944    2.111527   -1.686217
    142          7           0       -9.636383   -1.459767    0.309606
    143          6           0       -9.696560   -2.853775    0.676239
    144          6           0       -8.320155   -3.422946    0.979809
    145          8           0       -8.048883   -4.536741    0.540636
    146          6           0      -10.502877   -3.561926   -0.406016
    147          1           0      -10.072954   -0.841777    0.992611
    148          1           0      -10.235775   -2.910608    1.626038
    149          1           0      -10.539223   -4.631385   -0.230693
    150          1           0      -11.529301   -3.288950   -0.180546
    151          1           0      -10.129904   -3.309275   -1.404995
    152          7           0       -7.529839   -2.639621    1.711931
    153          6           0       -6.251690   -3.129804    2.202602
    154          6           0       -5.924194   -2.658729    3.609703
    155          8           0       -5.582983   -3.547145    4.392706
    156          6           0       -5.144218   -2.803618    1.205552
    157          6           0       -3.900708   -3.681399    1.355828
    158          6           0       -3.138693   -3.904321    0.055891
    159          8           0       -3.759153   -4.003665   -1.015818
    160          8           0       -1.884716   -3.868675    0.021661
    161          1           0       -7.900818   -1.741953    2.009867
    162          1           0       -6.293996   -4.208905    2.319005
    163          1           0       -4.805639   -1.783829    1.425308
    164          1           0       -5.629217   -2.921986    0.238667
    165          1           0       -4.039092   -4.668780    1.796202
    166          1           0       -3.197880   -3.174163    2.016392
    167          7           0       -6.227231   -1.436139    4.064832
    168          6           0       -6.221178   -1.125833    5.483237
    169          1           0       -7.245094   -1.109676    5.855377
    170          1           0       -5.651695   -1.884917    6.019333
    171          1           0       -5.762767   -0.149077    5.640211
    172          1           0       -6.603506   -0.744312    3.443148
    173         20           0       -1.459524   -3.931636   -2.556894
    174          8           0       -0.409016   -5.585848   -4.296698
    175          1           0       -1.211111   -5.882918   -4.720246
    176          1           0        0.020511   -6.393140   -3.997554
 ---------------------------------------------------------------------
 Rotational constants (GHZ):           0.0194044           0.0105860           0.0089919
 Standard basis: SVP (5D, 7F)
 There are  1809 symmetry adapted cartesian basis functions of A   symmetry.
 There are  1717 symmetry adapted basis functions of A   symmetry.
  1717 basis functions,  2922 primitive gaussians,  1809 cartesian basis functions
   358 alpha electrons      358 beta electrons
       nuclear repulsion energy     19621.6125946819 Hartrees.
 NAtoms=  176 NActive=  176 NUniq=  176 SFac= 1.00D+00 NAtFMM=   60 NAOKFM=T Big=T
 Integral buffers will be    131072 words long.
 Raffenetti 2 integral format.
 Two-electron integral symmetry is turned on.
 One-electron integrals computed using PRISM.
 NBasis=  1717 RedAO= T EigKep=  3.30D-04  NBF=  1717
 NBsUse=  1717 1.00D-06 EigRej= -1.00D+00 NBFU=  1717
 ExpMin= 1.98D-02 ExpMax= 3.51D+04 ExpMxC= 5.28D+03 IAcc=3 IRadAn=         5 AccDes= 0.00D+00
 Harris functional with IExCor=  402 and IRadAn=       5 diagonalized for initial guess.
 HarFok:  IExCor=  402 AccDes= 0.00D+00 IRadAn=         5 IDoV= 1 UseB2=F ITyADJ=14
 ICtDFT=  3500011 ScaDFX=  1.000000  1.000000  1.000000  1.000000
 FoFCou: FMM=F IPFlag=           0 FMFlag=      100000 FMFlg1=        2001
         NFxFlg=           0 DoJE=T BraDBF=F KetDBF=T FulRan=T
         wScrn=  0.000000 ICntrl=       500 IOpCl=  0 I1Cent=   200000004 NGrid=           0
         NMat0=    1 NMatS0=      1 NMatT0=    0 NMatD0=    1 NMtDS0=    0 NMtDT0=    0
 Petite list used in FoFCou.
 Requested convergence on RMS density matrix=1.00D-08 within 128 cycles.
 Requested convergence on MAX density matrix=1.00D-06.
 Requested convergence on             energy=1.00D-06.
 No special actions if energy rises.
 EnCoef did   100 forward-backward iterations
 EnCoef did    10 forward-backward iterations
 Rare condition: small coef for last iteration: -0.222D-15
 EnCoef did    71 forward-backward iterations
 Rare condition: small coef for last iteration:  0.000D+00
 EnCoef did    68 forward-backward iterations
 EnCoef did   100 forward-backward iterations
 EnCoef did   100 forward-backward iterations
 Rare condition: small coef for last iteration: -0.597D-15
 EnCoef did   100 forward-backward iterations
 Rare condition: small coef for last iteration:  0.000D+00
 EnCoef did   100 forward-backward iterations
 Rare condition: small coef for last iteration:  0.000D+00
 Restarting incremental Fock formation.
 Rare condition: small coef for last iteration:  0.000D+00
 EnCoef did   100 forward-backward iterations
 SCF Done:  E(RB3LYP) =  -5333.33020209     A.U. after   34 cycles
            NFock= 34  Conv=0.44D-09     -V/T= 2.0081
 SCF density gives NOpUse=  1 NOpAll=  1.
 Hyperfine terms turned off by default for NAtoms > 100.

 **********************************************************************

            Population analysis using the SCF density.

 **********************************************************************

 Orbital symmetries:
 BldTbl:  Degeneracy threshold= 1.00D-02
       Occupied  (A) (A) (A) (A) (A) (A) (A) (A) (A) (A) (A) (A)
                 (A) (A) (A) (A) (A) (A) (A) (A) (A) (A) (A) (A)
                 (A) (A) (A) (A) (A) (A) (A) (A) (A) (A) (A) (A)
                 (A) (A) (A) (A) (A) (A) (A) (A) (A) (A) (A) (A)
                 (A) (A) (A) (A) (A) (A) (A) (A) (A) (A) (A) (A)
                 (A) (A) (A) (A) (A) (A) (A) (A) (A) (A) (A) (A)
                 (A) (A) (A) (A) (A) (A) (A) (A) (A) (A) (A) (A)
                 (A) (A) (A) (A) (A) (A) (A) (A) (A) (A) (A) (A)
                 (A) (A) (A) (A) (A) (A) (A) (A) (A) (A) (A) (A)
                 (A) (A) (A) (A) (A) (A) (A) (A) (A) (A) (A) (A)
                 (A) (A) (A) (A) (A) (A) (A) (A) (A) (A) (A) (A)
                 (A) (A) (A) (A) (A) (A) (A) (A) (A) (A) (A) (A)
                 (A) (A) (A) (A) (A) (A) (A) (A) (A) (A) (A) (A)
                 (A) (A) (A) (A) (A) (A) (A) (A) (A) (A) (A) (A)
                 (A) (A) (A) (A) (A) (A) (A) (A) (A) (A) (A) (A)
                 (A) (A) (A) (A) (A) (A) (A) (A) (A) (A) (A) (A)
                 (A) (A) (A) (A) (A) (A) (A) (A) (A) (A) (A) (A)
                 (A) (A) (A) (A) (A) (A) (A) (A) (A) (A) (A) (A)
                 (A) (A) (A) (A) (A) (A) (A) (A) (A) (A) (A) (A)
                 (A) (A) (A) (A) (A) (A) (A) (A) (A) (A) (A) (A)
                 (A) (A) (A) (A) (A) (A) (A) (A) (A) (A) (A) (A)
                 (A) (A) (A) (A) (A) (A) (A) (A) (A) (A) (A) (A)
                 (A) (A) (A) (A) (A) (A) (A) (A) (A) (A) (A) (A)
                 (A) (A) (A) (A) (A) (A) (A) (A) (A) (A) (A) (A)
                 (A) (A) (A) (A) (A) (A) (A) (A) (A) (A) (A) (A)
                 (A) (A) (A) (A) (A) (A) (A) (A) (A) (A) (A) (A)
                 (A) (A) (A) (A) (A) (A) (A) (A) (A) (A) (A) (A)
                 (A) (A) (A) (A) (A) (A) (A) (A) (A) (A) (A) (A)
                 (A) (A) (A) (A) (A) (A) (A) (A) (A) (A) (A) (A)
                 (A) (A) (A) (A) (A) (A) (A) (A) (A) (A)
       Virtual   (A) (A) (A) (A) (A) (A) (A) (A) (A) (A) (A) (A)
                 (A) (A) (A) (A) (A) (A) (A) (A) (A) (A) (A) (A)
                 (A) (A) (A) (A) (A) (A) (A) (A) (A) (A) (A) (A)
                 (A) (A) (A) (A) (A) (A) (A) (A) (A) (A) (A) (A)
                 (A) (A) (A) (A) (A) (A) (A) (A) (A) (A) (A) (A)
                 (A) (A) (A) (A) (A) (A) (A) (A) (A) (A) (A) (A)
                 (A) (A) (A) (A) (A) (A) (A) (A) (A) (A) (A) (A)
                 (A) (A) (A) (A) (A) (A) (A) (A) (A) (A) (A) (A)
                 (A) (A) (A) (A) (A) (A) (A) (A) (A) (A) (A) (A)
                 (A) (A) (A) (A) (A) (A) (A) (A) (A) (A) (A) (A)
                 (A) (A) (A) (A) (A) (A) (A) (A) (A) (A) (A) (A)
                 (A) (A) (A) (A) (A) (A) (A) (A) (A) (A) (A) (A)
                 (A) (A) (A) (A) (A) (A) (A) (A) (A) (A) (A) (A)
                 (A) (A) (A) (A) (A) (A) (A) (A) (A) (A) (A) (A)
                 (A) (A) (A) (A) (A) (A) (A) (A) (A) (A) (A) (A)
                 (A) (A) (A) (A) (A) (A) (A) (A) (A) (A) (A) (A)
                 (A) (A) (A) (A) (A) (A) (A) (A) (A) (A) (A) (A)
                 (A) (A) (A) (A) (A) (A) (A) (A) (A) (A) (A) (A)
                 (A) (A) (A) (A) (A) (A) (A) (A) (A) (A) (A) (A)
                 (A) (A) (A) (A) (A) (A) (A) (A) (A) (A) (A) (A)
                 (A) (A) (A) (A) (A) (A) (A) (A) (A) (A) (A) (A)
                 (A) (A) (A) (A) (A) (A) (A) (A) (A) (A) (A) (A)
                 (A) (A) (A) (A) (A) (A) (A) (A) (A) (A) (A) (A)
                 (A) (A) (A) (A) (A) (A) (A) (A) (A) (A) (A) (A)
                 (A) (A) (A) (A) (A) (A) (A) (A) (A) (A) (A) (A)
                 (A) (A) (A) (A) (A) (A) (A) (A) (A) (A) (A) (A)
                 (A) (A) (A) (A) (A) (A) (A) (A) (A) (A) (A) (A)
                 (A) (A) (A) (A) (A) (A) (A) (A) (A) (A) (A) (A)
                 (A) (A) (A) (A) (A) (A) (A) (A) (A) (A) (A) (A)
                 (A) (A) (A) (A) (A) (A) (A) (A) (A) (A) (A) (A)
                 (A) (A) (A) (A) (A) (A) (A) (A) (A) (A) (A) (A)
                 (A) (A) (A) (A) (A) (A) (A) (A) (A) (A) (A) (A)
                 (A) (A) (A) (A) (A) (A) (A) (A) (A) (A) (A) (A)
                 (A) (A) (A) (A) (A) (A) (A) (A) (A) (A) (A) (A)
                 (A) (A) (A) (A) (A) (A) (A) (A) (A) (A) (A) (A)
                 (A) (A) (A) (A) (A) (A) (A) (A) (A) (A) (A) (A)
                 (A) (A) (A) (A) (A) (A) (A) (A) (A) (A) (A) (A)
                 (A) (A) (A) (A) (A) (A) (A) (A) (A) (A) (A) (A)
                 (A) (A) (A) (A) (A) (A) (A) (A) (A) (A) (A) (A)
                 (A) (A) (A) (A) (A) (A) (A) (A) (A) (A) (A) (A)
                 (A) (A) (A) (A) (A) (A) (A) (A) (A) (A) (A) (A)
                 (A) (A) (A) (A) (A) (A) (A) (A) (A) (A) (A) (A)
                 (A) (A) (A) (A) (A) (A) (A) (A) (A) (A) (A) (A)
                 (A) (A) (A) (A) (A) (A) (A) (A) (A) (A) (A) (A)
                 (A) (A) (A) (A) (A) (A) (A) (A) (A) (A) (A) (A)
                 (A) (A) (A) (A) (A) (A) (A) (A) (A) (A) (A) (A)
                 (A) (A) (A) (A) (A) (A) (A) (A) (A) (A) (A) (A)
                 (A) (A) (A) (A) (A) (A) (A) (A) (A) (A) (A) (A)
                 (A) (A) (A) (A) (A) (A) (A) (A) (A) (A) (A) (A)
                 (A) (A) (A) (A) (A) (A) (A) (A) (A) (A) (A) (A)
                 (A) (A) (A) (A) (A) (A) (A) (A) (A) (A) (A) (A)
                 (A) (A) (A) (A) (A) (A) (A) (A) (A) (A) (A) (A)
                 (A) (A) (A) (A) (A) (A) (A) (A) (A) (A) (A) (A)
                 (A) (A) (A) (A) (A) (A) (A) (A) (A) (A) (A) (A)
                 (A) (A) (A) (A) (A) (A) (A) (A) (A) (A) (A) (A)
                 (A) (A) (A) (A) (A) (A) (A) (A) (A) (A) (A) (A)
                 (A) (A) (A) (A) (A) (A) (A) (A) (A) (A) (A) (A)
                 (A) (A) (A) (A) (A) (A) (A) (A) (A) (A) (A) (A)
                 (A) (A) (A) (A) (A) (A) (A) (A) (A) (A) (A) (A)
                 (A) (A) (A) (A) (A) (A) (A) (A) (A) (A) (A) (A)
                 (A) (A) (A) (A) (A) (A) (A) (A) (A) (A) (A) (A)
                 (A) (A) (A) (A) (A) (A) (A) (A) (A) (A) (A) (A)
                 (A) (A) (A) (A) (A) (A) (A) (A) (A) (A) (A) (A)
                 (A) (A) (A) (A) (A) (A) (A) (A) (A) (A) (A) (A)
                 (A) (A) (A) (A) (A) (A) (A) (A) (A) (A) (A) (A)
                 (A) (A) (A) (A) (A) (A) (A) (A) (A) (A) (A) (A)
                 (A) (A) (A) (A) (A) (A) (A) (A) (A) (A) (A) (A)
                 (A) (A) (A) (A) (A) (A) (A) (A) (A) (A) (A) (A)
                 (A) (A) (A) (A) (A) (A) (A) (A) (A) (A) (A) (A)
                 (A) (A) (A) (A) (A) (A) (A) (A) (A) (A) (A) (A)
                 (A) (A) (A) (A) (A) (A) (A) (A) (A) (A) (A) (A)
                 (A) (A) (A) (A) (A) (A) (A) (A) (A) (A) (A) (A)
                 (A) (A) (A) (A) (A) (A) (A) (A) (A) (A) (A) (A)
                 (A) (A) (A) (A) (A) (A) (A) (A) (A) (A) (A) (A)
                 (A) (A) (A) (A) (A) (A) (A) (A) (A) (A) (A) (A)
                 (A) (A) (A) (A) (A) (A) (A) (A) (A) (A) (A) (A)
                 (A) (A) (A) (A) (A) (A) (A) (A) (A) (A) (A) (A)
                 (A) (A) (A) (A) (A) (A) (A) (A) (A) (A) (A) (A)
                 (A) (A) (A) (A) (A) (A) (A) (A) (A) (A) (A) (A)
                 (A) (A) (A) (A) (A) (A) (A) (A) (A) (A) (A) (A)
                 (A) (A) (A) (A) (A) (A) (A) (A) (A) (A) (A) (A)
                 (A) (A) (A) (A) (A) (A) (A) (A) (A) (A) (A) (A)
                 (A) (A) (A) (A) (A) (A) (A) (A) (A) (A) (A) (A)
                 (A) (A) (A) (A) (A) (A) (A) (A) (A) (A) (A) (A)
                 (A) (A) (A) (A) (A) (A) (A) (A) (A) (A) (A) (A)
                 (A) (A) (A) (A) (A) (A) (A) (A) (A) (A) (A) (A)
                 (A) (A) (A) (A) (A) (A) (A) (A) (A) (A) (A) (A)
                 (A) (A) (A) (A) (A) (A) (A) (A) (A) (A) (A) (A)
                 (A) (A) (A) (A) (A) (A) (A) (A) (A) (A) (A) (A)
                 (A) (A) (A) (A) (A) (A) (A) (A) (A) (A) (A) (A)
                 (A) (A) (A) (A) (A) (A) (A) (A) (A) (A) (A) (A)
                 (A) (A) (A) (A) (A) (A) (A) (A) (A) (A) (A) (A)
                 (A) (A) (A) (A) (A) (A) (A) (A) (A) (A) (A) (A)
                 (A) (A) (A) (A) (A) (A) (A) (A) (A) (A) (A) (A)
                 (A) (A) (A) (A) (A) (A) (A) (A) (A) (A) (A) (A)
                 (A) (A) (A) (A) (A) (A) (A) (A) (A) (A) (A) (A)
                 (A) (A) (A) (A) (A) (A) (A) (A) (A) (A) (A) (A)
                 (A) (A) (A) (A) (A) (A) (A) (A) (A) (A) (A) (A)
                 (A) (A) (A) (A) (A) (A) (A) (A) (A) (A) (A) (A)
                 (A) (A) (A) (A) (A) (A) (A) (A) (A) (A) (A) (A)
                 (A) (A) (A) (A) (A) (A) (A) (A) (A) (A) (A) (A)
                 (A) (A) (A) (A) (A) (A) (A) (A) (A) (A) (A) (A)
                 (A) (A) (A) (A) (A) (A) (A) (A) (A) (A) (A) (A)
                 (A) (A) (A) (A) (A) (A) (A) (A) (A) (A) (A) (A)
                 (A) (A) (A) (A) (A) (A) (A) (A) (A) (A) (A) (A)
                 (A) (A) (A) (A) (A) (A) (A) (A) (A) (A) (A) (A)
                 (A) (A) (A) (A) (A) (A) (A) (A) (A) (A) (A) (A)
                 (A) (A) (A) (A) (A) (A) (A) (A) (A) (A) (A) (A)
                 (A) (A) (A) (A) (A) (A) (A) (A) (A) (A) (A) (A)
                 (A) (A) (A) (A) (A) (A) (A) (A) (A) (A) (A) (A)
                 (A) (A) (A) (A) (A) (A) (A) (A) (A) (A) (A) (A)
                 (A) (A) (A) (A) (A) (A) (A) (A) (A) (A) (A) (A)
                 (A) (A) (A) (A) (A) (A) (A) (A) (A) (A) (A) (A)
                 (A) (A) (A)
 The electronic state is 1-A.
 Alpha  occ. eigenvalues -- -145.46484 -19.23284 -19.17162 -19.14440 -19.10822
 Alpha  occ. eigenvalues --  -19.10156 -19.09824 -19.08899 -19.08763 -19.08658
 Alpha  occ. eigenvalues --  -19.08515 -19.08348 -19.06623 -19.06603 -19.05788
 Alpha  occ. eigenvalues --  -19.05623 -19.05465 -19.04895 -19.04364 -19.04224
 Alpha  occ. eigenvalues --  -19.03914 -19.02050 -18.95844 -18.94997 -15.52369
 Alpha  occ. eigenvalues --  -14.57754 -14.36904 -14.35859 -14.35834 -14.35684
 Alpha  occ. eigenvalues --  -14.35487 -14.35444 -14.35370 -14.35092 -14.32769
 Alpha  occ. eigenvalues --  -14.32092 -14.31985 -14.31312 -14.29800 -14.29120
 Alpha  occ. eigenvalues --  -12.66003 -12.65930 -12.65876 -10.34499 -10.29072
 Alpha  occ. eigenvalues --  -10.28291 -10.28219 -10.27551 -10.27430 -10.27422
 Alpha  occ. eigenvalues --  -10.27357 -10.27289 -10.27063 -10.26613 -10.25033
 Alpha  occ. eigenvalues --  -10.24967 -10.24865 -10.24599 -10.24480 -10.24051
 Alpha  occ. eigenvalues --  -10.24003 -10.23970 -10.23683 -10.23657 -10.23480
 Alpha  occ. eigenvalues --  -10.23447 -10.22991 -10.22531 -10.22387 -10.22371
 Alpha  occ. eigenvalues --  -10.22225 -10.22095 -10.21894 -10.21574 -10.21553
 Alpha  occ. eigenvalues --  -10.21293 -10.20729 -10.20695 -10.20635 -10.20378
 Alpha  occ. eigenvalues --  -10.20278 -10.19618 -10.19130 -10.17869 -10.17564
 Alpha  occ. eigenvalues --  -10.17517 -10.17381 -10.17222 -10.16880 -10.16534
 Alpha  occ. eigenvalues --  -10.16509 -10.16104 -10.15267 -10.15123 -10.14359
 Alpha  occ. eigenvalues --  -10.13548 -10.10539  -1.88986  -1.16710  -1.16051
 Alpha  occ. eigenvalues --   -1.15743  -1.13260  -1.09212  -1.05862  -1.03983
 Alpha  occ. eigenvalues --   -1.03334  -1.03045  -1.02094  -1.02011  -1.01960
 Alpha  occ. eigenvalues --   -1.01712  -1.01380  -1.01292  -1.01165  -1.00140
 Alpha  occ. eigenvalues --   -0.98797  -0.98371  -0.98071  -0.97683  -0.97405
 Alpha  occ. eigenvalues --   -0.96313  -0.94243  -0.93124  -0.92813  -0.92541
 Alpha  occ. eigenvalues --   -0.92140  -0.91590  -0.91418  -0.91123  -0.90225
 Alpha  occ. eigenvalues --   -0.90193  -0.89910  -0.88962  -0.88816  -0.88492
 Alpha  occ. eigenvalues --   -0.87537  -0.86723  -0.86624  -0.86405  -0.85385
 Alpha  occ. eigenvalues --   -0.81548  -0.81124  -0.80248  -0.80013  -0.79438
 Alpha  occ. eigenvalues --   -0.78157  -0.76866  -0.76119  -0.75883  -0.75654
 Alpha  occ. eigenvalues --   -0.75411  -0.74785  -0.73763  -0.73111  -0.72307
 Alpha  occ. eigenvalues --   -0.72180  -0.71781  -0.71540  -0.71244  -0.70151
 Alpha  occ. eigenvalues --   -0.69179  -0.68786  -0.68573  -0.67440  -0.67352
 Alpha  occ. eigenvalues --   -0.66735  -0.66299  -0.65996  -0.63664  -0.63516
 Alpha  occ. eigenvalues --   -0.63293  -0.62574  -0.62337  -0.61856  -0.61675
 Alpha  occ. eigenvalues --   -0.61488  -0.60668  -0.60334  -0.59904  -0.59633
 Alpha  occ. eigenvalues --   -0.59456  -0.59160  -0.58801  -0.58668  -0.58376
 Alpha  occ. eigenvalues --   -0.58336  -0.57336  -0.56575  -0.56391  -0.56271
 Alpha  occ. eigenvalues --   -0.55747  -0.55594  -0.55336  -0.54351  -0.53994
 Alpha  occ. eigenvalues --   -0.53777  -0.53719  -0.53219  -0.52628  -0.52499
 Alpha  occ. eigenvalues --   -0.52211  -0.52172  -0.51692  -0.51142  -0.50721
 Alpha  occ. eigenvalues --   -0.50714  -0.50551  -0.50308  -0.49625  -0.49467
 Alpha  occ. eigenvalues --   -0.49111  -0.48928  -0.48876  -0.48799  -0.48674
 Alpha  occ. eigenvalues --   -0.48144  -0.47842  -0.47798  -0.47708  -0.47155
 Alpha  occ. eigenvalues --   -0.46866  -0.46714  -0.46175  -0.45931  -0.45668
 Alpha  occ. eigenvalues --   -0.45641  -0.45477  -0.45321  -0.44726  -0.44466
 Alpha  occ. eigenvalues --   -0.44208  -0.44191  -0.44005  -0.43826  -0.43502
 Alpha  occ. eigenvalues --   -0.43408  -0.43237  -0.43043  -0.42943  -0.42718
 Alpha  occ. eigenvalues --   -0.42610  -0.42489  -0.42385  -0.42320  -0.42027
 Alpha  occ. eigenvalues --   -0.41969  -0.41831  -0.41674  -0.41612  -0.41364
 Alpha  occ. eigenvalues --   -0.41190  -0.41068  -0.40995  -0.40834  -0.40697
 Alpha  occ. eigenvalues --   -0.40679  -0.40517  -0.40259  -0.40118  -0.40013
 Alpha  occ. eigenvalues --   -0.39818  -0.39567  -0.39298  -0.39248  -0.39165
 Alpha  occ. eigenvalues --   -0.39093  -0.38870  -0.38842  -0.38771  -0.38717
 Alpha  occ. eigenvalues --   -0.38659  -0.38550  -0.38445  -0.38380  -0.38190
 Alpha  occ. eigenvalues --   -0.38038  -0.37790  -0.37581  -0.37552  -0.37476
 Alpha  occ. eigenvalues --   -0.37285  -0.37182  -0.36985  -0.36756  -0.36478
 Alpha  occ. eigenvalues --   -0.36281  -0.36217  -0.35892  -0.35768  -0.35692
 Alpha  occ. eigenvalues --   -0.35540  -0.35452  -0.35393  -0.35156  -0.35018
 Alpha  occ. eigenvalues --   -0.34928  -0.34837  -0.34518  -0.34448  -0.34404
 Alpha  occ. eigenvalues --   -0.34097  -0.33894  -0.33423  -0.33291  -0.32979
 Alpha  occ. eigenvalues --   -0.32679  -0.32373  -0.32294  -0.32021  -0.31620
 Alpha  occ. eigenvalues --   -0.31199  -0.31032  -0.30762  -0.30369  -0.30245
 Alpha  occ. eigenvalues --   -0.29700  -0.28951  -0.28345  -0.27841  -0.27355
 Alpha  occ. eigenvalues --   -0.27249  -0.26961  -0.26894  -0.26875  -0.26759
 Alpha  occ. eigenvalues --   -0.26429  -0.25586  -0.25485  -0.25363  -0.25162
 Alpha  occ. eigenvalues --   -0.24974  -0.24954  -0.24850  -0.24214  -0.24103
 Alpha  occ. eigenvalues --   -0.23922  -0.23884  -0.23752  -0.23555  -0.23529
 Alpha  occ. eigenvalues --   -0.23511  -0.23329  -0.23034  -0.21750  -0.21428
 Alpha  occ. eigenvalues --   -0.21218  -0.21108  -0.21093  -0.21030  -0.20724
 Alpha  occ. eigenvalues --   -0.20486  -0.20232  -0.19603  -0.18808  -0.18014
 Alpha  occ. eigenvalues --   -0.12907  -0.12718  -0.10796
 Alpha virt. eigenvalues --   -0.09803  -0.09097  -0.04445  -0.03311  -0.03114
 Alpha virt. eigenvalues --   -0.02247  -0.01680  -0.01006  -0.00058   0.00336
 Alpha virt. eigenvalues --    0.00969   0.01017   0.01286   0.01438   0.01840
 Alpha virt. eigenvalues --    0.02113   0.02331   0.02817   0.03021   0.03254
 Alpha virt. eigenvalues --    0.03496   0.03904   0.04028   0.04454   0.04488
 Alpha virt. eigenvalues --    0.04683   0.04858   0.05167   0.05289   0.05353
 Alpha virt. eigenvalues --    0.05418   0.05667   0.06206   0.06475   0.06700
 Alpha virt. eigenvalues --    0.06752   0.06878   0.07113   0.07244   0.07405
 Alpha virt. eigenvalues --    0.07676   0.07782   0.08130   0.08315   0.08478
 Alpha virt. eigenvalues --    0.08684   0.08820   0.08986   0.09278   0.09377
 Alpha virt. eigenvalues --    0.09851   0.10346   0.10486   0.10779   0.10815
 Alpha virt. eigenvalues --    0.11079   0.11417   0.11677   0.11752   0.11928
 Alpha virt. eigenvalues --    0.12087   0.12218   0.12345   0.12444   0.12500
 Alpha virt. eigenvalues --    0.12693   0.12824   0.12947   0.13017   0.13352
 Alpha virt. eigenvalues --    0.13620   0.13838   0.13867   0.14138   0.14256
 Alpha virt. eigenvalues --    0.14325   0.14491   0.14528   0.14607   0.14720
 Alpha virt. eigenvalues --    0.14837   0.14933   0.15087   0.15340   0.15490
 Alpha virt. eigenvalues --    0.15616   0.15864   0.15964   0.16249   0.16337
 Alpha virt. eigenvalues --    0.16456   0.16483   0.16788   0.16848   0.17223
 Alpha virt. eigenvalues --    0.17356   0.17591   0.17720   0.18217   0.18474
 Alpha virt. eigenvalues --    0.18591   0.18750   0.19021   0.19307   0.19534
 Alpha virt. eigenvalues --    0.19625   0.19844   0.19893   0.20116   0.20365
 Alpha virt. eigenvalues --    0.20724   0.20949   0.21034   0.21143   0.21327
 Alpha virt. eigenvalues --    0.21382   0.21577   0.21779   0.22222   0.22461
 Alpha virt. eigenvalues --    0.22690   0.22927   0.23312   0.23479   0.23718
 Alpha virt. eigenvalues --    0.23743   0.23952   0.24070   0.24277   0.24387
 Alpha virt. eigenvalues --    0.24959   0.25093   0.25218   0.25355   0.25420
 Alpha virt. eigenvalues --    0.25844   0.26220   0.26244   0.26386   0.26877
 Alpha virt. eigenvalues --    0.27133   0.27370   0.27640   0.27829   0.28014
 Alpha virt. eigenvalues --    0.28244   0.28347   0.28444   0.28695   0.28806
 Alpha virt. eigenvalues --    0.29090   0.29564   0.29672   0.29847   0.30036
 Alpha virt. eigenvalues --    0.30313   0.30463   0.30538   0.30713   0.30884
 Alpha virt. eigenvalues --    0.31125   0.31245   0.31440   0.31809   0.32139
 Alpha virt. eigenvalues --    0.32370   0.32442   0.32967   0.33166   0.33399
 Alpha virt. eigenvalues --    0.33931   0.34219   0.34705   0.34906   0.35305
 Alpha virt. eigenvalues --    0.35822   0.35992   0.36106   0.36492   0.36731
 Alpha virt. eigenvalues --    0.36872   0.37014   0.37242   0.37331   0.38458
 Alpha virt. eigenvalues --    0.38903   0.39125   0.39226   0.39377   0.39846
 Alpha virt. eigenvalues --    0.40142   0.40379   0.40510   0.40637   0.40827
 Alpha virt. eigenvalues --    0.41069   0.41388   0.41505   0.41736   0.42209
 Alpha virt. eigenvalues --    0.42250   0.42420   0.42630   0.42773   0.42835
 Alpha virt. eigenvalues --    0.43128   0.43241   0.43433   0.43709   0.44063
 Alpha virt. eigenvalues --    0.44294   0.44546   0.44760   0.44892   0.45202
 Alpha virt. eigenvalues --    0.45512   0.45613   0.45679   0.45852   0.45899
 Alpha virt. eigenvalues --    0.46193   0.46707   0.46871   0.46967   0.47175
 Alpha virt. eigenvalues --    0.47233   0.47626   0.47733   0.47877   0.48076
 Alpha virt. eigenvalues --    0.48152   0.48523   0.48860   0.49390   0.49514
 Alpha virt. eigenvalues --    0.49697   0.49744   0.50404   0.50423   0.50591
 Alpha virt. eigenvalues --    0.50874   0.51039   0.51157   0.51303   0.51528
 Alpha virt. eigenvalues --    0.51825   0.51859   0.52284   0.52323   0.52545
 Alpha virt. eigenvalues --    0.52815   0.52965   0.53096   0.53373   0.53649
 Alpha virt. eigenvalues --    0.53834   0.53926   0.54100   0.54228   0.54481
 Alpha virt. eigenvalues --    0.54589   0.54739   0.54812   0.55040   0.55147
 Alpha virt. eigenvalues --    0.55342   0.55440   0.55684   0.55823   0.56023
 Alpha virt. eigenvalues --    0.56106   0.56474   0.56771   0.56939   0.57134
 Alpha virt. eigenvalues --    0.57359   0.57595   0.57724   0.58045   0.58171
 Alpha virt. eigenvalues --    0.58205   0.58266   0.58545   0.58758   0.59029
 Alpha virt. eigenvalues --    0.59234   0.59350   0.59595   0.59750   0.60084
 Alpha virt. eigenvalues --    0.60147   0.60197   0.60480   0.60520   0.60580
 Alpha virt. eigenvalues --    0.60667   0.60887   0.61026   0.61135   0.61375
 Alpha virt. eigenvalues --    0.61465   0.61491   0.61645   0.61875   0.61915
 Alpha virt. eigenvalues --    0.62222   0.62275   0.62407   0.62592   0.62660
 Alpha virt. eigenvalues --    0.62861   0.63019   0.63133   0.63315   0.63496
 Alpha virt. eigenvalues --    0.63579   0.63689   0.63854   0.64078   0.64133
 Alpha virt. eigenvalues --    0.64218   0.64360   0.64388   0.64572   0.64618
 Alpha virt. eigenvalues --    0.64701   0.64916   0.65092   0.65121   0.65366
 Alpha virt. eigenvalues --    0.65437   0.65598   0.65671   0.65710   0.65798
 Alpha virt. eigenvalues --    0.65852   0.65929   0.66073   0.66189   0.66260
 Alpha virt. eigenvalues --    0.66296   0.66426   0.66513   0.66669   0.66809
 Alpha virt. eigenvalues --    0.66926   0.67133   0.67206   0.67240   0.67476
 Alpha virt. eigenvalues --    0.67594   0.67680   0.67740   0.67866   0.68007
 Alpha virt. eigenvalues --    0.68038   0.68138   0.68243   0.68312   0.68440
 Alpha virt. eigenvalues --    0.68455   0.68491   0.68763   0.68831   0.68968
 Alpha virt. eigenvalues --    0.69127   0.69224   0.69304   0.69489   0.69627
 Alpha virt. eigenvalues --    0.69741   0.69763   0.69880   0.69928   0.70033
 Alpha virt. eigenvalues --    0.70130   0.70171   0.70518   0.70701   0.70752
 Alpha virt. eigenvalues --    0.71055   0.71136   0.71172   0.71337   0.71540
 Alpha virt. eigenvalues --    0.71671   0.71751   0.71887   0.71963   0.72057
 Alpha virt. eigenvalues --    0.72138   0.72487   0.72582   0.72804   0.72833
 Alpha virt. eigenvalues --    0.73019   0.73070   0.73401   0.73681   0.73860
 Alpha virt. eigenvalues --    0.73997   0.74084   0.74230   0.74414   0.74562
 Alpha virt. eigenvalues --    0.74756   0.74973   0.75176   0.75393   0.75628
 Alpha virt. eigenvalues --    0.75901   0.76270   0.76427   0.76576   0.76745
 Alpha virt. eigenvalues --    0.76837   0.76922   0.77044   0.77272   0.77711
 Alpha virt. eigenvalues --    0.78070   0.78344   0.78618   0.78799   0.79113
 Alpha virt. eigenvalues --    0.79247   0.79303   0.79582   0.79644   0.80124
 Alpha virt. eigenvalues --    0.80575   0.80597   0.81011   0.81107   0.81368
 Alpha virt. eigenvalues --    0.81540   0.81757   0.81780   0.82050   0.82397
 Alpha virt. eigenvalues --    0.82669   0.82770   0.82919   0.83198   0.83412
 Alpha virt. eigenvalues --    0.83579   0.83857   0.84233   0.84454   0.84703
 Alpha virt. eigenvalues --    0.84959   0.85217   0.85451   0.85657   0.85929
 Alpha virt. eigenvalues --    0.86070   0.86426   0.86636   0.87034   0.87097
 Alpha virt. eigenvalues --    0.87324   0.87465   0.87860   0.88175   0.88497
 Alpha virt. eigenvalues --    0.88788   0.89029   0.89367   0.89449   0.89559
 Alpha virt. eigenvalues --    0.90105   0.90500   0.90620   0.91022   0.91121
 Alpha virt. eigenvalues --    0.91246   0.91657   0.92295   0.92361   0.92664
 Alpha virt. eigenvalues --    0.93144   0.93363   0.93635   0.93820   0.93914
 Alpha virt. eigenvalues --    0.94259   0.94587   0.94697   0.94974   0.95106
 Alpha virt. eigenvalues --    0.95336   0.95769   0.96081   0.96447   0.96729
 Alpha virt. eigenvalues --    0.96995   0.97011   0.97728   0.97805   0.98020
 Alpha virt. eigenvalues --    0.98503   0.98916   0.99381   0.99594   0.99758
 Alpha virt. eigenvalues --    0.99942   1.00264   1.00387   1.00909   1.01001
 Alpha virt. eigenvalues --    1.01117   1.01621   1.01984   1.02210   1.02446
 Alpha virt. eigenvalues --    1.02586   1.03115   1.03524   1.03723   1.03881
 Alpha virt. eigenvalues --    1.04199   1.04696   1.04952   1.05141   1.05184
 Alpha virt. eigenvalues --    1.05684   1.05907   1.06395   1.06500   1.06746
 Alpha virt. eigenvalues --    1.07303   1.07357   1.07489   1.07786   1.07979
 Alpha virt. eigenvalues --    1.08112   1.08298   1.08607   1.08858   1.09353
 Alpha virt. eigenvalues --    1.09567   1.10157   1.10450   1.10818   1.10979
 Alpha virt. eigenvalues --    1.11106   1.11396   1.11582   1.11932   1.12155
 Alpha virt. eigenvalues --    1.12398   1.12927   1.13437   1.13623   1.13972
 Alpha virt. eigenvalues --    1.14134   1.14409   1.14747   1.14966   1.15137
 Alpha virt. eigenvalues --    1.15403   1.15882   1.16145   1.16351   1.16440
 Alpha virt. eigenvalues --    1.16942   1.17042   1.17380   1.17675   1.17978
 Alpha virt. eigenvalues --    1.18389   1.18561   1.19090   1.19363   1.19652
 Alpha virt. eigenvalues --    1.19925   1.20164   1.20329   1.20547   1.20783
 Alpha virt. eigenvalues --    1.20896   1.21555   1.21672   1.21861   1.21906
 Alpha virt. eigenvalues --    1.22034   1.22188   1.22536   1.22925   1.23083
 Alpha virt. eigenvalues --    1.23347   1.23374   1.23613   1.23704   1.23979
 Alpha virt. eigenvalues --    1.24101   1.24329   1.24530   1.24919   1.25247
 Alpha virt. eigenvalues --    1.25606   1.25887   1.26114   1.26161   1.26299
 Alpha virt. eigenvalues --    1.26909   1.26943   1.27288   1.27528   1.27878
 Alpha virt. eigenvalues --    1.28456   1.28775   1.29049   1.29096   1.29183
 Alpha virt. eigenvalues --    1.29862   1.29962   1.30121   1.30559   1.30956
 Alpha virt. eigenvalues --    1.31243   1.31457   1.31883   1.32163   1.32602
 Alpha virt. eigenvalues --    1.32828   1.32884   1.33103   1.33190   1.33931
 Alpha virt. eigenvalues --    1.34111   1.34293   1.34632   1.34810   1.35070
 Alpha virt. eigenvalues --    1.35265   1.35440   1.35919   1.35980   1.36415
 Alpha virt. eigenvalues --    1.36811   1.37311   1.37638   1.37670   1.37835
 Alpha virt. eigenvalues --    1.38341   1.38587   1.38899   1.39029   1.39413
 Alpha virt. eigenvalues --    1.39496   1.39774   1.40166   1.40663   1.41057
 Alpha virt. eigenvalues --    1.41274   1.42131   1.42357   1.42426   1.42801
 Alpha virt. eigenvalues --    1.43644   1.43708   1.44154   1.44332   1.44406
 Alpha virt. eigenvalues --    1.44764   1.45117   1.45388   1.46011   1.46341
 Alpha virt. eigenvalues --    1.46551   1.46731   1.46800   1.47179   1.47593
 Alpha virt. eigenvalues --    1.47744   1.48040   1.48255   1.48530   1.48771
 Alpha virt. eigenvalues --    1.49020   1.49228   1.49400   1.49889   1.50023
 Alpha virt. eigenvalues --    1.50473   1.50573   1.50692   1.50947   1.51456
 Alpha virt. eigenvalues --    1.51735   1.51951   1.52354   1.52605   1.52893
 Alpha virt. eigenvalues --    1.52922   1.53102   1.53313   1.53571   1.53655
 Alpha virt. eigenvalues --    1.53695   1.54098   1.54529   1.54891   1.55272
 Alpha virt. eigenvalues --    1.55768   1.56031   1.56400   1.56724   1.57113
 Alpha virt. eigenvalues --    1.57675   1.58323   1.58569   1.58985   1.59169
 Alpha virt. eigenvalues --    1.59784   1.60575   1.60996   1.61212   1.61584
 Alpha virt. eigenvalues --    1.61884   1.62221   1.62550   1.62843   1.63492
 Alpha virt. eigenvalues --    1.63551   1.63836   1.63995   1.64200   1.64651
 Alpha virt. eigenvalues --    1.64715   1.64776   1.64883   1.64929   1.66417
 Alpha virt. eigenvalues --    1.66621   1.66928   1.67336   1.67763   1.68128
 Alpha virt. eigenvalues --    1.68219   1.68317   1.68584   1.69082   1.69219
 Alpha virt. eigenvalues --    1.69297   1.69637   1.69702   1.69804   1.70157
 Alpha virt. eigenvalues --    1.70391   1.70638   1.71129   1.71314   1.71440
 Alpha virt. eigenvalues --    1.71857   1.72091   1.72648   1.72863   1.73041
 Alpha virt. eigenvalues --    1.73392   1.73650   1.73881   1.74026   1.74203
 Alpha virt. eigenvalues --    1.74406   1.74622   1.74831   1.75091   1.75150
 Alpha virt. eigenvalues --    1.75218   1.75330   1.75686   1.75829   1.76171
 Alpha virt. eigenvalues --    1.76295   1.76463   1.76924   1.76978   1.77114
 Alpha virt. eigenvalues --    1.77481   1.77507   1.77643   1.77797   1.78125
 Alpha virt. eigenvalues --    1.78228   1.78449   1.78542   1.78745   1.78775
 Alpha virt. eigenvalues --    1.78801   1.78961   1.78997   1.79070   1.79231
 Alpha virt. eigenvalues --    1.79298   1.79443   1.79495   1.79681   1.79866
 Alpha virt. eigenvalues --    1.80103   1.80281   1.80409   1.80501   1.80753
 Alpha virt. eigenvalues --    1.81028   1.81342   1.81371   1.81680   1.81977
 Alpha virt. eigenvalues --    1.82267   1.82338   1.82384   1.82517   1.82996
 Alpha virt. eigenvalues --    1.83129   1.83351   1.83446   1.83789   1.84386
 Alpha virt. eigenvalues --    1.84515   1.84748   1.84890   1.84999   1.85152
 Alpha virt. eigenvalues --    1.85347   1.85459   1.85704   1.85772   1.85953
 Alpha virt. eigenvalues --    1.86060   1.86398   1.86865   1.86957   1.87187
 Alpha virt. eigenvalues --    1.87459   1.87584   1.87693   1.87792   1.88203
 Alpha virt. eigenvalues --    1.88295   1.88440   1.88663   1.88780   1.89075
 Alpha virt. eigenvalues --    1.89385   1.89596   1.89682   1.89874   1.90046
 Alpha virt. eigenvalues --    1.90149   1.90416   1.90449   1.90607   1.90957
 Alpha virt. eigenvalues --    1.91124   1.91461   1.91540   1.91970   1.92243
 Alpha virt. eigenvalues --    1.92447   1.92650   1.92803   1.92866   1.92990
 Alpha virt. eigenvalues --    1.93279   1.93688   1.93856   1.94065   1.94102
 Alpha virt. eigenvalues --    1.94249   1.94324   1.95004   1.95116   1.95276
 Alpha virt. eigenvalues --    1.95411   1.95647   1.95763   1.96122   1.96365
 Alpha virt. eigenvalues --    1.96485   1.96611   1.96937   1.97229   1.97334
 Alpha virt. eigenvalues --    1.97491   1.97758   1.97832   1.98246   1.98313
 Alpha virt. eigenvalues --    1.98754   1.98964   1.99049   1.99198   1.99378
 Alpha virt. eigenvalues --    1.99802   2.00234   2.00265   2.00769   2.00961
 Alpha virt. eigenvalues --    2.00992   2.01445   2.01522   2.01778   2.02008
 Alpha virt. eigenvalues --    2.02462   2.02707   2.02807   2.03047   2.03489
 Alpha virt. eigenvalues --    2.03757   2.03960   2.04115   2.04198   2.04432
 Alpha virt. eigenvalues --    2.04720   2.05113   2.05263   2.05352   2.05791
 Alpha virt. eigenvalues --    2.05932   2.06034   2.06195   2.06379   2.06542
 Alpha virt. eigenvalues --    2.06714   2.07084   2.07425   2.07887   2.08019
 Alpha virt. eigenvalues --    2.08443   2.08514   2.08921   2.09073   2.09260
 Alpha virt. eigenvalues --    2.09953   2.10108   2.10435   2.10589   2.11084
 Alpha virt. eigenvalues --    2.11255   2.11524   2.11975   2.12249   2.12272
 Alpha virt. eigenvalues --    2.12726   2.12838   2.13045   2.13379   2.13645
 Alpha virt. eigenvalues --    2.13885   2.14051   2.14089   2.14475   2.14746
 Alpha virt. eigenvalues --    2.14979   2.15159   2.15365   2.15579   2.15907
 Alpha virt. eigenvalues --    2.16140   2.16503   2.16557   2.17109   2.17219
 Alpha virt. eigenvalues --    2.17305   2.17527   2.17753   2.18213   2.18461
 Alpha virt. eigenvalues --    2.18648   2.19089   2.19211   2.19282   2.19770
 Alpha virt. eigenvalues --    2.20066   2.20381   2.20509   2.20563   2.20972
 Alpha virt. eigenvalues --    2.21415   2.21468   2.22061   2.22249   2.22371
 Alpha virt. eigenvalues --    2.22620   2.23376   2.24047   2.24313   2.25632
 Alpha virt. eigenvalues --    2.25910   2.26490   2.26613   2.26854   2.27110
 Alpha virt. eigenvalues --    2.27328   2.27596   2.27792   2.28674   2.28789
 Alpha virt. eigenvalues --    2.29301   2.29631   2.29888   2.30469   2.30550
 Alpha virt. eigenvalues --    2.30903   2.31322   2.31836   2.32022   2.32471
 Alpha virt. eigenvalues --    2.32517   2.32983   2.33203   2.33503   2.33638
 Alpha virt. eigenvalues --    2.33891   2.34505   2.34693   2.35080   2.35253
 Alpha virt. eigenvalues --    2.35677   2.35856   2.36852   2.37002   2.37142
 Alpha virt. eigenvalues --    2.37330   2.37666   2.38053   2.38188   2.38396
 Alpha virt. eigenvalues --    2.38794   2.39169   2.39340   2.39983   2.40217
 Alpha virt. eigenvalues --    2.40426   2.40629   2.40970   2.41208   2.41344
 Alpha virt. eigenvalues --    2.41744   2.41937   2.42256   2.42810   2.42876
 Alpha virt. eigenvalues --    2.43037   2.43538   2.44415   2.44479   2.44971
 Alpha virt. eigenvalues --    2.45095   2.45413   2.45573   2.46168   2.46436
 Alpha virt. eigenvalues --    2.46742   2.46842   2.47421   2.47950   2.48122
 Alpha virt. eigenvalues --    2.48675   2.49204   2.49463   2.49932   2.50723
 Alpha virt. eigenvalues --    2.51458   2.51563   2.51902   2.52417   2.53038
 Alpha virt. eigenvalues --    2.53323   2.53424   2.53649   2.53971   2.54122
 Alpha virt. eigenvalues --    2.54635   2.54784   2.54976   2.55170   2.55391
 Alpha virt. eigenvalues --    2.55873   2.56402   2.56770   2.57024   2.57845
 Alpha virt. eigenvalues --    2.57985   2.58247   2.58856   2.59044   2.59380
 Alpha virt. eigenvalues --    2.59784   2.59946   2.60139   2.60533   2.60750
 Alpha virt. eigenvalues --    2.60960   2.61062   2.61871   2.62021   2.62676
 Alpha virt. eigenvalues --    2.62953   2.63221   2.63407   2.63652   2.63890
 Alpha virt. eigenvalues --    2.64073   2.64150   2.64337   2.65304   2.65408
 Alpha virt. eigenvalues --    2.65581   2.65891   2.66116   2.66333   2.66475
 Alpha virt. eigenvalues --    2.67027   2.67766   2.67818   2.68008   2.68437
 Alpha virt. eigenvalues --    2.68976   2.69003   2.69353   2.69599   2.70241
 Alpha virt. eigenvalues --    2.70320   2.71117   2.71328   2.71583   2.71858
 Alpha virt. eigenvalues --    2.72030   2.72216   2.72547   2.72674   2.72719
 Alpha virt. eigenvalues --    2.73427   2.73583   2.74082   2.74252   2.74384
 Alpha virt. eigenvalues --    2.74753   2.75112   2.75333   2.75438   2.75739
 Alpha virt. eigenvalues --    2.76210   2.76258   2.76421   2.76447   2.76605
 Alpha virt. eigenvalues --    2.77032   2.77737   2.78191   2.78249   2.78375
 Alpha virt. eigenvalues --    2.78570   2.79082   2.79298   2.79485   2.79945
 Alpha virt. eigenvalues --    2.80140   2.80225   2.80459   2.80559   2.81091
 Alpha virt. eigenvalues --    2.81240   2.81620   2.81637   2.82002   2.82308
 Alpha virt. eigenvalues --    2.82443   2.82772   2.82798   2.83106   2.84012
 Alpha virt. eigenvalues --    2.84440   2.84477   2.84508   2.84638   2.84690
 Alpha virt. eigenvalues --    2.84780   2.85274   2.85415   2.85529   2.86363
 Alpha virt. eigenvalues --    2.86531   2.86610   2.86918   2.86927   2.87716
 Alpha virt. eigenvalues --    2.87960   2.89044   2.89122   2.89333   2.89598
 Alpha virt. eigenvalues --    2.89713   2.89729   2.89940   2.90732   2.90841
 Alpha virt. eigenvalues --    2.91379   2.91507   2.91863   2.91951   2.91995
 Alpha virt. eigenvalues --    2.92500   2.92514   2.92564   2.92847   2.93373
 Alpha virt. eigenvalues --    2.93536   2.93758   2.93948   2.94194   2.94611
 Alpha virt. eigenvalues --    2.95305   2.95709   2.95832   2.95951   2.96130
 Alpha virt. eigenvalues --    2.96472   2.96633   2.96717   2.97244   2.97358
 Alpha virt. eigenvalues --    2.97776   2.98138   2.98769   2.98794   2.99070
 Alpha virt. eigenvalues --    2.99170   2.99474   2.99896   3.00134   3.00418
 Alpha virt. eigenvalues --    3.01094   3.01485   3.02015   3.02636   3.03001
 Alpha virt. eigenvalues --    3.03421   3.04091   3.04154   3.04675   3.05150
 Alpha virt. eigenvalues --    3.05259   3.06037   3.06380   3.06951   3.07164
 Alpha virt. eigenvalues --    3.08041   3.08184   3.08644   3.09188   3.09812
 Alpha virt. eigenvalues --    3.09862   3.10469   3.10492   3.11069   3.11273
 Alpha virt. eigenvalues --    3.11395   3.12547   3.12918   3.13202   3.13242
 Alpha virt. eigenvalues --    3.13888   3.14532   3.14765   3.15402   3.16081
 Alpha virt. eigenvalues --    3.16373   3.16656   3.16686   3.16960   3.17842
 Alpha virt. eigenvalues --    3.18052   3.18132   3.18332   3.18596   3.18940
 Alpha virt. eigenvalues --    3.19375   3.19475   3.19556   3.20767   3.21309
 Alpha virt. eigenvalues --    3.21358   3.21593   3.21932   3.22324   3.22516
 Alpha virt. eigenvalues --    3.22933   3.23359   3.23801   3.24629   3.25107
 Alpha virt. eigenvalues --    3.25753   3.25953   3.26564   3.26831   3.28745
 Alpha virt. eigenvalues --    3.28825   3.29273   3.29800   3.30971   3.31217
 Alpha virt. eigenvalues --    3.32505   3.33135   3.33296   3.35385   3.35777
 Alpha virt. eigenvalues --    3.37511   3.37536   3.38219   3.40742   3.41007
 Alpha virt. eigenvalues --    3.41158   3.42478   3.45879   3.48261   3.48835
 Alpha virt. eigenvalues --    3.50745   3.52272   3.53356   3.54358   3.54411
 Alpha virt. eigenvalues --    3.55364   3.56170   3.56983   3.57206   3.58708
 Alpha virt. eigenvalues --    3.59586   3.60165   3.60185   3.60387   3.61757
 Alpha virt. eigenvalues --    3.63360   3.65544   3.67092   3.68251   3.68481
 Alpha virt. eigenvalues --    3.68601   3.69142   3.69362   3.69466   3.70017
 Alpha virt. eigenvalues --    3.70542   3.70944   3.71307   3.71615   3.72951
 Alpha virt. eigenvalues --    3.73573   3.73766   3.74191   3.74278   3.75713
 Alpha virt. eigenvalues --    3.75948   3.76397   3.79122   3.82264
          Condensed to atoms (all electrons):
 Mulliken charges:
               1
     1  C    0.073369
     2  C   -0.021282
     3  O   -0.306987
     4  H    0.006210
     5  H    0.035890
     6  H   -0.003357
     7  N   -0.134425
     8  C    0.158963
     9  C    0.097188
    10  O   -0.291671
    11  C   -0.012298
    12  C    0.082911
    13  O   -0.403926
    14  O   -0.356971
    15  H    0.112669
    16  H    0.002666
    17  H   -0.002757
    18  H    0.001047
    19  N   -0.083381
    20  C    0.111150
    21  C    0.063165
    22  O   -0.222089
    23  C    0.040086
    24  C   -0.045077
    25  C   -0.070654
    26  C    0.061976
    27  N    0.120797
    28  H    0.107580
    29  H   -0.007428
    30  H    0.024834
    31  H   -0.001677
    32  H   -0.007117
    33  H    0.027314
    34  H    0.049681
    35  H    0.033661
    36  H    0.085814
    37  H    0.074994
    38  H    0.165175
    39  H    0.169191
    40  H    0.158313
    41  N   -0.188908
    42  C    0.118973
    43  C    0.126917
    44  O   -0.307192
    45  C    0.085836
    46  C    0.084923
    47  O   -0.377002
    48  O   -0.466295
    49  H    0.110502
    50  H    0.026509
    51  H   -0.028495
    52  H   -0.031352
    53  N   -0.131357
    54  C    0.149183
    55  C    0.029817
    56  O   -0.248299
    57  H    0.131598
    58  H    0.032922
    59  H    0.034029
    60  N   -0.132178
    61  C   -0.005143
    62  C    0.105514
    63  O   -0.266382
    64  C    0.162297
    65  C   -0.030222
    66  N   -0.028555
    67  O   -0.276172
    68  H    0.125618
    69  H    0.057976
    70  H   -0.008494
    71  H    0.013900
    72  H    0.109858
    73  H    0.131419
    74  N   -0.116097
    75  C    0.186922
    76  C    0.017414
    77  O   -0.273562
    78  H    0.117242
    79  H    0.057599
    80  H    0.058064
    81  N   -0.123758
    82  C    0.037671
    83  C    0.110097
    84  O   -0.231289
    85  C    0.166615
    86  C   -0.022491
    87  C   -0.010794
    88  C   -0.008443
    89  C   -0.007988
    90  C   -0.027614
    91  C    0.160588
    92  O   -0.194773
    93  H    0.101404
    94  H    0.018196
    95  H   -0.012686
    96  H    0.005500
    97  H   -0.032440
    98  H   -0.029272
    99  H   -0.012683
   100  H   -0.036731
   101  H    0.175290
   102  N   -0.163333
   103  C    0.151678
   104  C    0.055432
   105  O   -0.275132
   106  C   -0.109551
   107  C    0.015684
   108  C    0.045451
   109  C    0.046063
   110  H    0.117955
   111  H    0.039533
   112  H    0.016288
   113  H    0.005833
   114  H   -0.015029
   115  H   -0.012084
   116  H    0.010324
   117  H    0.017056
   118  H    0.030883
   119  H   -0.037122
   120  H    0.035156
   121  N   -0.116888
   122  C    0.096103
   123  C    0.108584
   124  O   -0.297654
   125  C    0.223024
   126  O   -0.322595
   127  H    0.098254
   128  H    0.008424
   129  H   -0.010684
   130  H   -0.008045
   131  H    0.177761
   132  N   -0.094785
   133  C    0.033071
   134  C    0.109984
   135  O   -0.243180
   136  C    0.081609
   137  H    0.135751
   138  H   -0.002039
   139  H    0.015948
   140  H   -0.014202
   141  H    0.034842
   142  N   -0.155124
   143  C    0.023021
   144  C    0.084787
   145  O   -0.251325
   146  C    0.108034
   147  H    0.121056
   148  H    0.008139
   149  H    0.012504
   150  H   -0.021491
   151  H    0.049796
   152  N   -0.130748
   153  C    0.086218
   154  C    0.060534
   155  O   -0.283126
   156  C    0.076764
   157  C    0.076486
   158  C    0.077589
   159  O   -0.409606
   160  O   -0.409971
   161  H    0.094806
   162  H    0.023046
   163  H   -0.018060
   164  H    0.046247
   165  H    0.021427
   166  H    0.000338
   167  N   -0.167437
   168  C    0.122545
   169  H    0.016497
   170  H    0.052820
   171  H    0.019998
   172  H    0.115951
   173  Ca   1.384602
   174  O   -0.287252
   175  H    0.175363
   176  H    0.209927
 Sum of Mulliken charges =  -0.00000
 Mulliken charges with hydrogens summed into heavy atoms:
               1
     1  C    0.112112
     2  C   -0.021282
     3  O   -0.306987
     7  N   -0.021756
     8  C    0.161629
     9  C    0.097188
    10  O   -0.291671
    11  C   -0.014007
    12  C    0.082911
    13  O   -0.403926
    14  O   -0.356971
    19  N    0.024198
    20  C    0.103723
    21  C    0.063165
    22  O   -0.222089
    23  C    0.063242
    24  C   -0.024881
    25  C    0.012688
    26  C    0.222784
    27  N    0.613476
    41  N   -0.078406
    42  C    0.145483
    43  C    0.126917
    44  O   -0.307192
    45  C    0.025989
    46  C    0.084923
    47  O   -0.377002
    48  O   -0.466295
    53  N    0.000241
    54  C    0.216134
    55  C    0.029817
    56  O   -0.248299
    60  N   -0.006561
    61  C    0.052834
    62  C    0.105514
    63  O   -0.266382
    64  C    0.167703
    65  C   -0.030222
    66  N    0.212721
    67  O   -0.276172
    74  N    0.001145
    75  C    0.302585
    76  C    0.017414
    77  O   -0.273562
    81  N   -0.022354
    82  C    0.055868
    83  C    0.110097
    84  O   -0.231289
    85  C    0.159429
    86  C   -0.022491
    87  C   -0.043234
    88  C   -0.037715
    89  C   -0.020671
    90  C   -0.064345
    91  C    0.160588
    92  O   -0.019482
   102  N   -0.045378
   103  C    0.191212
   104  C    0.055432
   105  O   -0.275132
   106  C   -0.093263
   107  C    0.006488
   108  C    0.060747
   109  C    0.074980
   121  N   -0.018634
   122  C    0.104527
   123  C    0.108584
   124  O   -0.297654
   125  C    0.204296
   126  O   -0.144833
   132  N    0.040965
   133  C    0.031031
   134  C    0.109984
   135  O   -0.243180
   136  C    0.118197
   142  N   -0.034068
   143  C    0.031160
   144  C    0.084787
   145  O   -0.251325
   146  C    0.148843
   152  N   -0.035942
   153  C    0.109264
   154  C    0.060534
   155  O   -0.283126
   156  C    0.104951
   157  C    0.098251
   158  C    0.077589
   159  O   -0.409606
   160  O   -0.409971
   167  N   -0.051486
   168  C    0.211860
   173  Ca   1.384602
   174  O    0.098037
 DipInt: DoE/N= T F RetVal/Mat= T F Init=T NMatP=  1 IDeriv=0 Min/MaxMlt=  0  4
 Entering OneElI...
 OneElI was handed  1333951383 working-precision words.
 Multipole integrals L=0 to 4 MinM= 0 MaxM= 0.
 Requested accuracy = 0.1000D-12
 ShPair: Thresh= 1.00D-13 NBox=     0 BxSize= 0.00D+00 RnKept= 2.92D+01
         NSMCal=               327645 NSMKep=              133924
 PrmmSu-InSpLW:  IPartL=    0 NPrtUS=    1 NPrtUL=    1 DoSpLW=F IThBeg=    0 IThEnd=    0 NThAct=    1.
 PrsmSu:  NPrtUS=   1 ThrOK=F IAlg=1 NPAlg=1 LenDen=           0 ISkipM=0 DoSpLW=F IThBeg=    0 IThEnd=    0.
 Prism:   IPart=     0 DynPar=F LinDyn=F Incr=         512.
 PRISM was handed  1324924407 working-precision words and133924 shell-pairs
 IPart=  0 NShTot=      133924 NBatch=         311 AvBLen=       430.6
 PrsmSu-ThDecC:  IPartSL=    0    0 NPrtUSL=    1    1 IThBeg=    0 IThEnd=    0 CPU=   -1 GPU=   -1 NThAct=    1.
 PrSmSu:  NxtVal=            513.
 Electronic moments (au):
       -716.00000000         -5.18558837         -5.93749403          7.93390973
     -75085.98963623     -33270.46494396     -17353.31091064       -150.33472214
        137.74464649        -38.22301744     125106.20796548     -84981.77021249
     -13081.93431341     -20221.25972416     125165.57577188     -86626.55432175
     -45977.33443828       -482.68803825     -55946.54938333      16426.91615880
  -15993942.90713959   -3879532.29939519   -1111978.47410942    -479853.46635733
    -946116.49427499     296460.91998033    -624562.79443696       4052.56787559
      88750.72471850   -2129896.20634378   -1512022.19083324   -1060015.24468909
     738633.22352232    -218614.43697278     102405.33332615
 Electronic spatial extent (au):  <R**2>=         125709.7655
 DipInt: DoE/N= F T RetVal/Mat= T F Init=T NMatP=  1 IDeriv=0 Min/MaxMlt=  0  4
 Nuclear    moments (au):
        716.00000000          0.00000000         -0.00000000          0.00000000
      74620.56985497      33020.21275988      17013.26642418          0.00000000
         -0.00000000          0.00000000    -127794.53173208      84298.55347776
      13457.83441541      21708.20390541    -126482.24161634      88726.75182221
      46490.58042723       -816.54752535      56660.87290151     -17604.12148867
   15720863.58430788    3801130.60968778    1062865.33039591     450612.42174764
     968279.59057765    -313071.24449217     621283.17050239       6015.11413385
     -95662.04076285    2080176.24458576    1467333.90322819    1043710.70980471
    -752449.15131427     236420.59875973    -113645.63840495
 Total      moments (au):
         -0.00000000         -5.18558837         -5.93749403          7.93390973
       -465.41978125       -250.25218408       -340.04448647       -150.33472214
        137.74464649        -38.22301744      -2688.32376661       -683.21673473
        375.90010200       1486.94418125      -1316.66584446       2100.19750045
        513.24598896      -1299.23556360        714.32351818      -1177.20532987
    -273079.32283172     -78401.68970742     -49113.14371352     -29241.04460970
      22163.09630267     -16610.32451184      -3279.62393457      10067.68200944
      -6911.31604435     -49719.96175803     -44688.28760504     -16304.53488437
     -13815.92779195      17806.16178696     -11240.30507881
 Traceless Quadrup. (au):
       -113.51429732        101.65329985         11.86099747       -150.33472214
        137.74464649        -38.22301744
 Charge=             -0.0000 electrons
 Dipole moment (field-independent basis, Debye):
    X=            -13.1805    Y=            -15.0916    Z=             20.1660  Tot=             28.4279
 Quadrupole moment (field-independent basis, Debye-Ang):
   XX=           -626.0055   YY=           -336.5978   ZZ=           -457.3715
   XY=           -202.2054   XZ=            185.2713   YZ=            -51.4113
 Traceless Quadrupole moment (field-independent basis, Debye-Ang):
   XX=           -152.6806   YY=            136.7272   ZZ=             15.9534
   XY=           -202.2054   XZ=            185.2713   YZ=            -51.4113
 Octapole moment (field-independent basis, Debye-Ang**2):
  XXX=          -1913.4453  YYY=           -486.2874  ZZZ=            267.5512  XYY=           1058.3496
  XXY=           -937.1520  XXZ=           1494.8397  XZZ=            365.3087  YZZ=           -924.7458
  YYZ=            508.4280  XYZ=           -837.8894
 Hexadecapole moment (field-independent basis, Debye-Ang**3):
 XXXX=        -102854.7676 YYYY=         -29529.8358 ZZZZ=         -18498.3650 XXXY=         -11013.5796
 XXXZ=           8347.6848 YYYX=          -6256.2447 YYYZ=          -1235.2636 ZZZX=           3791.9718
 ZZZY=          -2603.1330 XXYY=         -18726.9217 XXZZ=         -16831.7520 YYZZ=          -6141.0697
 XXYZ=          -5203.7409 YYXZ=           6706.6544 ZZXY=          -4233.6379
 N-N= 1.962161259468D+04 E-N=-5.172869872783D+04  KE= 5.290451783802D+03
 Leave Link  601 at Wed Sep 18 14:30:10 2019, MaxMem=  1342177280 cpu:              52.1 elap:               1.3
 FitSet:  NAtFit=   176 NAtPot=   176 NAtFrz=     0 MDM=   180 TotChg=   0.00000
 Merz-Kollman atomic radii used.
 Read replacement radii for each type of atom:
 Rad(20) =   1.700000000000D+00
 Atom Element Radius
    1     6    1.50
    2     6    1.50
    3     8    1.40
    4     1    1.20
    5     1    1.20
    6     1    1.20
    7     7    1.50
    8     6    1.50
    9     6    1.50
   10     8    1.40
   11     6    1.50
   12     6    1.50
   13     8    1.40
   14     8    1.40
   15     1    1.20
   16     1    1.20
   17     1    1.20
   18     1    1.20
   19     7    1.50
   20     6    1.50
   21     6    1.50
   22     8    1.40
   23     6    1.50
   24     6    1.50
   25     6    1.50
   26     6    1.50
   27     7    1.50
   28     1    1.20
   29     1    1.20
   30     1    1.20
   31     1    1.20
   32     1    1.20
   33     1    1.20
   34     1    1.20
   35     1    1.20
   36     1    1.20
   37     1    1.20
   38     1    1.20
   39     1    1.20
   40     1    1.20
   41     7    1.50
   42     6    1.50
   43     6    1.50
   44     8    1.40
   45     6    1.50
   46     6    1.50
   47     8    1.40
   48     8    1.40
   49     1    1.20
   50     1    1.20
   51     1    1.20
   52     1    1.20
   53     7    1.50
   54     6    1.50
   55     6    1.50
   56     8    1.40
   57     1    1.20
   58     1    1.20
   59     1    1.20
   60     7    1.50
   61     6    1.50
   62     6    1.50
   63     8    1.40
   64     6    1.50
   65     6    1.50
   66     7    1.50
   67     8    1.40
   68     1    1.20
   69     1    1.20
   70     1    1.20
   71     1    1.20
   72     1    1.20
   73     1    1.20
   74     7    1.50
   75     6    1.50
   76     6    1.50
   77     8    1.40
   78     1    1.20
   79     1    1.20
   80     1    1.20
   81     7    1.50
   82     6    1.50
   83     6    1.50
   84     8    1.40
   85     6    1.50
   86     6    1.50
   87     6    1.50
   88     6    1.50
   89     6    1.50
   90     6    1.50
   91     6    1.50
   92     8    1.40
   93     1    1.20
   94     1    1.20
   95     1    1.20
   96     1    1.20
   97     1    1.20
   98     1    1.20
   99     1    1.20
  100     1    1.20
  101     1    1.20
  102     7    1.50
  103     6    1.50
  104     6    1.50
  105     8    1.40
  106     6    1.50
  107     6    1.50
  108     6    1.50
  109     6    1.50
  110     1    1.20
  111     1    1.20
  112     1    1.20
  113     1    1.20
  114     1    1.20
  115     1    1.20
  116     1    1.20
  117     1    1.20
  118     1    1.20
  119     1    1.20
  120     1    1.20
  121     7    1.50
  122     6    1.50
  123     6    1.50
  124     8    1.40
  125     6    1.50
  126     8    1.40
  127     1    1.20
  128     1    1.20
  129     1    1.20
  130     1    1.20
  131     1    1.20
  132     7    1.50
  133     6    1.50
  134     6    1.50
  135     8    1.40
  136     6    1.50
[...]
 **** Fit       0.006219
 **** Fit       0.007522
 **** Fit       0.008705
 **** Fit       0.009687
 **** Fit       0.010424
 **** Fit       0.010924
 **** Fit       0.011238
 **** Fit       0.011446
 **** Fit       0.011634
 **** Fit       0.011878
 **** Fit       0.012241
 **** Fit       0.004008
 **** Fit       0.005572
 **** Fit       0.007099
 **** Fit       0.008491
 **** Fit       0.009647
 **** Fit       0.010505
 **** Fit       0.011065
 **** Fit       0.011385
 **** Fit       0.011559
 **** Fit       0.011692
 **** Fit       0.011885
 **** Fit       0.012220
 **** Fit       0.012753
 **** Fit       0.003096
 **** Fit       0.004857
 **** Fit       0.006587
 **** Fit       0.008184
 **** Fit       0.009522
 **** Fit       0.010514
 **** Fit       0.011145
 **** Fit       0.011471
 **** Fit       0.011600
 **** Fit       0.011657
 **** Fit       0.011767
 **** Fit       0.012038
 **** Fit       0.012552
 **** Fit       0.002176
 **** Fit       0.004106
 **** Fit       0.006045
 **** Fit       0.007866
 **** Fit       0.009397
 **** Fit       0.010514
 **** Fit       0.011189
 **** Fit       0.011486
 **** Fit       0.011535
 **** Fit       0.011493
 **** Fit       0.011522
 **** Fit       0.011766
 **** Fit       0.012341
 **** Fit       0.013309
 **** Fit       0.003328
 **** Fit       0.005529
 **** Fit       0.007633
 **** Fit       0.009364
 **** Fit       0.010546
 **** Fit       0.011159
 **** Fit       0.011313
 **** Fit       0.011200
 **** Fit       0.011051
 **** Fit       0.011101
 **** Fit       0.011558
 **** Fit       0.012574
 **** Fit       0.009177
 **** Fit       0.010337
 **** Fit       0.010779
 **** Fit       0.010699
 **** Fit       0.010412
 **** Fit       0.010282
 **** Fit       0.010669
 **** Fit       0.011869
 **** Fit       0.009626
 **** Fit       0.009874
 **** Fit       0.009609
 **** Fit       0.009325
 **** Fit       0.009585
 **** Fit       0.010920
 **** Fit       0.008672
 **** Fit       0.008594
 **** Fit       0.008501
 **** Fit       0.009395
 **** Fit       0.014149
 **** Fit       0.016624
 **** Fit       0.019916
 **** Fit       0.023546
 **** Fit       0.006703
 **** Fit       0.006090
 **** Fit       0.006894
 **** Fit       0.009409
 **** Fit       0.013438
 **** Fit       0.018444
 **** Fit       0.023765
 **** Fit       0.028771
 **** Fit       0.002088
 **** Fit       0.019558
 **** Fit       0.027215
 **** Fit       0.034115
 **** Fit       0.031643
 **** Fit      -0.032542
 **** Fit       0.001649
 **** Fit       0.001783
 **** Fit      -0.000729
 **** Fit      -0.006251
 **** Fit      -0.015395
 **** Fit       0.010305
 **** Fit       0.013325
 **** Fit       0.014001
 **** Fit       0.012331
 **** Fit       0.008091
 **** Fit       0.000864
 **** Fit       0.018459
 **** Fit       0.022909
 **** Fit       0.025148
 **** Fit       0.025308
 **** Fit       0.023316
 **** Fit       0.018901
 **** Fit       0.011644
 **** Fit       0.018373
 **** Fit       0.026033
 **** Fit       0.031415
 **** Fit       0.034849
 **** Fit       0.036533
 **** Fit       0.036522
 **** Fit       0.034683
 **** Fit       0.022568
 **** Fit       0.031135
 **** Fit       0.037690
 **** Fit       0.042501
 **** Fit       0.045808
 **** Fit       0.047813
 **** Fit       0.027369
 **** Fit       0.036108
 **** Fit       0.043292
 **** Fit       0.049043
 **** Fit       0.053540
 **** Fit       0.057031
 **** Fit       0.025893
 **** Fit       0.035261
 **** Fit       0.043656
 **** Fit       0.050961
 **** Fit       0.057176
 **** Fit       0.062400
 **** Fit      -0.001365
 **** Fit       0.001596
 **** Fit       0.002024
 **** Fit       0.000599
 **** Fit       0.000541
 **** Fit       0.000161
 **** Fit       0.026239
 **** Fit       0.034737
 **** Fit       0.043151
 **** Fit       0.051166
 **** Fit       0.058607
 **** Fit       0.000273
 **** Fit       0.006152
 **** Fit       0.009580
 **** Fit       0.011263
 **** Fit       0.012109
 **** Fit       0.012694
 **** Fit       0.013144
 **** Fit       0.013423
 **** Fit       0.013640
 **** Fit       0.014136
 **** Fit       0.015366
 **** Fit       0.017741
 **** Fit       0.021494
 **** Fit       0.026627
 **** Fit       0.032934
 **** Fit       0.040080
 **** Fit       0.047714
 **** Fit       0.055557
 **** Fit       0.063437
 **** Fit       0.010183
 **** Fit       0.015406
 **** Fit       0.018857
 **** Fit       0.021068
 **** Fit       0.022564
 **** Fit       0.023670
 **** Fit       0.024568
 **** Fit       0.025450
 **** Fit       0.026598
 **** Fit       0.028345
 **** Fit       0.030984
 **** Fit       0.034693
 **** Fit       0.039502
 **** Fit       0.045314
 **** Fit       0.051966
 **** Fit       0.059309
 **** Fit       0.011569
 **** Fit       0.018164
 **** Fit       0.023358
 **** Fit       0.027126
 **** Fit       0.029808
 **** Fit       0.031794
 **** Fit       0.033400
 **** Fit       0.034902
 **** Fit       0.036591
 **** Fit       0.038778
 **** Fit       0.041735
 **** Fit       0.045647
 **** Fit       0.050594
 **** Fit       0.056585
 **** Fit       0.063633
 **** Fit      -0.001958
 **** Fit       0.003716
 **** Fit       0.008625
 **** Fit       0.014220
 **** Fit       0.020375
 **** Fit       0.026194
 **** Fit       0.031051
 **** Fit       0.034833
 **** Fit       0.037750
 **** Fit       0.040112
 **** Fit       0.042240
 **** Fit       0.044452
 **** Fit       0.047065
 **** Fit       0.050364
 **** Fit       0.054570
 **** Fit       0.059850
 **** Fit       0.066380
 **** Fit       0.006806
 **** Fit       0.012954
 **** Fit       0.018049
 **** Fit       0.023143
 **** Fit       0.028483
 **** Fit       0.033617
 **** Fit       0.038103
 **** Fit       0.041819
 **** Fit       0.044915
 **** Fit       0.047668
 **** Fit       0.050400
 **** Fit       0.053445
 **** Fit       0.057117
 **** Fit       0.061704
 **** Fit       0.067502
 **** Fit       0.008477
 **** Fit       0.015284
 **** Fit       0.021388
 **** Fit       0.026693
 **** Fit       0.031752
 **** Fit       0.036764
 **** Fit       0.041482
 **** Fit       0.045670
 **** Fit       0.049336
 **** Fit       0.052704
 **** Fit       0.056112
 **** Fit       0.059938
 **** Fit       0.064573
 **** Fit       0.070454
 **** Fit       0.022651
 **** Fit       0.028453
 **** Fit       0.033832
 **** Fit       0.038927
 **** Fit       0.043826
 **** Fit       0.048403
 **** Fit       0.052600
 **** Fit       0.056586
 **** Fit       0.060707
 **** Fit       0.065411
 **** Fit       0.071223
 **** Fit       0.030046
 **** Fit       0.035554
 **** Fit       0.041095
 **** Fit       0.046475
 **** Fit       0.051622
 **** Fit       0.056523
 **** Fit       0.061430
 **** Fit       0.066838
 **** Fit       0.042244
 **** Fit       0.048050
 **** Fit       0.054041
 **** Fit       0.059990
 **** Fit       0.066144
 **** Fit       0.055755
 **** Fit       0.062456
 **** Fit       0.058998
 **** Fit       0.060603
 **** Fit      -0.002648
 **** Fit       0.008040
 **** Fit      -0.006534
 **** Fit      -0.013875
 **** Fit      -0.020623
 **** Fit      -0.025786
 **** Fit      -0.027732
 **** Fit      -0.017155
 **** Fit      -0.005473
 **** Fit       0.008400
 **** Fit       0.023022
 **** Fit       0.016094
 **** Fit       0.008610
 **** Fit       0.001012
 **** Fit      -0.003896
 **** Fit      -0.010091
 **** Fit      -0.015000
 **** Fit      -0.017612
 **** Fit      -0.016787
 **** Fit      -0.011930
 **** Fit      -0.003483
 **** Fit       0.007348
 **** Fit       0.019252
 **** Fit       0.031127
 **** Fit       0.042042
 **** Fit       0.051248
 **** Fit       0.058348
 **** Fit       0.044514
 **** Fit       0.040182
 **** Fit       0.035387
 **** Fit       0.029936
 **** Fit       0.023793
 **** Fit       0.017082
 **** Fit       0.010038
 **** Fit       0.002944
 **** Fit      -0.000515
 **** Fit      -0.005499
 **** Fit      -0.008717
 **** Fit      -0.009304
 **** Fit      -0.006618
 **** Fit      -0.000689
 **** Fit       0.007715
 **** Fit       0.017479
 **** Fit       0.027533
 **** Fit       0.036974
 **** Fit       0.045141
 **** Fit       0.040867
 **** Fit       0.035973
 **** Fit       0.030668
 **** Fit       0.024844
 **** Fit       0.018549
 **** Fit       0.011991
 **** Fit       0.005497
 **** Fit       0.003494
 **** Fit      -0.000439
 **** Fit      -0.002091
 **** Fit      -0.000766
 **** Fit       0.003699
 **** Fit       0.010729
 **** Fit       0.019261
 **** Fit       0.028159
 **** Fit       0.036475
 **** Fit       0.038517
 **** Fit       0.033153
 **** Fit       0.027421
 **** Fit       0.021314
 **** Fit       0.015007
 **** Fit       0.008882
 **** Fit       0.008090
 **** Fit       0.005131
 **** Fit       0.005310
 **** Fit       0.009024
 **** Fit       0.015659
 **** Fit       0.023845
 **** Fit       0.032092
 **** Fit       0.032061
 **** Fit       0.025836
 **** Fit       0.019383
 **** Fit       0.013193
 **** Fit       0.013272
 **** Fit       0.011548
 **** Fit       0.014347
 **** Fit       0.020937
 **** Fit       0.028956
 **** Fit       0.031604
 **** Fit       0.024980
 **** Fit       0.018364
 **** Fit       0.019053
 **** Fit       0.019803
 **** Fit       0.026789
 **** Fit       0.031245
 **** Fit       0.024848
 **** Fit       0.025443
 **** Fit       0.063360
 **** Fit       0.063156
 **** Fit       0.060704
 **** Fit       0.059689
 **** Fit       0.059879
 **** Fit       0.063927
 **** Fit       0.060442
 **** Fit       0.058517
 **** Fit       0.057679
 **** Fit       0.057736
 **** Fit       0.058713
 **** Fit       0.065772
 **** Fit       0.061313
 **** Fit       0.058569
 **** Fit       0.056975
 **** Fit       0.056198
 **** Fit       0.056077
 **** Fit       0.056592
 **** Fit       0.057847
 **** Fit       0.064913
 **** Fit       0.060744
 **** Fit       0.058007
 **** Fit       0.056280
 **** Fit       0.055270
 **** Fit       0.054802
 **** Fit       0.054795
 **** Fit       0.055255
 **** Fit       0.056257
 **** Fit       0.068994
 **** Fit       0.063740
 **** Fit       0.059938
 **** Fit       0.057302
 **** Fit       0.055542
 **** Fit       0.054418
 **** Fit       0.053763
 **** Fit       0.053481
 **** Fit       0.053537
 **** Fit       0.053943
 **** Fit       0.054747
 **** Fit       0.068603
 **** Fit       0.064072
 **** Fit       0.060352
 **** Fit       0.057520
 **** Fit       0.055472
 **** Fit       0.054044
 **** Fit       0.053078
 **** Fit       0.052451
 **** Fit       0.052087
 **** Fit       0.051944
 **** Fit       0.052002
 **** Fit       0.052230
 **** Fit       0.065320
 **** Fit       0.066083
 **** Fit       0.064732
 **** Fit       0.062317
 **** Fit       0.059649
 **** Fit       0.057211
 **** Fit       0.055206
 **** Fit       0.053656
 **** Fit       0.052494
 **** Fit       0.051625
 **** Fit       0.050964
 **** Fit       0.050441
 **** Fit       0.049997
 **** Fit       0.049563
 **** Fit       0.049017
 **** Fit       0.055977
 **** Fit       0.057277
 **** Fit       0.056907
 **** Fit       0.055681
 **** Fit       0.054201
 **** Fit       0.052803
 **** Fit       0.051608
 **** Fit       0.050612
 **** Fit       0.049757
 **** Fit       0.048963
 **** Fit       0.048141
 **** Fit       0.047178
 **** Fit       0.045889
 **** Fit       0.046556
 **** Fit       0.050035
 **** Fit       0.051529
 **** Fit       0.051679
 **** Fit       0.051117
 **** Fit       0.050276
 **** Fit       0.049370
 **** Fit       0.048450
 **** Fit       0.047477
 **** Fit       0.046358
 **** Fit       0.044949
 **** Fit       0.043031
 **** Fit       0.040295
 **** Fit       0.039802
 **** Fit       0.044318
 **** Fit       0.046857
 **** Fit       0.047808
 **** Fit       0.047769
 **** Fit       0.047193
 **** Fit       0.046286
 **** Fit       0.045064
 **** Fit       0.043408
 **** Fit       0.041099
 **** Fit       0.037864
 **** Fit       0.036157
 **** Fit       0.040964
 **** Fit       0.043735
 **** Fit       0.044587
 **** Fit       0.044143
 **** Fit       0.042753
 **** Fit       0.040390
 **** Fit       0.036892
 **** Fit       0.033163
 **** Fit       0.034187
 **** Fit       0.038699
 **** Fit       0.041117
 **** Fit       0.040174
 **** Fit       0.036724
 **** Fit       0.037319
 **** Fit       0.029586
 **** Fit       0.022307
 **** Fit       0.035363
 **** Fit       0.029987
 **** Fit       0.024491
 **** Fit       0.018134
 **** Fit       0.047457
 **** Fit       0.041530
 **** Fit       0.036957
 **** Fit       0.032773
 **** Fit       0.028363
 **** Fit       0.023309
 **** Fit       0.017382
 **** Fit       0.054640
 **** Fit       0.048216
 **** Fit       0.043575
 **** Fit       0.039781
 **** Fit       0.036253
 **** Fit       0.032585
 **** Fit       0.028478
 **** Fit       0.023723
 **** Fit       0.018242
 **** Fit       0.054243
 **** Fit       0.049262
 **** Fit       0.045397
 **** Fit       0.042114
 **** Fit       0.039042
 **** Fit       0.035900
 **** Fit       0.032473
 **** Fit       0.028590
 **** Fit       0.024135
 **** Fit       0.019078
 **** Fit       0.058773
 **** Fit       0.053325
 **** Fit       0.049150
 **** Fit       0.045732
 **** Fit       0.042701
 **** Fit       0.039776
 **** Fit       0.036737
 **** Fit       0.033408
 **** Fit       0.029646
 **** Fit       0.025344
 **** Fit       0.020435
 **** Fit       0.057309
 **** Fit       0.052647
 **** Fit       0.048925
 **** Fit       0.045762
 **** Fit       0.042870
 **** Fit       0.040023
 **** Fit       0.037042
 **** Fit       0.033779
 **** Fit       0.030111
 **** Fit       0.025935
 **** Fit       0.021163
 **** Fit       0.057791
 **** Fit       0.053152
 **** Fit       0.049420
 **** Fit       0.046230
 **** Fit       0.043307
 **** Fit       0.040437
 **** Fit       0.037450
 **** Fit       0.034208
 **** Fit       0.030591
 **** Fit       0.026499
 **** Fit       0.021843
 **** Fit       0.016569
 **** Fit       0.056235
 **** Fit       0.051730
 **** Fit       0.048036
 **** Fit       0.044787
 **** Fit       0.041713
 **** Fit       0.038607
 **** Fit       0.035304
 **** Fit       0.031668
 **** Fit       0.027587
 **** Fit       0.022968
 **** Fit       0.017757
 **** Fit       0.055633
 **** Fit       0.050880
 **** Fit       0.046961
 **** Fit       0.043470
 **** Fit       0.040111
 **** Fit       0.036664
 **** Fit       0.032954
 **** Fit       0.028844
 **** Fit       0.024227
 **** Fit       0.019039
 **** Fit       0.013297
 **** Fit       0.054164
 **** Fit       0.049297
 **** Fit       0.045211
 **** Fit       0.041490
 **** Fit       0.037836
 **** Fit       0.034026
 **** Fit       0.029892
 **** Fit       0.025311
 **** Fit       0.020202
 **** Fit       0.014545
 **** Fit       0.049755
 **** Fit       0.044934
 **** Fit       0.040630
 **** Fit       0.036441
 **** Fit       0.032083
 **** Fit       0.027356
 **** Fit       0.022130
 **** Fit       0.016351
 **** Fit       0.044252
 **** Fit       0.039348
 **** Fit       0.034596
 **** Fit       0.029661
 **** Fit       0.024332
 -----------------------------------------------------------------
 Leave Link  602 at Wed Sep 18 14:30:13 2019, MaxMem=  1342177280 cpu:             123.9 elap:               2.6

 Test job not archived.
 1\1\GINC-C479-132\SP\RB3LYP\SVP\C54H83Ca1N15O23\PENGZHI\18-Sep-2019\0\
 \#b3lyp/svp scf=(tight,noincore) Test #IOP(5/87=12) Density=Current Po
 p=(MK,readradii) iop(6/33=2) iop(6/42=6)\\Ng-31_loop3_14.0\\0,1\C,0,88
 .17,73.95,28.91\C,0,87.35,73.33,30.03\O,0,86.27,73.79,30.38\H,0,89.155
 ,73.483,28.88\H,0,87.664,73.791,27.958\H,0,88.281,75.019,29.089\N,0,87
 .89,72.28,30.66\C,0,87.22,71.57,31.73\C,0,87.55,71.96,33.17\O,0,86.82,
 71.54,34.06\C,0,87.43,70.06,31.66\C,0,88.83,69.48,31.54\O,0,89.64,70.1
 9,30.91\O,0,89.04,68.28,31.85\H,0,88.74,71.89,30.28\H,0,86.15,71.72,31
 .59\H,0,87.02,69.65,30.73\H,0,86.88,69.66,32.51\N,0,88.62,72.72,33.41\
 C,0,88.86,73.38,34.68\C,0,89.2,72.33,35.73\O,0,89.9,71.36,35.49\C,0,89
 .91,74.46,34.45\C,0,89.34,75.82,34.04\C,0,90.43,76.85,33.77\C,0,89.9,7
 8.15,33.17\N,0,89.32,79.01,34.2\H,0,89.16,73.04,32.62\H,0,87.97,73.91,
 35.03\H,0,90.64,74.09,33.73\H,0,90.49,74.69,35.34\H,0,88.69,76.19,34.8
 3\H,0,88.65,75.62,33.22\H,0,91.05,76.36,33.02\H,0,90.99,76.94,34.71\H,
 0,89.2,77.86,32.38\H,0,90.8,78.53,32.69\H,0,88.78,79.72,33.73\H,0,88.7
 5,78.41,34.78\H,0,89.95,79.46,34.85\N,0,88.7,72.61,36.94\C,0,88.72,71.
 62,38.\C,0,87.69,70.5,37.95\O,0,87.42,69.79,38.92\C,0,88.62,72.38,39.3
 3\C,0,87.37,73.24,39.42\O,0,87.41,74.38,38.9\O,0,86.32,72.76,39.89\H,0
 ,88.24,73.49,37.13\H,0,89.74,71.24,37.99\H,0,89.41,73.12,39.46\H,0,88.
 63,71.75,40.22\N,0,86.98,70.48,36.82\C,0,86.02,69.45,36.46\C,0,86.57,6
 8.11,36.01\O,0,87.78,67.92,36.16\H,0,87.18,71.14,36.09\H,0,85.38,69.87
 ,35.69\H,0,85.39,69.29,37.33\N,0,85.74,67.11,35.71\C,0,84.29,67.06,35.
 63\C,0,83.78,66.42,34.35\O,0,83.74,65.19,34.28\C,0,83.81,66.25,36.83\C
 ,0,84.29,66.77,38.18\N,0,85.38,66.26,38.76\O,0,83.63,67.64,38.75\H,0,8
 6.23,66.3,35.37\H,0,83.82,68.03,35.8\H,0,84.23,65.25,36.75\H,0,82.73,6
 6.38,36.78\H,0,85.81,65.53,38.2\H,0,85.95,66.71,39.45\N,0,83.2,67.16,3
 3.4\C,0,83.34,68.58,33.17\C,0,82.41,69.42,34.03\O,0,82.81,70.49,34.5\H
 ,0,82.82,66.66,32.62\H,0,83.23,68.9,32.13\H,0,84.32,68.92,33.49\N,0,81
 .14,69.03,34.18\C,0,80.15,69.76,34.95\C,0,80.6,69.74,36.4\O,0,81.18,68
 .83,36.98\C,0,78.84,69.06,34.6\C,0,78.28,69.38,33.23\C,0,77.99,70.69,3
 2.84\C,0,77.96,68.32,32.37\C,0,77.41,70.97,31.6\C,0,77.59,68.6,31.05\C
 ,0,77.23,69.91,30.68\O,0,76.85,70.14,29.39\H,0,80.82,68.21,33.69\H,0,8
 0.19,70.76,34.52\H,0,78.12,69.48,35.3\H,0,78.99,68.,34.76\H,0,78.26,71
 .5,33.5\H,0,78.17,67.31,32.67\H,0,77.3,72.01,31.32\H,0,77.41,67.81,30.
 34\H,0,76.78,69.34,28.87\N,0,80.06,70.77,37.06\C,0,80.44,71.21,38.39\C
 ,0,79.42,70.93,39.49\O,0,79.72,70.87,40.68\C,0,80.82,72.69,38.37\C,0,8
 2.05,73.06,37.54\C,0,79.62,73.54,37.98\C,0,83.34,72.31,37.86\H,0,79.42
 ,71.31,36.49\H,0,81.25,70.58,38.75\H,0,81.18,72.98,39.36\H,0,82.31,74.
 11,37.66\H,0,81.82,72.9,36.48\H,0,79.38,73.45,36.92\H,0,78.74,73.25,38
 .56\H,0,79.86,74.57,38.25\H,0,84.16,72.76,37.3\H,0,83.54,72.38,38.92\H
 ,0,83.23,71.26,37.56\N,0,78.18,70.62,39.12\C,0,77.19,70.03,40.\C,0,76.
 49,71.12,40.79\O,0,76.04,72.11,40.23\C,0,76.24,69.23,39.11\O,0,75.59,6
 8.27,39.91\H,0,78.03,70.7,38.12\H,0,77.65,69.31,40.69\H,0,76.81,68.73,
 38.32\H,0,75.59,69.87,38.52\H,0,75.24,67.51,39.42\N,0,76.65,70.99,42.1
 1\C,0,75.85,71.81,43.\C,0,76.78,72.69,43.83\O,0,77.86,72.3,44.25\C,0,7
 5.04,70.93,43.95\H,0,77.18,70.2,42.44\H,0,75.06,72.34,42.48\H,0,75.69,
 70.53,44.72\H,0,74.43,71.68,44.46\H,0,74.36,70.19,43.53\N,0,76.19,73.8
 6,44.11\C,0,76.8,75.,44.75\C,0,78.07,75.44,44.04\O,0,79.04,75.74,44.73
 \C,0,76.93,74.66,46.23\H,0,75.29,74.07,43.68\H,0,76.11,75.84,44.63\H,0
 ,77.44,75.45,46.77\H,0,75.92,74.78,46.61\H,0,77.4,73.68,46.37\N,0,78.,
 75.46,42.71\C,0,79.09,76.01,41.92\C,0,78.62,76.8,40.71\O,0,79.12,77.92
 ,40.59\C,0,80.08,74.91,41.55\C,0,81.47,75.43,41.18\C,0,82.6,74.46,41.5
 \O,0,82.53,73.74,42.51\O,0,83.55,74.28,40.7\H,0,77.12,75.19,42.28\H,0,
 79.62,76.76,42.5\H,0,79.7,74.43,40.64\H,0,80.09,74.27,42.43\H,0,81.77,
 76.39,41.6\H,0,81.51,75.57,40.1\N,0,77.56,76.45,39.97\C,0,76.93,77.38,
 39.05\H,0,76.017,77.771,39.498\H,0,77.613,78.203,38.84\H,0,76.686,76.8
 64,38.121\H,0,77.09,75.58,40.14\Ca,0,84.75,72.24,41.81\O,0,87.04,71.76
 ,42.99\H,0,86.73,71.69,43.89\H,0,87.72,72.44,43.02\\Version=ES64L-G16R
 evA.03\State=1-A\HF=-5333.3302021\RMSD=4.406e-10\Dipole=-3.2459706,10.
 3977034,2.5382127\Quadrupole=11.7754728,38.1105753,-49.8860481,198.150
 5099,57.0141696,-100.8008614\PG=C01 [X(C54H83Ca1N15O23)]\\@


 IN THE UNIVERSE THE DIFFICULT THINGS ARE DONE AS IF THEY WERE EASY.

                                                          -- LAO-TSU
 Job cpu time:       0 days 11 hours 10 minutes 27.7 seconds.
 Elapsed time:       0 days  0 hours 14 minutes  9.6 seconds.
 File lengths (MBytes):  RWF=   1517 Int=      0 D2E=      0 Chk=    171 Scr=      1
 Normal termination of Gaussian 16 at Wed Sep 18 14:30:14 2019.
