 Entering Gaussian System, Link 0=g16
 Initial command:
 /home1/apps/gaussian/16rA.03/g16/l1.exe "/scratch/01990/pengzhi/4356761/Gau-182878.inp" -scrdir="/scratch/01990/pengzhi/4356761/"
 Entering Link 1 = /home1/apps/gaussian/16rA.03/g16/l1.exe PID=    182879.
  
 Copyright (c) 1988,1990,1992,1993,1995,1998,2003,2009,2016,
            Gaussian, Inc.  All Rights Reserved.
  
 This is part of the Gaussian(R) 16 program.  It is based on
 the Gaussian(R) 09 system (copyright 2009, Gaussian, Inc.),
 the Gaussian(R) 03 system (copyright 2003, Gaussian, Inc.),
 the Gaussian(R) 98 system (copyright 1998, Gaussian, Inc.),
 the Gaussian(R) 94 system (copyright 1995, Gaussian, Inc.),
 the Gaussian 92(TM) system (copyright 1992, Gaussian, Inc.),
 the Gaussian 90(TM) system (copyright 1990, Gaussian, Inc.),
 the Gaussian 88(TM) system (copyright 1988, Gaussian, Inc.),
 the Gaussian 86(TM) system (copyright 1986, Carnegie Mellon
 University), and the Gaussian 82(TM) system (copyright 1983,
 Carnegie Mellon University). Gaussian is a federally registered
 trademark of Gaussian, Inc.
  
 This software contains proprietary and confidential information,
 including trade secrets, belonging to Gaussian, Inc.
  
 This software is provided under written license and may be
 used, copied, transmitted, or stored only in accord with that
 written license.
  
 The following legend is applicable only to US Government
 contracts under FAR:
  
                    RESTRICTED RIGHTS LEGEND
  
 Use, reproduction and disclosure by the US Government is
 subject to restrictions as set forth in subparagraphs (a)
 and (c) of the Commercial Computer Software - Restricted
 Rights clause in FAR 52.227-19.
  
 Gaussian, Inc.
 340 Quinnipiac St., Bldg. 40, Wallingford CT 06492
  
  
 ---------------------------------------------------------------
 Warning -- This program may not be used in any manner that
 competes with the business of Gaussian, Inc. or will provide
 assistance to any competitor of Gaussian, Inc.  The licensee
 of this program is prohibited from giving any competitor of
 Gaussian, Inc. access to this program.  By using this program,
 the user acknowledges that Gaussian, Inc. is engaged in the
 business of creating and licensing software in the field of
 computational chemistry and represents and warrants to the
 licensee that it is not a competitor of Gaussian, Inc. and that
 it will not use this program in any manner prohibited above.
 ---------------------------------------------------------------
  

 Cite this work as:
 Gaussian 16, Revision A.03,
 M. J. Frisch, G. W. Trucks, H. B. Schlegel, G. E. Scuseria, 
 M. A. Robb, J. R. Cheeseman, G. Scalmani, V. Barone, 
 G. A. Petersson, H. Nakatsuji, X. Li, M. Caricato, A. V. Marenich, 
 J. Bloino, B. G. Janesko, R. Gomperts, B. Mennucci, H. P. Hratchian, 
 J. V. Ortiz, A. F. Izmaylov, J. L. Sonnenberg, D. Williams-Young, 
 F. Ding, F. Lipparini, F. Egidi, J. Goings, B. Peng, A. Petrone, 
 T. Henderson, D. Ranasinghe, V. G. Zakrzewski, J. Gao, N. Rega, 
 G. Zheng, W. Liang, M. Hada, M. Ehara, K. Toyota, R. Fukuda, 
 J. Hasegawa, M. Ishida, T. Nakajima, Y. Honda, O. Kitao, H. Nakai, 
 T. Vreven, K. Throssell, J. A. Montgomery, Jr., J. E. Peralta, 
 F. Ogliaro, M. J. Bearpark, J. J. Heyd, E. N. Brothers, K. N. Kudin, 
 V. N. Staroverov, T. A. Keith, R. Kobayashi, J. Normand, 
 K. Raghavachari, A. P. Rendell, J. C. Burant, S. S. Iyengar, 
 J. Tomasi, M. Cossi, J. M. Millam, M. Klene, C. Adamo, R. Cammi, 
 J. W. Ochterski, R. L. Martin, K. Morokuma, O. Farkas, 
 J. B. Foresman, and D. J. Fox, Gaussian, Inc., Wallingford CT, 2016.
 
 ******************************************
 Gaussian 16:  ES64L-G16RevA.03 25-Dec-2016
                18-Sep-2019 
 ******************************************
 %chk=Ng-31_loop3_4.0.chk
 %nprocshared=48
 Will use up to   48 processors via shared memory.
 %mem=10GB
 %nosave
 ----------------------------------------------------------------------
 #b3lyp/svp scf=(tight,noincore) Test #IOP(5/87=12) Density=Current Pop
 =(MK,readradii) iop(6/33=2) iop(6/42=6)
 ----------------------------------------------------------------------
 1/30=1,38=1,172=1/1;
 2/12=2,17=6,18=5,40=1/2;
 3/5=18,7=101,11=2,25=1,30=1,74=-5/1,2,3;
 4//1;
 5/5=4,32=2,38=5,87=12/2;
 6/7=2,8=2,9=2,10=2,15=8,20=101,22=-1,28=1,33=2,42=6/1,2;
 99/5=1,9=1/99;
 ---------------
 Ng-31_loop3_4.0
 ---------------
 Symbolic Z-matrix:
 Charge =  0 Multiplicity = 1
 C                    -2.237     28.51     97.577 
 C                    -0.767     28.74     97.217 
 O                    -0.307     29.81     96.817 
 H                    -2.852     28.627    96.685 
 H                    -2.361     27.502    97.973 
 H                    -2.546     29.237    98.328 
 N                     0.033     27.7      97.437 
 C                     1.383     27.33     97.037 
 C                     1.423     26.52     95.747 
 O                     0.573     25.7      95.397 
 C                     2.043     26.51     98.147 
 C                     1.263     25.36     98.767 
 O                     0.063     25.1      98.557 
 O                     1.883     24.59     99.537 
 H                    -0.567     26.9      97.597 
 H                     1.953     28.23     96.837 
 H                     2.273     27.22     98.937 
 H                     3.013     26.14     97.837 
 N                     2.443     26.87     94.967 
 C                     2.873     26.22     93.737 
 C                     2.453     26.99     92.497 
 O                     2.843     26.7      91.367 
 C                     4.353     25.83     93.727 
 C                     4.983     25.18     94.947 
 C                     4.223     23.94     95.417 
 C                     4.913     23.17     96.547 
 N                     6.243     22.63     96.217 
 H                     3.013     27.65     95.267 
 H                     2.433     25.23     93.707 
 H                     4.973     26.68     93.447 
 H                     4.463     25.22     92.817 
 H                     5.083     25.86     95.797 
 H                     5.993     24.89     94.657 
 H                     4.033     23.26     94.587 
 H                     3.223     24.22     95.747 
 H                     4.203     22.41     96.887 
 H                     5.053     23.87     97.367 
 H                     6.663     22.3      97.077 
 H                     6.313     21.91     95.517 
 H                     6.873     23.34     95.877 
 N                     1.623     28.02     92.637 
 C                     1.463     29.05     91.637 
 C                     2.643     30.       91.707 
 O                     3.503     29.99     90.827 
 C                     0.073     29.69     91.767 
 C                    -0.447     30.06     93.147 
 O                    -1.687     30.07     93.297 
 O                     0.373     30.47     93.997 
 H                     1.443     28.27     93.607 
 H                     1.463     28.55     90.677 
 H                    -0.627     29.07     91.217 
 H                     0.053     30.63     91.217 
 N                     2.803     30.74     92.807 
 C                     3.903     31.63     93.127 
 C                     3.903     32.09     94.577 
 O                     3.053     31.7      95.367 
 H                     2.023     30.78     93.457 
 H                     3.873     32.57     92.567 
 H                     4.883     31.23     92.877 
 N                     4.933     32.84     94.977 
 C                     5.773     33.76     94.237 
 C                     5.823     35.03     95.067 
 O                     5.843     34.9      96.287 
 C                     7.123     33.17     93.847 
 C                     8.003     32.77     95.027 
 N                     8.143     31.45     95.167 
 O                     8.633     33.58     95.697 
 H                     4.843     33.15     95.927 
 H                     5.263     34.1      93.327 
 H                     7.643     33.89     93.217 
 H                     7.053     32.3      93.197 
 H                     7.603     30.8      94.617 
 H                     8.723     31.18     95.947 
 N                     5.863     36.25     94.537 
 C                     5.483     36.57     93.167 
 C                     4.023     36.31     92.817 
 O                     3.163     35.97     93.617 
 H                     5.973     37.       95.207 
 H                     6.073     35.97     92.467 
 H                     5.813     37.59     93.007 
 N                     3.673     36.62     91.557 
 C                     2.423     36.52     90.847 
 C                     2.503     35.85     89.477 
 O                     3.483     36.04     88.757 
 C                     1.833     37.9      90.557 
 C                     1.293     38.61     91.777 
 C                    -0.077     38.55     92.067 
 C                     2.073     39.39     92.637 
 C                    -0.697     39.2      93.147 
 C                     1.513     40.01     93.757 
 C                     0.123     39.98     93.987 
 O                    -0.417     40.71     95.007 
 H                     4.453     36.99     91.037 
 H                     1.603     36.14     91.457 
 H                     1.083     37.86     89.777 
 H                     2.713     38.48     90.257 
 H                    -0.667     38.       91.347 
 H                     3.143     39.41     92.477 
 H                    -1.727     39.03     93.417 
 H                     2.123     40.65     94.387 
 H                     0.323     41.22     95.347 
 N                     1.433     35.17     89.077 
 C                     1.233     34.53     87.797 
 C                     0.193     35.21     86.917 
 O                     0.283     35.09     85.697 
 C                     1.053     33.03     88.017 
 C                     2.293     32.39     88.627 
 C                    -0.207     32.64     88.787 
 C                     3.593     32.41     87.847 
 H                     0.683     35.07     89.757 
 H                     2.143     34.63     87.217 
 H                     0.953     32.56     87.037 
 H                     2.033     31.33     88.627 
 H                     2.343     32.72     89.667 
 H                    -0.467     31.58     88.767 
 H                    -0.047     32.88     89.837 
 H                    -1.027     33.2      88.347 
 H                     3.373     32.1      86.827 
 H                     3.973     33.44     87.887 
 H                     4.383     31.79     88.267 
 N                    -0.707     36.03     87.467 
 C                    -1.737     36.81     86.807 
 C                    -2.947     36.04     86.297 
 O                    -3.727     36.59     85.527 
 C                    -2.227     37.91     87.747 
 O                    -2.857     37.43     88.907 
 H                    -0.737     35.96     88.467 
 H                    -1.197     37.39     86.057 
 H                    -2.927     38.56     87.207 
 H                    -1.337     38.5      87.947 
 H                    -2.227     36.9      89.417 
 N                    -3.207     34.79     86.677 
 C                    -4.447     34.06     86.497 
 C                    -4.817     33.2      87.697 
 O                    -3.947     32.47     88.157 
 C                    -4.217     33.12     85.307 
 H                    -2.557     34.37     87.337 
 H                    -5.227     34.78     86.247 
 H                    -3.417     32.42     85.547 
 H                    -5.127     32.6      85.017 
 H                    -3.867     33.75     84.497 
 N                    -6.097     33.22     88.087 
 C                    -6.747     32.53     89.187 
 C                    -5.917     32.28     90.437 
 O                    -6.327     31.46     91.257 
 C                    -7.427     31.29     88.607 
 H                    -6.747     33.74     87.517 
 H                    -7.497     33.25     89.497 
 H                    -8.107     30.94     89.387 
 H                    -7.957     31.57     87.697 
 H                    -6.667     30.52     88.427 
 N                    -4.857     33.06     90.667 
 C                    -4.177     33.04     91.947 
 C                    -4.887     33.76     93.087 
 O                    -4.717     33.43     94.267 
 C                    -2.697     33.39     91.797 
 C                    -2.607     34.92     91.797 
 C                    -1.247     35.31     91.237 
 O                    -0.267     34.95     91.937 
 O                    -1.207     35.81     90.097 
 H                    -4.427     33.61     89.947 
 H                    -4.187     31.98     92.197 
 H                    -2.287     33.       90.867 
 H                    -2.107     33.01     92.627 
 H                    -2.657     35.32     92.807 
 H                    -3.407     35.33     91.187 
 N                    -5.677     34.78     92.737 
 C                    -6.527     35.5      93.657 
 H                    -7.493     35.       93.725 
 H                    -6.061     35.522    94.642 
 H                    -6.67      36.519    93.299 
 H                    -5.927     34.79     91.767 
 Ca                    0.43      32.16     95.91 
 O                    -1.977     32.11     95.03 
 H                    -1.917     31.3      94.53 
 H                    -2.847     32.44     94.85 
 
 Stoichiometry    C54H83CaN15O23
 Framework group  C1[X(C54H83CaN15O23)]
 Deg. of freedom   522
 Full point group                 C1      NOp   1
 Largest Abelian subgroup         C1      NOp   1
 Largest concise Abelian subgroup C1      NOp   1
                         Standard orientation:                         
 ---------------------------------------------------------------------
 Center     Atomic      Atomic             Coordinates (Angstroms)
 Number     Number       Type             X           Y           Z
 ---------------------------------------------------------------------
      1          6           0        4.265525   -4.077472    3.889392
      2          6           0        4.585005   -2.805688    3.099520
      3          8           0        3.830804   -1.836853    3.004437
      4          1           0        3.411583   -4.581139    3.436974
      5          1           0        5.129074   -4.742497    3.872679
      6          1           0        4.027264   -3.815640    4.920259
      7          7           0        5.800189   -2.772356    2.558949
      8          6           0        6.461289   -1.959418    1.548267
      9          6           0        6.338123   -2.536175    0.143283
     10          8           0        6.327043   -3.736600   -0.132864
     11          6           0        7.946184   -1.820611    1.888736
     12          6           0        8.729358   -3.070735    2.261735
     13          8           0        8.242823   -4.200275    2.459527
     14          8           0        9.974571   -2.966162    2.355059
     15          1           0        6.169864   -3.713486    2.615655
     16          1           0        5.986061   -0.986000    1.509339
     17          1           0        7.989525   -1.136898    2.732394
     18          1           0        8.481516   -1.301084    1.102980
     19          7           0        6.136291   -1.590127   -0.770806
     20          6           0        6.114024   -1.755312   -2.217360
     21          6           0        4.703368   -1.745754   -2.780262
     22          8           0        4.466176   -1.717393   -3.986925
     23          6           0        7.062739   -0.813864   -2.963159
     24          6           0        8.475429   -0.586505   -2.452851
     25          6           0        9.248432   -1.888986   -2.247648
     26          6           0       10.723209   -1.694459   -1.882831
     27          7           0       11.532130   -0.992646   -2.894021
     28          1           0        6.018872   -0.640968   -0.441245
     29          1           0        6.585920   -2.701296   -2.456166
     30          1           0        6.601606    0.161691   -3.107902
     31          1           0        7.040487   -1.178870   -4.001703
     32          1           0        8.512696   -0.018368   -1.519721
     33          1           0        8.984309    0.014672   -3.206461
     34          1           0        9.180657   -2.526741   -3.128599
     35          1           0        8.773064   -2.484397   -1.468667
     36          1           0       11.112931   -2.681867   -1.617423
     37          1           0       10.748503   -1.085404   -0.982601
     38          1           0       12.427368   -0.774681   -2.474568
     39          1           0       11.683331   -1.435356   -3.785338
     40          1           0       11.140449   -0.098787   -3.147403
     41          7           0        3.678651   -1.774597   -1.932604
     42          6           0        2.337841   -1.379673   -2.296973
     43          6           0        2.256767    0.134239   -2.332969
     44          8           0        2.177705    0.727798   -3.407928
     45          6           0        1.321851   -2.088295   -1.389108
     46          6           0        1.580318   -2.148176    0.107993
     47          8           0        1.084185   -3.113331    0.726481
     48          8           0        2.137821   -1.169691    0.650907
     49          1           0        3.952836   -1.675299   -0.957534
     50          1           0        2.160713   -1.770927   -3.290525
     51          1           0        1.130659   -3.068693   -1.812387
     52          1           0        0.355013   -1.593154   -1.470101
     53          7           0        2.416817    0.809863   -1.192304
     54          6           0        2.477785    2.248068   -1.012447
     55          6           0        2.951397    2.662065    0.372616
     56          8           0        3.264964    1.828095    1.212181
     57          1           0        2.385741    0.275935   -0.328328
     58          1           0        1.500859    2.734308   -1.097799
     59          1           0        3.071552    2.763279   -1.764045
     60          7           0        3.121686    3.968345    0.591778
     61          6           0        2.460942    5.116839    0.005280
     62          6           0        2.052352    5.997005    1.172612
     63          8           0        2.820976    6.051295    2.127583
     64          6           0        3.281096    5.798854   -1.083252
     65          6           0        4.612543    6.370939   -0.607050
     66          7           0        5.675224    5.704285   -1.062990
     67          8           0        4.704619    7.421042    0.018014
     68          1           0        3.384495    4.173227    1.538169
     69          1           0        1.489850    4.828577   -0.416246
     70          1           0        2.672805    6.583637   -1.530238
     71          1           0        3.499902    5.159734   -1.936452
     72          1           0        5.578698    4.833058   -1.561234
     73          1           0        6.558456    6.077743   -0.749732
     74          7           0        0.928665    6.709579    1.194191
     75          6           0       -0.220683    6.468782    0.331222
     76          6           0       -0.903752    5.119266    0.515404
     77          8           0       -0.624215    4.308275    1.386812
     78          1           0        0.823020    7.310462    2.001209
     79          1           0        0.086355    6.511258   -0.718551
     80          1           0       -0.868342    7.327214    0.467353
     81          7           0       -1.972007    4.906804   -0.271928
     82          6           0       -2.867312    3.785765   -0.407205
     83          6           0       -3.113622    3.317091   -1.839642
     84          8           0       -3.189311    4.141160   -2.750730
     85          6           0       -4.261440    4.116460    0.125383
     86          6           0       -4.337223    4.229239    1.630587
     87          6           0       -4.767661    3.132158    2.389360
     88          6           0       -4.050952    5.398683    2.342521
     89          6           0       -4.915154    3.132044    3.786337
     90          6           0       -4.127934    5.432083    3.737282
     91          6           0       -4.621414    4.331370    4.465848
     92          8           0       -4.820775    4.437068    5.812690
     93          1           0       -2.155886    5.698898   -0.867306
     94          1           0       -2.645557    2.964469    0.274849
     95          1           0       -5.006605    3.422073   -0.242114
     96          1           0       -4.425255    5.134885   -0.244448
     97          1           0       -5.050206    2.264931    1.808769
     98          1           0       -3.659574    6.245765    1.794640
     99          1           0       -5.123103    2.237322    4.351076
    100          1           0       -3.948326    6.360573    4.270431
    101          1           0       -4.649462    5.363293    6.002580
    102          7           0       -3.351206    2.020982   -2.015586
    103          6           0       -3.698149    1.356352   -3.250858
    104          6           0       -5.134352    0.853559   -3.304894
    105          8           0       -5.677775    0.736828   -4.401236
    106          6           0       -2.613419    0.335116   -3.584382
    107          6           0       -1.260965    0.995086   -3.818064
    108          6           0       -2.499732   -0.826596   -2.599445
    109          6           0       -1.103419    1.965839   -4.972021
    110          1           0       -3.254288    1.429835   -1.193362
    111          1           0       -3.666534    2.084189   -4.053200
    112          1           0       -2.868529   -0.119534   -4.543295
    113          1           0       -0.640822    0.153050   -4.130473
    114          1           0       -0.898280    1.331798   -2.844367
    115          1           0       -1.890552   -1.670538   -2.928474
    116          1           0       -2.018056   -0.455460   -1.696147
    117          1           0       -3.509641   -1.184530   -2.421772
    118          1           0       -1.547435    1.507920   -5.854098
    119          1           0       -1.625402    2.889071   -4.685534
    120          1           0       -0.076411    2.262058   -5.177958
    121          7           0       -5.820017    0.682296   -2.171125
    122          6           0       -7.200840    0.268371   -2.007135
    123          6           0       -7.500397   -1.203436   -2.254419
    124          8           0       -8.665761   -1.567041   -2.370687
    125          6           0       -7.679291    0.627971   -0.601620
    126          8           0       -6.998737   -0.049832    0.423236
    127          1           0       -5.236893    0.711840   -1.355715
    128          1           0       -7.767957    0.973685   -2.616569
    129          1           0       -8.751540    0.409818   -0.519209
    130          1           0       -7.571438    1.708011   -0.555999
    131          1           0       -6.058952    0.181764    0.390550
    132          7           0       -6.539352   -2.123134   -2.325470
    133          6           0       -6.699787   -3.563341   -2.271015
    134          6           0       -5.612244   -4.258491   -1.464469
    135          8           0       -4.449664   -3.960818   -1.711856
    136          6           0       -6.589849   -4.057494   -3.718884
    137          1           0       -5.584926   -1.795403   -2.198332
    138          1           0       -7.698818   -3.775460   -1.888599
    139          1           0       -5.601044   -3.818445   -4.109679
    140          1           0       -6.805109   -5.120048   -3.803975
    141          1           0       -7.312302   -3.478924   -4.283525
    142          7           0       -6.002249   -5.226557   -0.626827
    143          6           0       -5.217202   -6.051857    0.273828
    144          6           0       -3.975138   -5.422918    0.886700
    145          8           0       -3.142219   -6.162110    1.408945
    146          6           0       -4.982823   -7.390876   -0.425097
    147          1           0       -6.977153   -5.485762   -0.640013
    148          1           0       -5.895484   -6.186741    1.109735
    149          1           0       -4.624327   -8.066719    0.354657
    150          1           0       -5.921248   -7.730999   -0.862220
    151          1           0       -4.193780   -7.265622   -1.176511
    152          7           0       -3.905141   -4.091021    0.964493
    153          6           0       -2.876305   -3.440557    1.751636
    154          6           0       -3.081248   -3.464514    3.261445
    155          8           0       -2.125818   -3.414718    4.045584
    156          6           0       -2.520887   -2.068870    1.179313
    157          6           0       -3.547451   -1.080199    1.742959
    158          6           0       -3.499962    0.181007    0.893015
    159          8           0       -2.413440    0.810775    0.946507
    160          8           0       -4.455376    0.403821    0.125722
    161          1           0       -4.485560   -3.488248    0.411700
    162          1           0       -2.003948   -4.060076    1.548194
    163          1           0       -2.569441   -2.065490    0.091778
    164          1           0       -1.528857   -1.748636    1.487087
    165          1           0       -3.296151   -0.783858    2.758651
    166          1           0       -4.536609   -1.528365    1.712719
    167          7           0       -4.349114   -3.514282    3.682205
    168          6           0       -4.739143   -3.670476    5.064515
    169          1           0       -4.797955   -4.731412    5.306871
    170          1           0       -3.999917   -3.193033    5.707522
    171          1           0       -5.712572   -3.207424    5.222606
    172          1           0       -5.002929   -3.799454    2.978854
    173         20           0        2.032844    0.071064    2.879904
    174          8           0        0.476341   -1.955702    3.080076
    175          1           0        0.795376   -2.441240    2.323657
    176          1           0       -0.253551   -2.466454    3.403480
 ---------------------------------------------------------------------
 Rotational constants (GHZ):           0.0207682           0.0121407           0.0100883
 Standard basis: SVP (5D, 7F)
 There are  1809 symmetry adapted cartesian basis functions of A   symmetry.
 There are  1717 symmetry adapted basis functions of A   symmetry.
  1717 basis functions,  2922 primitive gaussians,  1809 cartesian basis functions
   358 alpha electrons      358 beta electrons
       nuclear repulsion energy     20380.8325782852 Hartrees.
 NAtoms=  176 NActive=  176 NUniq=  176 SFac= 1.00D+00 NAtFMM=   60 NAOKFM=T Big=T
 Integral buffers will be    131072 words long.
 Raffenetti 2 integral format.
 Two-electron integral symmetry is turned on.
 One-electron integrals computed using PRISM.
 NBasis=  1717 RedAO= T EigKep=  2.77D-04  NBF=  1717
 NBsUse=  1717 1.00D-06 EigRej= -1.00D+00 NBFU=  1717
 ExpMin= 1.98D-02 ExpMax= 3.51D+04 ExpMxC= 5.28D+03 IAcc=3 IRadAn=         5 AccDes= 0.00D+00
 Harris functional with IExCor=  402 and IRadAn=       5 diagonalized for initial guess.
 HarFok:  IExCor=  402 AccDes= 0.00D+00 IRadAn=         5 IDoV= 1 UseB2=F ITyADJ=14
 ICtDFT=  3500011 ScaDFX=  1.000000  1.000000  1.000000  1.000000
 FoFCou: FMM=F IPFlag=           0 FMFlag=      100000 FMFlg1=        2001
         NFxFlg=           0 DoJE=T BraDBF=F KetDBF=T FulRan=T
         wScrn=  0.000000 ICntrl=       500 IOpCl=  0 I1Cent=   200000004 NGrid=           0
         NMat0=    1 NMatS0=      1 NMatT0=    0 NMatD0=    1 NMtDS0=    0 NMtDT0=    0
 Petite list used in FoFCou.
 Requested convergence on RMS density matrix=1.00D-08 within 128 cycles.
 Requested convergence on MAX density matrix=1.00D-06.
 Requested convergence on             energy=1.00D-06.
 No special actions if energy rises.
 EnCoef did     2 forward-backward iterations
 EnCoef did     3 forward-backward iterations
 EnCoef did     4 forward-backward iterations
 Restarting incremental Fock formation.
 SCF Done:  E(RB3LYP) =  -5333.45071582     A.U. after   25 cycles
            NFock= 25  Conv=0.21D-08     -V/T= 2.0081
 SCF density gives NOpUse=  1 NOpAll=  1.
 Hyperfine terms turned off by default for NAtoms > 100.

 **********************************************************************

            Population analysis using the SCF density.

 **********************************************************************

 Orbital symmetries:
 BldTbl:  Degeneracy threshold= 1.00D-02
       Occupied  (A) (A) (A) (A) (A) (A) (A) (A) (A) (A) (A) (A)
                 (A) (A) (A) (A) (A) (A) (A) (A) (A) (A) (A) (A)
                 (A) (A) (A) (A) (A) (A) (A) (A) (A) (A) (A) (A)
                 (A) (A) (A) (A) (A) (A) (A) (A) (A) (A) (A) (A)
                 (A) (A) (A) (A) (A) (A) (A) (A) (A) (A) (A) (A)
                 (A) (A) (A) (A) (A) (A) (A) (A) (A) (A) (A) (A)
                 (A) (A) (A) (A) (A) (A) (A) (A) (A) (A) (A) (A)
                 (A) (A) (A) (A) (A) (A) (A) (A) (A) (A) (A) (A)
                 (A) (A) (A) (A) (A) (A) (A) (A) (A) (A) (A) (A)
                 (A) (A) (A) (A) (A) (A) (A) (A) (A) (A) (A) (A)
                 (A) (A) (A) (A) (A) (A) (A) (A) (A) (A) (A) (A)
                 (A) (A) (A) (A) (A) (A) (A) (A) (A) (A) (A) (A)
                 (A) (A) (A) (A) (A) (A) (A) (A) (A) (A) (A) (A)
                 (A) (A) (A) (A) (A) (A) (A) (A) (A) (A) (A) (A)
                 (A) (A) (A) (A) (A) (A) (A) (A) (A) (A) (A) (A)
                 (A) (A) (A) (A) (A) (A) (A) (A) (A) (A) (A) (A)
                 (A) (A) (A) (A) (A) (A) (A) (A) (A) (A) (A) (A)
                 (A) (A) (A) (A) (A) (A) (A) (A) (A) (A) (A) (A)
                 (A) (A) (A) (A) (A) (A) (A) (A) (A) (A) (A) (A)
                 (A) (A) (A) (A) (A) (A) (A) (A) (A) (A) (A) (A)
                 (A) (A) (A) (A) (A) (A) (A) (A) (A) (A) (A) (A)
                 (A) (A) (A) (A) (A) (A) (A) (A) (A) (A) (A) (A)
                 (A) (A) (A) (A) (A) (A) (A) (A) (A) (A) (A) (A)
                 (A) (A) (A) (A) (A) (A) (A) (A) (A) (A) (A) (A)
                 (A) (A) (A) (A) (A) (A) (A) (A) (A) (A) (A) (A)
                 (A) (A) (A) (A) (A) (A) (A) (A) (A) (A) (A) (A)
                 (A) (A) (A) (A) (A) (A) (A) (A) (A) (A) (A) (A)
                 (A) (A) (A) (A) (A) (A) (A) (A) (A) (A) (A) (A)
                 (A) (A) (A) (A) (A) (A) (A) (A) (A) (A) (A) (A)
                 (A) (A) (A) (A) (A) (A) (A) (A) (A) (A)
       Virtual   (A) (A) (A) (A) (A) (A) (A) (A) (A) (A) (A) (A)
                 (A) (A) (A) (A) (A) (A) (A) (A) (A) (A) (A) (A)
                 (A) (A) (A) (A) (A) (A) (A) (A) (A) (A) (A) (A)
                 (A) (A) (A) (A) (A) (A) (A) (A) (A) (A) (A) (A)
                 (A) (A) (A) (A) (A) (A) (A) (A) (A) (A) (A) (A)
                 (A) (A) (A) (A) (A) (A) (A) (A) (A) (A) (A) (A)
                 (A) (A) (A) (A) (A) (A) (A) (A) (A) (A) (A) (A)
                 (A) (A) (A) (A) (A) (A) (A) (A) (A) (A) (A) (A)
                 (A) (A) (A) (A) (A) (A) (A) (A) (A) (A) (A) (A)
                 (A) (A) (A) (A) (A) (A) (A) (A) (A) (A) (A) (A)
                 (A) (A) (A) (A) (A) (A) (A) (A) (A) (A) (A) (A)
                 (A) (A) (A) (A) (A) (A) (A) (A) (A) (A) (A) (A)
                 (A) (A) (A) (A) (A) (A) (A) (A) (A) (A) (A) (A)
                 (A) (A) (A) (A) (A) (A) (A) (A) (A) (A) (A) (A)
                 (A) (A) (A) (A) (A) (A) (A) (A) (A) (A) (A) (A)
                 (A) (A) (A) (A) (A) (A) (A) (A) (A) (A) (A) (A)
                 (A) (A) (A) (A) (A) (A) (A) (A) (A) (A) (A) (A)
                 (A) (A) (A) (A) (A) (A) (A) (A) (A) (A) (A) (A)
                 (A) (A) (A) (A) (A) (A) (A) (A) (A) (A) (A) (A)
                 (A) (A) (A) (A) (A) (A) (A) (A) (A) (A) (A) (A)
                 (A) (A) (A) (A) (A) (A) (A) (A) (A) (A) (A) (A)
                 (A) (A) (A) (A) (A) (A) (A) (A) (A) (A) (A) (A)
                 (A) (A) (A) (A) (A) (A) (A) (A) (A) (A) (A) (A)
                 (A) (A) (A) (A) (A) (A) (A) (A) (A) (A) (A) (A)
                 (A) (A) (A) (A) (A) (A) (A) (A) (A) (A) (A) (A)
                 (A) (A) (A) (A) (A) (A) (A) (A) (A) (A) (A) (A)
                 (A) (A) (A) (A) (A) (A) (A) (A) (A) (A) (A) (A)
                 (A) (A) (A) (A) (A) (A) (A) (A) (A) (A) (A) (A)
                 (A) (A) (A) (A) (A) (A) (A) (A) (A) (A) (A) (A)
                 (A) (A) (A) (A) (A) (A) (A) (A) (A) (A) (A) (A)
                 (A) (A) (A) (A) (A) (A) (A) (A) (A) (A) (A) (A)
                 (A) (A) (A) (A) (A) (A) (A) (A) (A) (A) (A) (A)
                 (A) (A) (A) (A) (A) (A) (A) (A) (A) (A) (A) (A)
                 (A) (A) (A) (A) (A) (A) (A) (A) (A) (A) (A) (A)
                 (A) (A) (A) (A) (A) (A) (A) (A) (A) (A) (A) (A)
                 (A) (A) (A) (A) (A) (A) (A) (A) (A) (A) (A) (A)
                 (A) (A) (A) (A) (A) (A) (A) (A) (A) (A) (A) (A)
                 (A) (A) (A) (A) (A) (A) (A) (A) (A) (A) (A) (A)
                 (A) (A) (A) (A) (A) (A) (A) (A) (A) (A) (A) (A)
                 (A) (A) (A) (A) (A) (A) (A) (A) (A) (A) (A) (A)
                 (A) (A) (A) (A) (A) (A) (A) (A) (A) (A) (A) (A)
                 (A) (A) (A) (A) (A) (A) (A) (A) (A) (A) (A) (A)
                 (A) (A) (A) (A) (A) (A) (A) (A) (A) (A) (A) (A)
                 (A) (A) (A) (A) (A) (A) (A) (A) (A) (A) (A) (A)
                 (A) (A) (A) (A) (A) (A) (A) (A) (A) (A) (A) (A)
                 (A) (A) (A) (A) (A) (A) (A) (A) (A) (A) (A) (A)
                 (A) (A) (A) (A) (A) (A) (A) (A) (A) (A) (A) (A)
                 (A) (A) (A) (A) (A) (A) (A) (A) (A) (A) (A) (A)
                 (A) (A) (A) (A) (A) (A) (A) (A) (A) (A) (A) (A)
                 (A) (A) (A) (A) (A) (A) (A) (A) (A) (A) (A) (A)
                 (A) (A) (A) (A) (A) (A) (A) (A) (A) (A) (A) (A)
                 (A) (A) (A) (A) (A) (A) (A) (A) (A) (A) (A) (A)
                 (A) (A) (A) (A) (A) (A) (A) (A) (A) (A) (A) (A)
                 (A) (A) (A) (A) (A) (A) (A) (A) (A) (A) (A) (A)
                 (A) (A) (A) (A) (A) (A) (A) (A) (A) (A) (A) (A)
                 (A) (A) (A) (A) (A) (A) (A) (A) (A) (A) (A) (A)
                 (A) (A) (A) (A) (A) (A) (A) (A) (A) (A) (A) (A)
                 (A) (A) (A) (A) (A) (A) (A) (A) (A) (A) (A) (A)
                 (A) (A) (A) (A) (A) (A) (A) (A) (A) (A) (A) (A)
                 (A) (A) (A) (A) (A) (A) (A) (A) (A) (A) (A) (A)
                 (A) (A) (A) (A) (A) (A) (A) (A) (A) (A) (A) (A)
                 (A) (A) (A) (A) (A) (A) (A) (A) (A) (A) (A) (A)
                 (A) (A) (A) (A) (A) (A) (A) (A) (A) (A) (A) (A)
                 (A) (A) (A) (A) (A) (A) (A) (A) (A) (A) (A) (A)
                 (A) (A) (A) (A) (A) (A) (A) (A) (A) (A) (A) (A)
                 (A) (A) (A) (A) (A) (A) (A) (A) (A) (A) (A) (A)
                 (A) (A) (A) (A) (A) (A) (A) (A) (A) (A) (A) (A)
                 (A) (A) (A) (A) (A) (A) (A) (A) (A) (A) (A) (A)
                 (A) (A) (A) (A) (A) (A) (A) (A) (A) (A) (A) (A)
                 (A) (A) (A) (A) (A) (A) (A) (A) (A) (A) (A) (A)
                 (A) (A) (A) (A) (A) (A) (A) (A) (A) (A) (A) (A)
                 (A) (A) (A) (A) (A) (A) (A) (A) (A) (A) (A) (A)
                 (A) (A) (A) (A) (A) (A) (A) (A) (A) (A) (A) (A)
                 (A) (A) (A) (A) (A) (A) (A) (A) (A) (A) (A) (A)
                 (A) (A) (A) (A) (A) (A) (A) (A) (A) (A) (A) (A)
                 (A) (A) (A) (A) (A) (A) (A) (A) (A) (A) (A) (A)
                 (A) (A) (A) (A) (A) (A) (A) (A) (A) (A) (A) (A)
                 (A) (A) (A) (A) (A) (A) (A) (A) (A) (A) (A) (A)
                 (A) (A) (A) (A) (A) (A) (A) (A) (A) (A) (A) (A)
                 (A) (A) (A) (A) (A) (A) (A) (A) (A) (A) (A) (A)
                 (A) (A) (A) (A) (A) (A) (A) (A) (A) (A) (A) (A)
                 (A) (A) (A) (A) (A) (A) (A) (A) (A) (A) (A) (A)
                 (A) (A) (A) (A) (A) (A) (A) (A) (A) (A) (A) (A)
                 (A) (A) (A) (A) (A) (A) (A) (A) (A) (A) (A) (A)
                 (A) (A) (A) (A) (A) (A) (A) (A) (A) (A) (A) (A)
                 (A) (A) (A) (A) (A) (A) (A) (A) (A) (A) (A) (A)
                 (A) (A) (A) (A) (A) (A) (A) (A) (A) (A) (A) (A)
                 (A) (A) (A) (A) (A) (A) (A) (A) (A) (A) (A) (A)
                 (A) (A) (A) (A) (A) (A) (A) (A) (A) (A) (A) (A)
                 (A) (A) (A) (A) (A) (A) (A) (A) (A) (A) (A) (A)
                 (A) (A) (A) (A) (A) (A) (A) (A) (A) (A) (A) (A)
                 (A) (A) (A) (A) (A) (A) (A) (A) (A) (A) (A) (A)
                 (A) (A) (A) (A) (A) (A) (A) (A) (A) (A) (A) (A)
                 (A) (A) (A) (A) (A) (A) (A) (A) (A) (A) (A) (A)
                 (A) (A) (A) (A) (A) (A) (A) (A) (A) (A) (A) (A)
                 (A) (A) (A) (A) (A) (A) (A) (A) (A) (A) (A) (A)
                 (A) (A) (A) (A) (A) (A) (A) (A) (A) (A) (A) (A)
                 (A) (A) (A) (A) (A) (A) (A) (A) (A) (A) (A) (A)
                 (A) (A) (A) (A) (A) (A) (A) (A) (A) (A) (A) (A)
                 (A) (A) (A) (A) (A) (A) (A) (A) (A) (A) (A) (A)
                 (A) (A) (A) (A) (A) (A) (A) (A) (A) (A) (A) (A)
                 (A) (A) (A) (A) (A) (A) (A) (A) (A) (A) (A) (A)
                 (A) (A) (A) (A) (A) (A) (A) (A) (A) (A) (A) (A)
                 (A) (A) (A) (A) (A) (A) (A) (A) (A) (A) (A) (A)
                 (A) (A) (A) (A) (A) (A) (A) (A) (A) (A) (A) (A)
                 (A) (A) (A) (A) (A) (A) (A) (A) (A) (A) (A) (A)
                 (A) (A) (A) (A) (A) (A) (A) (A) (A) (A) (A) (A)
                 (A) (A) (A) (A) (A) (A) (A) (A) (A) (A) (A) (A)
                 (A) (A) (A) (A) (A) (A) (A) (A) (A) (A) (A) (A)
                 (A) (A) (A) (A) (A) (A) (A) (A) (A) (A) (A) (A)
                 (A) (A) (A) (A) (A) (A) (A) (A) (A) (A) (A) (A)
                 (A) (A) (A) (A) (A) (A) (A) (A) (A) (A) (A) (A)
                 (A) (A) (A) (A) (A) (A) (A) (A) (A) (A) (A) (A)
                 (A) (A) (A)
 The electronic state is 1-A.
 Alpha  occ. eigenvalues -- -145.50826 -19.17858 -19.15431 -19.13932 -19.12783
 Alpha  occ. eigenvalues --  -19.12270 -19.11844 -19.11045 -19.10629 -19.10592
 Alpha  occ. eigenvalues --  -19.09717 -19.09665 -19.09323 -19.08831 -19.08735
 Alpha  occ. eigenvalues --  -19.07681 -19.06914 -19.06763 -19.06523 -19.05202
 Alpha  occ. eigenvalues --  -19.04704 -19.04675 -18.99356 -18.98240 -15.56596
 Alpha  occ. eigenvalues --  -14.59434 -14.40268 -14.39109 -14.38549 -14.38388
 Alpha  occ. eigenvalues --  -14.36252 -14.35901 -14.35436 -14.35027 -14.34761
 Alpha  occ. eigenvalues --  -14.34636 -14.34321 -14.32093 -14.31546 -14.30149
 Alpha  occ. eigenvalues --  -12.70204 -12.70174 -12.70148 -10.35453 -10.34877
 Alpha  occ. eigenvalues --  -10.31939 -10.31219 -10.30242 -10.30041 -10.29422
 Alpha  occ. eigenvalues --  -10.28877 -10.28832 -10.28232 -10.27937 -10.27813
 Alpha  occ. eigenvalues --  -10.27712 -10.27484 -10.27452 -10.27029 -10.26814
 Alpha  occ. eigenvalues --  -10.26508 -10.26324 -10.25489 -10.24478 -10.24314
 Alpha  occ. eigenvalues --  -10.24213 -10.23933 -10.23865 -10.23719 -10.23684
 Alpha  occ. eigenvalues --  -10.23637 -10.22596 -10.21563 -10.21558 -10.20921
 Alpha  occ. eigenvalues --  -10.20879 -10.19601 -10.19391 -10.19295 -10.19237
 Alpha  occ. eigenvalues --  -10.18964 -10.17958 -10.17952 -10.17942 -10.17814
 Alpha  occ. eigenvalues --  -10.17500 -10.17363 -10.17193 -10.17063 -10.16921
 Alpha  occ. eigenvalues --  -10.16849 -10.16005 -10.15781 -10.14958 -10.14844
 Alpha  occ. eigenvalues --  -10.14406 -10.14125  -1.93007  -1.20356  -1.20078
 Alpha  occ. eigenvalues --   -1.19928  -1.14561  -1.10433  -1.06708  -1.04680
 Alpha  occ. eigenvalues --   -1.04479  -1.04292  -1.04032  -1.04013  -1.03873
 Alpha  occ. eigenvalues --   -1.03289  -1.03013  -1.01948  -1.01700  -1.01166
 Alpha  occ. eigenvalues --   -1.00329  -1.00285  -0.99716  -0.99105  -0.98092
 Alpha  occ. eigenvalues --   -0.97778  -0.95649  -0.95304  -0.95044  -0.94396
 Alpha  occ. eigenvalues --   -0.94008  -0.93391  -0.93272  -0.92431  -0.92325
 Alpha  occ. eigenvalues --   -0.92178  -0.92023  -0.91555  -0.90661  -0.90419
 Alpha  occ. eigenvalues --   -0.89449  -0.89311  -0.88731  -0.87082  -0.84020
 Alpha  occ. eigenvalues --   -0.83289  -0.83091  -0.82845  -0.80155  -0.79196
 Alpha  occ. eigenvalues --   -0.78580  -0.78504  -0.77766  -0.77341  -0.76998
 Alpha  occ. eigenvalues --   -0.76119  -0.75485  -0.74455  -0.74095  -0.73178
 Alpha  occ. eigenvalues --   -0.72674  -0.72595  -0.72492  -0.72217  -0.71700
 Alpha  occ. eigenvalues --   -0.71296  -0.70874  -0.69953  -0.68458  -0.67488
 Alpha  occ. eigenvalues --   -0.67442  -0.66624  -0.65466  -0.65444  -0.64221
 Alpha  occ. eigenvalues --   -0.63658  -0.63180  -0.63154  -0.62657  -0.61938
 Alpha  occ. eigenvalues --   -0.61469  -0.61421  -0.60876  -0.60384  -0.59884
 Alpha  occ. eigenvalues --   -0.59648  -0.59458  -0.59236  -0.58770  -0.58521
 Alpha  occ. eigenvalues --   -0.58023  -0.57942  -0.57391  -0.57360  -0.56765
 Alpha  occ. eigenvalues --   -0.56597  -0.56147  -0.55895  -0.55572  -0.55133
 Alpha  occ. eigenvalues --   -0.54973  -0.54553  -0.54157  -0.54018  -0.53832
 Alpha  occ. eigenvalues --   -0.53584  -0.53179  -0.52859  -0.52840  -0.52426
 Alpha  occ. eigenvalues --   -0.52371  -0.52229  -0.51887  -0.51781  -0.51389
 Alpha  occ. eigenvalues --   -0.51093  -0.50516  -0.50290  -0.50035  -0.49617
 Alpha  occ. eigenvalues --   -0.49382  -0.48894  -0.48839  -0.48569  -0.48157
 Alpha  occ. eigenvalues --   -0.48029  -0.47575  -0.47438  -0.47242  -0.47122
 Alpha  occ. eigenvalues --   -0.46954  -0.46700  -0.46493  -0.46289  -0.46116
 Alpha  occ. eigenvalues --   -0.45767  -0.45425  -0.45095  -0.45068  -0.44765
 Alpha  occ. eigenvalues --   -0.44749  -0.44433  -0.44357  -0.44081  -0.44046
 Alpha  occ. eigenvalues --   -0.43899  -0.43808  -0.43614  -0.43411  -0.43220
 Alpha  occ. eigenvalues --   -0.42983  -0.42879  -0.42808  -0.42519  -0.42433
 Alpha  occ. eigenvalues --   -0.42356  -0.42250  -0.42160  -0.42042  -0.41905
 Alpha  occ. eigenvalues --   -0.41549  -0.41431  -0.41299  -0.41170  -0.41151
 Alpha  occ. eigenvalues --   -0.40980  -0.40824  -0.40789  -0.40712  -0.40627
 Alpha  occ. eigenvalues --   -0.40430  -0.40343  -0.40098  -0.40063  -0.39901
 Alpha  occ. eigenvalues --   -0.39844  -0.39379  -0.39370  -0.39094  -0.39061
 Alpha  occ. eigenvalues --   -0.38845  -0.38842  -0.38719  -0.38535  -0.38511
 Alpha  occ. eigenvalues --   -0.38267  -0.38219  -0.38092  -0.38016  -0.37785
 Alpha  occ. eigenvalues --   -0.37618  -0.37359  -0.37276  -0.36930  -0.36743
 Alpha  occ. eigenvalues --   -0.36661  -0.36434  -0.36395  -0.36132  -0.35955
 Alpha  occ. eigenvalues --   -0.35612  -0.35463  -0.35143  -0.35114  -0.34916
 Alpha  occ. eigenvalues --   -0.34542  -0.34118  -0.33793  -0.33651  -0.33509
 Alpha  occ. eigenvalues --   -0.33397  -0.33264  -0.32714  -0.32665  -0.32136
 Alpha  occ. eigenvalues --   -0.32014  -0.31747  -0.31357  -0.30890  -0.30846
 Alpha  occ. eigenvalues --   -0.30355  -0.30117  -0.30045  -0.29798  -0.29575
 Alpha  occ. eigenvalues --   -0.29514  -0.28894  -0.28673  -0.28272  -0.28183
 Alpha  occ. eigenvalues --   -0.28032  -0.27896  -0.27509  -0.27439  -0.27003
 Alpha  occ. eigenvalues --   -0.26938  -0.26629  -0.26525  -0.26305  -0.25857
 Alpha  occ. eigenvalues --   -0.25755  -0.25413  -0.25284  -0.25161  -0.24606
 Alpha  occ. eigenvalues --   -0.24367  -0.24204  -0.24120  -0.23892  -0.23640
 Alpha  occ. eigenvalues --   -0.23241  -0.23195  -0.22802  -0.22776  -0.22170
 Alpha  occ. eigenvalues --   -0.21871  -0.20856  -0.20522  -0.20206  -0.19701
 Alpha  occ. eigenvalues --   -0.17842  -0.16162  -0.13760
 Alpha virt. eigenvalues --   -0.12025  -0.11315  -0.05342  -0.04988  -0.04835
 Alpha virt. eigenvalues --   -0.02153  -0.01503  -0.01321  -0.00729  -0.00472
 Alpha virt. eigenvalues --   -0.00135   0.00077   0.00132   0.00615   0.00916
 Alpha virt. eigenvalues --    0.01127   0.01593   0.01625   0.01923   0.01980
 Alpha virt. eigenvalues --    0.02280   0.02671   0.02719   0.02865   0.03104
 Alpha virt. eigenvalues --    0.04139   0.04377   0.04553   0.04639   0.05101
 Alpha virt. eigenvalues --    0.05179   0.05464   0.05512   0.05664   0.05726
 Alpha virt. eigenvalues --    0.05964   0.06249   0.06357   0.06684   0.06938
 Alpha virt. eigenvalues --    0.07284   0.07555   0.07736   0.07896   0.08411
 Alpha virt. eigenvalues --    0.08921   0.09031   0.09222   0.09310   0.09384
 Alpha virt. eigenvalues --    0.09496   0.09836   0.09962   0.10052   0.10213
 Alpha virt. eigenvalues --    0.10496   0.10673   0.11118   0.11157   0.11370
 Alpha virt. eigenvalues --    0.11664   0.11810   0.11938   0.12073   0.12170
 Alpha virt. eigenvalues --    0.12272   0.12684   0.12912   0.13241   0.13399
 Alpha virt. eigenvalues --    0.13597   0.13777   0.13846   0.13928   0.14105
 Alpha virt. eigenvalues --    0.14234   0.14489   0.14571   0.14805   0.14893
 Alpha virt. eigenvalues --    0.15300   0.15333   0.15487   0.15704   0.15760
 Alpha virt. eigenvalues --    0.15886   0.15939   0.16086   0.16386   0.16482
 Alpha virt. eigenvalues --    0.16583   0.16684   0.16920   0.17151   0.17217
 Alpha virt. eigenvalues --    0.17334   0.17591   0.17741   0.17951   0.18086
 Alpha virt. eigenvalues --    0.18381   0.18553   0.18828   0.18849   0.19027
 Alpha virt. eigenvalues --    0.19269   0.19384   0.19635   0.19851   0.20219
 Alpha virt. eigenvalues --    0.20384   0.20491   0.20652   0.20704   0.20982
 Alpha virt. eigenvalues --    0.21182   0.21529   0.21649   0.21970   0.22074
 Alpha virt. eigenvalues --    0.22203   0.22420   0.22564   0.22780   0.23014
 Alpha virt. eigenvalues --    0.23317   0.23684   0.23725   0.24052   0.24196
 Alpha virt. eigenvalues --    0.24380   0.24502   0.24565   0.24788   0.24889
 Alpha virt. eigenvalues --    0.25101   0.25307   0.25681   0.25761   0.25922
 Alpha virt. eigenvalues --    0.26093   0.26101   0.26739   0.26958   0.27381
 Alpha virt. eigenvalues --    0.27733   0.27794   0.27834   0.27944   0.28371
 Alpha virt. eigenvalues --    0.28551   0.28611   0.28717   0.29075   0.29199
 Alpha virt. eigenvalues --    0.29806   0.29898   0.30376   0.30496   0.30615
 Alpha virt. eigenvalues --    0.30819   0.31092   0.31623   0.32018   0.32098
 Alpha virt. eigenvalues --    0.32218   0.32457   0.32636   0.32808   0.33004
 Alpha virt. eigenvalues --    0.33290   0.33410   0.33611   0.33984   0.34102
 Alpha virt. eigenvalues --    0.34483   0.34697   0.35028   0.35287   0.35437
 Alpha virt. eigenvalues --    0.35795   0.36612   0.36754   0.37270   0.37396
 Alpha virt. eigenvalues --    0.37433   0.37759   0.38136   0.38332   0.38444
 Alpha virt. eigenvalues --    0.38797   0.39217   0.39541   0.39837   0.40164
 Alpha virt. eigenvalues --    0.40339   0.40496   0.40651   0.40822   0.40976
 Alpha virt. eigenvalues --    0.41398   0.42003   0.42204   0.42688   0.42817
 Alpha virt. eigenvalues --    0.42911   0.43265   0.43489   0.43585   0.43644
 Alpha virt. eigenvalues --    0.43970   0.44263   0.44370   0.44672   0.44808
 Alpha virt. eigenvalues --    0.45042   0.45188   0.45312   0.45480   0.45799
 Alpha virt. eigenvalues --    0.45805   0.46089   0.46317   0.46425   0.46657
 Alpha virt. eigenvalues --    0.46894   0.47195   0.47322   0.47452   0.47576
 Alpha virt. eigenvalues --    0.47939   0.47990   0.48163   0.48262   0.48498
 Alpha virt. eigenvalues --    0.48528   0.48850   0.48894   0.49044   0.49355
 Alpha virt. eigenvalues --    0.49554   0.50096   0.50253   0.50451   0.50622
 Alpha virt. eigenvalues --    0.50833   0.50943   0.51175   0.51450   0.51558
 Alpha virt. eigenvalues --    0.51691   0.52160   0.52232   0.52323   0.52516
 Alpha virt. eigenvalues --    0.52609   0.52878   0.53122   0.53295   0.53484
 Alpha virt. eigenvalues --    0.53727   0.53809   0.53980   0.54107   0.54273
 Alpha virt. eigenvalues --    0.54361   0.54479   0.54852   0.54930   0.55064
 Alpha virt. eigenvalues --    0.55414   0.55805   0.55844   0.56039   0.56226
 Alpha virt. eigenvalues --    0.56252   0.56408   0.56478   0.56807   0.56860
 Alpha virt. eigenvalues --    0.56967   0.57272   0.57355   0.57570   0.57641
 Alpha virt. eigenvalues --    0.57806   0.58119   0.58488   0.58495   0.58605
 Alpha virt. eigenvalues --    0.58837   0.59127   0.59342   0.59489   0.59531
 Alpha virt. eigenvalues --    0.59758   0.59881   0.60007   0.60082   0.60236
 Alpha virt. eigenvalues --    0.60422   0.60623   0.60746   0.60868   0.61008
 Alpha virt. eigenvalues --    0.61174   0.61336   0.61452   0.61637   0.61734
 Alpha virt. eigenvalues --    0.61854   0.62012   0.62273   0.62381   0.62680
 Alpha virt. eigenvalues --    0.62859   0.62947   0.63046   0.63143   0.63367
 Alpha virt. eigenvalues --    0.63609   0.63695   0.63899   0.63983   0.64009
 Alpha virt. eigenvalues --    0.64156   0.64327   0.64496   0.64549   0.64748
 Alpha virt. eigenvalues --    0.64830   0.64845   0.65170   0.65316   0.65391
 Alpha virt. eigenvalues --    0.65489   0.65540   0.65646   0.65693   0.65769
 Alpha virt. eigenvalues --    0.65887   0.66034   0.66129   0.66250   0.66409
 Alpha virt. eigenvalues --    0.66487   0.66599   0.66783   0.66820   0.66946
 Alpha virt. eigenvalues --    0.66991   0.67207   0.67312   0.67359   0.67517
 Alpha virt. eigenvalues --    0.67648   0.67752   0.67883   0.68121   0.68195
 Alpha virt. eigenvalues --    0.68378   0.68432   0.68738   0.68793   0.68902
 Alpha virt. eigenvalues --    0.68966   0.69089   0.69237   0.69340   0.69502
 Alpha virt. eigenvalues --    0.69525   0.69616   0.69795   0.69924   0.70053
 Alpha virt. eigenvalues --    0.70174   0.70242   0.70363   0.70512   0.70636
 Alpha virt. eigenvalues --    0.70867   0.70981   0.71096   0.71125   0.71361
 Alpha virt. eigenvalues --    0.71460   0.71823   0.71899   0.72067   0.72190
 Alpha virt. eigenvalues --    0.72346   0.72384   0.72616   0.72858   0.72924
 Alpha virt. eigenvalues --    0.73031   0.73219   0.73311   0.73507   0.73518
 Alpha virt. eigenvalues --    0.73617   0.73745   0.73800   0.74232   0.74381
 Alpha virt. eigenvalues --    0.74430   0.74545   0.74812   0.74941   0.75165
 Alpha virt. eigenvalues --    0.75412   0.75583   0.75779   0.76134   0.76259
 Alpha virt. eigenvalues --    0.76505   0.76774   0.76983   0.77176   0.77524
 Alpha virt. eigenvalues --    0.77877   0.78082   0.78519   0.78722   0.78779
 Alpha virt. eigenvalues --    0.78893   0.78964   0.79353   0.79557   0.79631
 Alpha virt. eigenvalues --    0.80093   0.80219   0.80397   0.80650   0.80719
 Alpha virt. eigenvalues --    0.81142   0.81309   0.81799   0.82192   0.82367
 Alpha virt. eigenvalues --    0.82633   0.82904   0.83107   0.83445   0.83574
 Alpha virt. eigenvalues --    0.84021   0.84047   0.84329   0.84625   0.84873
 Alpha virt. eigenvalues --    0.85103   0.85557   0.85685   0.85947   0.86058
 Alpha virt. eigenvalues --    0.86232   0.86655   0.86850   0.87061   0.87268
 Alpha virt. eigenvalues --    0.87563   0.87999   0.88143   0.88463   0.88765
 Alpha virt. eigenvalues --    0.88891   0.89086   0.89426   0.89761   0.90060
 Alpha virt. eigenvalues --    0.90543   0.91052   0.91175   0.91340   0.91439
 Alpha virt. eigenvalues --    0.91788   0.91985   0.92144   0.92514   0.93078
 Alpha virt. eigenvalues --    0.93161   0.93691   0.93907   0.94088   0.94273
 Alpha virt. eigenvalues --    0.94601   0.94868   0.94983   0.95360   0.95561
 Alpha virt. eigenvalues --    0.95680   0.95915   0.96092   0.96313   0.97107
 Alpha virt. eigenvalues --    0.97398   0.97703   0.98013   0.98252   0.98433
 Alpha virt. eigenvalues --    0.98621   0.98857   0.98979   0.99439   1.00044
 Alpha virt. eigenvalues --    1.00258   1.00527   1.00843   1.00982   1.01217
 Alpha virt. eigenvalues --    1.01735   1.01988   1.02068   1.02454   1.03258
 Alpha virt. eigenvalues --    1.03524   1.03632   1.03996   1.04146   1.04452
 Alpha virt. eigenvalues --    1.04685   1.05051   1.05491   1.05595   1.05776
 Alpha virt. eigenvalues --    1.06272   1.06374   1.06915   1.07049   1.07251
 Alpha virt. eigenvalues --    1.07429   1.07948   1.08398   1.08788   1.08945
 Alpha virt. eigenvalues --    1.09087   1.09301   1.09588   1.10059   1.10138
 Alpha virt. eigenvalues --    1.10433   1.10531   1.11121   1.11270   1.11642
 Alpha virt. eigenvalues --    1.11994   1.12107   1.12317   1.12532   1.12652
 Alpha virt. eigenvalues --    1.13085   1.13250   1.13678   1.13870   1.13887
 Alpha virt. eigenvalues --    1.14271   1.14392   1.14550   1.14594   1.14862
 Alpha virt. eigenvalues --    1.15114   1.15172   1.15785   1.15932   1.16222
 Alpha virt. eigenvalues --    1.16652   1.16952   1.17225   1.17356   1.17806
 Alpha virt. eigenvalues --    1.18042   1.18173   1.18244   1.18659   1.18817
 Alpha virt. eigenvalues --    1.18914   1.19278   1.19626   1.19936   1.19967
 Alpha virt. eigenvalues --    1.20055   1.20427   1.20976   1.21397   1.21610
 Alpha virt. eigenvalues --    1.21886   1.21982   1.22139   1.22324   1.22419
 Alpha virt. eigenvalues --    1.22791   1.23058   1.23357   1.23693   1.23872
 Alpha virt. eigenvalues --    1.23989   1.24078   1.24243   1.24631   1.24975
 Alpha virt. eigenvalues --    1.25043   1.25386   1.25615   1.25908   1.26180
 Alpha virt. eigenvalues --    1.26301   1.26379   1.26867   1.27523   1.27692
 Alpha virt. eigenvalues --    1.27928   1.28116   1.28616   1.28853   1.29038
 Alpha virt. eigenvalues --    1.29137   1.29797   1.30132   1.30280   1.30949
 Alpha virt. eigenvalues --    1.31249   1.31409   1.31868   1.32028   1.32838
 Alpha virt. eigenvalues --    1.33069   1.33139   1.33568   1.33859   1.34557
 Alpha virt. eigenvalues --    1.34911   1.35025   1.35345   1.35674   1.36514
 Alpha virt. eigenvalues --    1.36707   1.36912   1.37093   1.37226   1.37475
 Alpha virt. eigenvalues --    1.37818   1.37962   1.38249   1.38794   1.38863
 Alpha virt. eigenvalues --    1.39027   1.39390   1.39712   1.39795   1.39985
 Alpha virt. eigenvalues --    1.40102   1.40557   1.40955   1.41326   1.41684
 Alpha virt. eigenvalues --    1.42105   1.42314   1.42413   1.42760   1.42848
 Alpha virt. eigenvalues --    1.43371   1.43688   1.43876   1.44113   1.44659
 Alpha virt. eigenvalues --    1.44720   1.45067   1.45307   1.45476   1.45761
 Alpha virt. eigenvalues --    1.46303   1.46725   1.46858   1.47570   1.48085
 Alpha virt. eigenvalues --    1.48246   1.48436   1.48507   1.49047   1.49103
 Alpha virt. eigenvalues --    1.49289   1.49607   1.49844   1.49887   1.50473
 Alpha virt. eigenvalues --    1.50795   1.51147   1.51410   1.51661   1.51734
 Alpha virt. eigenvalues --    1.52209   1.52363   1.52543   1.52651   1.52840
 Alpha virt. eigenvalues --    1.53348   1.53868   1.54065   1.54420   1.54508
 Alpha virt. eigenvalues --    1.55097   1.55632   1.55912   1.56021   1.56445
 Alpha virt. eigenvalues --    1.56588   1.56829   1.56872   1.57170   1.57282
 Alpha virt. eigenvalues --    1.57472   1.57851   1.58034   1.58428   1.58912
 Alpha virt. eigenvalues --    1.58945   1.59569   1.60821   1.60978   1.61111
 Alpha virt. eigenvalues --    1.61709   1.62058   1.62565   1.63011   1.63268
 Alpha virt. eigenvalues --    1.63924   1.64109   1.64218   1.64505   1.64628
 Alpha virt. eigenvalues --    1.64901   1.65058   1.65358   1.65553   1.65919
 Alpha virt. eigenvalues --    1.66365   1.66631   1.67087   1.67310   1.67708
 Alpha virt. eigenvalues --    1.67918   1.68241   1.68433   1.68961   1.69057
 Alpha virt. eigenvalues --    1.69620   1.69749   1.70134   1.70440   1.70630
 Alpha virt. eigenvalues --    1.70709   1.70939   1.71055   1.71179   1.71698
 Alpha virt. eigenvalues --    1.71832   1.72130   1.72286   1.72313   1.72743
 Alpha virt. eigenvalues --    1.72987   1.73227   1.73298   1.73813   1.73968
 Alpha virt. eigenvalues --    1.74031   1.74374   1.74543   1.74627   1.74850
 Alpha virt. eigenvalues --    1.74955   1.75761   1.76056   1.76074   1.76209
 Alpha virt. eigenvalues --    1.76304   1.76599   1.76674   1.76800   1.76905
 Alpha virt. eigenvalues --    1.76969   1.77186   1.77268   1.77641   1.77762
 Alpha virt. eigenvalues --    1.77927   1.78093   1.78196   1.78494   1.78714
 Alpha virt. eigenvalues --    1.78820   1.79162   1.79235   1.79257   1.79404
 Alpha virt. eigenvalues --    1.79425   1.79556   1.79635   1.79928   1.80045
 Alpha virt. eigenvalues --    1.80161   1.80234   1.80780   1.80895   1.81005
 Alpha virt. eigenvalues --    1.81166   1.81438   1.81728   1.81775   1.81928
 Alpha virt. eigenvalues --    1.81960   1.82082   1.82154   1.82444   1.82487
 Alpha virt. eigenvalues --    1.82665   1.82840   1.82956   1.83077   1.83457
 Alpha virt. eigenvalues --    1.83666   1.84136   1.84240   1.84305   1.84478
 Alpha virt. eigenvalues --    1.84867   1.84881   1.85100   1.85384   1.85663
 Alpha virt. eigenvalues --    1.85751   1.85860   1.86191   1.86329   1.86463
 Alpha virt. eigenvalues --    1.86617   1.86872   1.87041   1.87129   1.87224
 Alpha virt. eigenvalues --    1.87437   1.87589   1.87876   1.87964   1.88296
 Alpha virt. eigenvalues --    1.88420   1.88594   1.88834   1.89162   1.89438
 Alpha virt. eigenvalues --    1.89690   1.89729   1.89839   1.90084   1.90260
 Alpha virt. eigenvalues --    1.90478   1.90740   1.90909   1.91299   1.91479
 Alpha virt. eigenvalues --    1.91703   1.91817   1.91940   1.92181   1.92368
 Alpha virt. eigenvalues --    1.92572   1.92778   1.93045   1.93223   1.93300
 Alpha virt. eigenvalues --    1.93468   1.93696   1.93879   1.93927   1.94120
 Alpha virt. eigenvalues --    1.94322   1.94559   1.94620   1.94826   1.95033
 Alpha virt. eigenvalues --    1.95225   1.95591   1.95739   1.95871   1.96087
 Alpha virt. eigenvalues --    1.96378   1.96464   1.96612   1.97206   1.97365
 Alpha virt. eigenvalues --    1.97459   1.97765   1.98156   1.98342   1.98674
 Alpha virt. eigenvalues --    1.99365   1.99473   1.99554   1.99896   1.99943
 Alpha virt. eigenvalues --    2.00250   2.00352   2.00600   2.00908   2.01169
 Alpha virt. eigenvalues --    2.01378   2.01550   2.01773   2.02195   2.02344
 Alpha virt. eigenvalues --    2.02538   2.02922   2.03191   2.03761   2.04130
 Alpha virt. eigenvalues --    2.04317   2.04585   2.04827   2.05140   2.05316
 Alpha virt. eigenvalues --    2.05657   2.05804   2.05840   2.06161   2.06359
 Alpha virt. eigenvalues --    2.06612   2.06987   2.07422   2.07718   2.08045
 Alpha virt. eigenvalues --    2.08212   2.08358   2.08708   2.09007   2.09118
 Alpha virt. eigenvalues --    2.09286   2.09585   2.09626   2.09995   2.10284
 Alpha virt. eigenvalues --    2.10500   2.10641   2.10951   2.11480   2.11639
 Alpha virt. eigenvalues --    2.11905   2.12122   2.12382   2.12792   2.13090
 Alpha virt. eigenvalues --    2.13374   2.13405   2.13673   2.14029   2.14221
 Alpha virt. eigenvalues --    2.14485   2.14580   2.14794   2.15207   2.15629
 Alpha virt. eigenvalues --    2.15705   2.16173   2.16603   2.17187   2.17300
 Alpha virt. eigenvalues --    2.17574   2.17706   2.17828   2.18200   2.18524
 Alpha virt. eigenvalues --    2.18648   2.19017   2.19379   2.19742   2.20467
 Alpha virt. eigenvalues --    2.20874   2.21084   2.21745   2.22248   2.22638
 Alpha virt. eigenvalues --    2.22878   2.23165   2.23286   2.23632   2.23933
 Alpha virt. eigenvalues --    2.24225   2.24390   2.25016   2.25507   2.25648
 Alpha virt. eigenvalues --    2.26339   2.26406   2.26669   2.27253   2.27408
 Alpha virt. eigenvalues --    2.27664   2.27881   2.28542   2.29036   2.29396
 Alpha virt. eigenvalues --    2.29592   2.29666   2.29929   2.30130   2.30377
 Alpha virt. eigenvalues --    2.30578   2.30702   2.30956   2.31236   2.31965
 Alpha virt. eigenvalues --    2.32197   2.32549   2.32610   2.33234   2.33380
 Alpha virt. eigenvalues --    2.33999   2.34327   2.34455   2.34899   2.35534
 Alpha virt. eigenvalues --    2.35852   2.35939   2.36095   2.36334   2.36800
 Alpha virt. eigenvalues --    2.37108   2.37223   2.37458   2.37698   2.38203
 Alpha virt. eigenvalues --    2.38322   2.38725   2.38792   2.39045   2.39350
 Alpha virt. eigenvalues --    2.39628   2.40159   2.40406   2.40494   2.40967
 Alpha virt. eigenvalues --    2.41117   2.41394   2.41789   2.42053   2.42206
 Alpha virt. eigenvalues --    2.42675   2.43227   2.43472   2.44292   2.44804
 Alpha virt. eigenvalues --    2.45080   2.45341   2.45630   2.46444   2.46600
 Alpha virt. eigenvalues --    2.46844   2.47613   2.47758   2.47912   2.48266
 Alpha virt. eigenvalues --    2.48714   2.48970   2.49158   2.49489   2.49765
 Alpha virt. eigenvalues --    2.49817   2.50316   2.50583   2.51045   2.51459
 Alpha virt. eigenvalues --    2.51595   2.52019   2.52124   2.52436   2.52677
 Alpha virt. eigenvalues --    2.52867   2.53103   2.53380   2.53836   2.54173
 Alpha virt. eigenvalues --    2.54623   2.54949   2.55083   2.55645   2.56125
 Alpha virt. eigenvalues --    2.56770   2.57013   2.57245   2.57692   2.57877
 Alpha virt. eigenvalues --    2.57998   2.58254   2.58578   2.59050   2.59130
 Alpha virt. eigenvalues --    2.59262   2.59831   2.60029   2.60478   2.61193
 Alpha virt. eigenvalues --    2.61525   2.61534   2.61863   2.62177   2.62486
 Alpha virt. eigenvalues --    2.62954   2.63392   2.63750   2.64231   2.64390
 Alpha virt. eigenvalues --    2.64545   2.64729   2.64837   2.65007   2.65738
 Alpha virt. eigenvalues --    2.65960   2.66653   2.66773   2.66856   2.67574
 Alpha virt. eigenvalues --    2.67868   2.67952   2.68355   2.68524   2.68704
 Alpha virt. eigenvalues --    2.68926   2.69272   2.69496   2.70149   2.70307
 Alpha virt. eigenvalues --    2.70518   2.70908   2.71085   2.71324   2.72002
 Alpha virt. eigenvalues --    2.72196   2.72528   2.72974   2.73301   2.73500
 Alpha virt. eigenvalues --    2.73699   2.74129   2.74452   2.74606   2.75037
 Alpha virt. eigenvalues --    2.75135   2.75595   2.75739   2.76128   2.76354
 Alpha virt. eigenvalues --    2.76439   2.76786   2.77062   2.77342   2.77433
 Alpha virt. eigenvalues --    2.77794   2.78224   2.78255   2.78356   2.78618
 Alpha virt. eigenvalues --    2.79044   2.79183   2.79456   2.79876   2.80122
 Alpha virt. eigenvalues --    2.80584   2.80682   2.80980   2.81150   2.81541
 Alpha virt. eigenvalues --    2.81981   2.82330   2.82356   2.82903   2.83036
 Alpha virt. eigenvalues --    2.83406   2.83730   2.84003   2.84066   2.84282
 Alpha virt. eigenvalues --    2.84743   2.84836   2.84998   2.85352   2.85894
 Alpha virt. eigenvalues --    2.86442   2.86910   2.87155   2.87477   2.87814
 Alpha virt. eigenvalues --    2.88164   2.88533   2.88762   2.89098   2.89329
 Alpha virt. eigenvalues --    2.89445   2.89950   2.90960   2.91322   2.91486
 Alpha virt. eigenvalues --    2.91546   2.91995   2.92039   2.92567   2.92726
 Alpha virt. eigenvalues --    2.92826   2.93078   2.93138   2.93893   2.94118
 Alpha virt. eigenvalues --    2.94645   2.94891   2.95261   2.95370   2.95592
 Alpha virt. eigenvalues --    2.95642   2.95910   2.96025   2.96159   2.96568
 Alpha virt. eigenvalues --    2.96889   2.96908   2.97472   2.97775   2.97918
 Alpha virt. eigenvalues --    2.98135   2.98285   2.98468   2.98617   2.99253
 Alpha virt. eigenvalues --    2.99372   2.99562   3.00212   3.00510   3.00607
 Alpha virt. eigenvalues --    3.01034   3.01335   3.01831   3.02015   3.02154
 Alpha virt. eigenvalues --    3.02590   3.03036   3.03636   3.03841   3.04492
 Alpha virt. eigenvalues --    3.04844   3.05266   3.05493   3.06222   3.06479
 Alpha virt. eigenvalues --    3.06590   3.06666   3.07611   3.08164   3.08947
 Alpha virt. eigenvalues --    3.09529   3.09730   3.10343   3.10740   3.11340
 Alpha virt. eigenvalues --    3.11576   3.13266   3.14580   3.14686   3.15263
 Alpha virt. eigenvalues --    3.15493   3.15682   3.15807   3.16192   3.16229
 Alpha virt. eigenvalues --    3.16570   3.16923   3.17471   3.17935   3.18061
 Alpha virt. eigenvalues --    3.18263   3.18522   3.18693   3.18849   3.18893
 Alpha virt. eigenvalues --    3.19142   3.19457   3.19716   3.20098   3.20441
 Alpha virt. eigenvalues --    3.20623   3.20743   3.20972   3.21624   3.22176
 Alpha virt. eigenvalues --    3.22345   3.22617   3.22989   3.23607   3.23930
 Alpha virt. eigenvalues --    3.24611   3.25078   3.26137   3.27069   3.27465
 Alpha virt. eigenvalues --    3.27827   3.28486   3.29616   3.29776   3.29955
 Alpha virt. eigenvalues --    3.30404   3.31163   3.31352   3.31806   3.34606
 Alpha virt. eigenvalues --    3.35141   3.37874   3.38013   3.38377   3.39832
 Alpha virt. eigenvalues --    3.41250   3.42321   3.43831   3.45984   3.47785
 Alpha virt. eigenvalues --    3.48044   3.50830   3.53279   3.54104   3.54388
 Alpha virt. eigenvalues --    3.55690   3.56764   3.57432   3.57800   3.58320
 Alpha virt. eigenvalues --    3.59060   3.59214   3.60081   3.60952   3.61799
 Alpha virt. eigenvalues --    3.63643   3.64519   3.64649   3.65319   3.65369
 Alpha virt. eigenvalues --    3.66391   3.66487   3.66609   3.67549   3.68168
 Alpha virt. eigenvalues --    3.68845   3.69322   3.69630   3.70673   3.72438
 Alpha virt. eigenvalues --    3.72666   3.72829   3.73267   3.74006   3.76759
 Alpha virt. eigenvalues --    3.82607   3.83115   3.87233   3.96309
          Condensed to atoms (all electrons):
 Mulliken charges:
               1
     1  C    0.041211
     2  C    0.051098
     3  O   -0.419655
     4  H    0.068340
     5  H    0.043526
     6  H    0.031605
     7  N   -0.090454
     8  C    0.139978
     9  C    0.061027
    10  O   -0.233457
    11  C    0.064914
    12  C    0.032357
    13  O   -0.346988
    14  O   -0.402501
    15  H    0.136619
    16  H   -0.048732
    17  H    0.002263
    18  H   -0.064359
    19  N   -0.180837
    20  C    0.144090
    21  C    0.048785
    22  O   -0.268362
    23  C    0.013368
    24  C    0.035922
    25  C   -0.076879
    26  C    0.043410
    27  N    0.077458
    28  H    0.116116
    29  H    0.030837
    30  H   -0.006347
    31  H    0.030704
    32  H    0.010139
    33  H   -0.033890
    34  H    0.025439
    35  H    0.109689
    36  H    0.107218
    37  H    0.075194
    38  H    0.198710
    39  H    0.186817
    40  H    0.172049
    41  N   -0.115897
    42  C    0.152943
    43  C    0.044730
    44  O   -0.268289
    45  C    0.085595
    46  C    0.161025
    47  O   -0.349333
    48  O   -0.502344
    49  H    0.120029
    50  H    0.014525
    51  H    0.021272
    52  H    0.032024
    53  N   -0.157259
    54  C    0.198005
    55  C    0.043100
    56  O   -0.376319
    57  H    0.115751
    58  H    0.050324
    59  H    0.020309
    60  N   -0.086176
    61  C    0.014787
    62  C    0.083674
    63  O   -0.276768
    64  C    0.118473
    65  C    0.010594
    66  N   -0.050050
    67  O   -0.240964
    68  H    0.128971
    69  H    0.026681
    70  H    0.026884
    71  H    0.004136
    72  H    0.116095
    73  H    0.128488
    74  N   -0.089568
    75  C    0.127473
    76  C    0.033752
    77  O   -0.272233
    78  H    0.143354
    79  H    0.037988
    80  H    0.045282
    81  N   -0.103499
    82  C    0.103981
    83  C    0.077711
    84  O   -0.305662
    85  C    0.141282
    86  C   -0.033463
    87  C    0.010476
    88  C   -0.003892
    89  C   -0.009994
    90  C   -0.033224
    91  C    0.137445
    92  O   -0.190951
    93  H    0.102842
    94  H    0.031154
    95  H    0.018844
    96  H   -0.027368
    97  H   -0.028373
    98  H   -0.064143
    99  H   -0.028018
   100  H   -0.057517
   101  H    0.164941
   102  N   -0.151500
   103  C    0.169390
   104  C    0.037333
   105  O   -0.282683
   106  C   -0.085320
   107  C    0.011190
   108  C    0.018293
   109  C    0.030861
   110  H    0.153481
   111  H    0.012364
   112  H   -0.014256
   113  H   -0.006507
   114  H   -0.017435
   115  H    0.013067
   116  H    0.028641
   117  H   -0.002048
   118  H    0.001835
   119  H    0.019380
   120  H    0.002749
   121  N   -0.152948
   122  C    0.102388
   123  C    0.100415
   124  O   -0.301352
   125  C    0.233630
   126  O   -0.365088
   127  H    0.116522
   128  H    0.010846
   129  H    0.006270
   130  H   -0.019329
   131  H    0.185464
   132  N   -0.135789
   133  C    0.098092
   134  C    0.051138
   135  O   -0.289114
   136  C    0.082652
   137  H    0.134111
   138  H   -0.008924
   139  H    0.021323
   140  H   -0.009241
   141  H    0.031065
   142  N   -0.138877
   143  C    0.065732
   144  C    0.069009
   145  O   -0.265024
   146  C    0.082828
   147  H    0.126244
   148  H    0.012311
   149  H    0.029968
   150  H   -0.002936
   151  H    0.037324
   152  N   -0.133687
   153  C    0.105532
   154  C    0.082832
   155  O   -0.305483
   156  C    0.018133
   157  C    0.079694
   158  C    0.170297
   159  O   -0.400398
   160  O   -0.438561
   161  H    0.133183
   162  H    0.030682
   163  H    0.034358
   164  H   -0.019060
   165  H   -0.000332
   166  H   -0.028767
   167  N   -0.143656
   168  C    0.126259
   169  H    0.024855
   170  H    0.038511
   171  H    0.022813
   172  H    0.112330
   173  Ca   1.504048
   174  O   -0.361981
   175  H    0.170703
   176  H    0.180093
 Sum of Mulliken charges =  -0.00000
 Mulliken charges with hydrogens summed into heavy atoms:
               1
     1  C    0.184682
     2  C    0.051098
     3  O   -0.419655
     7  N    0.046165
     8  C    0.091246
     9  C    0.061027
    10  O   -0.233457
    11  C    0.002818
    12  C    0.032357
    13  O   -0.346988
    14  O   -0.402501
    19  N   -0.064721
    20  C    0.174927
    21  C    0.048785
    22  O   -0.268362
    23  C    0.037725
    24  C    0.012171
    25  C    0.058249
    26  C    0.225822
    27  N    0.635034
    41  N    0.004132
    42  C    0.167469
    43  C    0.044730
    44  O   -0.268289
    45  C    0.138892
    46  C    0.161025
    47  O   -0.349333
    48  O   -0.502344
    53  N   -0.041508
    54  C    0.268638
    55  C    0.043100
    56  O   -0.376319
    60  N    0.042795
    61  C    0.041468
    62  C    0.083674
    63  O   -0.276768
    64  C    0.149493
    65  C    0.010594
    66  N    0.194534
    67  O   -0.240964
    74  N    0.053786
    75  C    0.210743
    76  C    0.033752
    77  O   -0.272233
    81  N   -0.000657
    82  C    0.135135
    83  C    0.077711
    84  O   -0.305662
    85  C    0.132758
    86  C   -0.033463
    87  C   -0.017897
    88  C   -0.068035
    89  C   -0.038013
    90  C   -0.090741
    91  C    0.137445
    92  O   -0.026010
   102  N    0.001982
   103  C    0.181754
   104  C    0.037333
   105  O   -0.282683
   106  C   -0.099576
   107  C   -0.012752
   108  C    0.057953
   109  C    0.054825
   121  N   -0.036426
   122  C    0.113235
   123  C    0.100415
   124  O   -0.301352
   125  C    0.220571
   126  O   -0.179625
   132  N   -0.001679
   133  C    0.089167
   134  C    0.051138
   135  O   -0.289114
   136  C    0.125799
   142  N   -0.012632
   143  C    0.078042
   144  C    0.069009
   145  O   -0.265024
   146  C    0.147185
   152  N   -0.000504
   153  C    0.136214
   154  C    0.082832
   155  O   -0.305483
   156  C    0.033431
   157  C    0.050594
   158  C    0.170297
   159  O   -0.400398
   160  O   -0.438561
   167  N   -0.031326
   168  C    0.212438
   173  Ca   1.504048
   174  O   -0.011186
 DipInt: DoE/N= T F RetVal/Mat= T F Init=T NMatP=  1 IDeriv=0 Min/MaxMlt=  0  4
 Entering OneElI...
 OneElI was handed  1333951383 working-precision words.
 Multipole integrals L=0 to 4 MinM= 0 MaxM= 0.
 Requested accuracy = 0.1000D-12
 ShPair: Thresh= 1.00D-13 NBox=     0 BxSize= 0.00D+00 RnKept= 2.55D+01
         NSMCal=               327645 NSMKep=              145145
 PrmmSu-InSpLW:  IPartL=    0 NPrtUS=    1 NPrtUL=    1 DoSpLW=F IThBeg=    0 IThEnd=    0 NThAct=    1.
 PrsmSu:  NPrtUS=   1 ThrOK=F IAlg=1 NPAlg=1 LenDen=           0 ISkipM=0 DoSpLW=F IThBeg=    0 IThEnd=    0.
 Prism:   IPart=     0 DynPar=F LinDyn=F Incr=         512.
 PRISM was handed  1324477821 working-precision words and145145 shell-pairs
 IPart=  0 NShTot=      145145 NBatch=         335 AvBLen=       433.3
 PrsmSu-ThDecC:  IPartSL=    0    0 NPrtUSL=    1    1 IThBeg=    0 IThEnd=    0 CPU=   -1 GPU=   -1 NThAct=    1.
 PrSmSu:  NxtVal=            513.
 Electronic moments (au):
       -716.00000000         12.75458502          4.67343017         -1.10820562
     -64968.00041228     -31711.87950500     -15730.26617033         76.72875513
       -172.55015149         30.95599581    -221112.22284225     -63305.37121768
      -9394.89399363      27507.24513960     129090.29840225      52667.80021737
      22813.78075359       4290.99528140     -39444.17034154      28421.13908743
  -12588140.37754433   -3193085.83383409    -809796.57250757     923953.59773846
     115474.20974757    -834324.41985271    -126978.82270848     134407.21805676
     -16384.63355233   -2241818.63410108   -1415040.22274516    -540788.54117123
    -108994.75938757      62500.92485025     194949.22197131
 Electronic spatial extent (au):  <R**2>=         112410.1461
 DipInt: DoE/N= F T RetVal/Mat= T F Init=T NMatP=  1 IDeriv=0 Min/MaxMlt=  0  4
 Nuclear    moments (au):
        716.00000000         -0.00000000          0.00000000          0.00000000
      64713.09558004      31267.67393661      15308.62558573         -0.00000000
          0.00000000          0.00000000     227477.96391859      63638.30734241
       9873.73990299     -28621.66069185    -128740.31597640     -55397.66461841
     -22147.49801085      -4287.84115558      39273.37370285     -28041.82829339
   12478276.89063042    3081044.49066636     755036.33990697    -908443.76665545
    -190666.64358735     836224.27984442     129602.18991656    -139875.77317327
      18018.93531740    2180214.54557026    1373851.46436514     513715.39895780
     117833.29553431     -68201.80739611    -193720.86797894
 Total      moments (au):
         -0.00000000         12.75458502          4.67343017         -1.10820562
       -254.90483224       -444.20556839       -421.64058461         76.72875513
       -172.55015149         30.95599581       6365.74107635        332.93612472
        478.84590936      -1114.41555225        349.98242585      -2729.86440104
        666.28274274          3.15412582       -170.79663869        379.31079404
    -109863.48691391    -112041.34316772     -54760.23260059      15509.83108301
     -75192.43383977       1899.85999172       2623.36720808      -5468.55511651
       1634.30176507     -61604.08853083     -41188.75838001     -27073.14221343
       8838.53614675      -5700.88254586       1228.35399237
 Traceless Quadrup. (au):
        118.67882951        -70.62190665        -48.05692286         76.72875513
       -172.55015149         30.95599581
 Charge=             -0.0000 electrons
 Dipole moment (field-independent basis, Debye):
    X=             32.4189    Y=             11.8787    Z=             -2.8168  Tot=             34.6414
 Quadrupole moment (field-independent basis, Debye-Ang):
   XX=           -342.8557   YY=           -597.4717   ZZ=           -567.1210
   XY=            103.2028   XZ=           -232.0859   YZ=             41.6369
 Traceless Quadrupole moment (field-independent basis, Debye-Ang):
   XX=            159.6271   YY=            -94.9889   ZZ=            -64.6382
   XY=            103.2028   XZ=           -232.0859   YZ=             41.6369
 Octapole moment (field-independent basis, Debye-Ang**2):
  XXX=           4530.8893  YYY=            236.9711  ZZZ=            340.8241  XYY=           -793.1981
  XXY=            249.1040  XXZ=          -1943.0123  XZZ=            474.2344  YZZ=              2.2450
  YYZ=           -121.5665  XYZ=            269.9788
 Hexadecapole moment (field-independent basis, Debye-Ang**3):
 XXXX=         -41379.8573 YYYY=         -42200.1424 ZZZZ=         -20625.3294 XXXY=           5841.7461
 XXXZ=         -28321.0762 YYYX=            715.5784 YYYZ=            988.0859 ZZZX=          -2059.7201
 ZZZY=            615.5564 XXYY=         -23203.0538 XXZZ=         -15513.6615 YYZZ=         -10197.0436
 XXYZ=           3329.0165 YYXZ=          -2147.2257 ZZXY=            462.6570
 N-N= 2.038083257829D+04 E-N=-5.323804508980D+04  KE= 5.290450316718D+03
 Leave Link  601 at Wed Sep 18 19:23:46 2019, MaxMem=  1342177280 cpu:              47.7 elap:               1.2
 FitSet:  NAtFit=   176 NAtPot=   176 NAtFrz=     0 MDM=   180 TotChg=   0.00000
 Merz-Kollman atomic radii used.
 Read replacement radii for each type of atom:
 Rad(20) =   1.700000000000D+00
 Atom Element Radius
    1     6    1.50
    2     6    1.50
    3     8    1.40
    4     1    1.20
    5     1    1.20
    6     1    1.20
    7     7    1.50
    8     6    1.50
    9     6    1.50
   10     8    1.40
   11     6    1.50
   12     6    1.50
   13     8    1.40
   14     8    1.40
   15     1    1.20
   16     1    1.20
   17     1    1.20
   18     1    1.20
   19     7    1.50
   20     6    1.50
   21     6    1.50
   22     8    1.40
   23     6    1.50
   24     6    1.50
   25     6    1.50
   26     6    1.50
   27     7    1.50
   28     1    1.20
   29     1    1.20
   30     1    1.20
   31     1    1.20
   32     1    1.20
   33     1    1.20
   34     1    1.20
   35     1    1.20
   36     1    1.20
   37     1    1.20
   38     1    1.20
   39     1    1.20
   40     1    1.20
   41     7    1.50
   42     6    1.50
   43     6    1.50
   44     8    1.40
   45     6    1.50
   46     6    1.50
   47     8    1.40
   48     8    1.40
   49     1    1.20
   50     1    1.20
   51     1    1.20
   52     1    1.20
   53     7    1.50
   54     6    1.50
   55     6    1.50
   56     8    1.40
   57     1    1.20
   58     1    1.20
   59     1    1.20
   60     7    1.50
   61     6    1.50
   62     6    1.50
   63     8    1.40
   64     6    1.50
   65     6    1.50
   66     7    1.50
   67     8    1.40
   68     1    1.20
   69     1    1.20
   70     1    1.20
   71     1    1.20
   72     1    1.20
   73     1    1.20
   74     7    1.50
   75     6    1.50
   76     6    1.50
   77     8    1.40
   78     1    1.20
   79     1    1.20
   80     1    1.20
   81     7    1.50
   82     6    1.50
   83     6    1.50
   84     8    1.40
   85     6    1.50
   86     6    1.50
   87     6    1.50
   88     6    1.50
   89     6    1.50
   90     6    1.50
   91     6    1.50
   92     8    1.40
   93     1    1.20
   94     1    1.20
   95     1    1.20
   96     1    1.20
   97     1    1.20
   98     1    1.20
   99     1    1.20
  100     1    1.20
  101     1    1.20
  102     7    1.50
  103     6    1.50
  104     6    1.50
  105     8    1.40
  106     6    1.50
  107     6    1.50
  108     6    1.50
  109     6    1.50
  110     1    1.20
  111     1    1.20
  112     1    1.20
  113     1    1.20
  114     1    1.20
  115     1    1.20
  116     1    1.20
  117     1    1.20
  118     1    1.20
  119     1    1.20
  120     1    1.20
  121     7    1.50
  122     6    1.50
  123     6    1.50
  124     8    1.40
  125     6    1.50
  126     8    1.40
  127     1    1.20
  128     1    1.20
  129     1    1.20
  130     1    1.20
  131     1    1.20
  132     7    1.50
  133     6    1.50
  134     6    1.50
  135     8    1.40
  136     6    1.50
  137     1    1.20
  138     1    1.20
  139     1    1.20
  140     1    1.20
  141     1    1.20
  142     7    1.50
  143     6    1.50
  144     6    1.50
  145     8    1.40
  146     6    1.50
  147     1    1.20
  148     1    1.20
  149     1    1.20
  150     1    1.20
  151     1    1.20
  152     7    1.50
  153     6    1.50
  154     6    1.50
  155     8    1.40
  156     6    1.50
  157     6    1.50
  158     6    1.50
  159     8    1.40
[...]
 **** Fit       0.002233
 **** Fit       0.001645
 **** Fit       0.000885
 **** Fit      -0.000099
 **** Fit      -0.001333
 **** Fit      -0.002812
 **** Fit      -0.004510
 **** Fit      -0.006388
 **** Fit      -0.008407
 **** Fit      -0.010538
 **** Fit      -0.012764
 **** Fit      -0.015042
 **** Fit       0.002961
 **** Fit       0.002359
 **** Fit       0.001571
 **** Fit       0.000534
 **** Fit      -0.000782
 **** Fit      -0.002382
 **** Fit      -0.004244
 **** Fit      -0.006330
 **** Fit      -0.008600
 **** Fit      -0.011030
 **** Fit      -0.013640
 **** Fit      -0.016508
 **** Fit       0.003897
 **** Fit       0.003260
 **** Fit       0.002424
 **** Fit       0.001319
 **** Fit      -0.000092
 **** Fit      -0.001820
 **** Fit      -0.003850
 **** Fit      -0.006143
 **** Fit      -0.008648
 **** Fit      -0.011323
 **** Fit      -0.014165
 **** Fit      -0.017259
 **** Fit      -0.020824
 **** Fit       0.004767
 **** Fit       0.003926
 **** Fit       0.002811
 **** Fit       0.001361
 **** Fit      -0.000453
 **** Fit      -0.002632
 **** Fit      -0.005146
 **** Fit      -0.007937
 **** Fit      -0.010931
 **** Fit      -0.014065
 **** Fit      -0.017338
 **** Fit      -0.020890
 **** Fit      -0.025105
 **** Fit       0.006677
 **** Fit       0.005702
 **** Fit       0.004412
 **** Fit       0.002717
 **** Fit       0.000564
 **** Fit      -0.002060
 **** Fit      -0.005129
 **** Fit      -0.008562
 **** Fit      -0.012238
 **** Fit      -0.016020
 **** Fit      -0.019828
 **** Fit      -0.023765
 **** Fit       0.007329
 **** Fit       0.005484
 **** Fit       0.003079
 **** Fit       0.000048
 **** Fit      -0.003613
 **** Fit      -0.007832
 **** Fit      -0.012437
 **** Fit      -0.017164
 **** Fit      -0.021733
 **** Fit      -0.026014
 **** Fit       0.009405
 **** Fit       0.006775
 **** Fit       0.003390
 **** Fit      -0.000832
 **** Fit      -0.005871
 **** Fit      -0.011552
 **** Fit      -0.017495
 **** Fit       0.011090
 **** Fit       0.006850
 **** Fit       0.001442
 **** Fit      -0.005171
 **** Fit      -0.001219
 **** Fit      -0.002154
 **** Fit      -0.001362
 **** Fit      -0.000705
 **** Fit      -0.000462
 **** Fit      -0.001051
 **** Fit      -0.002071
 **** Fit      -0.003408
 **** Fit      -0.002448
 **** Fit      -0.001538
 **** Fit      -0.000944
 **** Fit      -0.000504
 **** Fit      -0.000060
 **** Fit      -0.002086
 **** Fit      -0.003283
 **** Fit      -0.003802
 **** Fit      -0.005159
 **** Fit      -0.003949
 **** Fit      -0.002710
 **** Fit      -0.001801
 **** Fit      -0.001275
 **** Fit      -0.000948
 **** Fit      -0.000589
 **** Fit      -0.004881
 **** Fit      -0.005768
 **** Fit      -0.005864
 **** Fit      -0.007654
 **** Fit      -0.006063
 **** Fit      -0.004360
 **** Fit      -0.002973
 **** Fit      -0.002097
 **** Fit      -0.001660
 **** Fit      -0.001438
 **** Fit      -0.001189
 **** Fit      -0.000745
 **** Fit      -0.006615
 **** Fit      -0.008065
 **** Fit      -0.008807
 **** Fit      -0.008664
 **** Fit      -0.011259
 **** Fit      -0.009132
 **** Fit      -0.006769
 **** Fit      -0.004712
 **** Fit      -0.003285
 **** Fit      -0.002514
 **** Fit      -0.002202
 **** Fit      -0.002074
 **** Fit      -0.001883
 **** Fit      -0.001452
 **** Fit      -0.010435
 **** Fit      -0.012096
 **** Fit      -0.012892
 **** Fit      -0.012614
 **** Fit      -0.016550
 **** Fit      -0.013757
 **** Fit      -0.010532
 **** Fit      -0.007554
 **** Fit      -0.005295
 **** Fit      -0.003898
 **** Fit      -0.003227
 **** Fit      -0.003000
 **** Fit      -0.002923
 **** Fit      -0.002762
 **** Fit      -0.015586
 **** Fit      -0.017626
 **** Fit      -0.018624
 **** Fit      -0.018282
 **** Fit      -0.011441
 **** Fit      -0.007996
 **** Fit      -0.005768
 **** Fit      -0.004603
 **** Fit      -0.004143
 **** Fit      -0.004004
 **** Fit      -0.003886
 **** Fit      -0.008734
 **** Fit      -0.006700
 **** Fit      -0.005739
 **** Fit      -0.005356
 **** Fit      -0.005162
 **** Fit      -0.009485
 **** Fit      -0.007802
 **** Fit      -0.007026
 **** Fit      -0.006637
 **** Fit      -0.009750
 **** Fit      -0.008705
 **** Fit       0.000399
 **** Fit       0.000782
 **** Fit       0.001295
 **** Fit      -0.000463
 **** Fit      -0.000292
 **** Fit       0.000131
 **** Fit       0.000676
 **** Fit       0.001228
 **** Fit       0.001710
 **** Fit      -0.001381
 **** Fit      -0.001302
 **** Fit      -0.000948
 **** Fit      -0.000409
 **** Fit       0.000223
 **** Fit       0.000861
 **** Fit       0.001441
 **** Fit       0.001926
 **** Fit      -0.002446
 **** Fit      -0.002371
 **** Fit      -0.002024
 **** Fit      -0.001465
 **** Fit      -0.000770
 **** Fit      -0.000017
 **** Fit       0.000723
 **** Fit       0.001396
 **** Fit       0.001968
 **** Fit       0.002430
 **** Fit      -0.003627
 **** Fit      -0.003576
 **** Fit      -0.003267
 **** Fit      -0.002726
 **** Fit      -0.002008
 **** Fit      -0.001180
 **** Fit      -0.000310
 **** Fit       0.000540
 **** Fit       0.001323
 **** Fit       0.002006
 **** Fit       0.002575
 **** Fit       0.003039
 **** Fit      -0.004836
 **** Fit      -0.004939
 **** Fit      -0.004794
 **** Fit      -0.004375
 **** Fit      -0.003697
 **** Fit      -0.002817
 **** Fit      -0.001813
 **** Fit      -0.000759
 **** Fit       0.000277
 **** Fit       0.001246
 **** Fit       0.002110
 **** Fit       0.002848
 **** Fit       0.003458
 **** Fit      -0.006350
 **** Fit      -0.006390
 **** Fit      -0.006170
 **** Fit      -0.005635
 **** Fit      -0.004803
 **** Fit      -0.003743
 **** Fit      -0.002540
 **** Fit      -0.001278
 **** Fit      -0.000025
 **** Fit       0.001164
 **** Fit       0.002248
 **** Fit       0.003203
 **** Fit       0.004014
 **** Fit      -0.008007
 **** Fit      -0.008122
 **** Fit      -0.008014
 **** Fit      -0.007557
 **** Fit      -0.006722
 **** Fit      -0.005563
 **** Fit      -0.004178
 **** Fit      -0.002666
 **** Fit      -0.001115
 **** Fit       0.000404
 **** Fit       0.001841
 **** Fit       0.003159
 **** Fit       0.004329
 **** Fit       0.005338
 **** Fit      -0.010136
 **** Fit      -0.010163
 **** Fit      -0.009902
 **** Fit      -0.009188
 **** Fit      -0.007999
 **** Fit      -0.006423
 **** Fit      -0.004592
 **** Fit      -0.002633
 **** Fit      -0.000652
 **** Fit       0.001277
 **** Fit       0.003099
 **** Fit       0.004776
 **** Fit       0.006275
 **** Fit      -0.012512
 **** Fit      -0.012222
 **** Fit      -0.011469
 **** Fit      -0.010108
 **** Fit      -0.008194
 **** Fit      -0.005891
 **** Fit      -0.003380
 **** Fit      -0.000808
 **** Fit       0.001726
 **** Fit       0.004155
 **** Fit       0.006433
 **** Fit      -0.014442
 **** Fit      -0.013565
 **** Fit      -0.012029
 **** Fit      -0.009772
 **** Fit      -0.006960
 **** Fit      -0.003830
 **** Fit      -0.000575
 **** Fit       0.002678
 **** Fit       0.005855
 **** Fit       0.008909
 **** Fit      -0.011298
 **** Fit      -0.007942
 **** Fit      -0.003988
 **** Fit       0.000261
 **** Fit       0.004612
 **** Fit       0.008974
 **** Fit       0.008117
 **** Fit       0.011416
 **** Fit       0.014153
 **** Fit       0.016249
 **** Fit       0.017574
 **** Fit       0.017912
 **** Fit      -0.000253
 **** Fit       0.004573
 **** Fit       0.008934
 **** Fit       0.012757
 **** Fit       0.015994
 **** Fit       0.018576
 **** Fit      -0.011634
 **** Fit      -0.005669
 **** Fit       0.000305
 **** Fit       0.005877
 **** Fit       0.010918
 **** Fit       0.015410
 **** Fit      -0.014595
 **** Fit      -0.008006
 **** Fit      -0.001127
 **** Fit       0.005383
 **** Fit       0.011378
 **** Fit       0.016920
 **** Fit      -0.008486
 **** Fit      -0.001385
 **** Fit       0.005531
 **** Fit      -0.000500
 **** Fit       0.066364
 **** Fit       0.066903
 **** Fit       0.070172
 **** Fit       0.069246
 **** Fit       0.064986
 **** Fit       0.061572
 **** Fit       0.062597
 **** Fit       0.066593
 **** Fit       0.070694
 **** Fit       0.073071
 **** Fit       0.073238
 **** Fit       0.071245
 **** Fit       0.067502
 **** Fit       0.062788
 **** Fit       0.058352
 **** Fit       0.055690
 **** Fit       0.055639
 **** Fit       0.057938
 **** Fit       0.061900
 **** Fit       0.065432
 **** Fit       0.069850
 **** Fit       0.073181
 **** Fit       0.075107
 **** Fit       0.075562
 **** Fit       0.074605
 **** Fit       0.072348
 **** Fit       0.068959
 **** Fit       0.064664
 **** Fit       0.059798
 **** Fit       0.054932
 **** Fit       0.050913
 **** Fit       0.048584
 **** Fit       0.048289
 **** Fit       0.049716
 **** Fit       0.052376
 **** Fit       0.056048
 **** Fit       0.060572
 **** Fit       0.063436
 **** Fit       0.068140
 **** Fit       0.071969
 **** Fit       0.074702
 **** Fit       0.076303
 **** Fit       0.076821
 **** Fit       0.076325
 **** Fit       0.074875
 **** Fit       0.072534
 **** Fit       0.069386
 **** Fit       0.065524
 **** Fit       0.061035
 **** Fit       0.056053
 **** Fit       0.050871
 **** Fit       0.046028
 **** Fit       0.042233
 **** Fit       0.040100
 **** Fit       0.039827
 **** Fit       0.041056
 **** Fit       0.043195
 **** Fit       0.045897
 **** Fit       0.049237
 **** Fit       0.053416
 **** Fit       0.058320
 **** Fit       0.060645
 **** Fit       0.065838
 **** Fit       0.070138
 **** Fit       0.073385
 **** Fit       0.075579
 **** Fit       0.076803
 **** Fit       0.077147
 **** Fit       0.076682
 **** Fit       0.075445
 **** Fit       0.073469
 **** Fit       0.070802
 **** Fit       0.067513
 **** Fit       0.063656
 **** Fit       0.059247
 **** Fit       0.054280
 **** Fit       0.048824
 **** Fit       0.043150
 **** Fit       0.030861
 **** Fit       0.032994
 **** Fit       0.035497
 **** Fit       0.038066
 **** Fit       0.049417
 **** Fit       0.054965
 **** Fit       0.057140
 **** Fit       0.062843
 **** Fit       0.067569
 **** Fit       0.071214
 **** Fit       0.073822
 **** Fit       0.075506
 **** Fit       0.076385
 **** Fit       0.076555
 **** Fit       0.076074
 **** Fit       0.074961
 **** Fit       0.073223
 **** Fit       0.070885
 **** Fit       0.068004
 **** Fit       0.064650
 **** Fit       0.060866
 **** Fit       0.056631
 **** Fit       0.051869
 **** Fit       0.046503
 **** Fit       0.040591
 **** Fit       0.024472
 **** Fit       0.050806
 **** Fit       0.053056
 **** Fit       0.059434
 **** Fit       0.064634
 **** Fit       0.068621
 **** Fit       0.071503
 **** Fit       0.073443
 **** Fit       0.074594
 **** Fit       0.075077
 **** Fit       0.074970
 **** Fit       0.074310
 **** Fit       0.073093
 **** Fit       0.071303
 **** Fit       0.068953
 **** Fit       0.066110
 **** Fit       0.062865
 **** Fit       0.059288
 **** Fit       0.055395
 **** Fit       0.051117
 **** Fit       0.046309
 **** Fit       0.040815
 **** Fit       0.048608
 **** Fit       0.055623
 **** Fit       0.061217
 **** Fit       0.065446
 **** Fit       0.068493
 **** Fit       0.070581
 **** Fit       0.071906
 **** Fit       0.072607
 **** Fit       0.072764
 **** Fit       0.072421
 **** Fit       0.071592
 **** Fit       0.070252
 **** Fit       0.068359
 **** Fit       0.065923
 **** Fit       0.063029
 **** Fit       0.059801
 **** Fit       0.056342
 **** Fit       0.052693
 **** Fit       0.048834
 **** Fit       0.044661
 **** Fit       0.039985
 **** Fit       0.034576
 **** Fit       0.051636
 **** Fit       0.057481
 **** Fit       0.061803
 **** Fit       0.064868
 **** Fit       0.066970
 **** Fit       0.068367
 **** Fit       0.069231
 **** Fit       0.069629
 **** Fit       0.069563
 **** Fit       0.069027
 **** Fit       0.068021
 **** Fit       0.066507
 **** Fit       0.064421
 **** Fit       0.061773
 **** Fit       0.058688
 **** Fit       0.055354
 **** Fit       0.051907
 **** Fit       0.048395
 **** Fit       0.044806
 **** Fit       0.041094
 **** Fit       0.037164
 **** Fit       0.032817
 **** Fit       0.027769
 **** Fit       0.048037
 **** Fit       0.054024
 **** Fit       0.058235
 **** Fit       0.061062
 **** Fit       0.062921
 **** Fit       0.064188
 **** Fit       0.065113
 **** Fit       0.065740
 **** Fit       0.065940
 **** Fit       0.065570
 **** Fit       0.064601
 **** Fit       0.063042
 **** Fit       0.060825
 **** Fit       0.057893
 **** Fit       0.054384
 **** Fit       0.050612
 **** Fit       0.046868
 **** Fit       0.043247
 **** Fit       0.039680
 **** Fit       0.036075
 **** Fit       0.032411
 **** Fit       0.028681
 **** Fit       0.024746
 **** Fit       0.044822
 **** Fit       0.050542
 **** Fit       0.054279
 **** Fit       0.056536
 **** Fit       0.057863
 **** Fit       0.061461
 **** Fit       0.059781
 **** Fit       0.057284
 **** Fit       0.053869
 **** Fit       0.049594
 **** Fit       0.044908
 **** Fit       0.040415
 **** Fit       0.036433
 **** Fit       0.032839
 **** Fit       0.029301
 **** Fit       0.025614
 **** Fit       0.021862
 **** Fit       0.018301
 **** Fit       0.015016
 **** Fit       0.047317
 **** Fit       0.050067
 **** Fit       0.049478
 **** Fit       0.019513
 **** Fit       0.015661
 **** Fit       0.011302
 **** Fit       0.044205
 **** Fit       0.011543
 **** Fit       0.016989
 **** Fit       0.023187
 **** Fit       0.016601
 **** Fit       0.005731
 **** Fit       0.001750
 **** Fit       0.006799
 **** Fit       0.022204
 **** Fit       0.033295
 **** Fit       0.033042
 **** Fit       0.021791
 **** Fit       0.009545
 **** Fit      -0.000798
 **** Fit      -0.003611
 **** Fit       0.002509
 **** Fit       0.011067
 **** Fit       0.027025
 **** Fit       0.026882
 **** Fit       0.013749
 **** Fit       0.001967
 **** Fit      -0.006918
 **** Fit      -0.001235
 **** Fit       0.005713
 **** Fit       0.014856
 **** Fit       0.031590
 **** Fit       0.017634
 **** Fit       0.005478
 **** Fit      -0.009435
 **** Fit      -0.004392
 **** Fit       0.001293
 **** Fit       0.008289
 **** Fit       0.017613
 **** Fit       0.030139
 **** Fit       0.016002
 **** Fit       0.004010
 **** Fit      -0.012324
 **** Fit      -0.007746
 **** Fit       0.021813
 **** Fit       0.008980
 **** Fit      -0.015512
 **** Fit      -0.011121
 **** Fit       0.012944
 **** Fit       0.002271
 **** Fit      -0.018192
 **** Fit       0.010702
 **** Fit      -0.021741
 **** Fit      -0.023104
 **** Fit      -0.030014
 **** Fit      -0.013625
 **** Fit      -0.015521
 **** Fit      -0.018185
 **** Fit      -0.021537
 **** Fit      -0.024484
 **** Fit      -0.023499
 **** Fit      -0.028756
 **** Fit      -0.038742
 -----------------------------------------------------------------
 Leave Link  602 at Wed Sep 18 19:23:49 2019, MaxMem=  1342177280 cpu:             119.1 elap:               2.5

 Test job not archived.
 1\1\GINC-C487-104\SP\RB3LYP\SVP\C54H83Ca1N15O23\PENGZHI\18-Sep-2019\0\
 \#b3lyp/svp scf=(tight,noincore) Test #IOP(5/87=12) Density=Current Po
 p=(MK,readradii) iop(6/33=2) iop(6/42=6)\\Ng-31_loop3_4.0\\0,1\C,0,-2.
 237,28.51,97.577\C,0,-0.767,28.74,97.217\O,0,-0.307,29.81,96.817\H,0,-
 2.852,28.627,96.685\H,0,-2.361,27.502,97.973\H,0,-2.546,29.237,98.328\
 N,0,0.033,27.7,97.437\C,0,1.383,27.33,97.037\C,0,1.423,26.52,95.747\O,
 0,0.573,25.7,95.397\C,0,2.043,26.51,98.147\C,0,1.263,25.36,98.767\O,0,
 0.063,25.1,98.557\O,0,1.883,24.59,99.537\H,0,-0.567,26.9,97.597\H,0,1.
 953,28.23,96.837\H,0,2.273,27.22,98.937\H,0,3.013,26.14,97.837\N,0,2.4
 43,26.87,94.967\C,0,2.873,26.22,93.737\C,0,2.453,26.99,92.497\O,0,2.84
 3,26.7,91.367\C,0,4.353,25.83,93.727\C,0,4.983,25.18,94.947\C,0,4.223,
 23.94,95.417\C,0,4.913,23.17,96.547\N,0,6.243,22.63,96.217\H,0,3.013,2
 7.65,95.267\H,0,2.433,25.23,93.707\H,0,4.973,26.68,93.447\H,0,4.463,25
 .22,92.817\H,0,5.083,25.86,95.797\H,0,5.993,24.89,94.657\H,0,4.033,23.
 26,94.587\H,0,3.223,24.22,95.747\H,0,4.203,22.41,96.887\H,0,5.053,23.8
 7,97.367\H,0,6.663,22.3,97.077\H,0,6.313,21.91,95.517\H,0,6.873,23.34,
 95.877\N,0,1.623,28.02,92.637\C,0,1.463,29.05,91.637\C,0,2.643,30.,91.
 707\O,0,3.503,29.99,90.827\C,0,0.073,29.69,91.767\C,0,-0.447,30.06,93.
 147\O,0,-1.687,30.07,93.297\O,0,0.373,30.47,93.997\H,0,1.443,28.27,93.
 607\H,0,1.463,28.55,90.677\H,0,-0.627,29.07,91.217\H,0,0.053,30.63,91.
 217\N,0,2.803,30.74,92.807\C,0,3.903,31.63,93.127\C,0,3.903,32.09,94.5
 77\O,0,3.053,31.7,95.367\H,0,2.023,30.78,93.457\H,0,3.873,32.57,92.567
 \H,0,4.883,31.23,92.877\N,0,4.933,32.84,94.977\C,0,5.773,33.76,94.237\
 C,0,5.823,35.03,95.067\O,0,5.843,34.9,96.287\C,0,7.123,33.17,93.847\C,
 0,8.003,32.77,95.027\N,0,8.143,31.45,95.167\O,0,8.633,33.58,95.697\H,0
 ,4.843,33.15,95.927\H,0,5.263,34.1,93.327\H,0,7.643,33.89,93.217\H,0,7
 .053,32.3,93.197\H,0,7.603,30.8,94.617\H,0,8.723,31.18,95.947\N,0,5.86
 3,36.25,94.537\C,0,5.483,36.57,93.167\C,0,4.023,36.31,92.817\O,0,3.163
 ,35.97,93.617\H,0,5.973,37.,95.207\H,0,6.073,35.97,92.467\H,0,5.813,37
 .59,93.007\N,0,3.673,36.62,91.557\C,0,2.423,36.52,90.847\C,0,2.503,35.
 85,89.477\O,0,3.483,36.04,88.757\C,0,1.833,37.9,90.557\C,0,1.293,38.61
 ,91.777\C,0,-0.077,38.55,92.067\C,0,2.073,39.39,92.637\C,0,-0.697,39.2
 ,93.147\C,0,1.513,40.01,93.757\C,0,0.123,39.98,93.987\O,0,-0.417,40.71
 ,95.007\H,0,4.453,36.99,91.037\H,0,1.603,36.14,91.457\H,0,1.083,37.86,
 89.777\H,0,2.713,38.48,90.257\H,0,-0.667,38.,91.347\H,0,3.143,39.41,92
 .477\H,0,-1.727,39.03,93.417\H,0,2.123,40.65,94.387\H,0,0.323,41.22,95
 .347\N,0,1.433,35.17,89.077\C,0,1.233,34.53,87.797\C,0,0.193,35.21,86.
 917\O,0,0.283,35.09,85.697\C,0,1.053,33.03,88.017\C,0,2.293,32.39,88.6
 27\C,0,-0.207,32.64,88.787\C,0,3.593,32.41,87.847\H,0,0.683,35.07,89.7
 57\H,0,2.143,34.63,87.217\H,0,0.953,32.56,87.037\H,0,2.033,31.33,88.62
 7\H,0,2.343,32.72,89.667\H,0,-0.467,31.58,88.767\H,0,-0.047,32.88,89.8
 37\H,0,-1.027,33.2,88.347\H,0,3.373,32.1,86.827\H,0,3.973,33.44,87.887
 \H,0,4.383,31.79,88.267\N,0,-0.707,36.03,87.467\C,0,-1.737,36.81,86.80
 7\C,0,-2.947,36.04,86.297\O,0,-3.727,36.59,85.527\C,0,-2.227,37.91,87.
 747\O,0,-2.857,37.43,88.907\H,0,-0.737,35.96,88.467\H,0,-1.197,37.39,8
 6.057\H,0,-2.927,38.56,87.207\H,0,-1.337,38.5,87.947\H,0,-2.227,36.9,8
 9.417\N,0,-3.207,34.79,86.677\C,0,-4.447,34.06,86.497\C,0,-4.817,33.2,
 87.697\O,0,-3.947,32.47,88.157\C,0,-4.217,33.12,85.307\H,0,-2.557,34.3
 7,87.337\H,0,-5.227,34.78,86.247\H,0,-3.417,32.42,85.547\H,0,-5.127,32
 .6,85.017\H,0,-3.867,33.75,84.497\N,0,-6.097,33.22,88.087\C,0,-6.747,3
 2.53,89.187\C,0,-5.917,32.28,90.437\O,0,-6.327,31.46,91.257\C,0,-7.427
 ,31.29,88.607\H,0,-6.747,33.74,87.517\H,0,-7.497,33.25,89.497\H,0,-8.1
 07,30.94,89.387\H,0,-7.957,31.57,87.697\H,0,-6.667,30.52,88.427\N,0,-4
 .857,33.06,90.667\C,0,-4.177,33.04,91.947\C,0,-4.887,33.76,93.087\O,0,
 -4.717,33.43,94.267\C,0,-2.697,33.39,91.797\C,0,-2.607,34.92,91.797\C,
 0,-1.247,35.31,91.237\O,0,-0.267,34.95,91.937\O,0,-1.207,35.81,90.097\
 H,0,-4.427,33.61,89.947\H,0,-4.187,31.98,92.197\H,0,-2.287,33.,90.867\
 H,0,-2.107,33.01,92.627\H,0,-2.657,35.32,92.807\H,0,-3.407,35.33,91.18
 7\N,0,-5.677,34.78,92.737\C,0,-6.527,35.5,93.657\H,0,-7.493,35.,93.725
 \H,0,-6.061,35.522,94.642\H,0,-6.67,36.519,93.299\H,0,-5.927,34.79,91.
 767\Ca,0,0.43,32.16,95.91\O,0,-1.977,32.11,95.03\H,0,-1.917,31.3,94.53
 \H,0,-2.847,32.44,94.85\\Version=ES64L-G16RevA.03\State=1-A\HF=-5333.4
 507158\RMSD=2.128e-09\Dipole=10.0289516,-6.5360429,6.5152728\Quadrupol
 e=72.6736659,69.7501195,-142.4237853,-162.1785353,67.7640746,34.648788
 \PG=C01 [X(C54H83Ca1N15O23)]\\@


 YOU WILL NEVER "FIND" TIME FOR ANYTHING.
 IF YOU WANT TIME, YOU MUST MAKE IT.

                        -- CHARLES BIXTON
 Job cpu time:       0 days  9 hours 52 minutes 30.1 seconds.
 Elapsed time:       0 days  0 hours 12 minutes 29.7 seconds.
 File lengths (MBytes):  RWF=   1517 Int=      0 D2E=      0 Chk=    171 Scr=      1
 Normal termination of Gaussian 16 at Wed Sep 18 19:23:50 2019.
