 Entering Gaussian System, Link 0=g16
 Initial command:
 /home1/apps/gaussian/16rA.03/g16/l1.exe "/scratch/01990/pengzhi/4356758/Gau-401101.inp" -scrdir="/scratch/01990/pengzhi/4356758/"
 Entering Link 1 = /home1/apps/gaussian/16rA.03/g16/l1.exe PID=    401102.
  
 Copyright (c) 1988,1990,1992,1993,1995,1998,2003,2009,2016,
            Gaussian, Inc.  All Rights Reserved.
  
 This is part of the Gaussian(R) 16 program.  It is based on
 the Gaussian(R) 09 system (copyright 2009, Gaussian, Inc.),
 the Gaussian(R) 03 system (copyright 2003, Gaussian, Inc.),
 the Gaussian(R) 98 system (copyright 1998, Gaussian, Inc.),
 the Gaussian(R) 94 system (copyright 1995, Gaussian, Inc.),
 the Gaussian 92(TM) system (copyright 1992, Gaussian, Inc.),
 the Gaussian 90(TM) system (copyright 1990, Gaussian, Inc.),
 the Gaussian 88(TM) system (copyright 1988, Gaussian, Inc.),
 the Gaussian 86(TM) system (copyright 1986, Carnegie Mellon
 University), and the Gaussian 82(TM) system (copyright 1983,
 Carnegie Mellon University). Gaussian is a federally registered
 trademark of Gaussian, Inc.
  
 This software contains proprietary and confidential information,
 including trade secrets, belonging to Gaussian, Inc.
  
 This software is provided under written license and may be
 used, copied, transmitted, or stored only in accord with that
 written license.
  
 The following legend is applicable only to US Government
 contracts under FAR:
  
                    RESTRICTED RIGHTS LEGEND
  
 Use, reproduction and disclosure by the US Government is
 subject to restrictions as set forth in subparagraphs (a)
 and (c) of the Commercial Computer Software - Restricted
 Rights clause in FAR 52.227-19.
  
 Gaussian, Inc.
 340 Quinnipiac St., Bldg. 40, Wallingford CT 06492
  
  
 ---------------------------------------------------------------
 Warning -- This program may not be used in any manner that
 competes with the business of Gaussian, Inc. or will provide
 assistance to any competitor of Gaussian, Inc.  The licensee
 of this program is prohibited from giving any competitor of
 Gaussian, Inc. access to this program.  By using this program,
 the user acknowledges that Gaussian, Inc. is engaged in the
 business of creating and licensing software in the field of
 computational chemistry and represents and warrants to the
 licensee that it is not a competitor of Gaussian, Inc. and that
 it will not use this program in any manner prohibited above.
 ---------------------------------------------------------------
  

 Cite this work as:
 Gaussian 16, Revision A.03,
 M. J. Frisch, G. W. Trucks, H. B. Schlegel, G. E. Scuseria, 
 M. A. Robb, J. R. Cheeseman, G. Scalmani, V. Barone, 
 G. A. Petersson, H. Nakatsuji, X. Li, M. Caricato, A. V. Marenich, 
 J. Bloino, B. G. Janesko, R. Gomperts, B. Mennucci, H. P. Hratchian, 
 J. V. Ortiz, A. F. Izmaylov, J. L. Sonnenberg, D. Williams-Young, 
 F. Ding, F. Lipparini, F. Egidi, J. Goings, B. Peng, A. Petrone, 
 T. Henderson, D. Ranasinghe, V. G. Zakrzewski, J. Gao, N. Rega, 
 G. Zheng, W. Liang, M. Hada, M. Ehara, K. Toyota, R. Fukuda, 
 J. Hasegawa, M. Ishida, T. Nakajima, Y. Honda, O. Kitao, H. Nakai, 
 T. Vreven, K. Throssell, J. A. Montgomery, Jr., J. E. Peralta, 
 F. Ogliaro, M. J. Bearpark, J. J. Heyd, E. N. Brothers, K. N. Kudin, 
 V. N. Staroverov, T. A. Keith, R. Kobayashi, J. Normand, 
 K. Raghavachari, A. P. Rendell, J. C. Burant, S. S. Iyengar, 
 J. Tomasi, M. Cossi, J. M. Millam, M. Klene, C. Adamo, R. Cammi, 
 J. W. Ochterski, R. L. Martin, K. Morokuma, O. Farkas, 
 J. B. Foresman, and D. J. Fox, Gaussian, Inc., Wallingford CT, 2016.
 
 ******************************************
 Gaussian 16:  ES64L-G16RevA.03 25-Dec-2016
                18-Sep-2019 
 ******************************************
 %chk=Ng-31_loop3_39.0.chk
 %nprocshared=48
 Will use up to   48 processors via shared memory.
 %mem=10GB
 %nosave
 ----------------------------------------------------------------------
 #b3lyp/svp scf=(tight,noincore) Test #IOP(5/87=12) Density=Current Pop
 =(MK,readradii) iop(6/33=2) iop(6/42=6)
 ----------------------------------------------------------------------
 1/30=1,38=1,172=1/1;
 2/12=2,17=6,18=5,40=1/2;
 3/5=18,7=101,11=2,25=1,30=1,74=-5/1,2,3;
 4//1;
 5/5=4,32=2,38=5,87=12/2;
 6/7=2,8=2,9=2,10=2,15=8,20=101,22=-1,28=1,33=2,42=6/1,2;
 99/5=1,9=1/99;
 ----------------
 Ng-31_loop3_39.0
 ----------------
 Symbolic Z-matrix:
 Charge =  0 Multiplicity = 1
 C                     63.47     58.6      32.32 
 C                     63.99     57.8      33.5 
 O                     63.27     56.87     33.86 
 H                     62.58     59.152    32.62 
 H                     64.237    59.3      31.989 
 H                     63.218    57.923    31.504 
 N                     65.24     58.06     33.91 
 C                     66.04     57.17     34.73 
 C                     65.46     57.03     36.14 
 O                     65.18     55.92     36.59 
 C                     67.55     57.37     34.8 
 C                     68.04     58.8      34.99 
 O                     67.51     59.82     34.5 
 O                     69.02     59.01     35.74 
 H                     65.68     58.9      33.6 
 H                     65.9      56.23     34.2 
 H                     67.96     56.94     33.89 
 H                     67.91     56.86     35.7 
 N                     65.16     58.2      36.7 
 C                     64.33     58.15     37.89 
 C                     64.9      57.34     39.04 
 O                     66.1      57.31     39.26 
 C                     63.99     59.6      38.26 
 C                     63.04     60.19     37.23 
 C                     62.89     61.68     37.53 
 C                     61.53     62.23     37.11 
 N                     61.4      63.66     37.45 
 H                     65.44     59.08     36.28 
 H                     63.41     57.63     37.62 
 H                     64.9      60.18     38.41 
 H                     63.45     59.56     39.2 
 H                     62.06     59.75     37.4 
 H                     63.25     60.13     36.16 
 H                     63.62     62.14     36.86 
 H                     63.16     61.93     38.56 
 H                     60.73     61.64     37.56 
 H                     61.37     62.14     36.04 
 H                     61.95     64.18     36.78 
 H                     60.44     63.94     37.31 
 H                     61.74     63.74     38.39 
 N                     64.01     56.8      39.89 
 C                     64.37     56.04     41.07 
 C                     64.44     54.53     40.87 
 O                     64.4      53.75     41.81 
 C                     63.5      56.48     42.25 
 C                     62.01     56.19     42.15 
 O                     61.55     55.04     42.34 
 O                     61.24     57.16     41.96 
 H                     63.03     56.86     39.65 
 H                     65.38     56.38     41.26 
 H                     63.65     57.54     42.45 
 H                     63.84     56.04     43.18 
 N                     64.96     54.17     39.7 
 C                     65.31     52.83     39.25 
 C                     66.68     52.4      39.75 
 O                     67.31     53.01     40.61 
 H                     64.97     54.89     38.99 
 H                     65.51     52.8      38.18 
 H                     64.47     52.17     39.43 
 N                     67.29     51.3      39.28 
 C                     66.67     50.17     38.62 
 C                     67.69     49.25     37.95 
 O                     68.51     48.68     38.67 
 C                     65.89     49.41     39.69 
 C                     65.33     48.05     39.28 
 N                     64.53     47.41     40.12 
 O                     65.56     47.44     38.24 
 H                     68.24     51.2      39.62 
 H                     65.93     50.61     37.95 
 H                     65.1      49.89     40.26 
 H                     66.6      49.16     40.48 
 H                     64.47     47.9      41. 
 H                     64.26     46.45     39.93 
 N                     67.57     49.04     36.64 
 C                     66.92     49.92     35.69 
 C                     65.42     49.76     35.44 
 O                     64.85     50.49     34.64 
 H                     68.2      48.34     36.28 
 H                     67.36     49.86     34.7 
 H                     67.12     50.96     35.93 
 N                     64.68     48.81     36.02 
 C                     63.25     48.68     35.87 
 C                     62.78     49.71     36.89 
 O                     63.5      50.08     37.82 
 C                     62.81     47.22     35.99 
 C                     63.55     46.26     35.1 
 C                     62.84     45.86     33.95 
 C                     64.87     45.85     35.31 
 C                     63.36     44.9      33.08 
 C                     65.41     44.92     34.41 
 C                     64.64     44.38     33.36 
 O                     65.38     43.65     32.48 
 H                     65.11     48.29     36.77 
 H                     62.82     49.1      34.96 
 H                     61.75     47.18     35.75 
 H                     62.83     46.87     37.02 
 H                     61.81     46.16     33.8 
 H                     65.4      46.17     36.2 
 H                     62.79     44.69     32.18 
 H                     66.41     44.56     34.59 
 H                     66.22     43.33     32.83 
 N                     61.53     50.15     36.78 
 C                     60.93     51.19     37.6 
 C                     59.9      50.68     38.59 
 O                     59.09     49.81     38.28 
 C                     60.35     52.36     36.8 
 C                     61.44     53.06     35.99 
 C                     59.08     52.06     36.01 
 C                     61.07     54.37     35.3 
 H                     61.02     49.78     35.99 
 H                     61.7      51.69     38.19 
 H                     60.04     53.13     37.5 
 H                     61.88     52.43     35.22 
 H                     62.26     53.28     36.68 
 H                     58.24     51.6      36.54 
 H                     58.74     53.01     35.59 
 H                     59.44     51.4      35.23 
 H                     60.28     54.27     34.57 
 H                     60.67     54.94     36.14 
 H                     61.92     54.9      34.88 
 N                     59.92     51.21     39.82 
 C                     59.17     50.66     40.93 
 C                     57.65     50.53     40.87 
 O                     57.03     50.75     39.84 
 C                     59.79     49.34     41.36 
 O                     61.2      49.23     41.39 
 H                     60.47     52.04     39.97 
 H                     59.33     51.26     41.83 
 H                     59.36     48.66     40.62 
 H                     59.32     48.99     42.28 
 H                     61.72     50.03     41.44 
 N                     56.96     50.25     41.98 
 C                     55.51     50.28     41.86 
 C                     54.84     51.63     41.72 
 O                     55.18     52.56     42.45 
 C                     54.9      49.49     43.01 
 H                     57.36     50.05     42.88 
 H                     55.14     49.69     41.01 
 H                     55.29     48.48     43.11 
 H                     54.99     49.94     44. 
 H                     53.82     49.36     42.89 
 N                     53.81     51.74     40.87 
 C                     53.09     52.98     40.66 
 C                     53.89     54.13     40.05 
 O                     53.48     55.29     40.15 
 C                     52.19     53.29     41.85 
 H                     53.48     50.94     40.35 
 H                     52.49     52.54     39.87 
 H                     51.66     52.41     42.2 
 H                     52.81     53.74     42.62 
 H                     51.42     54.01     41.58 
 N                     55.05     53.77     39.49 
 C                     55.82     54.66     38.64 
 C                     55.29     54.59     37.22 
 O                     55.33     55.66     36.6 
 C                     57.3      54.39     38.86 
 C                     58.14     55.47     38.17 
 C                     58.24     56.65     39.13 
 O                     58.84     56.56     40.22 
 O                     57.56     57.68     38.93 
 H                     55.39     52.83     39.65 
 H                     55.61     55.7      38.9 
 H                     57.49     53.48     38.28 
 H                     57.65     54.15     39.86 
 H                     57.72     55.65     37.18 
 H                     59.15     55.07     38.13 
 N                     54.83     53.44     36.73 
 C                     54.19     53.34     35.43 
 H                     53.294    53.961    35.418 
 H                     54.879    53.682    34.658 
 H                     53.915    52.303    35.239 
 H                     54.78     52.63     37.33 
 Ca                    58.95     56.71     42.8 
 O                     60.52     56.47     44.9 
 H                     60.76     57.2      45.46 
 H                     60.99     55.72     45.27 
 
 Stoichiometry    C54H83CaN15O23
 Framework group  C1[X(C54H83CaN15O23)]
 Deg. of freedom   522
 Full point group                 C1      NOp   1
 Largest Abelian subgroup         C1      NOp   1
 Largest concise Abelian subgroup C1      NOp   1
                         Standard orientation:                         
 ---------------------------------------------------------------------
 Center     Atomic      Atomic             Coordinates (Angstroms)
 Number     Number       Type             X           Y           Z
 ---------------------------------------------------------------------
      1          6           0        1.288748    6.178350   -5.185185
      2          6           0        1.630872    5.546698   -3.848485
      3          8           0        1.308287    4.365713   -3.729690
      4          1           0        0.206864    6.265063   -5.279064
      5          1           0        1.738941    7.169107   -5.244996
      6          1           0        1.673094    5.554226   -5.991681
      7          7           0        2.397798    6.263025   -3.013679
      8          6           0        3.141415    5.709040   -1.898048
      9          6           0        2.207593    5.180297   -0.806028
     10          8           0        2.292354    4.013341   -0.426518
     11          6           0        4.273051    6.519323   -1.275278
     12          6           0        3.988307    7.991264   -1.004333
     13          8           0        3.289929    8.739384   -1.721260
     14          8           0        4.429882    8.510478    0.045633
     15          1           0        2.510362    7.239128   -3.186458
     16          1           0        3.627023    4.863741   -2.381531
     17          1           0        5.130269    6.407663   -1.933919
     18          1           0        4.460494    6.112169   -0.275883
     19          7           0        1.249036    6.043115   -0.475553
     20          6           0        0.150950    5.514248    0.313123
     21          6           0        0.549580    4.898092    1.641635
     22          8           0        1.470419    5.353720    2.300240
     23          6           0       -0.892091    6.633226    0.435405
     24          6           0       -1.552513    6.877488   -0.912066
     25          6           0       -2.430707    8.120576   -0.785149
     26          6           0       -3.635059    8.087351   -1.721596
     27          7           0       -4.485472    9.280458   -1.546406
     28          1           0        1.252802    6.999865   -0.812918
     29          1           0       -0.282944    4.687916   -0.251333
     30          1           0       -0.448426    7.522712    0.881471
     31          1           0       -1.664021    6.263886    1.102123
     32          1           0       -2.231668    6.048538   -1.097787
     33          1           0       -0.961510    7.031947   -1.817305
     34          1           0       -1.782932    8.917759   -1.157019
     35          1           0       -2.693878    8.344353    0.252620
     36          1           0       -4.203634    7.168267   -1.571239
     37          1           0       -3.335852    8.058439   -2.764783
     38          1           0       -4.011929   10.055520   -1.990067
     39          1           0       -5.346103    9.142165   -2.056102
     40          1           0       -4.584448    9.390996   -0.554648
     41          7           0       -0.261329    3.941203    2.124325
     42          6           0       -0.068308    3.277897    3.398047
     43          6           0        0.716000    1.971825    3.334522
     44          8           0        0.676125    1.148301    4.236641
     45          6           0       -1.407697    3.173926    4.131618
     46          6           0       -2.472923    2.294509    3.494343
     47          8           0       -2.423858    1.044572    3.568173
     48          8           0       -3.457283    2.862670    2.966965
     49          1           0       -1.006601    3.607781    1.528506
     50          1           0        0.546919    3.989333    3.933916
     51          1           0       -1.816075    4.168277    4.306526
     52          1           0       -1.278009    2.817918    5.146773
     53          7           0        1.728807    1.998690    2.472895
     54          6           0        2.761803    0.991814    2.273592
     55          6           0        3.893156    1.128243    3.280184
     56          8           0        3.833046    1.846961    4.274383
     57          1           0        1.685658    2.729851    1.775657
     58          1           0        3.331588    1.169027    1.362692
     59          1           0        2.289498    0.023063    2.163825
     60          7           0        5.043802    0.449345    3.145606
     61          6           0        5.263867   -0.755177    2.372561
     62          6           0        6.747637   -1.076528    2.196893
     63          8           0        7.405909   -1.323083    3.207630
     64          6           0        4.558149   -1.888032    3.113845
     65          6           0        4.835554   -3.302003    2.608837
     66          7           0        4.145713   -4.309668    3.122578
     67          8           0        5.670020   -3.637091    1.773384
     68          1           0        5.745028    0.722930    3.824968
     69          1           0        4.709423   -0.597315    1.446402
     70          1           0        3.490861   -1.853999    3.311677
     71          1           0        4.961701   -1.901117    4.127588
     72          1           0        3.561828   -3.992755    3.882016
     73          1           0        4.408310   -5.265923    2.905281
     74          7           0        7.219655   -1.169616    0.954663
     75          6           0        6.651556   -0.546685   -0.223734
     76          6           0        5.576805   -1.296638   -1.011503
     77          8           0        5.084546   -0.791570   -2.011697
     78          1           0        8.173393   -1.492620    0.904148
     79          1           0        7.402703   -0.303957   -0.968154
     80          1           0        6.278362    0.446340    0.008274
     81          7           0        5.165789   -2.528667   -0.695796
     82          6           0        4.099076   -3.233235   -1.366622
     83          6           0        2.892513   -2.619624   -0.666702
     84          8           0        2.984735   -2.086538    0.441231
     85          6           0        4.324399   -4.745690   -1.330438
     86          6           0        5.675445   -5.196762   -1.812631
     87          6           0        5.685051   -5.727999   -3.118117
     88          6           0        6.863217   -5.031049   -1.094065
     89          6           0        6.847550   -6.274296   -3.664978
     90          6           0        8.040202   -5.538557   -1.662961
     91          6           0        8.024320   -6.232248   -2.889966
     92          8           0        9.272183   -6.477586   -3.377355
     93          1           0        5.470181   -2.898453    0.192125
     94          1           0        3.896578   -2.935491   -2.396060
     95          1           0        3.556499   -5.202861   -1.950215
     96          1           0        4.114912   -5.167196   -0.349496
     97          1           0        4.761770   -5.876774   -3.664759
     98          1           0        6.835223   -4.618766   -0.091748
     99          1           0        6.798663   -6.603439   -4.698552
    100          1           0        8.953740   -5.459778   -1.096180
    101          1           0        9.974328   -6.449472   -2.716521
    102          7           0        1.712780   -2.739951   -1.268324
    103          6           0        0.468088   -2.149929   -0.802903
    104          6           0       -0.522421   -3.154668   -0.245686
    105          8           0       -0.699607   -4.244806   -0.783554
    106          6           0       -0.222792   -1.253372   -1.834489
    107          6           0        0.668975   -0.072524   -2.214688
    108          6           0       -0.849648   -1.971631   -3.025352
    109          6           0        0.050194    1.026403   -3.074088
    110          1           0        1.742242   -3.199932   -2.167574
    111          1           0        0.669827   -1.440770    0.001706
    112          1           0       -1.067807   -0.770179   -1.353372
    113          1           0        1.586146   -0.367031   -2.720121
    114          1           0        0.996412    0.394766   -1.281239
    115          1           0       -1.536735   -2.799652   -2.824374
    116          1           0       -1.386879   -1.213985   -3.601422
    117          1           0        0.018270   -2.325814   -3.568374
    118          1           0       -0.289798    0.684190   -4.040677
    119          1           0       -0.833715    1.276028   -2.485113
    120          1           0        0.674925    1.909305   -3.174073
    121          7           0       -1.185959   -2.807107    0.864773
    122          6           0       -1.972487   -3.742890    1.641163
    123          6           0       -3.146312   -4.495564    1.019458
    124          8           0       -3.374809   -4.444580   -0.180079
    125          6           0       -1.048182   -4.716067    2.355508
    126          8           0        0.149872   -4.222377    2.922992
    127          1           0       -1.147007   -1.844945    1.159098
    128          1           0       -2.430077   -3.236296    2.495315
    129          1           0       -0.837008   -5.426624    1.552131
    130          1           0       -1.620988   -5.332382    3.049661
    131          1           0        0.213734   -3.288694    3.115492
    132          7           0       -4.000244   -5.163161    1.801580
    133          6           0       -5.163654   -5.735641    1.140866
    134          6           0       -6.248386   -4.789049    0.673618
    135          8           0       -6.638204   -3.890575    1.418055
    136          6           0       -5.745672   -6.832569    2.022175
    137          1           0       -3.913986   -5.274609    2.796637
    138          1           0       -4.901694   -6.327595    0.252909
    139          1           0       -5.024041   -7.587256    2.325319
    140          1           0       -6.228995   -6.500530    2.942419
    141          1           0       -6.535073   -7.392555    1.511333
    142          7           0       -6.832967   -5.030421   -0.507696
    143          6           0       -7.885640   -4.196063   -1.051597
    144          6           0       -7.500747   -2.755448   -1.384891
    145          8           0       -8.377038   -1.896677   -1.520265
    146          6           0       -9.197155   -4.430749   -0.311968
    147          1           0       -6.568109   -5.831236   -1.062534
    148          1           0       -7.900025   -4.757039   -1.980466
    149          1           0       -9.381204   -5.485340   -0.133743
    150          1           0       -9.163295   -3.850090    0.605359
    151          1           0      -10.044030   -4.078480   -0.897553
    152          7           0       -6.184268   -2.526287   -1.441186
    153          6           0       -5.623648   -1.305345   -1.991191
    154          6           0       -5.509629   -1.433519   -3.498762
    155          8           0       -5.712485   -0.384968   -4.123494
    156          6           0       -4.368321   -0.947213   -1.211707
    157          6           0       -3.890877    0.456301   -1.599388
    158          6           0       -4.670836    1.452450   -0.748888
    159          8           0       -4.537048    1.503219    0.490355
    160          8           0       -5.603359    2.113732   -1.255256
    161          1           0       -5.556097   -3.245863   -1.105908
    162          1           0       -6.341897   -0.487854   -1.895657
    163          1           0       -3.605545   -1.620456   -1.618544
    164          1           0       -4.342583   -1.126952   -0.140665
    165          1           0       -3.951978    0.551373   -2.683882
    166          1           0       -2.871183    0.527935   -1.229533
    167          7           0       -5.211404   -2.607412   -4.053054
    168          6           0       -5.218983   -2.822481   -5.489469
    169          1           0       -6.221344   -2.641357   -5.878143
    170          1           0       -4.516549   -2.137345   -5.963646
    171          1           0       -4.926820   -3.849988   -5.704747
    172          1           0       -5.121956   -3.424121   -3.466892
    173         20           0       -5.456684    1.396095    2.905680
    174          8           0       -4.829056    1.609008    5.453866
    175          1           0       -5.152418    2.304355    6.016031
    176          1           0       -4.252959    1.091773    6.020328
 ---------------------------------------------------------------------
 Rotational constants (GHZ):           0.0154704           0.0138633           0.0095876
 Standard basis: SVP (5D, 7F)
 There are  1809 symmetry adapted cartesian basis functions of A   symmetry.
 There are  1717 symmetry adapted basis functions of A   symmetry.
  1717 basis functions,  2922 primitive gaussians,  1809 cartesian basis functions
   358 alpha electrons      358 beta electrons
       nuclear repulsion energy     19870.1634676259 Hartrees.
 NAtoms=  176 NActive=  176 NUniq=  176 SFac= 1.00D+00 NAtFMM=   60 NAOKFM=T Big=T
 Integral buffers will be    131072 words long.
 Raffenetti 2 integral format.
 Two-electron integral symmetry is turned on.
 One-electron integrals computed using PRISM.
 NBasis=  1717 RedAO= T EigKep=  3.03D-04  NBF=  1717
 NBsUse=  1717 1.00D-06 EigRej= -1.00D+00 NBFU=  1717
 ExpMin= 1.98D-02 ExpMax= 3.51D+04 ExpMxC= 5.28D+03 IAcc=3 IRadAn=         5 AccDes= 0.00D+00
 Harris functional with IExCor=  402 and IRadAn=       5 diagonalized for initial guess.
 HarFok:  IExCor=  402 AccDes= 0.00D+00 IRadAn=         5 IDoV= 1 UseB2=F ITyADJ=14
 ICtDFT=  3500011 ScaDFX=  1.000000  1.000000  1.000000  1.000000
 FoFCou: FMM=F IPFlag=           0 FMFlag=      100000 FMFlg1=        2001
         NFxFlg=           0 DoJE=T BraDBF=F KetDBF=T FulRan=T
         wScrn=  0.000000 ICntrl=       500 IOpCl=  0 I1Cent=   200000004 NGrid=           0
         NMat0=    1 NMatS0=      1 NMatT0=    0 NMatD0=    1 NMtDS0=    0 NMtDT0=    0
 Petite list used in FoFCou.
 Requested convergence on RMS density matrix=1.00D-08 within 128 cycles.
 Requested convergence on MAX density matrix=1.00D-06.
 Requested convergence on             energy=1.00D-06.
 No special actions if energy rises.
 EnCoef did     2 forward-backward iterations
 EnCoef did     2 forward-backward iterations
 EnCoef did     2 forward-backward iterations
 EnCoef did     3 forward-backward iterations
 EnCoef did     6 forward-backward iterations
 EnCoef did    45 forward-backward iterations
 EnCoef did    53 forward-backward iterations
 EnCoef did    70 forward-backward iterations
 Rare condition: small coef for last iteration:  0.111D-15
 EnCoef did   100 forward-backward iterations
 EnCoef did   100 forward-backward iterations
 Rare condition: small coef for last iteration: -0.800D-15
 EnCoef did   100 forward-backward iterations
 EnCoef did   100 forward-backward iterations
 Rare condition: small coef for last iteration: -0.166D-15
 EnCoef did   100 forward-backward iterations
 EnCoef did   100 forward-backward iterations
 Rare condition: small coef for last iteration:  0.252D-14
 Restarting incremental Fock formation.
 EnCoef did   100 forward-backward iterations
 EnCoef did    49 forward-backward iterations
 Rare condition: small coef for last iteration:  0.178D-14
 EnCoef did   100 forward-backward iterations
 EnCoef did   100 forward-backward iterations
 Rare condition: small coef for last iteration: -0.837D-15
 EnCoef did   100 forward-backward iterations
 EnCoef did   100 forward-backward iterations
 Rare condition: small coef for last iteration:  0.686D-15
 EnCoef did   100 forward-backward iterations
 EnCoef did   100 forward-backward iterations
 EnCoef did   100 forward-backward iterations
 EnCoef did   100 forward-backward iterations
 EnCoef did   100 forward-backward iterations
 Rare condition: small coef for last iteration:  0.529D-05
 EnCoef did   100 forward-backward iterations
 Rare condition: small coef for last iteration:  0.328D-15
 EnCoef did   100 forward-backward iterations
 Rare condition: small coef for last iteration: -0.636D-15
 EnCoef did   100 forward-backward iterations
 EnCoef did   100 forward-backward iterations
 Rare condition: small coef for last iteration:  0.153D-14
 EnCoef did   100 forward-backward iterations
 EnCoef did   100 forward-backward iterations
 EnCoef did   100 forward-backward iterations
 EnCoef did   100 forward-backward iterations
 EnCoef did   100 forward-backward iterations
 Restarting incremental Fock formation.
 EnCoef did   100 forward-backward iterations
 EnCoef did   100 forward-backward iterations
 EnCoef did   100 forward-backward iterations
 SCF Done:  E(RB3LYP) =  -5333.26436982     A.U. after   55 cycles
            NFock= 55  Conv=0.15D-08     -V/T= 2.0081
 SCF density gives NOpUse=  1 NOpAll=  1.
 Hyperfine terms turned off by default for NAtoms > 100.

 **********************************************************************

            Population analysis using the SCF density.

 **********************************************************************

 Orbital symmetries:
 BldTbl:  Degeneracy threshold= 1.00D-02
       Occupied  (A) (A) (A) (A) (A) (A) (A) (A) (A) (A) (A) (A)
                 (A) (A) (A) (A) (A) (A) (A) (A) (A) (A) (A) (A)
                 (A) (A) (A) (A) (A) (A) (A) (A) (A) (A) (A) (A)
                 (A) (A) (A) (A) (A) (A) (A) (A) (A) (A) (A) (A)
                 (A) (A) (A) (A) (A) (A) (A) (A) (A) (A) (A) (A)
                 (A) (A) (A) (A) (A) (A) (A) (A) (A) (A) (A) (A)
                 (A) (A) (A) (A) (A) (A) (A) (A) (A) (A) (A) (A)
                 (A) (A) (A) (A) (A) (A) (A) (A) (A) (A) (A) (A)
                 (A) (A) (A) (A) (A) (A) (A) (A) (A) (A) (A) (A)
                 (A) (A) (A) (A) (A) (A) (A) (A) (A) (A) (A) (A)
                 (A) (A) (A) (A) (A) (A) (A) (A) (A) (A) (A) (A)
                 (A) (A) (A) (A) (A) (A) (A) (A) (A) (A) (A) (A)
                 (A) (A) (A) (A) (A) (A) (A) (A) (A) (A) (A) (A)
                 (A) (A) (A) (A) (A) (A) (A) (A) (A) (A) (A) (A)
                 (A) (A) (A) (A) (A) (A) (A) (A) (A) (A) (A) (A)
                 (A) (A) (A) (A) (A) (A) (A) (A) (A) (A) (A) (A)
                 (A) (A) (A) (A) (A) (A) (A) (A) (A) (A) (A) (A)
                 (A) (A) (A) (A) (A) (A) (A) (A) (A) (A) (A) (A)
                 (A) (A) (A) (A) (A) (A) (A) (A) (A) (A) (A) (A)
                 (A) (A) (A) (A) (A) (A) (A) (A) (A) (A) (A) (A)
                 (A) (A) (A) (A) (A) (A) (A) (A) (A) (A) (A) (A)
                 (A) (A) (A) (A) (A) (A) (A) (A) (A) (A) (A) (A)
                 (A) (A) (A) (A) (A) (A) (A) (A) (A) (A) (A) (A)
                 (A) (A) (A) (A) (A) (A) (A) (A) (A) (A) (A) (A)
                 (A) (A) (A) (A) (A) (A) (A) (A) (A) (A) (A) (A)
                 (A) (A) (A) (A) (A) (A) (A) (A) (A) (A) (A) (A)
                 (A) (A) (A) (A) (A) (A) (A) (A) (A) (A) (A) (A)
                 (A) (A) (A) (A) (A) (A) (A) (A) (A) (A) (A) (A)
                 (A) (A) (A) (A) (A) (A) (A) (A) (A) (A) (A) (A)
                 (A) (A) (A) (A) (A) (A) (A) (A) (A) (A)
       Virtual   (A) (A) (A) (A) (A) (A) (A) (A) (A) (A) (A) (A)
                 (A) (A) (A) (A) (A) (A) (A) (A) (A) (A) (A) (A)
                 (A) (A) (A) (A) (A) (A) (A) (A) (A) (A) (A) (A)
                 (A) (A) (A) (A) (A) (A) (A) (A) (A) (A) (A) (A)
                 (A) (A) (A) (A) (A) (A) (A) (A) (A) (A) (A) (A)
                 (A) (A) (A) (A) (A) (A) (A) (A) (A) (A) (A) (A)
                 (A) (A) (A) (A) (A) (A) (A) (A) (A) (A) (A) (A)
                 (A) (A) (A) (A) (A) (A) (A) (A) (A) (A) (A) (A)
                 (A) (A) (A) (A) (A) (A) (A) (A) (A) (A) (A) (A)
                 (A) (A) (A) (A) (A) (A) (A) (A) (A) (A) (A) (A)
                 (A) (A) (A) (A) (A) (A) (A) (A) (A) (A) (A) (A)
                 (A) (A) (A) (A) (A) (A) (A) (A) (A) (A) (A) (A)
                 (A) (A) (A) (A) (A) (A) (A) (A) (A) (A) (A) (A)
                 (A) (A) (A) (A) (A) (A) (A) (A) (A) (A) (A) (A)
                 (A) (A) (A) (A) (A) (A) (A) (A) (A) (A) (A) (A)
                 (A) (A) (A) (A) (A) (A) (A) (A) (A) (A) (A) (A)
                 (A) (A) (A) (A) (A) (A) (A) (A) (A) (A) (A) (A)
                 (A) (A) (A) (A) (A) (A) (A) (A) (A) (A) (A) (A)
                 (A) (A) (A) (A) (A) (A) (A) (A) (A) (A) (A) (A)
                 (A) (A) (A) (A) (A) (A) (A) (A) (A) (A) (A) (A)
                 (A) (A) (A) (A) (A) (A) (A) (A) (A) (A) (A) (A)
                 (A) (A) (A) (A) (A) (A) (A) (A) (A) (A) (A) (A)
                 (A) (A) (A) (A) (A) (A) (A) (A) (A) (A) (A) (A)
                 (A) (A) (A) (A) (A) (A) (A) (A) (A) (A) (A) (A)
                 (A) (A) (A) (A) (A) (A) (A) (A) (A) (A) (A) (A)
                 (A) (A) (A) (A) (A) (A) (A) (A) (A) (A) (A) (A)
                 (A) (A) (A) (A) (A) (A) (A) (A) (A) (A) (A) (A)
                 (A) (A) (A) (A) (A) (A) (A) (A) (A) (A) (A) (A)
                 (A) (A) (A) (A) (A) (A) (A) (A) (A) (A) (A) (A)
                 (A) (A) (A) (A) (A) (A) (A) (A) (A) (A) (A) (A)
                 (A) (A) (A) (A) (A) (A) (A) (A) (A) (A) (A) (A)
                 (A) (A) (A) (A) (A) (A) (A) (A) (A) (A) (A) (A)
                 (A) (A) (A) (A) (A) (A) (A) (A) (A) (A) (A) (A)
                 (A) (A) (A) (A) (A) (A) (A) (A) (A) (A) (A) (A)
                 (A) (A) (A) (A) (A) (A) (A) (A) (A) (A) (A) (A)
                 (A) (A) (A) (A) (A) (A) (A) (A) (A) (A) (A) (A)
                 (A) (A) (A) (A) (A) (A) (A) (A) (A) (A) (A) (A)
                 (A) (A) (A) (A) (A) (A) (A) (A) (A) (A) (A) (A)
                 (A) (A) (A) (A) (A) (A) (A) (A) (A) (A) (A) (A)
                 (A) (A) (A) (A) (A) (A) (A) (A) (A) (A) (A) (A)
                 (A) (A) (A) (A) (A) (A) (A) (A) (A) (A) (A) (A)
                 (A) (A) (A) (A) (A) (A) (A) (A) (A) (A) (A) (A)
                 (A) (A) (A) (A) (A) (A) (A) (A) (A) (A) (A) (A)
                 (A) (A) (A) (A) (A) (A) (A) (A) (A) (A) (A) (A)
                 (A) (A) (A) (A) (A) (A) (A) (A) (A) (A) (A) (A)
                 (A) (A) (A) (A) (A) (A) (A) (A) (A) (A) (A) (A)
                 (A) (A) (A) (A) (A) (A) (A) (A) (A) (A) (A) (A)
                 (A) (A) (A) (A) (A) (A) (A) (A) (A) (A) (A) (A)
                 (A) (A) (A) (A) (A) (A) (A) (A) (A) (A) (A) (A)
                 (A) (A) (A) (A) (A) (A) (A) (A) (A) (A) (A) (A)
                 (A) (A) (A) (A) (A) (A) (A) (A) (A) (A) (A) (A)
                 (A) (A) (A) (A) (A) (A) (A) (A) (A) (A) (A) (A)
                 (A) (A) (A) (A) (A) (A) (A) (A) (A) (A) (A) (A)
                 (A) (A) (A) (A) (A) (A) (A) (A) (A) (A) (A) (A)
                 (A) (A) (A) (A) (A) (A) (A) (A) (A) (A) (A) (A)
                 (A) (A) (A) (A) (A) (A) (A) (A) (A) (A) (A) (A)
                 (A) (A) (A) (A) (A) (A) (A) (A) (A) (A) (A) (A)
                 (A) (A) (A) (A) (A) (A) (A) (A) (A) (A) (A) (A)
                 (A) (A) (A) (A) (A) (A) (A) (A) (A) (A) (A) (A)
                 (A) (A) (A) (A) (A) (A) (A) (A) (A) (A) (A) (A)
                 (A) (A) (A) (A) (A) (A) (A) (A) (A) (A) (A) (A)
                 (A) (A) (A) (A) (A) (A) (A) (A) (A) (A) (A) (A)
                 (A) (A) (A) (A) (A) (A) (A) (A) (A) (A) (A) (A)
                 (A) (A) (A) (A) (A) (A) (A) (A) (A) (A) (A) (A)
                 (A) (A) (A) (A) (A) (A) (A) (A) (A) (A) (A) (A)
                 (A) (A) (A) (A) (A) (A) (A) (A) (A) (A) (A) (A)
                 (A) (A) (A) (A) (A) (A) (A) (A) (A) (A) (A) (A)
                 (A) (A) (A) (A) (A) (A) (A) (A) (A) (A) (A) (A)
                 (A) (A) (A) (A) (A) (A) (A) (A) (A) (A) (A) (A)
                 (A) (A) (A) (A) (A) (A) (A) (A) (A) (A) (A) (A)
                 (A) (A) (A) (A) (A) (A) (A) (A) (A) (A) (A) (A)
                 (A) (A) (A) (A) (A) (A) (A) (A) (A) (A) (A) (A)
                 (A) (A) (A) (A) (A) (A) (A) (A) (A) (A) (A) (A)
                 (A) (A) (A) (A) (A) (A) (A) (A) (A) (A) (A) (A)
                 (A) (A) (A) (A) (A) (A) (A) (A) (A) (A) (A) (A)
                 (A) (A) (A) (A) (A) (A) (A) (A) (A) (A) (A) (A)
                 (A) (A) (A) (A) (A) (A) (A) (A) (A) (A) (A) (A)
                 (A) (A) (A) (A) (A) (A) (A) (A) (A) (A) (A) (A)
                 (A) (A) (A) (A) (A) (A) (A) (A) (A) (A) (A) (A)
                 (A) (A) (A) (A) (A) (A) (A) (A) (A) (A) (A) (A)
                 (A) (A) (A) (A) (A) (A) (A) (A) (A) (A) (A) (A)
                 (A) (A) (A) (A) (A) (A) (A) (A) (A) (A) (A) (A)
                 (A) (A) (A) (A) (A) (A) (A) (A) (A) (A) (A) (A)
                 (A) (A) (A) (A) (A) (A) (A) (A) (A) (A) (A) (A)
                 (A) (A) (A) (A) (A) (A) (A) (A) (A) (A) (A) (A)
                 (A) (A) (A) (A) (A) (A) (A) (A) (A) (A) (A) (A)
                 (A) (A) (A) (A) (A) (A) (A) (A) (A) (A) (A) (A)
                 (A) (A) (A) (A) (A) (A) (A) (A) (A) (A) (A) (A)
                 (A) (A) (A) (A) (A) (A) (A) (A) (A) (A) (A) (A)
                 (A) (A) (A) (A) (A) (A) (A) (A) (A) (A) (A) (A)
                 (A) (A) (A) (A) (A) (A) (A) (A) (A) (A) (A) (A)
                 (A) (A) (A) (A) (A) (A) (A) (A) (A) (A) (A) (A)
                 (A) (A) (A) (A) (A) (A) (A) (A) (A) (A) (A) (A)
                 (A) (A) (A) (A) (A) (A) (A) (A) (A) (A) (A) (A)
                 (A) (A) (A) (A) (A) (A) (A) (A) (A) (A) (A) (A)
                 (A) (A) (A) (A) (A) (A) (A) (A) (A) (A) (A) (A)
                 (A) (A) (A) (A) (A) (A) (A) (A) (A) (A) (A) (A)
                 (A) (A) (A) (A) (A) (A) (A) (A) (A) (A) (A) (A)
                 (A) (A) (A) (A) (A) (A) (A) (A) (A) (A) (A) (A)
                 (A) (A) (A) (A) (A) (A) (A) (A) (A) (A) (A) (A)
                 (A) (A) (A) (A) (A) (A) (A) (A) (A) (A) (A) (A)
                 (A) (A) (A) (A) (A) (A) (A) (A) (A) (A) (A) (A)
                 (A) (A) (A) (A) (A) (A) (A) (A) (A) (A) (A) (A)
                 (A) (A) (A) (A) (A) (A) (A) (A) (A) (A) (A) (A)
                 (A) (A) (A) (A) (A) (A) (A) (A) (A) (A) (A) (A)
                 (A) (A) (A) (A) (A) (A) (A) (A) (A) (A) (A) (A)
                 (A) (A) (A) (A) (A) (A) (A) (A) (A) (A) (A) (A)
                 (A) (A) (A) (A) (A) (A) (A) (A) (A) (A) (A) (A)
                 (A) (A) (A) (A) (A) (A) (A) (A) (A) (A) (A) (A)
                 (A) (A) (A) (A) (A) (A) (A) (A) (A) (A) (A) (A)
                 (A) (A) (A) (A) (A) (A) (A) (A) (A) (A) (A) (A)
                 (A) (A) (A) (A) (A) (A) (A) (A) (A) (A) (A) (A)
                 (A) (A) (A) (A) (A) (A) (A) (A) (A) (A) (A) (A)
                 (A) (A) (A)
 The electronic state is 1-A.
 Alpha  occ. eigenvalues -- -145.46550 -19.21680 -19.14270 -19.13507 -19.11112
 Alpha  occ. eigenvalues --  -19.11108 -19.08954 -19.08764 -19.08635 -19.08432
 Alpha  occ. eigenvalues --  -19.08377 -19.07074 -19.07009 -19.06862 -19.05814
 Alpha  occ. eigenvalues --  -19.05736 -19.05598 -19.05222 -19.05033 -19.04735
 Alpha  occ. eigenvalues --  -19.04098 -19.01022 -18.99672 -18.98426 -15.52515
 Alpha  occ. eigenvalues --  -14.58955 -14.37938 -14.37465 -14.36031 -14.34712
 Alpha  occ. eigenvalues --  -14.34707 -14.34593 -14.34354 -14.34186 -14.33410
 Alpha  occ. eigenvalues --  -14.33129 -14.31791 -14.31457 -14.31131 -14.30737
 Alpha  occ. eigenvalues --  -12.66132 -12.66045 -12.66034 -10.34847 -10.30160
 Alpha  occ. eigenvalues --  -10.29730 -10.27959 -10.27761 -10.27385 -10.27378
 Alpha  occ. eigenvalues --  -10.27319 -10.26786 -10.25919 -10.25859 -10.25449
 Alpha  occ. eigenvalues --  -10.25170 -10.25001 -10.24858 -10.24760 -10.24750
 Alpha  occ. eigenvalues --  -10.24418 -10.24280 -10.23996 -10.23927 -10.23729
 Alpha  occ. eigenvalues --  -10.23553 -10.22388 -10.22002 -10.21933 -10.21915
 Alpha  occ. eigenvalues --  -10.21850 -10.21601 -10.21578 -10.21578 -10.21102
 Alpha  occ. eigenvalues --  -10.20497 -10.20275 -10.20273 -10.18822 -10.18529
 Alpha  occ. eigenvalues --  -10.18518 -10.18214 -10.18110 -10.17581 -10.17532
 Alpha  occ. eigenvalues --  -10.17521 -10.17472 -10.17316 -10.17257 -10.16926
 Alpha  occ. eigenvalues --  -10.16645 -10.16028 -10.15671 -10.14896 -10.14577
 Alpha  occ. eigenvalues --  -10.13653 -10.13420  -1.89236  -1.16868  -1.16259
 Alpha  occ. eigenvalues --   -1.16041  -1.14363  -1.07717  -1.05352  -1.04035
 Alpha  occ. eigenvalues --   -1.03078  -1.02904  -1.02248  -1.01581  -1.01217
 Alpha  occ. eigenvalues --   -1.01179  -1.00960  -1.00784  -0.99926  -0.99793
 Alpha  occ. eigenvalues --   -0.99395  -0.99273  -0.99119  -0.98267  -0.98005
 Alpha  occ. eigenvalues --   -0.97638  -0.94302  -0.94089  -0.93802  -0.92132
 Alpha  occ. eigenvalues --   -0.91380  -0.91292  -0.91035  -0.90642  -0.90244
 Alpha  occ. eigenvalues --   -0.90077  -0.89449  -0.89382  -0.88804  -0.88797
 Alpha  occ. eigenvalues --   -0.88294  -0.88280  -0.87327  -0.86306  -0.83162
 Alpha  occ. eigenvalues --   -0.82627  -0.81532  -0.81239  -0.80008  -0.78186
 Alpha  occ. eigenvalues --   -0.77086  -0.76830  -0.76747  -0.76109  -0.75949
 Alpha  occ. eigenvalues --   -0.75382  -0.74507  -0.73713  -0.72989  -0.72749
 Alpha  occ. eigenvalues --   -0.72556  -0.71854  -0.71357  -0.71177  -0.69906
 Alpha  occ. eigenvalues --   -0.69485  -0.68555  -0.68523  -0.67763  -0.67718
 Alpha  occ. eigenvalues --   -0.67465  -0.66421  -0.65045  -0.64350  -0.64043
 Alpha  occ. eigenvalues --   -0.63472  -0.62674  -0.61526  -0.61094  -0.60869
 Alpha  occ. eigenvalues --   -0.60811  -0.60715  -0.60456  -0.60096  -0.59563
 Alpha  occ. eigenvalues --   -0.59200  -0.58564  -0.58050  -0.57727  -0.57675
 Alpha  occ. eigenvalues --   -0.57338  -0.57139  -0.56923  -0.56377  -0.56245
 Alpha  occ. eigenvalues --   -0.56102  -0.55744  -0.55266  -0.54720  -0.53934
 Alpha  occ. eigenvalues --   -0.53778  -0.53424  -0.53403  -0.53336  -0.52373
 Alpha  occ. eigenvalues --   -0.52315  -0.52038  -0.51772  -0.51571  -0.50859
 Alpha  occ. eigenvalues --   -0.50352  -0.50157  -0.49840  -0.49789  -0.49461
 Alpha  occ. eigenvalues --   -0.49243  -0.48947  -0.48800  -0.48532  -0.48202
 Alpha  occ. eigenvalues --   -0.48084  -0.47797  -0.47405  -0.47222  -0.46916
 Alpha  occ. eigenvalues --   -0.46828  -0.46681  -0.46146  -0.45838  -0.45476
 Alpha  occ. eigenvalues --   -0.45374  -0.45152  -0.44978  -0.44954  -0.44789
 Alpha  occ. eigenvalues --   -0.44432  -0.44110  -0.43825  -0.43734  -0.43645
 Alpha  occ. eigenvalues --   -0.43345  -0.43239  -0.43012  -0.42905  -0.42765
 Alpha  occ. eigenvalues --   -0.42662  -0.42576  -0.42477  -0.42431  -0.42293
 Alpha  occ. eigenvalues --   -0.42186  -0.41668  -0.41506  -0.41432  -0.41345
 Alpha  occ. eigenvalues --   -0.41210  -0.41163  -0.41029  -0.40899  -0.40501
 Alpha  occ. eigenvalues --   -0.40242  -0.40161  -0.40032  -0.39981  -0.39923
 Alpha  occ. eigenvalues --   -0.39796  -0.39606  -0.39514  -0.39385  -0.39282
 Alpha  occ. eigenvalues --   -0.39180  -0.39077  -0.38900  -0.38795  -0.38776
 Alpha  occ. eigenvalues --   -0.38657  -0.38476  -0.38369  -0.38012  -0.37847
 Alpha  occ. eigenvalues --   -0.37836  -0.37812  -0.37570  -0.37432  -0.37204
 Alpha  occ. eigenvalues --   -0.36775  -0.36634  -0.36547  -0.36399  -0.36268
 Alpha  occ. eigenvalues --   -0.36226  -0.36136  -0.36010  -0.35850  -0.35575
 Alpha  occ. eigenvalues --   -0.35423  -0.35187  -0.35177  -0.34891  -0.34737
 Alpha  occ. eigenvalues --   -0.34674  -0.34306  -0.34214  -0.34085  -0.33979
 Alpha  occ. eigenvalues --   -0.33619  -0.33450  -0.33239  -0.33219  -0.33040
 Alpha  occ. eigenvalues --   -0.32939  -0.32502  -0.32375  -0.32147  -0.31925
 Alpha  occ. eigenvalues --   -0.31656  -0.31174  -0.31049  -0.30985  -0.30248
 Alpha  occ. eigenvalues --   -0.29731  -0.29359  -0.28972  -0.28967  -0.28637
 Alpha  occ. eigenvalues --   -0.28369  -0.27584  -0.26923  -0.26385  -0.26287
 Alpha  occ. eigenvalues --   -0.26209  -0.26043  -0.25416  -0.24900  -0.24723
 Alpha  occ. eigenvalues --   -0.24679  -0.24648  -0.24467  -0.24384  -0.24259
 Alpha  occ. eigenvalues --   -0.24168  -0.24140  -0.23789  -0.23141  -0.23008
 Alpha  occ. eigenvalues --   -0.22884  -0.22290  -0.22090  -0.21912  -0.21477
 Alpha  occ. eigenvalues --   -0.21454  -0.21393  -0.21297  -0.20920  -0.20880
 Alpha  occ. eigenvalues --   -0.20703  -0.20540  -0.20098  -0.19614  -0.17140
 Alpha  occ. eigenvalues --   -0.16409  -0.16042  -0.12719
 Alpha virt. eigenvalues --   -0.11922  -0.10903  -0.05028  -0.04370  -0.01999
 Alpha virt. eigenvalues --   -0.00955  -0.00869  -0.00705  -0.00102   0.00050
 Alpha virt. eigenvalues --    0.00901   0.00946   0.01451   0.01781   0.02203
 Alpha virt. eigenvalues --    0.02602   0.02824   0.02881   0.03110   0.03368
 Alpha virt. eigenvalues --    0.03374   0.03620   0.03878   0.04425   0.04568
 Alpha virt. eigenvalues --    0.04654   0.04853   0.04936   0.05225   0.05516
 Alpha virt. eigenvalues --    0.05713   0.05798   0.05894   0.06056   0.06210
 Alpha virt. eigenvalues --    0.06344   0.06767   0.07010   0.07316   0.07519
 Alpha virt. eigenvalues --    0.07751   0.07860   0.07956   0.08102   0.08380
 Alpha virt. eigenvalues --    0.08526   0.08791   0.09097   0.09683   0.09875
 Alpha virt. eigenvalues --    0.10007   0.10218   0.10279   0.10386   0.10744
 Alpha virt. eigenvalues --    0.10908   0.10960   0.11519   0.11663   0.11722
 Alpha virt. eigenvalues --    0.11880   0.12071   0.12155   0.12255   0.12450
 Alpha virt. eigenvalues --    0.12658   0.12877   0.12936   0.13049   0.13107
 Alpha virt. eigenvalues --    0.13172   0.13415   0.13687   0.13941   0.14025
 Alpha virt. eigenvalues --    0.14170   0.14460   0.14664   0.14805   0.14953
 Alpha virt. eigenvalues --    0.15174   0.15256   0.15377   0.15484   0.15501
 Alpha virt. eigenvalues --    0.15855   0.16132   0.16231   0.16389   0.16466
 Alpha virt. eigenvalues --    0.16713   0.16898   0.17061   0.17140   0.17664
 Alpha virt. eigenvalues --    0.17966   0.18088   0.18182   0.18380   0.18562
 Alpha virt. eigenvalues --    0.18765   0.18867   0.19042   0.19201   0.19242
 Alpha virt. eigenvalues --    0.19443   0.19552   0.19907   0.20069   0.20472
 Alpha virt. eigenvalues --    0.20715   0.20924   0.21002   0.21195   0.21306
 Alpha virt. eigenvalues --    0.21516   0.21740   0.21968   0.22268   0.22454
 Alpha virt. eigenvalues --    0.22615   0.22742   0.22890   0.23076   0.23315
 Alpha virt. eigenvalues --    0.23768   0.24093   0.24193   0.24341   0.24592
 Alpha virt. eigenvalues --    0.24732   0.24939   0.25156   0.25344   0.25523
 Alpha virt. eigenvalues --    0.25657   0.25848   0.26130   0.26484   0.26712
 Alpha virt. eigenvalues --    0.26924   0.27299   0.27398   0.27620   0.27706
 Alpha virt. eigenvalues --    0.28016   0.28335   0.28464   0.28619   0.29118
 Alpha virt. eigenvalues --    0.29371   0.29740   0.30045   0.30397   0.30499
 Alpha virt. eigenvalues --    0.30655   0.30804   0.30930   0.31195   0.31477
 Alpha virt. eigenvalues --    0.31618   0.31892   0.32164   0.32304   0.32323
 Alpha virt. eigenvalues --    0.32483   0.32689   0.33299   0.33755   0.33793
 Alpha virt. eigenvalues --    0.33933   0.34369   0.34424   0.34721   0.34909
 Alpha virt. eigenvalues --    0.35131   0.35600   0.36794   0.36905   0.37085
 Alpha virt. eigenvalues --    0.37360   0.37567   0.38019   0.38362   0.38489
 Alpha virt. eigenvalues --    0.38801   0.38943   0.39238   0.39309   0.39548
 Alpha virt. eigenvalues --    0.39664   0.40180   0.40351   0.40683   0.40739
 Alpha virt. eigenvalues --    0.41107   0.41518   0.41620   0.41800   0.41895
 Alpha virt. eigenvalues --    0.42019   0.42141   0.42309   0.42692   0.43007
 Alpha virt. eigenvalues --    0.43103   0.43341   0.43622   0.44003   0.44174
 Alpha virt. eigenvalues --    0.44196   0.44526   0.44731   0.44841   0.44979
 Alpha virt. eigenvalues --    0.45104   0.45669   0.45931   0.46058   0.46284
 Alpha virt. eigenvalues --    0.46423   0.46530   0.46692   0.46953   0.47157
 Alpha virt. eigenvalues --    0.47416   0.47504   0.47757   0.48139   0.48212
 Alpha virt. eigenvalues --    0.48263   0.48390   0.48636   0.49009   0.49307
 Alpha virt. eigenvalues --    0.49501   0.49622   0.49683   0.50016   0.50150
 Alpha virt. eigenvalues --    0.50221   0.50400   0.50632   0.50853   0.51018
 Alpha virt. eigenvalues --    0.51491   0.51761   0.51982   0.52446   0.52600
 Alpha virt. eigenvalues --    0.52781   0.52905   0.52990   0.53103   0.53470
 Alpha virt. eigenvalues --    0.53717   0.53979   0.54118   0.54327   0.54425
 Alpha virt. eigenvalues --    0.54521   0.54593   0.54724   0.54858   0.54994
 Alpha virt. eigenvalues --    0.55082   0.55653   0.55770   0.55860   0.56194
 Alpha virt. eigenvalues --    0.56451   0.56550   0.56599   0.56917   0.57093
 Alpha virt. eigenvalues --    0.57216   0.57386   0.57681   0.57811   0.58154
 Alpha virt. eigenvalues --    0.58312   0.58617   0.58863   0.59043   0.59151
 Alpha virt. eigenvalues --    0.59178   0.59264   0.59519   0.59681   0.59985
 Alpha virt. eigenvalues --    0.60062   0.60171   0.60380   0.60473   0.60644
 Alpha virt. eigenvalues --    0.60709   0.60825   0.61209   0.61240   0.61435
 Alpha virt. eigenvalues --    0.61499   0.61825   0.61982   0.62148   0.62281
 Alpha virt. eigenvalues --    0.62375   0.62564   0.62723   0.62785   0.62840
 Alpha virt. eigenvalues --    0.62975   0.63095   0.63219   0.63352   0.63420
 Alpha virt. eigenvalues --    0.63705   0.63762   0.63855   0.63989   0.64280
 Alpha virt. eigenvalues --    0.64350   0.64469   0.64724   0.64880   0.64944
 Alpha virt. eigenvalues --    0.65039   0.65202   0.65265   0.65389   0.65505
 Alpha virt. eigenvalues --    0.65691   0.65782   0.65847   0.65975   0.66092
 Alpha virt. eigenvalues --    0.66142   0.66177   0.66257   0.66492   0.66544
 Alpha virt. eigenvalues --    0.66566   0.66641   0.66791   0.66846   0.67067
 Alpha virt. eigenvalues --    0.67142   0.67242   0.67424   0.67491   0.67580
 Alpha virt. eigenvalues --    0.67686   0.67870   0.67969   0.68021   0.68085
 Alpha virt. eigenvalues --    0.68149   0.68281   0.68431   0.68512   0.68562
 Alpha virt. eigenvalues --    0.68731   0.68872   0.68962   0.69085   0.69096
 Alpha virt. eigenvalues --    0.69326   0.69495   0.69589   0.69739   0.69778
 Alpha virt. eigenvalues --    0.69923   0.69965   0.70123   0.70165   0.70443
 Alpha virt. eigenvalues --    0.70473   0.70681   0.70919   0.70990   0.71141
 Alpha virt. eigenvalues --    0.71174   0.71252   0.71387   0.71605   0.71676
 Alpha virt. eigenvalues --    0.71964   0.72058   0.72216   0.72338   0.72519
 Alpha virt. eigenvalues --    0.72577   0.72783   0.72810   0.72947   0.73123
 Alpha virt. eigenvalues --    0.73188   0.73352   0.73497   0.73644   0.73880
 Alpha virt. eigenvalues --    0.73993   0.74204   0.74476   0.74556   0.74791
 Alpha virt. eigenvalues --    0.74958   0.75245   0.75317   0.75383   0.75651
 Alpha virt. eigenvalues --    0.75670   0.75839   0.76248   0.76312   0.76494
 Alpha virt. eigenvalues --    0.76723   0.77029   0.77153   0.77449   0.77741
 Alpha virt. eigenvalues --    0.77870   0.78036   0.78109   0.78422   0.78636
 Alpha virt. eigenvalues --    0.78758   0.79140   0.79306   0.79437   0.79981
 Alpha virt. eigenvalues --    0.80241   0.80380   0.80615   0.80690   0.80996
 Alpha virt. eigenvalues --    0.80998   0.81269   0.81353   0.81955   0.82210
 Alpha virt. eigenvalues --    0.82291   0.82610   0.82801   0.83055   0.83245
 Alpha virt. eigenvalues --    0.83448   0.83663   0.84043   0.84289   0.84488
 Alpha virt. eigenvalues --    0.84549   0.85125   0.85247   0.85631   0.86011
 Alpha virt. eigenvalues --    0.86415   0.86835   0.87048   0.87297   0.87541
 Alpha virt. eigenvalues --    0.87664   0.88069   0.88254   0.88559   0.89143
 Alpha virt. eigenvalues --    0.89299   0.89726   0.89976   0.90507   0.90826
 Alpha virt. eigenvalues --    0.90876   0.91093   0.91308   0.91551   0.91820
 Alpha virt. eigenvalues --    0.92299   0.92713   0.92801   0.93117   0.93435
 Alpha virt. eigenvalues --    0.93508   0.93893   0.94078   0.94226   0.94517
 Alpha virt. eigenvalues --    0.94810   0.95158   0.95324   0.95364   0.96010
 Alpha virt. eigenvalues --    0.96223   0.96443   0.96794   0.97090   0.97501
 Alpha virt. eigenvalues --    0.97832   0.98140   0.98411   0.98661   0.98922
 Alpha virt. eigenvalues --    0.99281   0.99482   0.99799   0.99902   1.00099
 Alpha virt. eigenvalues --    1.00414   1.00685   1.00769   1.00870   1.01224
 Alpha virt. eigenvalues --    1.01500   1.01859   1.02042   1.02411   1.02762
 Alpha virt. eigenvalues --    1.03153   1.03313   1.03344   1.03652   1.03848
 Alpha virt. eigenvalues --    1.04798   1.04875   1.05204   1.05247   1.05624
 Alpha virt. eigenvalues --    1.06209   1.06468   1.06943   1.07230   1.07414
 Alpha virt. eigenvalues --    1.08017   1.08067   1.08312   1.08459   1.08775
 Alpha virt. eigenvalues --    1.08907   1.09146   1.09488   1.09706   1.09858
 Alpha virt. eigenvalues --    1.10102   1.10336   1.10539   1.10855   1.11175
 Alpha virt. eigenvalues --    1.11522   1.11584   1.11841   1.11962   1.12418
 Alpha virt. eigenvalues --    1.12818   1.12984   1.13210   1.13728   1.13985
 Alpha virt. eigenvalues --    1.14044   1.14548   1.14844   1.15134   1.15288
 Alpha virt. eigenvalues --    1.15788   1.15874   1.16005   1.16355   1.16556
 Alpha virt. eigenvalues --    1.16915   1.17127   1.17276   1.17510   1.17756
 Alpha virt. eigenvalues --    1.18260   1.18753   1.18964   1.19131   1.19384
 Alpha virt. eigenvalues --    1.19509   1.19806   1.20055   1.20443   1.20617
 Alpha virt. eigenvalues --    1.20834   1.21134   1.21313   1.21376   1.21962
 Alpha virt. eigenvalues --    1.22461   1.22521   1.22957   1.23354   1.23497
 Alpha virt. eigenvalues --    1.23701   1.23828   1.24015   1.24242   1.24641
 Alpha virt. eigenvalues --    1.24762   1.24916   1.25004   1.25415   1.25768
 Alpha virt. eigenvalues --    1.25963   1.26339   1.26698   1.26837   1.27171
 Alpha virt. eigenvalues --    1.27341   1.27606   1.28079   1.28290   1.28570
 Alpha virt. eigenvalues --    1.28682   1.28830   1.29324   1.29485   1.29929
 Alpha virt. eigenvalues --    1.30185   1.30579   1.30896   1.31304   1.31725
 Alpha virt. eigenvalues --    1.32140   1.32350   1.32525   1.32793   1.32864
 Alpha virt. eigenvalues --    1.33047   1.33232   1.33368   1.33577   1.33660
 Alpha virt. eigenvalues --    1.33874   1.34241   1.34521   1.34634   1.34896
 Alpha virt. eigenvalues --    1.35210   1.35387   1.35535   1.36425   1.36579
 Alpha virt. eigenvalues --    1.36803   1.37198   1.37379   1.37676   1.37847
 Alpha virt. eigenvalues --    1.38382   1.38621   1.39265   1.39645   1.39931
 Alpha virt. eigenvalues --    1.40024   1.40551   1.40941   1.41059   1.41259
 Alpha virt. eigenvalues --    1.41688   1.41862   1.42339   1.42558   1.42938
 Alpha virt. eigenvalues --    1.43075   1.43815   1.43960   1.44417   1.44806
 Alpha virt. eigenvalues --    1.45117   1.45225   1.45675   1.46220   1.46413
 Alpha virt. eigenvalues --    1.46545   1.46721   1.47068   1.47407   1.47482
 Alpha virt. eigenvalues --    1.47909   1.48298   1.48582   1.48841   1.49132
 Alpha virt. eigenvalues --    1.49470   1.49514   1.49945   1.50089   1.50516
 Alpha virt. eigenvalues --    1.50838   1.51396   1.51605   1.51792   1.52111
 Alpha virt. eigenvalues --    1.52401   1.52526   1.52730   1.53046   1.53115
 Alpha virt. eigenvalues --    1.53517   1.53735   1.53852   1.54274   1.54973
 Alpha virt. eigenvalues --    1.55036   1.55566   1.55956   1.56061   1.56426
 Alpha virt. eigenvalues --    1.56623   1.56922   1.57217   1.57463   1.57786
 Alpha virt. eigenvalues --    1.57892   1.58702   1.58910   1.59551   1.60272
 Alpha virt. eigenvalues --    1.60613   1.60876   1.61586   1.61780   1.62267
 Alpha virt. eigenvalues --    1.62329   1.62497   1.63274   1.63389   1.63605
 Alpha virt. eigenvalues --    1.63846   1.64094   1.64517   1.64553   1.64971
 Alpha virt. eigenvalues --    1.65009   1.66103   1.66335   1.66677   1.66785
 Alpha virt. eigenvalues --    1.66974   1.67014   1.67373   1.67555   1.67705
 Alpha virt. eigenvalues --    1.67977   1.68112   1.68358   1.68846   1.69033
 Alpha virt. eigenvalues --    1.69118   1.69375   1.69926   1.70376   1.70877
 Alpha virt. eigenvalues --    1.71123   1.71628   1.72167   1.72269   1.72512
 Alpha virt. eigenvalues --    1.72715   1.72808   1.73130   1.73194   1.73481
 Alpha virt. eigenvalues --    1.73721   1.74135   1.74299   1.74336   1.74424
 Alpha virt. eigenvalues --    1.75013   1.75028   1.75212   1.75497   1.75641
 Alpha virt. eigenvalues --    1.76015   1.76169   1.76204   1.76546   1.76607
 Alpha virt. eigenvalues --    1.76917   1.77332   1.77435   1.77611   1.77750
 Alpha virt. eigenvalues --    1.77901   1.78215   1.78304   1.78339   1.78418
 Alpha virt. eigenvalues --    1.78684   1.78815   1.78965   1.79070   1.79190
 Alpha virt. eigenvalues --    1.79293   1.79368   1.79584   1.79680   1.79855
 Alpha virt. eigenvalues --    1.79999   1.80308   1.80421   1.80672   1.80686
 Alpha virt. eigenvalues --    1.80958   1.81211   1.81375   1.81428   1.81485
 Alpha virt. eigenvalues --    1.81633   1.81901   1.82030   1.82177   1.82264
 Alpha virt. eigenvalues --    1.82597   1.82612   1.82779   1.82824   1.82969
 Alpha virt. eigenvalues --    1.83100   1.83240   1.83438   1.83860   1.83878
 Alpha virt. eigenvalues --    1.83939   1.84356   1.84665   1.84721   1.84956
 Alpha virt. eigenvalues --    1.85209   1.85297   1.85468   1.85689   1.85818
 Alpha virt. eigenvalues --    1.86077   1.86270   1.86474   1.86675   1.86998
 Alpha virt. eigenvalues --    1.87226   1.87338   1.87463   1.87617   1.87673
 Alpha virt. eigenvalues --    1.87939   1.87973   1.88261   1.88502   1.88748
 Alpha virt. eigenvalues --    1.88856   1.89010   1.89231   1.89715   1.89839
 Alpha virt. eigenvalues --    1.90060   1.90272   1.90570   1.91043   1.91380
 Alpha virt. eigenvalues --    1.91483   1.91703   1.91803   1.91955   1.92151
 Alpha virt. eigenvalues --    1.92423   1.92636   1.92888   1.93191   1.93557
 Alpha virt. eigenvalues --    1.93609   1.93977   1.94200   1.94339   1.94407
 Alpha virt. eigenvalues --    1.94594   1.94767   1.95071   1.95397   1.95577
 Alpha virt. eigenvalues --    1.95840   1.96092   1.96198   1.96290   1.96485
 Alpha virt. eigenvalues --    1.96591   1.96639   1.97146   1.97274   1.97346
 Alpha virt. eigenvalues --    1.97485   1.97602   1.97964   1.98474   1.98515
 Alpha virt. eigenvalues --    1.98760   1.98829   1.99159   1.99255   1.99624
 Alpha virt. eigenvalues --    1.99838   1.99975   2.00062   2.00592   2.01018
 Alpha virt. eigenvalues --    2.01422   2.01579   2.01618   2.02004   2.02084
 Alpha virt. eigenvalues --    2.02373   2.02842   2.03060   2.03275   2.03397
 Alpha virt. eigenvalues --    2.03527   2.03779   2.03860   2.04481   2.04763
 Alpha virt. eigenvalues --    2.04835   2.05362   2.05546   2.05877   2.06226
 Alpha virt. eigenvalues --    2.06468   2.06614   2.07147   2.07398   2.07539
 Alpha virt. eigenvalues --    2.07725   2.07899   2.08139   2.08433   2.08635
 Alpha virt. eigenvalues --    2.08732   2.09051   2.09143   2.09414   2.09674
 Alpha virt. eigenvalues --    2.09907   2.10158   2.10370   2.10394   2.10795
 Alpha virt. eigenvalues --    2.11130   2.11708   2.11735   2.11919   2.12037
 Alpha virt. eigenvalues --    2.12269   2.12365   2.12616   2.12712   2.12882
 Alpha virt. eigenvalues --    2.13413   2.13586   2.13635   2.13975   2.14933
 Alpha virt. eigenvalues --    2.15782   2.15846   2.16038   2.16175   2.16332
 Alpha virt. eigenvalues --    2.16734   2.16867   2.17373   2.17708   2.17744
 Alpha virt. eigenvalues --    2.17947   2.18024   2.18145   2.18426   2.18617
 Alpha virt. eigenvalues --    2.18706   2.19508   2.19607   2.19928   2.20234
 Alpha virt. eigenvalues --    2.20362   2.20478   2.20682   2.21147   2.21473
 Alpha virt. eigenvalues --    2.21531   2.21837   2.22066   2.22899   2.22939
 Alpha virt. eigenvalues --    2.23222   2.23488   2.23737   2.25150   2.25522
 Alpha virt. eigenvalues --    2.25870   2.26315   2.26475   2.27091   2.27504
 Alpha virt. eigenvalues --    2.28347   2.28577   2.28972   2.29176   2.29487
 Alpha virt. eigenvalues --    2.29588   2.30252   2.30692   2.30968   2.31339
 Alpha virt. eigenvalues --    2.31394   2.31638   2.31939   2.32037   2.32689
 Alpha virt. eigenvalues --    2.32876   2.33281   2.33417   2.33654   2.34244
 Alpha virt. eigenvalues --    2.34398   2.34649   2.34836   2.34899   2.35173
 Alpha virt. eigenvalues --    2.35501   2.35937   2.35978   2.36545   2.37131
 Alpha virt. eigenvalues --    2.37610   2.37864   2.38064   2.38250   2.38508
 Alpha virt. eigenvalues --    2.39161   2.39508   2.39843   2.40165   2.40246
 Alpha virt. eigenvalues --    2.40393   2.40486   2.40837   2.41357   2.41628
 Alpha virt. eigenvalues --    2.42410   2.42480   2.42811   2.42957   2.43064
 Alpha virt. eigenvalues --    2.43647   2.44209   2.44361   2.44779   2.45420
 Alpha virt. eigenvalues --    2.45540   2.45888   2.46383   2.46511   2.47068
 Alpha virt. eigenvalues --    2.47209   2.48125   2.48499   2.48648   2.48798
 Alpha virt. eigenvalues --    2.49291   2.49679   2.49923   2.49965   2.50437
 Alpha virt. eigenvalues --    2.50639   2.50861   2.51323   2.52219   2.52692
 Alpha virt. eigenvalues --    2.52762   2.53147   2.53514   2.53910   2.54182
 Alpha virt. eigenvalues --    2.54374   2.54744   2.55152   2.55311   2.56248
 Alpha virt. eigenvalues --    2.56381   2.56736   2.57334   2.57720   2.57751
 Alpha virt. eigenvalues --    2.58071   2.58619   2.58829   2.59280   2.59459
 Alpha virt. eigenvalues --    2.59927   2.60050   2.60272   2.60460   2.60780
 Alpha virt. eigenvalues --    2.61090   2.61258   2.61365   2.61501   2.61913
 Alpha virt. eigenvalues --    2.61994   2.62444   2.63285   2.63461   2.63571
 Alpha virt. eigenvalues --    2.64156   2.64559   2.64879   2.65129   2.65747
 Alpha virt. eigenvalues --    2.66061   2.66253   2.66261   2.66823   2.67100
 Alpha virt. eigenvalues --    2.67335   2.67461   2.68010   2.68340   2.68535
 Alpha virt. eigenvalues --    2.68829   2.69153   2.69286   2.69425   2.70071
 Alpha virt. eigenvalues --    2.70236   2.70403   2.70693   2.71046   2.71490
 Alpha virt. eigenvalues --    2.71933   2.72294   2.72369   2.72903   2.73259
 Alpha virt. eigenvalues --    2.73636   2.73846   2.73893   2.73998   2.74166
 Alpha virt. eigenvalues --    2.74575   2.75303   2.75342   2.75787   2.76241
 Alpha virt. eigenvalues --    2.76352   2.76381   2.76546   2.76687   2.76855
 Alpha virt. eigenvalues --    2.77053   2.77332   2.77490   2.77599   2.77980
 Alpha virt. eigenvalues --    2.78213   2.78247   2.78487   2.79004   2.79190
 Alpha virt. eigenvalues --    2.79760   2.80009   2.80128   2.80164   2.80572
 Alpha virt. eigenvalues --    2.81141   2.81226   2.81534   2.81583   2.81886
 Alpha virt. eigenvalues --    2.81992   2.82017   2.82164   2.83312   2.83396
 Alpha virt. eigenvalues --    2.83919   2.84184   2.84354   2.84823   2.85375
 Alpha virt. eigenvalues --    2.85556   2.85914   2.86102   2.86203   2.86556
 Alpha virt. eigenvalues --    2.86787   2.86947   2.86973   2.87330   2.87684
 Alpha virt. eigenvalues --    2.87928   2.88111   2.88170   2.88492   2.89032
 Alpha virt. eigenvalues --    2.89201   2.90184   2.90592   2.90871   2.91100
 Alpha virt. eigenvalues --    2.91261   2.91601   2.91846   2.92047   2.92190
 Alpha virt. eigenvalues --    2.92343   2.92945   2.93108   2.93644   2.93744
 Alpha virt. eigenvalues --    2.93865   2.94889   2.95058   2.95347   2.96038
 Alpha virt. eigenvalues --    2.96560   2.96934   2.97293   2.97455   2.97616
 Alpha virt. eigenvalues --    2.97707   2.98084   2.98169   2.98250   2.98416
 Alpha virt. eigenvalues --    2.98740   2.99027   2.99172   2.99564   3.00308
 Alpha virt. eigenvalues --    3.00613   3.00759   3.00878   3.01077   3.01205
 Alpha virt. eigenvalues --    3.01588   3.02483   3.02632   3.02957   3.03143
 Alpha virt. eigenvalues --    3.03643   3.04086   3.04502   3.04798   3.05142
 Alpha virt. eigenvalues --    3.05314   3.05718   3.05851   3.05871   3.06923
 Alpha virt. eigenvalues --    3.07444   3.07552   3.08343   3.08924   3.09117
 Alpha virt. eigenvalues --    3.09470   3.09730   3.10286   3.10341   3.10891
 Alpha virt. eigenvalues --    3.11230   3.11715   3.12346   3.12797   3.13597
 Alpha virt. eigenvalues --    3.13974   3.14071   3.14751   3.14897   3.15394
 Alpha virt. eigenvalues --    3.15773   3.15896   3.16595   3.17053   3.17103
 Alpha virt. eigenvalues --    3.17661   3.17834   3.18017   3.18061   3.18374
 Alpha virt. eigenvalues --    3.18645   3.19179   3.19623   3.20078   3.20378
 Alpha virt. eigenvalues --    3.20636   3.20853   3.21946   3.22232   3.22937
 Alpha virt. eigenvalues --    3.23105   3.23254   3.23492   3.25208   3.25277
 Alpha virt. eigenvalues --    3.26116   3.26434   3.26844   3.26994   3.29065
 Alpha virt. eigenvalues --    3.29564   3.29945   3.30070   3.30298   3.30494
 Alpha virt. eigenvalues --    3.32005   3.33376   3.33663   3.35859   3.36136
 Alpha virt. eigenvalues --    3.36504   3.36855   3.37186   3.39026   3.41231
 Alpha virt. eigenvalues --    3.42863   3.43355   3.44389   3.47676   3.50663
 Alpha virt. eigenvalues --    3.50996   3.53488   3.54160   3.54226   3.55471
 Alpha virt. eigenvalues --    3.55649   3.56647   3.56989   3.58330   3.58914
 Alpha virt. eigenvalues --    3.59237   3.60018   3.60307   3.62506   3.64187
 Alpha virt. eigenvalues --    3.65838   3.66613   3.66915   3.67912   3.68373
 Alpha virt. eigenvalues --    3.69805   3.69879   3.70070   3.70609   3.70779
 Alpha virt. eigenvalues --    3.71291   3.71580   3.71955   3.72893   3.73060
 Alpha virt. eigenvalues --    3.73217   3.73420   3.73857   3.73886   3.74009
 Alpha virt. eigenvalues --    3.74672   3.75825   3.76203   3.79249
          Condensed to atoms (all electrons):
 Mulliken charges:
               1
     1  C    0.066719
     2  C    0.007664
     3  O   -0.286619
     4  H    0.001959
     5  H   -0.009443
     6  H    0.043712
     7  N   -0.126997
     8  C    0.093584
     9  C    0.105407
    10  O   -0.280203
    11  C    0.084892
    12  C    0.020609
    13  O   -0.372377
    14  O   -0.318545
    15  H    0.097151
    16  H   -0.007047
    17  H    0.010847
    18  H    0.027882
    19  N   -0.130641
    20  C    0.116210
    21  C    0.075636
    22  O   -0.249004
    23  C    0.029630
    24  C    0.017772
    25  C   -0.041769
    26  C   -0.026026
    27  N    0.091701
    28  H    0.131025
    29  H   -0.003547
    30  H    0.033149
    31  H    0.003772
    32  H    0.025183
    33  H    0.038211
    34  H    0.037482
    35  H    0.029050
    36  H    0.095427
    37  H    0.074408
    38  H    0.197696
    39  H    0.198077
    40  H    0.196606
    41  N   -0.189864
    42  C    0.075509
    43  C    0.093080
    44  O   -0.271323
    45  C    0.171382
    46  C    0.074732
    47  O   -0.388995
    48  O   -0.489706
    49  H    0.126053
    50  H    0.042513
    51  H   -0.038157
    52  H   -0.007356
    53  N   -0.125207
    54  C    0.165251
    55  C    0.013619
    56  O   -0.251373
    57  H    0.136456
    58  H    0.044230
    59  H    0.038831
    60  N   -0.127004
    61  C    0.042961
    62  C    0.088003
    63  O   -0.263266
    64  C    0.104923
    65  C    0.023001
    66  N   -0.004394
    67  O   -0.322410
    68  H    0.124175
    69  H    0.032293
    70  H    0.022528
    71  H    0.028180
    72  H    0.110275
    73  H    0.135632
    74  N   -0.104528
    75  C    0.174561
    76  C    0.018472
    77  O   -0.294854
    78  H    0.124401
    79  H    0.033948
    80  H    0.042382
    81  N   -0.142285
    82  C    0.093133
    83  C    0.074551
    84  O   -0.305431
    85  C    0.208138
    86  C   -0.027098
    87  C   -0.019282
    88  C    0.003697
    89  C   -0.046279
    90  C   -0.057910
    91  C    0.214225
    92  O   -0.216393
    93  H    0.163251
    94  H    0.001992
    95  H   -0.028809
    96  H   -0.015410
    97  H   -0.030305
    98  H   -0.014804
    99  H   -0.022765
   100  H   -0.045652
   101  H    0.177193
   102  N   -0.088806
   103  C    0.174089
   104  C    0.101427
   105  O   -0.272184
   106  C   -0.121518
   107  C    0.013820
   108  C    0.059483
   109  C    0.030491
   110  H    0.120587
   111  H   -0.012362
   112  H   -0.029118
   113  H    0.002732
   114  H   -0.001154
   115  H    0.034234
   116  H    0.015204
   117  H   -0.020207
   118  H   -0.002002
   119  H   -0.018954
   120  H    0.052813
   121  N   -0.114022
   122  C    0.047140
   123  C    0.113038
   124  O   -0.253947
   125  C    0.259771
   126  O   -0.315123
   127  H    0.142443
   128  H    0.008118
   129  H    0.008041
   130  H   -0.034608
   131  H    0.171657
   132  N   -0.120784
   133  C    0.111079
   134  C    0.074804
   135  O   -0.284067
   136  C    0.027182
   137  H    0.118826
   138  H   -0.007610
   139  H    0.025700
   140  H    0.014874
   141  H    0.007539
   142  N   -0.185430
   143  C    0.077767
   144  C    0.082172
   145  O   -0.259255
   146  C    0.091278
   147  H    0.121778
   148  H   -0.014900
   149  H   -0.011017
   150  H    0.031985
   151  H    0.021702
   152  N   -0.166322
   153  C    0.135595
   154  C    0.024724
   155  O   -0.270390
   156  C    0.018697
   157  C    0.096231
   158  C    0.050615
   159  O   -0.455685
   160  O   -0.349504
   161  H    0.137890
   162  H    0.039050
   163  H   -0.015290
   164  H   -0.018250
   165  H    0.012948
   166  H    0.000988
   167  N   -0.143732
   168  C    0.138640
   169  H    0.027282
   170  H    0.037610
   171  H    0.007971
   172  H    0.106193
   173  Ca   1.235226
   174  O   -0.299418
   175  H    0.178637
   176  H    0.203635
 Sum of Mulliken charges =  -0.00000
 Mulliken charges with hydrogens summed into heavy atoms:
               1
     1  C    0.102946
     2  C    0.007664
     3  O   -0.286619
     7  N   -0.029847
     8  C    0.086537
     9  C    0.105407
    10  O   -0.280203
    11  C    0.123621
    12  C    0.020609
    13  O   -0.372377
    14  O   -0.318545
    19  N    0.000384
    20  C    0.112663
    21  C    0.075636
    22  O   -0.249004
    23  C    0.066551
    24  C    0.081165
    25  C    0.024763
    26  C    0.143809
    27  N    0.684080
    41  N   -0.063811
    42  C    0.118022
    43  C    0.093080
    44  O   -0.271323
    45  C    0.125868
    46  C    0.074732
    47  O   -0.388995
    48  O   -0.489706
    53  N    0.011248
    54  C    0.248312
    55  C    0.013619
    56  O   -0.251373
    60  N   -0.002829
    61  C    0.075254
    62  C    0.088003
    63  O   -0.263266
    64  C    0.155631
    65  C    0.023001
    66  N    0.241513
    67  O   -0.322410
    74  N    0.019873
    75  C    0.250891
    76  C    0.018472
    77  O   -0.294854
    81  N    0.020966
    82  C    0.095125
    83  C    0.074551
    84  O   -0.305431
    85  C    0.163920
    86  C   -0.027098
    87  C   -0.049587
    88  C   -0.011107
    89  C   -0.069044
    90  C   -0.103561
    91  C    0.214225
    92  O   -0.039200
   102  N    0.031781
   103  C    0.161727
   104  C    0.101427
   105  O   -0.272184
   106  C   -0.150637
   107  C    0.015398
   108  C    0.088714
   109  C    0.062348
   121  N    0.028421
   122  C    0.055258
   123  C    0.113038
   124  O   -0.253947
   125  C    0.233205
   126  O   -0.143466
   132  N   -0.001958
   133  C    0.103469
   134  C    0.074804
   135  O   -0.284067
   136  C    0.075294
   142  N   -0.063652
   143  C    0.062867
   144  C    0.082172
   145  O   -0.259255
   146  C    0.133949
   152  N   -0.028433
   153  C    0.174645
   154  C    0.024724
   155  O   -0.270390
   156  C   -0.014843
   157  C    0.110167
   158  C    0.050615
   159  O   -0.455685
   160  O   -0.349504
   167  N   -0.037539
   168  C    0.211502
   173  Ca   1.235226
   174  O    0.082853
 DipInt: DoE/N= T F RetVal/Mat= T F Init=T NMatP=  1 IDeriv=0 Min/MaxMlt=  0  4
 Entering OneElI...
 OneElI was handed  1333951383 working-precision words.
 Multipole integrals L=0 to 4 MinM= 0 MaxM= 0.
 Requested accuracy = 0.1000D-12
 ShPair: Thresh= 1.00D-13 NBox=     0 BxSize= 0.00D+00 RnKept= 3.44D+01
         NSMCal=               327645 NSMKep=              139614
 PrmmSu-InSpLW:  IPartL=    0 NPrtUS=    1 NPrtUL=    1 DoSpLW=F IThBeg=    0 IThEnd=    0 NThAct=    1.
 PrsmSu:  NPrtUS=   1 ThrOK=F IAlg=1 NPAlg=1 LenDen=           0 ISkipM=0 DoSpLW=F IThBeg=    0 IThEnd=    0.
 Prism:   IPart=     0 DynPar=F LinDyn=F Incr=         512.
 PRISM was handed  1324724429 working-precision words and139614 shell-pairs
 IPart=  0 NShTot=      139614 NBatch=         321 AvBLen=       434.9
 PrsmSu-ThDecC:  IPartSL=    0    0 NPrtUSL=    1    1 IThBeg=    0 IThEnd=    0 CPU=   -1 GPU=   -1 NThAct=    1.
 PrSmSu:  NxtVal=            513.
 Electronic moments (au):
       -716.00000000        -13.66300642          1.47979686          1.80142285
     -53841.18023540     -47389.68000539     -16257.17620631       -169.45389146
        -55.07767440        -41.01662809       4143.37961419    -168880.17864464
      -1846.92604602     -38490.21205942     201771.42931755      38885.90650468
       2151.28411561      -7315.97637629      63009.52510220     -13121.64861977
   -8084329.20355635   -6915293.04027608    -856903.33877684     427364.33451877
      71311.25236020      56111.60537167     554982.80723509     -16478.27648301
     -74541.88631263   -3487171.88675399   -1125436.95583570    -838797.05640836
    -498902.99998167     511243.20088953     122313.88086909
 Electronic spatial extent (au):  <R**2>=         117488.0364
 DipInt: DoE/N= F T RetVal/Mat= T F Init=T NMatP=  1 IDeriv=0 Min/MaxMlt=  0  4
 Nuclear    moments (au):
        716.00000000          0.00000000         -0.00000000         -0.00000000
      53453.71232560      47120.32025698      15859.04989522         -0.00000000
          0.00000000          0.00000000      -4502.73770797     170641.02024779
       2212.34978240      34567.63502822    -201561.62855735     -38326.64153419
      -2984.58753933       7355.34165389     -63626.45643815      13072.18956364
    7903439.62113062    6793547.17922364     805981.97550059    -440544.83643459
     -81052.70969953    -110757.95970261    -569689.00404779      11276.30449811
      74389.03429583    3444904.23332952    1086184.52093793     806301.97701805
     497931.67464310    -503202.75409481    -123860.61050455
 Total      moments (au):
         -0.00000000        -13.66300642          1.47979686          1.80142285
       -387.46790980       -269.35974841       -398.12631109       -169.45389146
        -55.07767440        -41.01662809       -359.35809378       1760.84160315
        365.42373638      -3922.57703120        209.80076020        559.26497049
       -833.30342371         39.36527760       -616.93133595        -49.45905614
    -180889.58242573    -121745.86105244     -50921.36327625     -13180.50191582
      -9741.45733933     -54646.35433094     -14706.19681270      -5201.97198490
       -152.85201680     -42267.65342447     -39252.43489777     -32495.07939032
       -971.32533857       8040.44679472      -1546.72963546
 Traceless Quadrup. (au):
        -35.81658670         82.29157469        -46.47498799       -169.45389146
        -55.07767440        -41.01662809
 Charge=             -0.0000 electrons
 Dipole moment (field-independent basis, Debye):
    X=            -34.7279    Y=              3.7613    Z=              4.5788  Tot=             35.2298
 Quadrupole moment (field-independent basis, Debye-Ang):
   XX=           -521.1576   YY=           -362.2981   ZZ=           -535.4935
   XY=           -227.9213   XZ=            -74.0814   YZ=            -55.1688
 Traceless Quadrupole moment (field-independent basis, Debye-Ang):
   XX=            -48.1745   YY=            110.6850   ZZ=            -62.5105
   XY=           -227.9213   XZ=            -74.0814   YZ=            -55.1688
 Octapole moment (field-independent basis, Debye-Ang**2):
  XXX=           -255.7772  YYY=           1253.2992  ZZZ=            260.0945  XYY=          -2791.9392
  XXY=            149.3281  XXZ=            398.0633  XZZ=           -593.1133  YZZ=             28.0187
  YYZ=           -439.1080  XYZ=            -35.2031
 Hexadecapole moment (field-independent basis, Debye-Ang**3):
 XXXX=         -68131.6907 YYYY=         -45855.3292 ZZZZ=         -19179.4272 XXXY=          -4964.4090
 XXXZ=          -3669.1000 YYYX=         -20582.4374 YYYZ=          -5539.0589 ZZZX=          -1959.3121
 ZZZY=            -57.5714 XXYY=         -15920.0251 XXZZ=         -14784.3492 YYZZ=         -12239.2051
 XXYZ=           -365.8477 YYXZ=           3028.4178 ZZXY=           -582.5725
 N-N= 1.987016346763D+04 E-N=-5.222563076303D+04  KE= 5.290455187376D+03
 Leave Link  601 at Wed Sep 18 17:51:40 2019, MaxMem=  1342177280 cpu:              45.0 elap:               2.5
 FitSet:  NAtFit=   176 NAtPot=   176 NAtFrz=     0 MDM=   180 TotChg=   0.00000
 Merz-Kollman atomic radii used.
 Read replacement radii for each type of atom:
 Rad(20) =   1.700000000000D+00
 Atom Element Radius
    1     6    1.50
    2     6    1.50
    3     8    1.40
    4     1    1.20
    5     1    1.20
    6     1    1.20
    7     7    1.50
    8     6    1.50
    9     6    1.50
   10     8    1.40
   11     6    1.50
   12     6    1.50
   13     8    1.40
   14     8    1.40
   15     1    1.20
   16     1    1.20
   17     1    1.20
   18     1    1.20
   19     7    1.50
   20     6    1.50
   21     6    1.50
   22     8    1.40
   23     6    1.50
   24     6    1.50
   25     6    1.50
   26     6    1.50
   27     7    1.50
   28     1    1.20
   29     1    1.20
   30     1    1.20
   31     1    1.20
   32     1    1.20
   33     1    1.20
   34     1    1.20
   35     1    1.20
   36     1    1.20
   37     1    1.20
   38     1    1.20
   39     1    1.20
   40     1    1.20
   41     7    1.50
   42     6    1.50
   43     6    1.50
   44     8    1.40
   45     6    1.50
   46     6    1.50
   47     8    1.40
   48     8    1.40
   49     1    1.20
   50     1    1.20
   51     1    1.20
   52     1    1.20
   53     7    1.50
   54     6    1.50
   55     6    1.50
[...]
 **** Fit       0.078402
 **** Fit       0.077660
 **** Fit       0.076403
 **** Fit       0.074820
 **** Fit       0.073038
 **** Fit       0.071137
 **** Fit       0.069167
 **** Fit       0.067160
 **** Fit       0.065141
 **** Fit       0.063139
 **** Fit       0.061195
 **** Fit       0.059361
 **** Fit       0.057682
 **** Fit       0.056137
 **** Fit       0.054581
 **** Fit       0.070325
 **** Fit       0.073413
 **** Fit       0.075062
 **** Fit       0.075647
 **** Fit       0.075466
 **** Fit       0.074743
 **** Fit       0.073640
 **** Fit       0.072273
 **** Fit       0.070722
 **** Fit       0.069039
 **** Fit       0.067253
 **** Fit       0.065387
 **** Fit       0.063458
 **** Fit       0.061498
 **** Fit       0.059560
 **** Fit       0.057719
 **** Fit       0.056038
 **** Fit       0.054496
 **** Fit       0.052896
 **** Fit       0.050815
 **** Fit       0.047617
 **** Fit       0.042505
 **** Fit       0.034557
 **** Fit       0.039928
 **** Fit       0.050774
 **** Fit       0.059001
 **** Fit       0.064963
 **** Fit       0.069058
 **** Fit       0.071670
 **** Fit       0.073131
 **** Fit       0.073720
 **** Fit       0.073656
 **** Fit       0.073109
 **** Fit       0.072208
 **** Fit       0.071043
 **** Fit       0.069679
 **** Fit       0.068157
 **** Fit       0.066501
 **** Fit       0.064720
 **** Fit       0.062819
 **** Fit       0.060809
 **** Fit       0.058730
 **** Fit       0.056661
 **** Fit       0.054726
 **** Fit       0.053045
 **** Fit       0.051640
 **** Fit       0.050310
 **** Fit       0.048578
 **** Fit       0.045724
 **** Fit       0.040867
 **** Fit       0.033013
 **** Fit       0.039923
 **** Fit       0.050269
 **** Fit       0.057977
 **** Fit       0.063521
 **** Fit       0.067330
 **** Fit       0.069775
 **** Fit       0.071164
 **** Fit       0.071747
 **** Fit       0.071720
 **** Fit       0.071232
 **** Fit       0.070395
 **** Fit       0.069290
 **** Fit       0.067972
 **** Fit       0.066475
 **** Fit       0.064814
 **** Fit       0.062987
 **** Fit       0.060982
 **** Fit       0.058789
 **** Fit       0.056423
 **** Fit       0.053960
 **** Fit       0.051569
 **** Fit       0.049494
 **** Fit       0.047951
 **** Fit       0.046945
 **** Fit       0.046104
 **** Fit       0.044681
 **** Fit       0.041693
 **** Fit       0.036062
 **** Fit       0.026615
 **** Fit       0.041236
 **** Fit       0.050581
 **** Fit       0.057440
 **** Fit       0.062320
 **** Fit       0.065644
 **** Fit       0.067756
 **** Fit       0.068934
 **** Fit       0.069396
 **** Fit       0.069309
 **** Fit       0.068801
 **** Fit       0.067966
 **** Fit       0.066869
 **** Fit       0.065556
 **** Fit       0.064050
 **** Fit       0.062357
 **** Fit       0.060464
 **** Fit       0.058343
 **** Fit       0.055952
 **** Fit       0.053268
 **** Fit       0.050327
 **** Fit       0.047297
 **** Fit       0.044516
 **** Fit       0.042433
 **** Fit       0.041376
 **** Fit       0.041231
 **** Fit       0.041308
 **** Fit       0.040524
 **** Fit       0.037695
 **** Fit       0.031651
 **** Fit       0.034947
 **** Fit       0.045176
 **** Fit       0.052681
 **** Fit       0.058051
 **** Fit       0.061758
 **** Fit       0.064179
 **** Fit       0.065612
 **** Fit       0.066287
 **** Fit       0.066381
 **** Fit       0.066024
 **** Fit       0.065311
 **** Fit       0.064310
 **** Fit       0.063067
 **** Fit       0.061607
 **** Fit       0.059938
 **** Fit       0.058049
 **** Fit       0.055906
 **** Fit       0.053446
 **** Fit       0.050593
 **** Fit       0.047284
 **** Fit       0.043562
 **** Fit       0.039694
 **** Fit       0.036259
 **** Fit       0.033555
 **** Fit       0.034592
 **** Fit       0.036051
 **** Fit       0.036486
 **** Fit       0.034556
 **** Fit       0.039587
 **** Fit       0.047504
 **** Fit       0.053200
 **** Fit       0.057172
 **** Fit       0.059819
 **** Fit       0.061448
 **** Fit       0.062301
 **** Fit       0.062554
 **** Fit       0.062340
 **** Fit       0.061753
 **** Fit       0.060859
 **** Fit       0.059701
 **** Fit       0.058304
 **** Fit       0.056679
 **** Fit       0.054821
 **** Fit       0.052702
 **** Fit       0.050266
 **** Fit       0.047415
 **** Fit       0.044019
 **** Fit       0.039971
 **** Fit       0.035328
 **** Fit       0.030493
 **** Fit       0.032167
 **** Fit       0.028628
 **** Fit       0.038278
 **** Fit       0.045279
 **** Fit       0.050219
 **** Fit       0.053580
 **** Fit       0.055742
 **** Fit       0.056996
 **** Fit       0.057558
 **** Fit       0.057586
 **** Fit       0.057187
 **** Fit       0.056434
 **** Fit       0.055374
 **** Fit       0.054033
 **** Fit       0.052423
 **** Fit       0.050545
 **** Fit       0.048382
 **** Fit       0.045892
 **** Fit       0.042986
 **** Fit       0.039507
 **** Fit       0.035254
 **** Fit       0.030106
 **** Fit       0.026985
 **** Fit       0.027024
 **** Fit       0.035356
 **** Fit       0.041344
 **** Fit       0.045510
 **** Fit       0.048292
 **** Fit       0.050031
 **** Fit       0.050986
 **** Fit       0.051338
 **** Fit       0.051211
 **** Fit       0.050687
 **** Fit       0.049811
 **** Fit       0.048608
 **** Fit       0.047089
 **** Fit       0.045254
 **** Fit       0.043100
 **** Fit       0.040615
 **** Fit       0.037752
 **** Fit       0.034401
 **** Fit       0.030357
 **** Fit       0.025384
 **** Fit       0.016106
 **** Fit       0.025075
 **** Fit       0.031619
 **** Fit       0.036238
 **** Fit       0.039386
 **** Fit       0.041431
 **** Fit       0.042654
 **** Fit       0.043246
 **** Fit       0.043334
 **** Fit       0.042990
 **** Fit       0.042249
 **** Fit       0.041121
 **** Fit       0.039607
 **** Fit       0.037703
 **** Fit       0.035417
 **** Fit       0.032765
 **** Fit       0.029756
 **** Fit       0.026336
 **** Fit       0.022333
 **** Fit       0.017536
 **** Fit       0.002618
 **** Fit       0.011936
 **** Fit       0.018942
 **** Fit       0.024033
 **** Fit       0.027633
 **** Fit       0.030114
 **** Fit       0.031762
 **** Fit       0.032770
 **** Fit       0.033255
 **** Fit       0.033275
 **** Fit       0.032845
 **** Fit       0.031958
 **** Fit       0.030597
 **** Fit       0.028757
 **** Fit       0.026463
 **** Fit       0.023788
 **** Fit       0.020845
 **** Fit       0.017710
 **** Fit       0.014329
 **** Fit       0.010561
 **** Fit      -0.009509
 **** Fit      -0.000874
 **** Fit       0.005693
 **** Fit       0.010563
 **** Fit       0.014145
 **** Fit       0.016782
 **** Fit       0.018707
 **** Fit       0.020047
 **** Fit       0.020845
 **** Fit       0.021093
 **** Fit       0.020752
 **** Fit       0.019784
 **** Fit       0.018180
 **** Fit       0.016007
 **** Fit       0.013451
 **** Fit       0.010810
 **** Fit       0.008352
 **** Fit       0.006087
 **** Fit       0.004451
 **** Fit       0.006006
 **** Fit       0.006808
 **** Fit       0.006783
 **** Fit       0.005929
 **** Fit       0.004392
 **** Fit       0.002535
 **** Fit       0.000900
 **** Fit      -0.000119
 **** Fit      -0.008178
 **** Fit      -0.008160
 **** Fit      -0.008361
 **** Fit      -0.008086
 **** Fit       0.054094
 **** Fit       0.052103
 **** Fit       0.051403
 **** Fit       0.050166
 **** Fit       0.038855
 **** Fit       0.052180
 **** Fit       0.050033
 **** Fit       0.048742
 **** Fit       0.048324
 **** Fit       0.031521
 **** Fit       0.052379
 **** Fit       0.049982
 **** Fit       0.048292
 **** Fit       0.047345
 **** Fit       0.047129
 **** Fit       0.026733
 **** Fit       0.056390
 **** Fit       0.053426
 **** Fit       0.050919
 **** Fit       0.048943
 **** Fit       0.047547
 **** Fit       0.046746
 **** Fit       0.046512
 **** Fit       0.059940
 **** Fit       0.056989
 **** Fit       0.054287
 **** Fit       0.051922
 **** Fit       0.049958
 **** Fit       0.048439
 **** Fit       0.047385
 **** Fit       0.046770
 **** Fit       0.046512
 **** Fit       0.064823
 **** Fit       0.062076
 **** Fit       0.059360
 **** Fit       0.056778
 **** Fit       0.054410
 **** Fit       0.052323
 **** Fit       0.050568
 **** Fit       0.049164
 **** Fit       0.048077
 **** Fit       0.047194
 **** Fit       0.071474
 **** Fit       0.069330
 **** Fit       0.066947
 **** Fit       0.064432
 **** Fit       0.061874
 **** Fit       0.059355
 **** Fit       0.056949
 **** Fit       0.054717
 **** Fit       0.052685
 **** Fit       0.050815
 **** Fit       0.048960
 **** Fit       0.046840
 **** Fit       0.053294
 **** Fit       0.049583
 **** Fit       0.044927
 **** Fit       0.051254
 **** Fit       0.050424
 **** Fit       0.049826
 **** Fit       0.050996
 **** Fit       0.051999
 **** Fit       0.052448
 **** Fit       0.052173
 **** Fit       0.049416
 **** Fit       0.047898
 **** Fit       0.048192
 **** Fit       0.049606
 **** Fit       0.051175
 **** Fit       0.052262
 **** Fit       0.052731
 **** Fit       0.052919
 **** Fit       0.053369
 **** Fit       0.054140
 **** Fit       0.048095
 **** Fit       0.045864
 **** Fit       0.045425
 **** Fit       0.046370
 **** Fit       0.048081
 **** Fit       0.049982
 **** Fit       0.051645
 **** Fit       0.052815
 **** Fit       0.053414
 **** Fit       0.053522
 **** Fit       0.053378
 **** Fit       0.053374
 **** Fit       0.053965
 **** Fit       0.043318
 **** Fit       0.042399
 **** Fit       0.043035
 **** Fit       0.044684
 **** Fit       0.046848
 **** Fit       0.049112
 **** Fit       0.051166
 **** Fit       0.052806
 **** Fit       0.053926
 **** Fit       0.054499
 **** Fit       0.054569
 **** Fit       0.054259
 **** Fit       0.053786
 **** Fit       0.053494
 **** Fit       0.038815
 **** Fit       0.039333
 **** Fit       0.041023
 **** Fit       0.043408
 **** Fit       0.046090
 **** Fit       0.048749
 **** Fit       0.051147
 **** Fit       0.053128
 **** Fit       0.054604
 **** Fit       0.055538
 **** Fit       0.055936
 **** Fit       0.055837
 **** Fit       0.055326
 **** Fit       0.054556
 **** Fit       0.053783
 **** Fit       0.034553
 **** Fit       0.035012
 **** Fit       0.036720
 **** Fit       0.039245
 **** Fit       0.042221
 **** Fit       0.045341
 **** Fit       0.048357
 **** Fit       0.051084
 **** Fit       0.053399
 **** Fit       0.055234
 **** Fit       0.056556
 **** Fit       0.057359
 **** Fit       0.057654
 **** Fit       0.057463
 **** Fit       0.056833
 **** Fit       0.055852
 **** Fit       0.030256
 **** Fit       0.032310
 **** Fit       0.035272
 **** Fit       0.038778
 **** Fit       0.042506
 **** Fit       0.046184
 **** Fit       0.049602
 **** Fit       0.052613
 **** Fit       0.055133
 **** Fit       0.057121
 **** Fit       0.058566
 **** Fit       0.059469
 **** Fit       0.059835
 **** Fit       0.059670
 **** Fit       0.058988
 **** Fit       0.057830
 **** Fit       0.027141
 **** Fit       0.030488
 **** Fit       0.034495
 **** Fit       0.038836
 **** Fit       0.043215
 **** Fit       0.047386
 **** Fit       0.051173
 **** Fit       0.054468
 **** Fit       0.057224
 **** Fit       0.059426
 **** Fit       0.061079
 **** Fit       0.062189
 **** Fit       0.062753
 **** Fit       0.062757
 **** Fit       0.062180
 **** Fit       0.025234
 **** Fit       0.029915
 **** Fit       0.035082
 **** Fit       0.040366
 **** Fit       0.045459
 **** Fit       0.050143
 **** Fit       0.054292
 **** Fit       0.057855
 **** Fit       0.060829
 **** Fit       0.063229
 **** Fit       0.065073
 **** Fit       0.066363
 **** Fit       0.067079
 **** Fit       0.067175
 **** Fit       0.025959
 **** Fit       0.032638
 **** Fit       0.039397
 **** Fit       0.045812
 **** Fit       0.051633
 **** Fit       0.056757
 **** Fit       0.061171
 **** Fit       0.064913
 **** Fit       0.068030
 **** Fit       0.070555
 **** Fit       0.072486
 **** Fit       0.073775
 **** Fit       0.031684
 **** Fit       0.040641
 **** Fit       0.048848
 **** Fit       0.056129
 **** Fit       0.062489
 **** Fit       0.068022
 **** Fit       0.072843
 **** Fit       0.077049
 **** Fit       0.044132
 **** Fit       0.054642
 **** Fit       0.063886
 **** Fit       0.045661
 **** Fit       0.042018
 **** Fit       0.045319
 **** Fit       0.049243
 **** Fit       0.048918
 **** Fit       0.045764
 **** Fit       0.042685
 **** Fit       0.037899
 **** Fit       0.040173
 **** Fit       0.044661
 **** Fit       0.050013
 **** Fit       0.054192
 **** Fit       0.051845
 **** Fit       0.048711
 **** Fit       0.045694
 **** Fit       0.042792
 **** Fit       0.040049
 **** Fit       0.038082
 **** Fit       0.033180
 **** Fit       0.034872
 **** Fit       0.038429
 **** Fit       0.043591
 **** Fit       0.050971
 **** Fit       0.048058
 **** Fit       0.045515
 **** Fit       0.043014
 **** Fit       0.040346
 **** Fit       0.037564
 **** Fit       0.035030
 **** Fit       0.033356
 **** Fit       0.027702
 **** Fit       0.029174
 **** Fit       0.032328
 **** Fit       0.037001
 **** Fit       0.043104
 **** Fit       0.048269
 **** Fit       0.046015
 **** Fit       0.043827
 **** Fit       0.041427
 **** Fit       0.038677
 **** Fit       0.035613
 **** Fit       0.032482
 **** Fit       0.029742
 **** Fit       0.027974
 **** Fit       0.021266
 **** Fit       0.022773
 **** Fit       0.025933
 **** Fit       0.030446
 **** Fit       0.036258
 **** Fit       0.047042
 **** Fit       0.045116
 **** Fit       0.043062
 **** Fit       0.040648
 **** Fit       0.037744
 **** Fit       0.034344
 **** Fit       0.030603
 **** Fit       0.026866
 **** Fit       0.023662
 **** Fit       0.021621
 **** Fit       0.013619
 **** Fit       0.015395
 **** Fit       0.018842
 **** Fit       0.023368
 **** Fit       0.028763
 **** Fit       0.046226
 **** Fit       0.044494
 **** Fit       0.042477
 **** Fit       0.039991
 **** Fit       0.036915
 **** Fit       0.033213
 **** Fit       0.028965
 **** Fit       0.024406
 **** Fit       0.019959
 **** Fit       0.016234
 **** Fit       0.013936
 **** Fit       0.004432
 **** Fit       0.045394
 **** Fit       0.043442
 **** Fit       0.040983
 **** Fit       0.037854
 **** Fit       0.033942
 **** Fit       0.029223
 **** Fit       0.023804
 **** Fit       0.017974
 **** Fit       0.012267
 **** Fit       0.007487
 **** Fit       0.004610
 **** Fit       0.044906
 **** Fit       0.042397
 **** Fit       0.039200
 **** Fit       0.035149
 **** Fit       0.030127
 **** Fit       0.024112
 **** Fit       0.017229
 **** Fit       0.009823
 **** Fit       0.002563
 **** Fit      -0.003490
 **** Fit      -0.006986
 **** Fit       0.045503
 **** Fit       0.042184
 **** Fit       0.038038
 **** Fit       0.032853
 **** Fit       0.026463
 **** Fit       0.018803
 **** Fit       0.009980
 **** Fit       0.000381
 **** Fit       0.044897
 **** Fit       0.039626
 **** Fit       0.033159
 **** Fit       0.025180
 **** Fit       0.015464
 **** Fit       0.036669
 **** Fit       0.026675
 -----------------------------------------------------------------
 Leave Link  602 at Wed Sep 18 17:51:43 2019, MaxMem=  1342177280 cpu:             122.8 elap:               2.7

 Test job not archived.
 1\1\GINC-C504-111\SP\RB3LYP\SVP\C54H83Ca1N15O23\PENGZHI\18-Sep-2019\0\
 \#b3lyp/svp scf=(tight,noincore) Test #IOP(5/87=12) Density=Current Po
 p=(MK,readradii) iop(6/33=2) iop(6/42=6)\\Ng-31_loop3_39.0\\0,1\C,0,63
 .47,58.6,32.32\C,0,63.99,57.8,33.5\O,0,63.27,56.87,33.86\H,0,62.58,59.
 152,32.62\H,0,64.237,59.3,31.989\H,0,63.218,57.923,31.504\N,0,65.24,58
 .06,33.91\C,0,66.04,57.17,34.73\C,0,65.46,57.03,36.14\O,0,65.18,55.92,
 36.59\C,0,67.55,57.37,34.8\C,0,68.04,58.8,34.99\O,0,67.51,59.82,34.5\O
 ,0,69.02,59.01,35.74\H,0,65.68,58.9,33.6\H,0,65.9,56.23,34.2\H,0,67.96
 ,56.94,33.89\H,0,67.91,56.86,35.7\N,0,65.16,58.2,36.7\C,0,64.33,58.15,
 37.89\C,0,64.9,57.34,39.04\O,0,66.1,57.31,39.26\C,0,63.99,59.6,38.26\C
 ,0,63.04,60.19,37.23\C,0,62.89,61.68,37.53\C,0,61.53,62.23,37.11\N,0,6
 1.4,63.66,37.45\H,0,65.44,59.08,36.28\H,0,63.41,57.63,37.62\H,0,64.9,6
 0.18,38.41\H,0,63.45,59.56,39.2\H,0,62.06,59.75,37.4\H,0,63.25,60.13,3
 6.16\H,0,63.62,62.14,36.86\H,0,63.16,61.93,38.56\H,0,60.73,61.64,37.56
 \H,0,61.37,62.14,36.04\H,0,61.95,64.18,36.78\H,0,60.44,63.94,37.31\H,0
 ,61.74,63.74,38.39\N,0,64.01,56.8,39.89\C,0,64.37,56.04,41.07\C,0,64.4
 4,54.53,40.87\O,0,64.4,53.75,41.81\C,0,63.5,56.48,42.25\C,0,62.01,56.1
 9,42.15\O,0,61.55,55.04,42.34\O,0,61.24,57.16,41.96\H,0,63.03,56.86,39
 .65\H,0,65.38,56.38,41.26\H,0,63.65,57.54,42.45\H,0,63.84,56.04,43.18\
 N,0,64.96,54.17,39.7\C,0,65.31,52.83,39.25\C,0,66.68,52.4,39.75\O,0,67
 .31,53.01,40.61\H,0,64.97,54.89,38.99\H,0,65.51,52.8,38.18\H,0,64.47,5
 2.17,39.43\N,0,67.29,51.3,39.28\C,0,66.67,50.17,38.62\C,0,67.69,49.25,
 37.95\O,0,68.51,48.68,38.67\C,0,65.89,49.41,39.69\C,0,65.33,48.05,39.2
 8\N,0,64.53,47.41,40.12\O,0,65.56,47.44,38.24\H,0,68.24,51.2,39.62\H,0
 ,65.93,50.61,37.95\H,0,65.1,49.89,40.26\H,0,66.6,49.16,40.48\H,0,64.47
 ,47.9,41.\H,0,64.26,46.45,39.93\N,0,67.57,49.04,36.64\C,0,66.92,49.92,
 35.69\C,0,65.42,49.76,35.44\O,0,64.85,50.49,34.64\H,0,68.2,48.34,36.28
 \H,0,67.36,49.86,34.7\H,0,67.12,50.96,35.93\N,0,64.68,48.81,36.02\C,0,
 63.25,48.68,35.87\C,0,62.78,49.71,36.89\O,0,63.5,50.08,37.82\C,0,62.81
 ,47.22,35.99\C,0,63.55,46.26,35.1\C,0,62.84,45.86,33.95\C,0,64.87,45.8
 5,35.31\C,0,63.36,44.9,33.08\C,0,65.41,44.92,34.41\C,0,64.64,44.38,33.
 36\O,0,65.38,43.65,32.48\H,0,65.11,48.29,36.77\H,0,62.82,49.1,34.96\H,
 0,61.75,47.18,35.75\H,0,62.83,46.87,37.02\H,0,61.81,46.16,33.8\H,0,65.
 4,46.17,36.2\H,0,62.79,44.69,32.18\H,0,66.41,44.56,34.59\H,0,66.22,43.
 33,32.83\N,0,61.53,50.15,36.78\C,0,60.93,51.19,37.6\C,0,59.9,50.68,38.
 59\O,0,59.09,49.81,38.28\C,0,60.35,52.36,36.8\C,0,61.44,53.06,35.99\C,
 0,59.08,52.06,36.01\C,0,61.07,54.37,35.3\H,0,61.02,49.78,35.99\H,0,61.
 7,51.69,38.19\H,0,60.04,53.13,37.5\H,0,61.88,52.43,35.22\H,0,62.26,53.
 28,36.68\H,0,58.24,51.6,36.54\H,0,58.74,53.01,35.59\H,0,59.44,51.4,35.
 23\H,0,60.28,54.27,34.57\H,0,60.67,54.94,36.14\H,0,61.92,54.9,34.88\N,
 0,59.92,51.21,39.82\C,0,59.17,50.66,40.93\C,0,57.65,50.53,40.87\O,0,57
 .03,50.75,39.84\C,0,59.79,49.34,41.36\O,0,61.2,49.23,41.39\H,0,60.47,5
 2.04,39.97\H,0,59.33,51.26,41.83\H,0,59.36,48.66,40.62\H,0,59.32,48.99
 ,42.28\H,0,61.72,50.03,41.44\N,0,56.96,50.25,41.98\C,0,55.51,50.28,41.
 86\C,0,54.84,51.63,41.72\O,0,55.18,52.56,42.45\C,0,54.9,49.49,43.01\H,
 0,57.36,50.05,42.88\H,0,55.14,49.69,41.01\H,0,55.29,48.48,43.11\H,0,54
 .99,49.94,44.\H,0,53.82,49.36,42.89\N,0,53.81,51.74,40.87\C,0,53.09,52
 .98,40.66\C,0,53.89,54.13,40.05\O,0,53.48,55.29,40.15\C,0,52.19,53.29,
 41.85\H,0,53.48,50.94,40.35\H,0,52.49,52.54,39.87\H,0,51.66,52.41,42.2
 \H,0,52.81,53.74,42.62\H,0,51.42,54.01,41.58\N,0,55.05,53.77,39.49\C,0
 ,55.82,54.66,38.64\C,0,55.29,54.59,37.22\O,0,55.33,55.66,36.6\C,0,57.3
 ,54.39,38.86\C,0,58.14,55.47,38.17\C,0,58.24,56.65,39.13\O,0,58.84,56.
 56,40.22\O,0,57.56,57.68,38.93\H,0,55.39,52.83,39.65\H,0,55.61,55.7,38
 .9\H,0,57.49,53.48,38.28\H,0,57.65,54.15,39.86\H,0,57.72,55.65,37.18\H
 ,0,59.15,55.07,38.13\N,0,54.83,53.44,36.73\C,0,54.19,53.34,35.43\H,0,5
 3.294,53.961,35.418\H,0,54.879,53.682,34.658\H,0,53.915,52.303,35.239\
 H,0,54.78,52.63,37.33\Ca,0,58.95,56.71,42.8\O,0,60.52,56.47,44.9\H,0,6
 0.76,57.2,45.46\H,0,60.99,55.72,45.27\\Version=ES64L-G16RevA.03\State=
 1-A\HF=-5333.2643698\RMSD=1.504e-09\Dipole=-9.948266,7.1296891,6.50478
 32\Quadrupole=-181.6306829,193.1946094,-11.5639265,-50.3929512,-16.011
 2295,22.765345\PG=C01 [X(C54H83Ca1N15O23)]\\@


 NO MATTER HOW THIN YOU SLICE IT, IT'S STILL BALONEY

                                   -- ALFRED E. SMITH
 Job cpu time:       0 days 19 hours  1 minutes 16.8 seconds.
 Elapsed time:       0 days  0 hours 24 minutes  6.1 seconds.
 File lengths (MBytes):  RWF=   1517 Int=      0 D2E=      0 Chk=    171 Scr=      1
 Normal termination of Gaussian 16 at Wed Sep 18 17:51:45 2019.
