 Entering Gaussian System, Link 0=g16
 Initial command:
 /home1/apps/gaussian/16rA.03/g16/l1.exe "/scratch/01990/pengzhi/4356774/Gau-87123.inp" -scrdir="/scratch/01990/pengzhi/4356774/"
 Entering Link 1 = /home1/apps/gaussian/16rA.03/g16/l1.exe PID=     87124.
  
 Copyright (c) 1988,1990,1992,1993,1995,1998,2003,2009,2016,
            Gaussian, Inc.  All Rights Reserved.
  
 This is part of the Gaussian(R) 16 program.  It is based on
 the Gaussian(R) 09 system (copyright 2009, Gaussian, Inc.),
 the Gaussian(R) 03 system (copyright 2003, Gaussian, Inc.),
 the Gaussian(R) 98 system (copyright 1998, Gaussian, Inc.),
 the Gaussian(R) 94 system (copyright 1995, Gaussian, Inc.),
 the Gaussian 92(TM) system (copyright 1992, Gaussian, Inc.),
 the Gaussian 90(TM) system (copyright 1990, Gaussian, Inc.),
 the Gaussian 88(TM) system (copyright 1988, Gaussian, Inc.),
 the Gaussian 86(TM) system (copyright 1986, Carnegie Mellon
 University), and the Gaussian 82(TM) system (copyright 1983,
 Carnegie Mellon University). Gaussian is a federally registered
 trademark of Gaussian, Inc.
  
 This software contains proprietary and confidential information,
 including trade secrets, belonging to Gaussian, Inc.
  
 This software is provided under written license and may be
 used, copied, transmitted, or stored only in accord with that
 written license.
  
 The following legend is applicable only to US Government
 contracts under FAR:
  
                    RESTRICTED RIGHTS LEGEND
  
 Use, reproduction and disclosure by the US Government is
 subject to restrictions as set forth in subparagraphs (a)
 and (c) of the Commercial Computer Software - Restricted
 Rights clause in FAR 52.227-19.
  
 Gaussian, Inc.
 340 Quinnipiac St., Bldg. 40, Wallingford CT 06492
  
  
 ---------------------------------------------------------------
 Warning -- This program may not be used in any manner that
 competes with the business of Gaussian, Inc. or will provide
 assistance to any competitor of Gaussian, Inc.  The licensee
 of this program is prohibited from giving any competitor of
 Gaussian, Inc. access to this program.  By using this program,
 the user acknowledges that Gaussian, Inc. is engaged in the
 business of creating and licensing software in the field of
 computational chemistry and represents and warrants to the
 licensee that it is not a competitor of Gaussian, Inc. and that
 it will not use this program in any manner prohibited above.
 ---------------------------------------------------------------
  

 Cite this work as:
 Gaussian 16, Revision A.03,
 M. J. Frisch, G. W. Trucks, H. B. Schlegel, G. E. Scuseria, 
 M. A. Robb, J. R. Cheeseman, G. Scalmani, V. Barone, 
 G. A. Petersson, H. Nakatsuji, X. Li, M. Caricato, A. V. Marenich, 
 J. Bloino, B. G. Janesko, R. Gomperts, B. Mennucci, H. P. Hratchian, 
 J. V. Ortiz, A. F. Izmaylov, J. L. Sonnenberg, D. Williams-Young, 
 F. Ding, F. Lipparini, F. Egidi, J. Goings, B. Peng, A. Petrone, 
 T. Henderson, D. Ranasinghe, V. G. Zakrzewski, J. Gao, N. Rega, 
 G. Zheng, W. Liang, M. Hada, M. Ehara, K. Toyota, R. Fukuda, 
 J. Hasegawa, M. Ishida, T. Nakajima, Y. Honda, O. Kitao, H. Nakai, 
 T. Vreven, K. Throssell, J. A. Montgomery, Jr., J. E. Peralta, 
 F. Ogliaro, M. J. Bearpark, J. J. Heyd, E. N. Brothers, K. N. Kudin, 
 V. N. Staroverov, T. A. Keith, R. Kobayashi, J. Normand, 
 K. Raghavachari, A. P. Rendell, J. C. Burant, S. S. Iyengar, 
 J. Tomasi, M. Cossi, J. M. Millam, M. Klene, C. Adamo, R. Cammi, 
 J. W. Ochterski, R. L. Martin, K. Morokuma, O. Farkas, 
 J. B. Foresman, and D. J. Fox, Gaussian, Inc., Wallingford CT, 2016.
 
 ******************************************
 Gaussian 16:  ES64L-G16RevA.03 25-Dec-2016
                18-Sep-2019 
 ******************************************
 %chk=Ng-31_loop3_48.0.chk
 %nprocshared=48
 Will use up to   48 processors via shared memory.
 %mem=10GB
 %nosave
 ----------------------------------------------------------------------
 #b3lyp/svp scf=(tight,noincore) Test #IOP(5/87=12) Density=Current Pop
 =(MK,readradii) iop(6/33=2) iop(6/42=6)
 ----------------------------------------------------------------------
 1/30=1,38=1,172=1/1;
 2/12=2,17=6,18=5,40=1/2;
 3/5=18,7=101,11=2,25=1,30=1,74=-5/1,2,3;
 4//1;
 5/5=4,32=2,38=5,87=12/2;
 6/7=2,8=2,9=2,10=2,15=8,20=101,22=-1,28=1,33=2,42=6/1,2;
 99/5=1,9=1/99;
 ----------------
 Ng-31_loop3_48.0
 ----------------
 Symbolic Z-matrix:
 Charge =  0 Multiplicity = 1
 C                     84.61     75.18     25.94 
 C                     86.11     74.98     26.09 
 O                     86.56     74.11     26.83 
 H                     84.13     75.067    26.912 
 H                     84.413    76.179    25.552 
 H                     84.211    74.436    25.25 
 N                     86.97     75.82     25.49 
 C                     88.4      75.7      25.69 
 C                     88.83     75.91     27.14 
 O                     89.3      75.08     27.91 
 C                     89.13     76.63     24.73 
 C                     88.47     77.99     24.51 
 O                     87.41     78.4      25.03 
 O                     89.11     78.78     23.78 
 H                     86.61     76.54     24.88 
 H                     88.68     74.67     25.48 
 H                     88.99     76.17     23.75 
 H                     90.18     76.69     24.99 
 N                     88.5      77.1      27.63 
 C                     89.09     77.84     28.73 
 C                     90.61     77.89     28.65 
 O                     91.14     78.71     27.91 
 C                     88.38     79.19     28.8 
 C                     88.32     79.83     30.18 
 C                     87.69     81.21     30.02 
 C                     87.88     82.03     31.29 
 N                     87.66     83.42     30.88 
 H                     87.74     77.54     27.11 
 H                     88.9      77.25     29.63 
 H                     87.33     79.05     28.52 
 H                     88.88     79.85     28.09 
 H                     89.33     80.       30.55 
 H                     87.78     79.18     30.86 
 H                     86.63     81.19     29.76 
 H                     88.17     81.77     29.22 
 H                     88.9      81.89     31.65 
 H                     87.17     81.75     32.07 
 H                     88.53     83.81     30.56 
 H                     86.97     83.27     30.15 
 H                     87.41     83.99     31.68 
 N                     91.34     77.07     29.41 
 C                     92.78     76.92     29.5 
 C                     93.34     76.18     28.3 
 O                     94.46     76.49     27.93 
 C                     93.13     76.1      30.73 
 C                     92.41     74.77     30.89 
 O                     92.84     73.94     31.72 
 O                     91.3      74.62     30.32 
 H                     90.86     76.3      29.85 
 H                     93.17     77.94     29.5 
 H                     93.       76.69     31.64 
 H                     94.2      75.86     30.73 
 N                     92.52     75.36     27.63 
 C                     92.81     74.7      26.37 
 C                     92.88     75.66     25.19 
 O                     92.79     76.88     25.27 
 H                     91.63     75.19     28.07 
 H                     92.17     73.85     26.13 
 H                     93.77     74.19     26.48 
 N                     92.84     75.2      23.94 
 C                     92.92     73.83     23.46 
 C                     91.57     73.14     23.43 
 O                     90.52     73.78     23.51 
 C                     93.56     73.83     22.07 
 C                     93.71     72.53     21.29 
 N                     92.77     72.35     20.36 
 O                     94.63     71.72     21.32 
 H                     92.74     75.95     23.28 
 H                     93.6      73.24     24.07 
 H                     94.53     74.32     22.16 
 H                     92.93     74.5      21.49 
 H                     92.09     73.06     20.1 
 H                     92.92     71.54     19.78 
 N                     91.45     71.81     23.52 
 C                     92.44     70.77     23.7 
 C                     92.01     69.8      24.8 
 O                     91.03     69.98     25.51 
 H                     90.5      71.47     23.42 
 H                     93.4      71.15     24.05 
 H                     92.54     70.27     22.74 
 N                     92.99     68.92     25.03 
 C                     92.84     67.84     25.98 
 C                     94.11     67.79     26.82 
 O                     95.22     67.65     26.31 
 C                     92.61     66.49     25.29 
 C                     91.52     66.29     24.27 
 C                     90.36     65.59     24.61 
 C                     91.79     66.76     22.98 
 C                     89.47     65.2      23.61 
 C                     90.79     66.55     22.02 
 C                     89.66     65.78     22.34 
 O                     88.63     65.68     21.45 
 H                     93.86     69.       24.52 
 H                     92.       68.1      26.62 
 H                     92.37     65.82     26.11 
 H                     93.47     66.       24.85 
 H                     90.22     65.36     25.66 
 H                     92.73     67.23     22.74 
 H                     88.55     64.66     23.83 
 H                     91.11     66.93     21.06 
 H                     88.64     66.29     20.71 
 N                     93.92     67.58     28.12 
 C                     94.98     67.53     29.1 
 C                     95.       66.12     29.7 
 O                     95.85     65.8      30.53 
 C                     94.72     68.6      30.16 
 C                     93.6      68.21     31.11 
 C                     95.9      69.08     30.99 
 C                     93.06     69.32     32.01 
 H                     93.01     67.81     28.49 
 H                     95.93     67.76     28.6 
 H                     94.37     69.52     29.69 
 H                     93.91     67.37     31.73 
 H                     92.73     67.84     30.57 
 H                     96.36     68.37     31.68 
 H                     96.71     69.34     30.31 
 H                     95.7      70.06     31.43 
 H                     92.14     69.02     32.52 
 H                     93.87     69.78     32.57 
 H                     92.67     70.18     31.46 
 N                     94.       65.28     29.44 
 C                     93.93     63.88     29.8 
 C                     93.01     63.51     30.96 
 O                     92.97     62.37     31.41 
 C                     93.42     63.15     28.56 
 O                     94.29     63.46     27.5 
 H                     93.34     65.63     28.76 
 H                     94.95     63.61     30.08 
 H                     92.45     63.62     28.38 
 H                     93.32     62.09     28.79 
 H                     95.18     63.58     27.84 
 N                     92.3      64.46     31.58 
 C                     91.68     64.27     32.87 
 C                     90.63     65.33     33.14 
 O                     90.94     66.5      32.95 
 C                     92.7      64.24     34. 
 H                     92.35     65.42     31.27 
 H                     91.15     63.31     32.81 
 H                     92.27     64.54     34.96 
 H                     93.18     63.26     34.07 
 H                     93.42     65.03     33.78 
 N                     89.49     64.9      33.7 
 C                     88.44     65.63     34.37 
 C                     87.77     66.72     33.54 
 O                     87.14     67.59     34.13 
 C                     88.98     66.11     35.71 
 H                     89.53     63.9      33.84 
 H                     87.61     64.99     34.67 
 H                     88.29     66.7      36.32 
 H                     89.33     65.26     36.3 
 H                     89.79     66.79     35.46 
 N                     87.78     66.63     32.21 
 C                     87.38     67.66     31.27 
 C                     86.15     67.25     30.47 
 O                     85.29     68.07     30.16 
 C                     88.52     67.91     30.28 
 C                     89.64     68.78     30.83 
 C                     89.38     70.27     30.65 
 O                     90.19     71.04     30.09 
 O                     88.44     70.79     31.29 
 H                     88.24     65.81     31.84 
 H                     87.14     68.61     31.74 
 H                     88.24     68.44     29.37 
 H                     88.95     66.95     29.99 
 H                     90.55     68.5      30.3 
 H                     89.85     68.61     31.88 
 N                     85.92     65.96     30.2 
 C                     84.7      65.28     29.82 
 H                     83.929    66.017    29.594 
 H                     84.885    64.666    28.938 
 H                     84.366    64.646    30.641 
 H                     86.7      65.33     30.33 
 Ca                    89.13     73.19     30.54 
 O                     87.92     72.17     28.44 
 H                     87.57     72.69     27.71 
 H                     87.45     71.34     28.38 
 
 Stoichiometry    C54H83CaN15O23
 Framework group  C1[X(C54H83CaN15O23)]
 Deg. of freedom   522
 Full point group                 C1      NOp   1
 Largest Abelian subgroup         C1      NOp   1
 Largest concise Abelian subgroup C1      NOp   1
                         Standard orientation:                         
 ---------------------------------------------------------------------
 Center     Atomic      Atomic             Coordinates (Angstroms)
 Number     Number       Type             X           Y           Z
 ---------------------------------------------------------------------
      1          6           0        5.277898   -0.940921    5.493965
      2          6           0        4.836040   -0.480072    4.113792
      3          8           0        3.764450   -0.845491    3.639277
      4          1           0        5.015309   -1.990313    5.627293
      5          1           0        6.356836   -0.821940    5.589312
      6          1           0        4.776731   -0.342317    6.255110
      7          7           0        5.658968    0.256348    3.348497
      8          6           0        5.292717    0.632334    1.998018
      9          6           0        5.101265   -0.561933    1.066046
     10          8           0        4.058453   -0.953609    0.554351
     11          6           0        6.303363    1.633640    1.454528
     12          6           0        7.757757    1.366772    1.838086
     13          8           0        8.185339    0.426896    2.542294
     14          8           0        8.593838    2.146870    1.329149
     15          1           0        6.543470    0.561242    3.729019
     16          1           0        4.308971    1.095091    2.036736
     17          1           0        6.104929    2.548737    2.015618
     18          1           0        6.151134    1.782689    0.392308
     19          7           0        6.182113   -1.324672    0.943171
     20          6           0        6.558175   -2.224604   -0.131259
     21          6           0        6.406824   -1.586627   -1.505806
     22          8           0        7.289841   -0.843702   -1.917198
     23          6           0        7.943701   -2.773236    0.201639
     24          6           0        8.252509   -4.157539   -0.351483
     25          6           0        9.708122   -4.471042   -0.020114
     26          6           0       10.179602   -5.689706   -0.803673
     27          7           0       11.643338   -5.622210   -0.764663
     28          1           0        6.833734   -1.207643    1.719891
     29          1           0        5.811249   -3.022279   -0.135297
     30          1           0        8.023483   -2.891176    1.288020
     31          1           0        8.670096   -2.043254   -0.157774
     32          1           0        8.186735   -4.141596   -1.438369
     33          1           0        7.548344   -4.876844    0.052560
     34          1           0        9.900296   -4.630293    1.042575
     35          1           0       10.361709   -3.650425   -0.308927
     36          1           0        9.816209   -5.611017   -1.829029
     37          1           0        9.833144   -6.623820   -0.358368
     38          1           0       11.967446   -5.065050   -1.536626
     39          1           0       11.764948   -5.192355    0.147443
     40          1           0       12.044785   -6.537843   -0.931564
     41          7           0        5.338672   -1.872769   -2.254187
     42          6           0        4.967292   -1.387852   -3.569912
     43          6           0        4.449336    0.036850   -3.513806
     44          8           0        4.672043    0.746733   -4.480175
     45          6           0        3.845970   -2.245962   -4.130345
     46          6           0        2.631950   -2.449456   -3.237236
     47          8           0        1.581130   -2.910941   -3.732726
     48          8           0        2.777107   -2.323886   -1.995197
     49          1           0        4.565326   -2.331241   -1.797417
     50          1           0        5.893487   -1.404858   -4.148162
     51          1           0        4.224290   -3.219907   -4.448788
     52          1           0        3.461565   -1.803970   -5.057370
     53          7           0        3.930743    0.470715   -2.357726
     54          6           0        3.542242    1.835488   -2.051520
     55          6           0        4.726725    2.783818   -1.922794
     56          8           0        5.895950    2.480714   -2.132418
     57          1           0        3.793844   -0.238822   -1.656003
     58          1           0        2.870508    1.949817   -1.199815
     59          1           0        2.888448    2.179095   -2.856683
     60          7           0        4.575788    3.982894   -1.361426
     61          6           0        3.355166    4.671208   -0.974118
     62          6           0        2.891138    4.300583    0.421165
     63          8           0        3.639489    3.728831    1.215879
     64          6           0        3.581744    6.180369   -1.087234
     65          6           0        2.487185    7.157459   -0.677190
     66          7           0        2.661531    7.680315    0.538180
     67          8           0        1.568594    7.607204   -1.353444
     68          1           0        5.463366    4.426592   -1.208333
     69          1           0        2.549977    4.466048   -1.675674
     70          1           0        3.893922    6.385168   -2.111784
     71          1           0        4.449925    6.364149   -0.458993
     72          1           0        3.502115    7.546926    1.094710
     73          1           0        1.992960    8.396173    0.773887
     74          7           0        1.607168    4.387142    0.789034
     75          6           0        0.422748    4.763445    0.047652
     76          6           0       -0.701457    3.753972    0.277714
     77          8           0       -0.550296    2.707939    0.894045
     78          1           0        1.438838    4.174881    1.766127
     79          1           0        0.570912    4.745007   -1.032259
     80          1           0        0.146831    5.757213    0.391011
     81          7           0       -1.741841    4.055167   -0.506240
     82          6           0       -2.977732    3.305767   -0.457530
     83          6           0       -3.400208    3.026404   -1.894356
     84          8           0       -3.577281    3.932587   -2.706316
     85          6           0       -4.086589    4.065544    0.280493
     86          6           0       -3.889396    4.617158    1.668058
     87          6           0       -4.475003    3.982280    2.765871
     88          6           0       -3.180168    5.820028    1.757513
     89          6           0       -4.493986    4.621609    4.004862
     90          6           0       -3.019240    6.352453    3.044497
     91          6           0       -3.671964    5.758384    4.136849
     92          8           0       -3.416854    6.197959    5.403614
     93          1           0       -1.672701    4.835488   -1.146333
     94          1           0       -2.753578    2.363499    0.037127
     95          1           0       -4.885057    3.334856    0.366767
     96          1           0       -4.580855    4.869913   -0.250535
     97          1           0       -4.916825    3.008738    2.586956
     98          1           0       -2.807384    6.317740    0.876937
     99          1           0       -4.932455    4.160937    4.889128
    100          1           0       -2.479396    7.287639    2.995550
    101          1           0       -2.661516    6.778613    5.513630
    102          7           0       -3.872854    1.802761   -2.116845
    103          6           0       -4.297295    1.316527   -3.409101
    104          6           0       -5.795135    1.003539   -3.325349
    105          8           0       -6.415099    0.618377   -4.315851
    106          6           0       -3.472539    0.079556   -3.763755
    107          6           0       -3.905083   -1.146505   -2.977191
    108          6           0       -3.369530   -0.309852   -5.229855
    109          6           0       -2.965053   -2.349527   -3.029918
    110          1           0       -3.605729    1.085205   -1.459838
    111          1           0       -4.097486    2.093763   -4.158354
    112          1           0       -2.428963    0.228355   -3.483383
    113          1           0       -4.900248   -1.460072   -3.289315
    114          1           0       -4.013008   -0.922438   -1.917216
    115          1           0       -4.277052   -0.651625   -5.731249
    116          1           0       -3.079557    0.573965   -5.796321
    117          1           0       -2.498056   -0.944200   -5.409114
    118          1           0       -3.238849   -3.113317   -2.296324
    119          1           0       -2.766455   -2.628931   -4.061321
    120          1           0       -1.955196   -2.133187   -2.672726
    121          7           0       -6.401075    0.998782   -2.139594
    122          6           0       -7.821434    0.869170   -1.894070
    123          6           0       -8.311468   -0.476256   -1.366247
    124          8           0       -9.506399   -0.718464   -1.235199
    125          6           0       -8.167274    1.925354   -0.847423
    126          8           0       -7.750743    3.170364   -1.350465
    127          1           0       -5.813801    1.313928   -1.380455
    128          1           0       -8.291675    1.041736   -2.864015
    129          1           0       -7.534531    1.648259   -0.000632
    130          1           0       -9.226205    1.848331   -0.604046
    131          1           0       -7.840594    3.176471   -2.306493
    132          7           0       -7.437013   -1.462238   -1.133504
    133          6           0       -7.826496   -2.842089   -0.963459
    134          6           0       -6.717265   -3.654692   -0.324489
    135          8           0       -5.591674   -3.552675   -0.797500
    136          6           0       -8.260296   -3.483440   -2.274445
    137          1           0       -6.448881   -1.315012   -1.282229
    138          1           0       -8.661121   -2.832784   -0.249726
    139          1           0       -8.129655   -4.569456   -2.272426
    140          1           0       -9.288676   -3.208724   -2.524775
    141          1           0       -7.552461   -3.138375   -3.029958
    142          7           0       -7.096152   -4.526124    0.621635
    143          6           0       -6.396247   -5.650514    1.196249
    144          6           0       -5.060702   -5.321324    1.854924
    145          8           0       -4.267867   -6.236915    2.042023
    146          6           0       -6.318311   -6.746397    0.142415
    147          1           0       -8.096767   -4.477923    0.754476
    148          1           0       -6.962214   -6.134145    1.992668
    149          1           0       -5.791049   -7.657821    0.438389
    150          1           0       -7.321967   -7.015911   -0.193943
    151          1           0       -5.722414   -6.322346   -0.661381
    152          7           0       -4.844240   -4.089930    2.317432
    153          6           0       -3.579966   -3.548963    2.779456
    154          6           0       -3.615281   -3.217028    4.265919
    155          8           0       -2.631544   -3.390361    4.980284
    156          6           0       -3.275924   -2.256363    2.018575
    157          6           0       -2.724700   -2.475710    0.617918
    158          6           0       -1.211616   -2.649170    0.593640
    159          8           0       -0.458081   -1.956829   -0.124307
    160          8           0       -0.722798   -3.670952    1.123373
    161          1           0       -5.614949   -3.447142    2.200253
    162          1           0       -2.738513   -4.220932    2.633113
    163          1           0       -2.517127   -1.617109    2.469111
    164          1           0       -4.195448   -1.675341    1.932037
    165          1           0       -3.003330   -1.604171    0.026154
    166          1           0       -3.158906   -3.326950    0.105710
    167          7           0       -4.762541   -2.850001    4.848144
    168          6           0       -5.155426   -2.853974    6.241279
    169          1           0       -4.283591   -3.057025    6.863662
    170          1           0       -5.571146   -1.880974    6.505084
    171          1           0       -5.905992   -3.626802    6.405415
    172          1           0       -5.510661   -2.573199    4.226937
    173         20           0        1.660845   -3.112683    0.226055
    174          8           0        1.333021   -1.489321    2.268536
    175          1           0        2.051002   -1.039036    2.724107
    176          1           0        0.614964   -1.478303    2.899150
 ---------------------------------------------------------------------
 Rotational constants (GHZ):           0.0199773           0.0109405           0.0092878
 Standard basis: SVP (5D, 7F)
 There are  1809 symmetry adapted cartesian basis functions of A   symmetry.
 There are  1717 symmetry adapted basis functions of A   symmetry.
  1717 basis functions,  2922 primitive gaussians,  1809 cartesian basis functions
   358 alpha electrons      358 beta electrons
       nuclear repulsion energy     19745.7143794250 Hartrees.
 NAtoms=  176 NActive=  176 NUniq=  176 SFac= 1.00D+00 NAtFMM=   60 NAOKFM=T Big=T
 Integral buffers will be    131072 words long.
 Raffenetti 2 integral format.
 Two-electron integral symmetry is turned on.
 One-electron integrals computed using PRISM.
 NBasis=  1717 RedAO= T EigKep=  3.24D-04  NBF=  1717
 NBsUse=  1717 1.00D-06 EigRej= -1.00D+00 NBFU=  1717
 ExpMin= 1.98D-02 ExpMax= 3.51D+04 ExpMxC= 5.28D+03 IAcc=3 IRadAn=         5 AccDes= 0.00D+00
 Harris functional with IExCor=  402 and IRadAn=       5 diagonalized for initial guess.
 HarFok:  IExCor=  402 AccDes= 0.00D+00 IRadAn=         5 IDoV= 1 UseB2=F ITyADJ=14
 ICtDFT=  3500011 ScaDFX=  1.000000  1.000000  1.000000  1.000000
 FoFCou: FMM=F IPFlag=           0 FMFlag=      100000 FMFlg1=        2001
         NFxFlg=           0 DoJE=T BraDBF=F KetDBF=T FulRan=T
         wScrn=  0.000000 ICntrl=       500 IOpCl=  0 I1Cent=   200000004 NGrid=           0
         NMat0=    1 NMatS0=      1 NMatT0=    0 NMatD0=    1 NMtDS0=    0 NMtDT0=    0
 Petite list used in FoFCou.
 Requested convergence on RMS density matrix=1.00D-08 within 128 cycles.
 Requested convergence on MAX density matrix=1.00D-06.
 Requested convergence on             energy=1.00D-06.
 No special actions if energy rises.
 EnCoef did     2 forward-backward iterations
 EnCoef did     2 forward-backward iterations
 EnCoef did     2 forward-backward iterations
 Rare condition: small coef for last iteration:  0.000D+00
 EnCoef did     8 forward-backward iterations
 EnCoef did   100 forward-backward iterations
 EnCoef did   100 forward-backward iterations
 EnCoef did     2 forward-backward iterations
 Restarting incremental Fock formation.
 SCF Done:  E(RB3LYP) =  -5333.37075843     A.U. after   29 cycles
            NFock= 29  Conv=0.24D-08     -V/T= 2.0080
 SCF density gives NOpUse=  1 NOpAll=  1.
 Hyperfine terms turned off by default for NAtoms > 100.

 **********************************************************************

            Population analysis using the SCF density.

 **********************************************************************

 Orbital symmetries:
 BldTbl:  Degeneracy threshold= 1.00D-02
       Occupied  (A) (A) (A) (A) (A) (A) (A) (A) (A) (A) (A) (A)
                 (A) (A) (A) (A) (A) (A) (A) (A) (A) (A) (A) (A)
                 (A) (A) (A) (A) (A) (A) (A) (A) (A) (A) (A) (A)
                 (A) (A) (A) (A) (A) (A) (A) (A) (A) (A) (A) (A)
                 (A) (A) (A) (A) (A) (A) (A) (A) (A) (A) (A) (A)
                 (A) (A) (A) (A) (A) (A) (A) (A) (A) (A) (A) (A)
                 (A) (A) (A) (A) (A) (A) (A) (A) (A) (A) (A) (A)
                 (A) (A) (A) (A) (A) (A) (A) (A) (A) (A) (A) (A)
                 (A) (A) (A) (A) (A) (A) (A) (A) (A) (A) (A) (A)
                 (A) (A) (A) (A) (A) (A) (A) (A) (A) (A) (A) (A)
                 (A) (A) (A) (A) (A) (A) (A) (A) (A) (A) (A) (A)
                 (A) (A) (A) (A) (A) (A) (A) (A) (A) (A) (A) (A)
                 (A) (A) (A) (A) (A) (A) (A) (A) (A) (A) (A) (A)
                 (A) (A) (A) (A) (A) (A) (A) (A) (A) (A) (A) (A)
                 (A) (A) (A) (A) (A) (A) (A) (A) (A) (A) (A) (A)
                 (A) (A) (A) (A) (A) (A) (A) (A) (A) (A) (A) (A)
                 (A) (A) (A) (A) (A) (A) (A) (A) (A) (A) (A) (A)
                 (A) (A) (A) (A) (A) (A) (A) (A) (A) (A) (A) (A)
                 (A) (A) (A) (A) (A) (A) (A) (A) (A) (A) (A) (A)
                 (A) (A) (A) (A) (A) (A) (A) (A) (A) (A) (A) (A)
                 (A) (A) (A) (A) (A) (A) (A) (A) (A) (A) (A) (A)
                 (A) (A) (A) (A) (A) (A) (A) (A) (A) (A) (A) (A)
                 (A) (A) (A) (A) (A) (A) (A) (A) (A) (A) (A) (A)
                 (A) (A) (A) (A) (A) (A) (A) (A) (A) (A) (A) (A)
                 (A) (A) (A) (A) (A) (A) (A) (A) (A) (A) (A) (A)
                 (A) (A) (A) (A) (A) (A) (A) (A) (A) (A) (A) (A)
                 (A) (A) (A) (A) (A) (A) (A) (A) (A) (A) (A) (A)
                 (A) (A) (A) (A) (A) (A) (A) (A) (A) (A) (A) (A)
                 (A) (A) (A) (A) (A) (A) (A) (A) (A) (A) (A) (A)
                 (A) (A) (A) (A) (A) (A) (A) (A) (A) (A)
       Virtual   (A) (A) (A) (A) (A) (A) (A) (A) (A) (A) (A) (A)
                 (A) (A) (A) (A) (A) (A) (A) (A) (A) (A) (A) (A)
                 (A) (A) (A) (A) (A) (A) (A) (A) (A) (A) (A) (A)
                 (A) (A) (A) (A) (A) (A) (A) (A) (A) (A) (A) (A)
                 (A) (A) (A) (A) (A) (A) (A) (A) (A) (A) (A) (A)
                 (A) (A) (A) (A) (A) (A) (A) (A) (A) (A) (A) (A)
                 (A) (A) (A) (A) (A) (A) (A) (A) (A) (A) (A) (A)
                 (A) (A) (A) (A) (A) (A) (A) (A) (A) (A) (A) (A)
                 (A) (A) (A) (A) (A) (A) (A) (A) (A) (A) (A) (A)
                 (A) (A) (A) (A) (A) (A) (A) (A) (A) (A) (A) (A)
                 (A) (A) (A) (A) (A) (A) (A) (A) (A) (A) (A) (A)
                 (A) (A) (A) (A) (A) (A) (A) (A) (A) (A) (A) (A)
                 (A) (A) (A) (A) (A) (A) (A) (A) (A) (A) (A) (A)
                 (A) (A) (A) (A) (A) (A) (A) (A) (A) (A) (A) (A)
                 (A) (A) (A) (A) (A) (A) (A) (A) (A) (A) (A) (A)
                 (A) (A) (A) (A) (A) (A) (A) (A) (A) (A) (A) (A)
                 (A) (A) (A) (A) (A) (A) (A) (A) (A) (A) (A) (A)
                 (A) (A) (A) (A) (A) (A) (A) (A) (A) (A) (A) (A)
                 (A) (A) (A) (A) (A) (A) (A) (A) (A) (A) (A) (A)
                 (A) (A) (A) (A) (A) (A) (A) (A) (A) (A) (A) (A)
                 (A) (A) (A) (A) (A) (A) (A) (A) (A) (A) (A) (A)
                 (A) (A) (A) (A) (A) (A) (A) (A) (A) (A) (A) (A)
                 (A) (A) (A) (A) (A) (A) (A) (A) (A) (A) (A) (A)
                 (A) (A) (A) (A) (A) (A) (A) (A) (A) (A) (A) (A)
                 (A) (A) (A) (A) (A) (A) (A) (A) (A) (A) (A) (A)
                 (A) (A) (A) (A) (A) (A) (A) (A) (A) (A) (A) (A)
                 (A) (A) (A) (A) (A) (A) (A) (A) (A) (A) (A) (A)
                 (A) (A) (A) (A) (A) (A) (A) (A) (A) (A) (A) (A)
                 (A) (A) (A) (A) (A) (A) (A) (A) (A) (A) (A) (A)
                 (A) (A) (A) (A) (A) (A) (A) (A) (A) (A) (A) (A)
                 (A) (A) (A) (A) (A) (A) (A) (A) (A) (A) (A) (A)
                 (A) (A) (A) (A) (A) (A) (A) (A) (A) (A) (A) (A)
                 (A) (A) (A) (A) (A) (A) (A) (A) (A) (A) (A) (A)
                 (A) (A) (A) (A) (A) (A) (A) (A) (A) (A) (A) (A)
                 (A) (A) (A) (A) (A) (A) (A) (A) (A) (A) (A) (A)
                 (A) (A) (A) (A) (A) (A) (A) (A) (A) (A) (A) (A)
                 (A) (A) (A) (A) (A) (A) (A) (A) (A) (A) (A) (A)
                 (A) (A) (A) (A) (A) (A) (A) (A) (A) (A) (A) (A)
                 (A) (A) (A) (A) (A) (A) (A) (A) (A) (A) (A) (A)
                 (A) (A) (A) (A) (A) (A) (A) (A) (A) (A) (A) (A)
                 (A) (A) (A) (A) (A) (A) (A) (A) (A) (A) (A) (A)
                 (A) (A) (A) (A) (A) (A) (A) (A) (A) (A) (A) (A)
                 (A) (A) (A) (A) (A) (A) (A) (A) (A) (A) (A) (A)
                 (A) (A) (A) (A) (A) (A) (A) (A) (A) (A) (A) (A)
                 (A) (A) (A) (A) (A) (A) (A) (A) (A) (A) (A) (A)
                 (A) (A) (A) (A) (A) (A) (A) (A) (A) (A) (A) (A)
                 (A) (A) (A) (A) (A) (A) (A) (A) (A) (A) (A) (A)
                 (A) (A) (A) (A) (A) (A) (A) (A) (A) (A) (A) (A)
                 (A) (A) (A) (A) (A) (A) (A) (A) (A) (A) (A) (A)
                 (A) (A) (A) (A) (A) (A) (A) (A) (A) (A) (A) (A)
                 (A) (A) (A) (A) (A) (A) (A) (A) (A) (A) (A) (A)
                 (A) (A) (A) (A) (A) (A) (A) (A) (A) (A) (A) (A)
                 (A) (A) (A) (A) (A) (A) (A) (A) (A) (A) (A) (A)
                 (A) (A) (A) (A) (A) (A) (A) (A) (A) (A) (A) (A)
                 (A) (A) (A) (A) (A) (A) (A) (A) (A) (A) (A) (A)
                 (A) (A) (A) (A) (A) (A) (A) (A) (A) (A) (A) (A)
                 (A) (A) (A) (A) (A) (A) (A) (A) (A) (A) (A) (A)
                 (A) (A) (A) (A) (A) (A) (A) (A) (A) (A) (A) (A)
                 (A) (A) (A) (A) (A) (A) (A) (A) (A) (A) (A) (A)
                 (A) (A) (A) (A) (A) (A) (A) (A) (A) (A) (A) (A)
                 (A) (A) (A) (A) (A) (A) (A) (A) (A) (A) (A) (A)
                 (A) (A) (A) (A) (A) (A) (A) (A) (A) (A) (A) (A)
                 (A) (A) (A) (A) (A) (A) (A) (A) (A) (A) (A) (A)
                 (A) (A) (A) (A) (A) (A) (A) (A) (A) (A) (A) (A)
                 (A) (A) (A) (A) (A) (A) (A) (A) (A) (A) (A) (A)
                 (A) (A) (A) (A) (A) (A) (A) (A) (A) (A) (A) (A)
                 (A) (A) (A) (A) (A) (A) (A) (A) (A) (A) (A) (A)
                 (A) (A) (A) (A) (A) (A) (A) (A) (A) (A) (A) (A)
                 (A) (A) (A) (A) (A) (A) (A) (A) (A) (A) (A) (A)
                 (A) (A) (A) (A) (A) (A) (A) (A) (A) (A) (A) (A)
                 (A) (A) (A) (A) (A) (A) (A) (A) (A) (A) (A) (A)
                 (A) (A) (A) (A) (A) (A) (A) (A) (A) (A) (A) (A)
                 (A) (A) (A) (A) (A) (A) (A) (A) (A) (A) (A) (A)
                 (A) (A) (A) (A) (A) (A) (A) (A) (A) (A) (A) (A)
                 (A) (A) (A) (A) (A) (A) (A) (A) (A) (A) (A) (A)
                 (A) (A) (A) (A) (A) (A) (A) (A) (A) (A) (A) (A)
                 (A) (A) (A) (A) (A) (A) (A) (A) (A) (A) (A) (A)
                 (A) (A) (A) (A) (A) (A) (A) (A) (A) (A) (A) (A)
                 (A) (A) (A) (A) (A) (A) (A) (A) (A) (A) (A) (A)
                 (A) (A) (A) (A) (A) (A) (A) (A) (A) (A) (A) (A)
                 (A) (A) (A) (A) (A) (A) (A) (A) (A) (A) (A) (A)
                 (A) (A) (A) (A) (A) (A) (A) (A) (A) (A) (A) (A)
                 (A) (A) (A) (A) (A) (A) (A) (A) (A) (A) (A) (A)
                 (A) (A) (A) (A) (A) (A) (A) (A) (A) (A) (A) (A)
                 (A) (A) (A) (A) (A) (A) (A) (A) (A) (A) (A) (A)
                 (A) (A) (A) (A) (A) (A) (A) (A) (A) (A) (A) (A)
                 (A) (A) (A) (A) (A) (A) (A) (A) (A) (A) (A) (A)
                 (A) (A) (A) (A) (A) (A) (A) (A) (A) (A) (A) (A)
                 (A) (A) (A) (A) (A) (A) (A) (A) (A) (A) (A) (A)
                 (A) (A) (A) (A) (A) (A) (A) (A) (A) (A) (A) (A)
                 (A) (A) (A) (A) (A) (A) (A) (A) (A) (A) (A) (A)
                 (A) (A) (A) (A) (A) (A) (A) (A) (A) (A) (A) (A)
                 (A) (A) (A) (A) (A) (A) (A) (A) (A) (A) (A) (A)
                 (A) (A) (A) (A) (A) (A) (A) (A) (A) (A) (A) (A)
                 (A) (A) (A) (A) (A) (A) (A) (A) (A) (A) (A) (A)
                 (A) (A) (A) (A) (A) (A) (A) (A) (A) (A) (A) (A)
                 (A) (A) (A) (A) (A) (A) (A) (A) (A) (A) (A) (A)
                 (A) (A) (A) (A) (A) (A) (A) (A) (A) (A) (A) (A)
                 (A) (A) (A) (A) (A) (A) (A) (A) (A) (A) (A) (A)
                 (A) (A) (A) (A) (A) (A) (A) (A) (A) (A) (A) (A)
                 (A) (A) (A) (A) (A) (A) (A) (A) (A) (A) (A) (A)
                 (A) (A) (A) (A) (A) (A) (A) (A) (A) (A) (A) (A)
                 (A) (A) (A) (A) (A) (A) (A) (A) (A) (A) (A) (A)
                 (A) (A) (A) (A) (A) (A) (A) (A) (A) (A) (A) (A)
                 (A) (A) (A) (A) (A) (A) (A) (A) (A) (A) (A) (A)
                 (A) (A) (A) (A) (A) (A) (A) (A) (A) (A) (A) (A)
                 (A) (A) (A) (A) (A) (A) (A) (A) (A) (A) (A) (A)
                 (A) (A) (A) (A) (A) (A) (A) (A) (A) (A) (A) (A)
                 (A) (A) (A) (A) (A) (A) (A) (A) (A) (A) (A) (A)
                 (A) (A) (A) (A) (A) (A) (A) (A) (A) (A) (A) (A)
                 (A) (A) (A) (A) (A) (A) (A) (A) (A) (A) (A) (A)
                 (A) (A) (A) (A) (A) (A) (A) (A) (A) (A) (A) (A)
                 (A) (A) (A) (A) (A) (A) (A) (A) (A) (A) (A) (A)
                 (A) (A) (A)
 The electronic state is 1-A.
 Alpha  occ. eigenvalues -- -145.42883 -19.15529 -19.13498 -19.12631 -19.11891
 Alpha  occ. eigenvalues --  -19.10152 -19.09899 -19.09856 -19.09508 -19.08963
 Alpha  occ. eigenvalues --  -19.08890 -19.08768 -19.07795 -19.07590 -19.07166
 Alpha  occ. eigenvalues --  -19.06396 -19.06265 -19.06003 -19.05599 -19.05078
 Alpha  occ. eigenvalues --  -19.04153 -19.02717 -18.98657 -18.96249 -15.48788
 Alpha  occ. eigenvalues --  -14.58038 -14.38356 -14.36368 -14.35986 -14.35805
 Alpha  occ. eigenvalues --  -14.35780 -14.35324 -14.35226 -14.34773 -14.34307
 Alpha  occ. eigenvalues --  -14.32288 -14.32012 -14.31533 -14.30934 -14.30546
 Alpha  occ. eigenvalues --  -12.62387 -12.62368 -12.62300 -10.34931 -10.30327
 Alpha  occ. eigenvalues --  -10.28859 -10.28774 -10.28627 -10.28368 -10.28269
 Alpha  occ. eigenvalues --  -10.28057 -10.28020 -10.27040 -10.26794 -10.26077
 Alpha  occ. eigenvalues --  -10.25936 -10.25404 -10.25086 -10.25005 -10.24997
 Alpha  occ. eigenvalues --  -10.24651 -10.24483 -10.24337 -10.24116 -10.24115
 Alpha  occ. eigenvalues --  -10.23826 -10.23764 -10.23665 -10.23077 -10.23039
 Alpha  occ. eigenvalues --  -10.22929 -10.22895 -10.22312 -10.22288 -10.20702
 Alpha  occ. eigenvalues --  -10.20400 -10.20382 -10.19396 -10.19296 -10.19049
 Alpha  occ. eigenvalues --  -10.19001 -10.18940 -10.18852 -10.18750 -10.18740
 Alpha  occ. eigenvalues --  -10.18640 -10.18563 -10.18539 -10.18263 -10.17795
 Alpha  occ. eigenvalues --  -10.17364 -10.16516 -10.16366 -10.15701 -10.15625
 Alpha  occ. eigenvalues --  -10.14318 -10.12108  -1.85495  -1.14049  -1.12889
 Alpha  occ. eigenvalues --   -1.12850  -1.12371  -1.05106  -1.04178  -1.03909
 Alpha  occ. eigenvalues --   -1.03496  -1.02768  -1.02664  -1.02478  -1.02388
 Alpha  occ. eigenvalues --   -1.01695  -1.01694  -1.01372  -1.01281  -1.00969
 Alpha  occ. eigenvalues --   -1.00232  -0.99664  -0.99265  -0.98981  -0.98540
 Alpha  occ. eigenvalues --   -0.97280  -0.95281  -0.93965  -0.92820  -0.92740
 Alpha  occ. eigenvalues --   -0.92709  -0.92535  -0.91614  -0.90513  -0.90367
 Alpha  occ. eigenvalues --   -0.90264  -0.90069  -0.89940  -0.89464  -0.89174
 Alpha  occ. eigenvalues --   -0.89083  -0.88135  -0.87972  -0.86705  -0.85082
 Alpha  occ. eigenvalues --   -0.81630  -0.81469  -0.81024  -0.80412  -0.78869
 Alpha  occ. eigenvalues --   -0.78803  -0.77941  -0.77707  -0.76436  -0.75741
 Alpha  occ. eigenvalues --   -0.75492  -0.74912  -0.74545  -0.74434  -0.73379
 Alpha  occ. eigenvalues --   -0.72917  -0.72766  -0.72097  -0.70710  -0.70316
 Alpha  occ. eigenvalues --   -0.69871  -0.69408  -0.69060  -0.68094  -0.67821
 Alpha  occ. eigenvalues --   -0.67508  -0.66343  -0.65477  -0.64571  -0.64547
 Alpha  occ. eigenvalues --   -0.62764  -0.62245  -0.62067  -0.61993  -0.60997
 Alpha  occ. eigenvalues --   -0.60840  -0.60560  -0.60376  -0.60134  -0.59702
 Alpha  occ. eigenvalues --   -0.59367  -0.58975  -0.58877  -0.58527  -0.57900
 Alpha  occ. eigenvalues --   -0.57822  -0.57483  -0.57341  -0.57028  -0.56602
 Alpha  occ. eigenvalues --   -0.56115  -0.55651  -0.55518  -0.55340  -0.54803
 Alpha  occ. eigenvalues --   -0.54466  -0.54105  -0.53282  -0.53091  -0.52174
 Alpha  occ. eigenvalues --   -0.51945  -0.51392  -0.51257  -0.51073  -0.50834
 Alpha  occ. eigenvalues --   -0.50448  -0.50305  -0.49621  -0.49522  -0.49465
 Alpha  occ. eigenvalues --   -0.49407  -0.49199  -0.49049  -0.48808  -0.48685
 Alpha  occ. eigenvalues --   -0.48384  -0.48136  -0.48009  -0.47833  -0.47775
 Alpha  occ. eigenvalues --   -0.47378  -0.47138  -0.46837  -0.46487  -0.46383
 Alpha  occ. eigenvalues --   -0.45997  -0.45902  -0.45830  -0.45660  -0.45573
 Alpha  occ. eigenvalues --   -0.44949  -0.44845  -0.44659  -0.44519  -0.44390
 Alpha  occ. eigenvalues --   -0.44198  -0.44093  -0.43865  -0.43829  -0.43532
 Alpha  occ. eigenvalues --   -0.43327  -0.43072  -0.42940  -0.42876  -0.42776
 Alpha  occ. eigenvalues --   -0.42249  -0.42081  -0.41933  -0.41677  -0.41400
 Alpha  occ. eigenvalues --   -0.41285  -0.41241  -0.41194  -0.40984  -0.40901
 Alpha  occ. eigenvalues --   -0.40826  -0.40783  -0.40663  -0.40620  -0.40440
 Alpha  occ. eigenvalues --   -0.40250  -0.40059  -0.40026  -0.39955  -0.39845
 Alpha  occ. eigenvalues --   -0.39465  -0.39250  -0.39049  -0.39018  -0.38856
 Alpha  occ. eigenvalues --   -0.38727  -0.38509  -0.38483  -0.38393  -0.38221
 Alpha  occ. eigenvalues --   -0.38138  -0.38023  -0.37974  -0.37868  -0.37812
 Alpha  occ. eigenvalues --   -0.37569  -0.37410  -0.37272  -0.37147  -0.36853
 Alpha  occ. eigenvalues --   -0.36832  -0.36674  -0.36434  -0.36382  -0.36148
 Alpha  occ. eigenvalues --   -0.35949  -0.35714  -0.35635  -0.35545  -0.35446
 Alpha  occ. eigenvalues --   -0.35370  -0.34998  -0.34890  -0.34579  -0.34444
 Alpha  occ. eigenvalues --   -0.34191  -0.34082  -0.34056  -0.33632  -0.33349
 Alpha  occ. eigenvalues --   -0.33233  -0.33051  -0.32909  -0.32907  -0.32621
 Alpha  occ. eigenvalues --   -0.32427  -0.32331  -0.31035  -0.30989  -0.30445
 Alpha  occ. eigenvalues --   -0.29986  -0.29280  -0.29206  -0.28793  -0.27907
 Alpha  occ. eigenvalues --   -0.27857  -0.27759  -0.27313  -0.27253  -0.27169
 Alpha  occ. eigenvalues --   -0.26974  -0.26172  -0.26152  -0.25852  -0.25835
 Alpha  occ. eigenvalues --   -0.25605  -0.25368  -0.25138  -0.24725  -0.24660
 Alpha  occ. eigenvalues --   -0.24600  -0.24459  -0.24391  -0.24315  -0.24022
 Alpha  occ. eigenvalues --   -0.23598  -0.23422  -0.23384  -0.22757  -0.22652
 Alpha  occ. eigenvalues --   -0.22579  -0.22258  -0.22160  -0.21852  -0.21832
 Alpha  occ. eigenvalues --   -0.21490  -0.20970  -0.20349  -0.19167  -0.18776
 Alpha  occ. eigenvalues --   -0.15746  -0.14908  -0.11824
 Alpha virt. eigenvalues --   -0.10585  -0.06468  -0.05236  -0.04078  -0.01798
 Alpha virt. eigenvalues --   -0.01637  -0.00652  -0.00310   0.00228   0.00912
 Alpha virt. eigenvalues --    0.00936   0.01170   0.01283   0.01706   0.01762
 Alpha virt. eigenvalues --    0.01787   0.01927   0.02215   0.02423   0.02985
 Alpha virt. eigenvalues --    0.03408   0.03700   0.03788   0.04106   0.04477
 Alpha virt. eigenvalues --    0.04555   0.04589   0.05057   0.05283   0.05531
 Alpha virt. eigenvalues --    0.05588   0.05845   0.05934   0.06067   0.06216
 Alpha virt. eigenvalues --    0.06614   0.06982   0.07046   0.07481   0.07581
 Alpha virt. eigenvalues --    0.07938   0.08184   0.08243   0.08551   0.08835
 Alpha virt. eigenvalues --    0.08898   0.09148   0.09300   0.09531   0.09706
 Alpha virt. eigenvalues --    0.10018   0.10375   0.10541   0.10769   0.11061
 Alpha virt. eigenvalues --    0.11275   0.11384   0.11538   0.11701   0.11874
 Alpha virt. eigenvalues --    0.12068   0.12203   0.12295   0.12539   0.12934
 Alpha virt. eigenvalues --    0.13031   0.13122   0.13187   0.13300   0.13436
 Alpha virt. eigenvalues --    0.13512   0.13707   0.13923   0.13995   0.14039
 Alpha virt. eigenvalues --    0.14125   0.14253   0.14579   0.14681   0.14785
 Alpha virt. eigenvalues --    0.14948   0.14964   0.15121   0.15254   0.15402
 Alpha virt. eigenvalues --    0.15679   0.15787   0.16263   0.16500   0.16525
 Alpha virt. eigenvalues --    0.16627   0.16681   0.16906   0.17113   0.17252
 Alpha virt. eigenvalues --    0.17303   0.17574   0.17780   0.17947   0.18004
 Alpha virt. eigenvalues --    0.18187   0.18304   0.18555   0.18662   0.18779
 Alpha virt. eigenvalues --    0.19015   0.19277   0.19618   0.19803   0.20200
 Alpha virt. eigenvalues --    0.20276   0.20407   0.20553   0.20822   0.20958
 Alpha virt. eigenvalues --    0.21362   0.21455   0.21714   0.21972   0.22156
 Alpha virt. eigenvalues --    0.22392   0.22682   0.22763   0.22994   0.23284
 Alpha virt. eigenvalues --    0.23509   0.23702   0.23889   0.24026   0.24126
 Alpha virt. eigenvalues --    0.24232   0.24433   0.24586   0.24734   0.25009
 Alpha virt. eigenvalues --    0.25273   0.25504   0.25549   0.25684   0.26193
 Alpha virt. eigenvalues --    0.26256   0.26426   0.26979   0.27042   0.27327
 Alpha virt. eigenvalues --    0.27598   0.27751   0.27818   0.27944   0.28398
 Alpha virt. eigenvalues --    0.28863   0.29028   0.29111   0.29413   0.29705
 Alpha virt. eigenvalues --    0.29994   0.30102   0.30229   0.30412   0.30583
 Alpha virt. eigenvalues --    0.30745   0.30807   0.31161   0.31499   0.31533
 Alpha virt. eigenvalues --    0.31648   0.32309   0.32402   0.32993   0.33281
 Alpha virt. eigenvalues --    0.33539   0.33598   0.33983   0.34259   0.34551
 Alpha virt. eigenvalues --    0.34932   0.35139   0.35571   0.36059   0.36117
 Alpha virt. eigenvalues --    0.36412   0.36764   0.37020   0.37400   0.37629
 Alpha virt. eigenvalues --    0.37798   0.37981   0.38263   0.38383   0.39383
 Alpha virt. eigenvalues --    0.39526   0.39897   0.40422   0.40663   0.40759
 Alpha virt. eigenvalues --    0.40838   0.40959   0.41295   0.41664   0.41891
 Alpha virt. eigenvalues --    0.42080   0.42158   0.42424   0.42605   0.42862
 Alpha virt. eigenvalues --    0.42936   0.43048   0.43380   0.43765   0.43803
 Alpha virt. eigenvalues --    0.43995   0.44151   0.44282   0.44607   0.44680
 Alpha virt. eigenvalues --    0.44909   0.45039   0.45166   0.45277   0.46010
 Alpha virt. eigenvalues --    0.46196   0.46486   0.46547   0.46738   0.46836
 Alpha virt. eigenvalues --    0.46952   0.47266   0.47433   0.47644   0.47660
 Alpha virt. eigenvalues --    0.47725   0.47999   0.48307   0.48498   0.48674
 Alpha virt. eigenvalues --    0.49062   0.49120   0.49282   0.49661   0.49788
 Alpha virt. eigenvalues --    0.49878   0.50145   0.50294   0.50726   0.50967
 Alpha virt. eigenvalues --    0.51302   0.51526   0.51535   0.51585   0.51909
 Alpha virt. eigenvalues --    0.52010   0.52213   0.52380   0.52679   0.53055
 Alpha virt. eigenvalues --    0.53356   0.53409   0.53565   0.53631   0.53784
 Alpha virt. eigenvalues --    0.54110   0.54214   0.54318   0.54355   0.54784
 Alpha virt. eigenvalues --    0.55006   0.55178   0.55301   0.55460   0.55935
 Alpha virt. eigenvalues --    0.56132   0.56189   0.56336   0.56479   0.56815
 Alpha virt. eigenvalues --    0.56870   0.57293   0.57503   0.57652   0.57937
 Alpha virt. eigenvalues --    0.58292   0.58384   0.58542   0.58566   0.58868
 Alpha virt. eigenvalues --    0.59010   0.59146   0.59466   0.59570   0.59609
 Alpha virt. eigenvalues --    0.59793   0.59889   0.60124   0.60272   0.60443
 Alpha virt. eigenvalues --    0.60489   0.60621   0.60709   0.60891   0.60982
 Alpha virt. eigenvalues --    0.61124   0.61141   0.61211   0.61728   0.61751
 Alpha virt. eigenvalues --    0.61857   0.62059   0.62106   0.62384   0.62534
 Alpha virt. eigenvalues --    0.62586   0.62704   0.62920   0.63097   0.63151
 Alpha virt. eigenvalues --    0.63232   0.63369   0.63416   0.63539   0.63557
 Alpha virt. eigenvalues --    0.63750   0.64019   0.64094   0.64206   0.64291
 Alpha virt. eigenvalues --    0.64452   0.64632   0.64704   0.64911   0.64944
 Alpha virt. eigenvalues --    0.64968   0.65211   0.65256   0.65397   0.65428
 Alpha virt. eigenvalues --    0.65574   0.65654   0.65701   0.65755   0.65837
 Alpha virt. eigenvalues --    0.65957   0.66013   0.66124   0.66265   0.66352
 Alpha virt. eigenvalues --    0.66420   0.66554   0.66726   0.66771   0.66873
 Alpha virt. eigenvalues --    0.67118   0.67127   0.67196   0.67333   0.67484
 Alpha virt. eigenvalues --    0.67528   0.67673   0.67685   0.67804   0.67919
 Alpha virt. eigenvalues --    0.68017   0.68122   0.68225   0.68415   0.68474
 Alpha virt. eigenvalues --    0.68600   0.68672   0.69076   0.69167   0.69196
 Alpha virt. eigenvalues --    0.69375   0.69453   0.69524   0.69649   0.69709
 Alpha virt. eigenvalues --    0.69879   0.69918   0.70196   0.70289   0.70406
 Alpha virt. eigenvalues --    0.70564   0.70634   0.70721   0.70898   0.70991
 Alpha virt. eigenvalues --    0.71102   0.71173   0.71379   0.71592   0.71668
 Alpha virt. eigenvalues --    0.71859   0.71977   0.71993   0.72189   0.72286
 Alpha virt. eigenvalues --    0.72491   0.72625   0.72743   0.72926   0.73079
 Alpha virt. eigenvalues --    0.73378   0.73414   0.73670   0.73700   0.73788
 Alpha virt. eigenvalues --    0.74145   0.74282   0.74568   0.74829   0.74891
 Alpha virt. eigenvalues --    0.74983   0.75196   0.75588   0.75724   0.76002
 Alpha virt. eigenvalues --    0.76342   0.76403   0.76557   0.76747   0.76841
 Alpha virt. eigenvalues --    0.77089   0.77270   0.77410   0.77556   0.78066
 Alpha virt. eigenvalues --    0.78348   0.78439   0.78643   0.78781   0.78974
 Alpha virt. eigenvalues --    0.79324   0.79613   0.79851   0.80036   0.80308
 Alpha virt. eigenvalues --    0.80393   0.80657   0.81214   0.81331   0.81589
 Alpha virt. eigenvalues --    0.82183   0.82334   0.82428   0.82770   0.82935
 Alpha virt. eigenvalues --    0.83256   0.83470   0.83859   0.84027   0.84524
 Alpha virt. eigenvalues --    0.84599   0.84884   0.85124   0.85483   0.85827
 Alpha virt. eigenvalues --    0.86309   0.86418   0.86561   0.86742   0.87346
 Alpha virt. eigenvalues --    0.87433   0.87607   0.87905   0.88007   0.88189
 Alpha virt. eigenvalues --    0.88615   0.88771   0.89222   0.89501   0.89573
 Alpha virt. eigenvalues --    0.90287   0.90572   0.90603   0.90830   0.91126
 Alpha virt. eigenvalues --    0.91609   0.91762   0.92407   0.92584   0.92973
 Alpha virt. eigenvalues --    0.93280   0.93513   0.93710   0.94170   0.94368
 Alpha virt. eigenvalues --    0.94534   0.94604   0.94691   0.95075   0.95547
 Alpha virt. eigenvalues --    0.95834   0.96046   0.96317   0.96968   0.97371
 Alpha virt. eigenvalues --    0.97399   0.97545   0.98047   0.98133   0.98531
 Alpha virt. eigenvalues --    0.98715   0.99095   0.99352   0.99643   1.00011
 Alpha virt. eigenvalues --    1.00252   1.00780   1.00895   1.01197   1.01607
 Alpha virt. eigenvalues --    1.01806   1.02109   1.02375   1.02617   1.02871
 Alpha virt. eigenvalues --    1.03216   1.03824   1.04067   1.04219   1.04572
 Alpha virt. eigenvalues --    1.04866   1.05000   1.05311   1.05473   1.05782
 Alpha virt. eigenvalues --    1.05933   1.06258   1.06435   1.07075   1.07379
 Alpha virt. eigenvalues --    1.07401   1.07615   1.07813   1.07965   1.08286
 Alpha virt. eigenvalues --    1.08750   1.09172   1.09402   1.09792   1.10065
 Alpha virt. eigenvalues --    1.10085   1.10387   1.10679   1.10890   1.11437
 Alpha virt. eigenvalues --    1.11652   1.11966   1.12022   1.12423   1.12552
 Alpha virt. eigenvalues --    1.12744   1.13113   1.13206   1.13325   1.13477
 Alpha virt. eigenvalues --    1.13838   1.13945   1.14248   1.14491   1.14554
 Alpha virt. eigenvalues --    1.14936   1.15336   1.15887   1.16019   1.16075
 Alpha virt. eigenvalues --    1.16460   1.16702   1.16876   1.17173   1.17590
 Alpha virt. eigenvalues --    1.17997   1.18148   1.18376   1.18583   1.18922
 Alpha virt. eigenvalues --    1.19445   1.19731   1.19866   1.20265   1.20565
 Alpha virt. eigenvalues --    1.20864   1.21068   1.21501   1.21537   1.22087
 Alpha virt. eigenvalues --    1.22267   1.22419   1.22769   1.23015   1.23544
 Alpha virt. eigenvalues --    1.23765   1.23889   1.24057   1.24241   1.24785
 Alpha virt. eigenvalues --    1.24939   1.25255   1.25314   1.25581   1.25882
 Alpha virt. eigenvalues --    1.26060   1.26170   1.26279   1.26392   1.26629
 Alpha virt. eigenvalues --    1.26796   1.27150   1.27265   1.27662   1.27681
 Alpha virt. eigenvalues --    1.27993   1.28115   1.28415   1.28820   1.29140
 Alpha virt. eigenvalues --    1.29440   1.29549   1.30517   1.30701   1.30817
 Alpha virt. eigenvalues --    1.30905   1.31010   1.31211   1.31398   1.31898
 Alpha virt. eigenvalues --    1.32156   1.32335   1.32713   1.32904   1.32974
 Alpha virt. eigenvalues --    1.33342   1.33480   1.33855   1.34212   1.34624
 Alpha virt. eigenvalues --    1.34688   1.35394   1.35443   1.36077   1.36174
 Alpha virt. eigenvalues --    1.36674   1.36847   1.37145   1.37372   1.37678
 Alpha virt. eigenvalues --    1.37873   1.38111   1.38328   1.38890   1.39386
 Alpha virt. eigenvalues --    1.39672   1.39762   1.39838   1.40127   1.40788
 Alpha virt. eigenvalues --    1.40923   1.41437   1.41621   1.41866   1.42120
 Alpha virt. eigenvalues --    1.42454   1.43023   1.43348   1.43493   1.43719
 Alpha virt. eigenvalues --    1.43991   1.44927   1.45188   1.45739   1.46006
 Alpha virt. eigenvalues --    1.46201   1.46312   1.46651   1.47080   1.47280
 Alpha virt. eigenvalues --    1.47391   1.47911   1.48136   1.48347   1.48556
 Alpha virt. eigenvalues --    1.48753   1.49423   1.49760   1.50022   1.50477
 Alpha virt. eigenvalues --    1.50859   1.50914   1.51174   1.51384   1.51467
 Alpha virt. eigenvalues --    1.51785   1.52287   1.52508   1.52784   1.53316
 Alpha virt. eigenvalues --    1.53411   1.53652   1.53903   1.54130   1.54218
 Alpha virt. eigenvalues --    1.54830   1.55053   1.55212   1.55375   1.55768
 Alpha virt. eigenvalues --    1.55914   1.56469   1.56903   1.57429   1.57712
 Alpha virt. eigenvalues --    1.58267   1.58878   1.58968   1.59299   1.59519
 Alpha virt. eigenvalues --    1.59784   1.59873   1.60148   1.60808   1.60864
 Alpha virt. eigenvalues --    1.61302   1.61693   1.61894   1.62094   1.62490
 Alpha virt. eigenvalues --    1.62715   1.63060   1.63224   1.64016   1.64121
 Alpha virt. eigenvalues --    1.64576   1.65270   1.65476   1.66257   1.66394
 Alpha virt. eigenvalues --    1.66484   1.66941   1.67082   1.67164   1.67567
 Alpha virt. eigenvalues --    1.67661   1.68066   1.68287   1.68565   1.69006
 Alpha virt. eigenvalues --    1.69176   1.69533   1.69574   1.69873   1.70349
 Alpha virt. eigenvalues --    1.70449   1.70836   1.71390   1.71522   1.71757
 Alpha virt. eigenvalues --    1.72006   1.72396   1.72534   1.72715   1.72743
 Alpha virt. eigenvalues --    1.72956   1.72962   1.73109   1.73526   1.73542
 Alpha virt. eigenvalues --    1.73946   1.74421   1.74521   1.74717   1.74943
 Alpha virt. eigenvalues --    1.74955   1.75037   1.75322   1.75445   1.75560
 Alpha virt. eigenvalues --    1.75829   1.76164   1.76285   1.76533   1.76817
 Alpha virt. eigenvalues --    1.76912   1.77000   1.77223   1.77265   1.77351
 Alpha virt. eigenvalues --    1.77739   1.77788   1.77902   1.77978   1.78144
 Alpha virt. eigenvalues --    1.78274   1.78436   1.78492   1.78719   1.78781
 Alpha virt. eigenvalues --    1.78879   1.79244   1.79515   1.79809   1.80219
 Alpha virt. eigenvalues --    1.80298   1.80442   1.80562   1.80707   1.80846
 Alpha virt. eigenvalues --    1.80983   1.81132   1.81419   1.81534   1.81682
 Alpha virt. eigenvalues --    1.81840   1.81993   1.82078   1.82501   1.83122
 Alpha virt. eigenvalues --    1.83400   1.83533   1.83726   1.84044   1.84081
 Alpha virt. eigenvalues --    1.84274   1.84635   1.84721   1.84799   1.85070
 Alpha virt. eigenvalues --    1.85300   1.85495   1.85592   1.85866   1.85967
 Alpha virt. eigenvalues --    1.86167   1.86342   1.86453   1.86699   1.86924
 Alpha virt. eigenvalues --    1.87091   1.87117   1.87399   1.87514   1.87603
 Alpha virt. eigenvalues --    1.87791   1.88299   1.88472   1.88722   1.88775
 Alpha virt. eigenvalues --    1.89094   1.89155   1.89384   1.89450   1.89752
 Alpha virt. eigenvalues --    1.89963   1.90012   1.90043   1.90387   1.90621
 Alpha virt. eigenvalues --    1.90660   1.90753   1.90948   1.91413   1.91449
 Alpha virt. eigenvalues --    1.91778   1.91921   1.92069   1.92299   1.92733
 Alpha virt. eigenvalues --    1.92843   1.93100   1.93252   1.93435   1.93859
 Alpha virt. eigenvalues --    1.94218   1.94384   1.94445   1.94672   1.94934
 Alpha virt. eigenvalues --    1.94965   1.95018   1.95187   1.95379   1.95780
 Alpha virt. eigenvalues --    1.95939   1.95964   1.96255   1.96532   1.96736
 Alpha virt. eigenvalues --    1.97149   1.97289   1.97409   1.97500   1.97580
 Alpha virt. eigenvalues --    1.97766   1.98348   1.98695   1.98843   1.99088
 Alpha virt. eigenvalues --    1.99148   1.99322   1.99426   1.99558   1.99686
 Alpha virt. eigenvalues --    2.00141   2.00369   2.00571   2.00645   2.00730
 Alpha virt. eigenvalues --    2.01419   2.01593   2.01850   2.02067   2.02162
 Alpha virt. eigenvalues --    2.02861   2.03023   2.03241   2.03675   2.04310
 Alpha virt. eigenvalues --    2.04445   2.04654   2.04718   2.05229   2.05426
 Alpha virt. eigenvalues --    2.05822   2.06069   2.06345   2.06562   2.06749
 Alpha virt. eigenvalues --    2.07183   2.07536   2.07648   2.07930   2.08033
 Alpha virt. eigenvalues --    2.08318   2.08526   2.08663   2.08927   2.09166
 Alpha virt. eigenvalues --    2.09336   2.09713   2.09856   2.10162   2.10293
 Alpha virt. eigenvalues --    2.10575   2.11080   2.11266   2.11624   2.12069
 Alpha virt. eigenvalues --    2.12182   2.12595   2.13113   2.13495   2.13564
 Alpha virt. eigenvalues --    2.14034   2.14293   2.14511   2.14622   2.14723
 Alpha virt. eigenvalues --    2.15029   2.15229   2.15532   2.15704   2.15982
 Alpha virt. eigenvalues --    2.16059   2.16542   2.16691   2.17034   2.17044
 Alpha virt. eigenvalues --    2.17362   2.17860   2.17900   2.18063   2.18227
 Alpha virt. eigenvalues --    2.18793   2.19102   2.19357   2.19516   2.20383
 Alpha virt. eigenvalues --    2.20747   2.20837   2.21018   2.21560   2.21667
 Alpha virt. eigenvalues --    2.21954   2.22084   2.22678   2.22823   2.23309
 Alpha virt. eigenvalues --    2.23519   2.23661   2.24071   2.24668   2.24919
 Alpha virt. eigenvalues --    2.24945   2.25557   2.26232   2.26488   2.26853
 Alpha virt. eigenvalues --    2.27172   2.27345   2.27871   2.28205   2.28652
 Alpha virt. eigenvalues --    2.29230   2.29623   2.29876   2.30342   2.30877
 Alpha virt. eigenvalues --    2.30981   2.31108   2.31494   2.31721   2.32097
 Alpha virt. eigenvalues --    2.32866   2.33125   2.33566   2.33764   2.34026
 Alpha virt. eigenvalues --    2.34363   2.34648   2.34809   2.35317   2.35535
 Alpha virt. eigenvalues --    2.35756   2.35978   2.36165   2.36530   2.36742
 Alpha virt. eigenvalues --    2.37031   2.37199   2.37589   2.37651   2.38079
 Alpha virt. eigenvalues --    2.38364   2.38926   2.39045   2.39473   2.39561
 Alpha virt. eigenvalues --    2.39895   2.39984   2.40131   2.40734   2.41143
 Alpha virt. eigenvalues --    2.41446   2.41583   2.41889   2.42369   2.42631
 Alpha virt. eigenvalues --    2.42890   2.43174   2.43643   2.44230   2.44518
 Alpha virt. eigenvalues --    2.44839   2.45196   2.45497   2.45907   2.45967
 Alpha virt. eigenvalues --    2.46095   2.46228   2.47058   2.47587   2.47928
 Alpha virt. eigenvalues --    2.48031   2.48182   2.48570   2.49079   2.49836
 Alpha virt. eigenvalues --    2.50003   2.50481   2.50772   2.50948   2.51414
 Alpha virt. eigenvalues --    2.52014   2.52232   2.52448   2.52639   2.52926
 Alpha virt. eigenvalues --    2.53835   2.54140   2.54752   2.55257   2.55344
 Alpha virt. eigenvalues --    2.55782   2.56233   2.56758   2.56801   2.56937
 Alpha virt. eigenvalues --    2.57739   2.57897   2.58344   2.58533   2.58735
 Alpha virt. eigenvalues --    2.58986   2.59308   2.59492   2.59891   2.60147
 Alpha virt. eigenvalues --    2.60373   2.60726   2.60864   2.61016   2.61036
 Alpha virt. eigenvalues --    2.61354   2.61454   2.61814   2.62089   2.62631
 Alpha virt. eigenvalues --    2.63317   2.63373   2.63436   2.64109   2.64364
 Alpha virt. eigenvalues --    2.64409   2.64487   2.65026   2.65209   2.66036
 Alpha virt. eigenvalues --    2.66437   2.66676   2.67134   2.67467   2.67590
 Alpha virt. eigenvalues --    2.68231   2.68278   2.68816   2.69347   2.69683
 Alpha virt. eigenvalues --    2.70062   2.70103   2.70397   2.70519   2.71096
 Alpha virt. eigenvalues --    2.71300   2.71549   2.71895   2.71933   2.72542
 Alpha virt. eigenvalues --    2.72649   2.73166   2.73244   2.73370   2.73608
 Alpha virt. eigenvalues --    2.73911   2.74193   2.74263   2.74486   2.74822
 Alpha virt. eigenvalues --    2.74919   2.75320   2.75759   2.75978   2.76242
 Alpha virt. eigenvalues --    2.76301   2.76928   2.77377   2.77515   2.77842
 Alpha virt. eigenvalues --    2.78056   2.78179   2.78599   2.78636   2.79237
 Alpha virt. eigenvalues --    2.79420   2.79540   2.79742   2.80190   2.80239
 Alpha virt. eigenvalues --    2.80560   2.80707   2.81176   2.81305   2.81498
 Alpha virt. eigenvalues --    2.81649   2.81872   2.82052   2.82180   2.82577
 Alpha virt. eigenvalues --    2.82799   2.83306   2.83597   2.83974   2.84139
 Alpha virt. eigenvalues --    2.84274   2.84646   2.85201   2.85433   2.85508
 Alpha virt. eigenvalues --    2.85752   2.85860   2.86172   2.86521   2.86953
 Alpha virt. eigenvalues --    2.87057   2.87221   2.87560   2.88229   2.88338
 Alpha virt. eigenvalues --    2.88517   2.89155   2.89318   2.89479   2.90252
 Alpha virt. eigenvalues --    2.90354   2.90637   2.91016   2.91482   2.91819
 Alpha virt. eigenvalues --    2.92066   2.92296   2.92570   2.92986   2.93389
 Alpha virt. eigenvalues --    2.93617   2.94154   2.94233   2.94505   2.94787
 Alpha virt. eigenvalues --    2.95310   2.95588   2.95729   2.95805   2.96634
 Alpha virt. eigenvalues --    2.97271   2.97553   2.97740   2.98967   2.99113
 Alpha virt. eigenvalues --    2.99279   2.99451   2.99898   3.00084   3.00389
 Alpha virt. eigenvalues --    3.00640   3.00921   3.01209   3.01354   3.01517
 Alpha virt. eigenvalues --    3.01705   3.02377   3.03011   3.03084   3.03246
 Alpha virt. eigenvalues --    3.03656   3.03807   3.03845   3.04196   3.04499
 Alpha virt. eigenvalues --    3.04935   3.05473   3.05945   3.06374   3.06920
 Alpha virt. eigenvalues --    3.07052   3.07314   3.07446   3.07730   3.08528
 Alpha virt. eigenvalues --    3.08659   3.09177   3.09605   3.09846   3.10619
 Alpha virt. eigenvalues --    3.11378   3.12270   3.12409   3.13248   3.13560
 Alpha virt. eigenvalues --    3.14938   3.15586   3.15775   3.16014   3.16349
 Alpha virt. eigenvalues --    3.16574   3.16700   3.17100   3.17273   3.17620
 Alpha virt. eigenvalues --    3.17883   3.18354   3.18572   3.18740   3.18881
 Alpha virt. eigenvalues --    3.19115   3.19626   3.19731   3.19831   3.19866
 Alpha virt. eigenvalues --    3.20290   3.20777   3.21090   3.21103   3.21318
 Alpha virt. eigenvalues --    3.21655   3.22589   3.23429   3.23568   3.25088
 Alpha virt. eigenvalues --    3.25648   3.25653   3.26319   3.26448   3.27001
 Alpha virt. eigenvalues --    3.27486   3.27707   3.29397   3.29440   3.30594
 Alpha virt. eigenvalues --    3.30662   3.30850   3.33073   3.33552   3.33810
 Alpha virt. eigenvalues --    3.34482   3.35616   3.37455   3.38487   3.38778
 Alpha virt. eigenvalues --    3.40746   3.43847   3.46987   3.49050   3.52477
 Alpha virt. eigenvalues --    3.53123   3.54154   3.54192   3.54867   3.56046
 Alpha virt. eigenvalues --    3.56797   3.57409   3.57535   3.58424   3.59731
 Alpha virt. eigenvalues --    3.60181   3.60809   3.61803   3.61969   3.63711
 Alpha virt. eigenvalues --    3.64177   3.66727   3.67158   3.67433   3.67696
 Alpha virt. eigenvalues --    3.67904   3.68283   3.68406   3.68710   3.68983
 Alpha virt. eigenvalues --    3.70089   3.70265   3.70743   3.71296   3.71386
 Alpha virt. eigenvalues --    3.72570   3.72759   3.74516   3.74885   3.75793
 Alpha virt. eigenvalues --    3.77231   3.79265   3.79733   3.88177
          Condensed to atoms (all electrons):
 Mulliken charges:
               1
     1  C    0.077381
     2  C    0.023066
     3  O   -0.340558
     4  H    0.019633
     5  H    0.016081
     6  H    0.036166
     7  N   -0.117617
     8  C    0.126967
     9  C    0.055380
    10  O   -0.317385
    11  C    0.050385
    12  C    0.035737
    13  O   -0.406780
    14  O   -0.350538
    15  H    0.115715
    16  H   -0.008063
    17  H    0.013822
    18  H    0.043395
    19  N   -0.133564
    20  C    0.206188
    21  C    0.016626
    22  O   -0.253920
    23  C    0.010898
    24  C    0.036382
    25  C   -0.100363
    26  C    0.033548
    27  N    0.105789
    28  H    0.121486
    29  H   -0.081621
    30  H    0.004325
    31  H    0.055716
    32  H    0.015899
    33  H    0.010160
    34  H    0.038038
    35  H    0.027472
    36  H    0.070614
    37  H    0.072215
    38  H    0.176938
    39  H    0.187510
    40  H    0.165038
    41  N   -0.125722
    42  C    0.124929
    43  C    0.065164
    44  O   -0.265996
    45  C    0.050846
    46  C    0.113058
    47  O   -0.334774
    48  O   -0.494547
    49  H    0.102458
    50  H    0.000570
    51  H    0.002812
    52  H    0.029597
    53  N   -0.139046
    54  C    0.182176
    55  C    0.043921
    56  O   -0.244447
    57  H    0.142084
    58  H    0.030362
    59  H    0.013798
    60  N   -0.090687
    61  C    0.059723
    62  C    0.043469
    63  O   -0.249952
    64  C    0.056715
    65  C    0.010925
    66  N   -0.066535
    67  O   -0.260102
    68  H    0.128871
    69  H    0.022101
    70  H    0.042349
    71  H    0.003366
    72  H    0.128075
    73  H    0.121071
    74  N   -0.113784
    75  C    0.130298
    76  C    0.069300
    77  O   -0.246585
    78  H    0.130669
    79  H    0.047357
    80  H    0.031671
    81  N   -0.163967
    82  C    0.144678
    83  C    0.085772
    84  O   -0.277806
    85  C    0.153096
    86  C   -0.044044
    87  C    0.017403
    88  C   -0.022564
    89  C    0.007891
    90  C   -0.048524
    91  C    0.192659
    92  O   -0.218775
    93  H    0.134133
    94  H   -0.000196
    95  H   -0.043305
    96  H    0.018950
    97  H   -0.034924
    98  H   -0.030902
    99  H   -0.014754
   100  H   -0.033990
   101  H    0.175500
   102  N   -0.164353
   103  C    0.159557
   104  C    0.048328
   105  O   -0.270909
   106  C   -0.077668
   107  C   -0.035989
   108  C    0.067994
   109  C    0.027786
   110  H    0.134477
   111  H    0.038751
   112  H    0.008221
   113  H    0.022330
   114  H   -0.044145
   115  H    0.024303
   116  H   -0.018171
   117  H    0.024466
   118  H    0.020033
   119  H    0.008769
   120  H    0.021636
   121  N   -0.134289
   122  C    0.044333
   123  C    0.065222
   124  O   -0.280764
   125  C    0.256752
   126  O   -0.302733
   127  H    0.108069
   128  H    0.042210
   129  H   -0.020182
   130  H    0.028411
   131  H    0.173934
   132  N   -0.135256
   133  C    0.087040
   134  C    0.031295
   135  O   -0.262031
   136  C    0.067120
   137  H    0.123231
   138  H   -0.008711
   139  H    0.010138
   140  H    0.048360
   141  H    0.032582
   142  N   -0.125707
   143  C    0.057380
   144  C    0.058063
   145  O   -0.261203
   146  C    0.045172
   147  H    0.125632
   148  H    0.034065
   149  H    0.037029
   150  H    0.000448
   151  H    0.032182
   152  N   -0.107687
   153  C    0.123015
   154  C    0.060468
   155  O   -0.268531
   156  C    0.022718
   157  C    0.111315
   158  C    0.089246
   159  O   -0.432527
   160  O   -0.450464
   161  H    0.102899
   162  H    0.041743
   163  H    0.016886
   164  H   -0.042274
   165  H   -0.020302
   166  H    0.045085
   167  N   -0.157394
   168  C    0.127561
   169  H    0.047891
   170  H    0.018453
   171  H    0.018435
   172  H    0.083549
   173  Ca   1.412589
   174  O   -0.326647
   175  H    0.176800
   176  H    0.183916
 Sum of Mulliken charges =  -0.00000
 Mulliken charges with hydrogens summed into heavy atoms:
               1
     1  C    0.149260
     2  C    0.023066
     3  O   -0.340558
     7  N   -0.001902
     8  C    0.118904
     9  C    0.055380
    10  O   -0.317385
    11  C    0.107602
    12  C    0.035737
    13  O   -0.406780
    14  O   -0.350538
    19  N   -0.012078
    20  C    0.124567
    21  C    0.016626
    22  O   -0.253920
    23  C    0.070939
    24  C    0.062440
    25  C   -0.034853
    26  C    0.176377
    27  N    0.635274
    41  N   -0.023264
    42  C    0.125499
    43  C    0.065164
    44  O   -0.265996
    45  C    0.083255
    46  C    0.113058
    47  O   -0.334774
    48  O   -0.494547
    53  N    0.003038
    54  C    0.226335
    55  C    0.043921
    56  O   -0.244447
    60  N    0.038184
    61  C    0.081824
    62  C    0.043469
    63  O   -0.249952
    64  C    0.102430
    65  C    0.010925
    66  N    0.182612
    67  O   -0.260102
    74  N    0.016885
    75  C    0.209326
    76  C    0.069300
    77  O   -0.246585
    81  N   -0.029834
    82  C    0.144482
    83  C    0.085772
    84  O   -0.277806
    85  C    0.128741
    86  C   -0.044044
    87  C   -0.017521
    88  C   -0.053466
    89  C   -0.006863
    90  C   -0.082514
    91  C    0.192659
    92  O   -0.043276
   102  N   -0.029875
   103  C    0.198307
   104  C    0.048328
   105  O   -0.270909
   106  C   -0.069447
   107  C   -0.057804
   108  C    0.098592
   109  C    0.078224
   121  N   -0.026220
   122  C    0.086543
   123  C    0.065222
   124  O   -0.280764
   125  C    0.264981
   126  O   -0.128798
   132  N   -0.012024
   133  C    0.078329
   134  C    0.031295
   135  O   -0.262031
   136  C    0.158199
   142  N   -0.000075
   143  C    0.091445
   144  C    0.058063
   145  O   -0.261203
   146  C    0.114832
   152  N   -0.004788
   153  C    0.164758
   154  C    0.060468
   155  O   -0.268531
   156  C   -0.002670
   157  C    0.136098
   158  C    0.089246
   159  O   -0.432527
   160  O   -0.450464
   167  N   -0.073845
   168  C    0.212341
   173  Ca   1.412589
   174  O    0.034069
 DipInt: DoE/N= T F RetVal/Mat= T F Init=T NMatP=  1 IDeriv=0 Min/MaxMlt=  0  4
 Entering OneElI...
 OneElI was handed  1333951383 working-precision words.
 Multipole integrals L=0 to 4 MinM= 0 MaxM= 0.
 Requested accuracy = 0.1000D-12
 ShPair: Thresh= 1.00D-13 NBox=     0 BxSize= 0.00D+00 RnKept= 2.55D+01
         NSMCal=               327645 NSMKep=              134074
 PrmmSu-InSpLW:  IPartL=    0 NPrtUS=    1 NPrtUL=    1 DoSpLW=F IThBeg=    0 IThEnd=    0 NThAct=    1.
 PrsmSu:  NPrtUS=   1 ThrOK=F IAlg=1 NPAlg=1 LenDen=           0 ISkipM=0 DoSpLW=F IThBeg=    0 IThEnd=    0.
 Prism:   IPart=     0 DynPar=F LinDyn=F Incr=         512.
 PRISM was handed  1324921711 working-precision words and134074 shell-pairs
 IPart=  0 NShTot=      134074 NBatch=         313 AvBLen=       428.4
 PrsmSu-ThDecC:  IPartSL=    0    0 NPrtUSL=    1    1 IThBeg=    0 IThEnd=    0 CPU=   -1 GPU=   -1 NThAct=    1.
 PrSmSu:  NxtVal=            513.
 Electronic moments (au):
       -716.00000000          6.27062432         -9.29132738          3.19578431
     -72617.14400944     -32449.18105978     -16953.78444804       -199.82340094
        -40.28607419         29.42937250    -109139.10070175     -64053.65047669
     -25361.58945343      18019.66235654     159775.07710749      27820.69509986
      27199.25793400       3320.80098222     -35328.80084100     -13457.11408486
  -14199043.02418255   -3343946.78234808   -1103431.21336250    1402131.42649255
    -533046.61668855    -167111.09069665    -140214.65283618     143584.15595719
      -5300.31305524   -3085929.02775542   -1339624.12465041    -580432.56274004
     -84080.97175243     463690.35811030      25635.90836384
 Electronic spatial extent (au):  <R**2>=         122020.1095
 DipInt: DoE/N= F T RetVal/Mat= T F Init=T NMatP=  1 IDeriv=0 Min/MaxMlt=  0  4
 Nuclear    moments (au):
        716.00000000          0.00000000          0.00000000         -0.00000000
      72414.18155516      32155.12333436      16496.09532088          0.00000000
          0.00000000         -0.00000000     114580.34656231      63437.01137862
      25787.77146127     -15661.86493333    -165050.27108532     -28063.20533011
     -27267.76460896      -3275.59369307      35453.90251523      13792.98356411
   14077418.43542809    3248215.73482670    1043165.35836403   -1494556.29752114
     510549.29440750     148394.56507648     148117.01148354    -143509.98532282
       6260.27610736    3074099.00183481    1286366.51581030     551440.63459241
      87494.96486022    -465735.77300384     -26214.06092261
 Total      moments (au):
          0.00000000          6.27062432         -9.29132738          3.19578431
       -202.96245429       -294.05772541       -457.68912716       -199.82340094
        -40.28607419         29.42937250       5441.24586056       -616.63909807
        426.18200785       2357.79742322      -5275.19397783       -242.51023025
        -68.50667496         45.20728916        125.10167423        335.86947925
    -121624.58875446     -95731.04752138     -60265.85499847     -92424.87102859
     -22497.32228105     -18716.52562017       7902.35864736         74.17063437
        959.96305212     -11830.02592062     -53257.60884010     -28991.92814763
       3413.99310779      -2045.41489354       -578.15255877
 Traceless Quadrup. (au):
        115.27398133         24.17871021       -139.45269154       -199.82340094
        -40.28607419         29.42937250
 Charge=              0.0000 electrons
 Dipole moment (field-independent basis, Debye):
    X=             15.9383    Y=            -23.6162    Z=              8.1229  Tot=             29.6266
 Quadrupole moment (field-independent basis, Debye-Ang):
   XX=           -272.9915   YY=           -395.5177   ZZ=           -615.6076
   XY=           -268.7693   XZ=            -54.1861   YZ=             39.5835
 Traceless Quadrupole moment (field-independent basis, Debye-Ang):
   XX=            155.0475   YY=             32.5212   ZZ=           -187.5686
   XY=           -268.7693   XZ=            -54.1861   YZ=             39.5835
 Octapole moment (field-independent basis, Debye-Ang**2):
  XXX=           3872.8692  YYY=           -438.9000  ZZZ=            303.3399  XYY=           1678.1894
  XXY=          -3754.6798  XXZ=           -172.6094  XZZ=            -48.7604  YZZ=             32.1768
  YYZ=             89.0426  XYZ=            239.0590
 Hexadecapole moment (field-independent basis, Debye-Ang**3):
 XXXX=         -45809.6522 YYYY=         -36056.9030 ZZZZ=         -22699.0108 XXXY=         -34811.6383
 XXXZ=          -8473.5704 YYYX=          -7049.5410 YYYZ=           2976.4072 ZZZX=             27.9362
 ZZZY=            361.5681 XXYY=          -4455.7550 XXZZ=         -20059.3693 YYZZ=         -10919.7503
 XXYZ=           1285.8735 YYXZ=           -770.4013 ZZXY=           -217.7600
 N-N= 1.974571437943D+04 E-N=-5.197503490770D+04  KE= 5.290821986551D+03
 Leave Link  601 at Wed Sep 18 19:54:10 2019, MaxMem=  1342177280 cpu:              47.9 elap:               1.2
 FitSet:  NAtFit=   176 NAtPot=   176 NAtFrz=     0 MDM=   180 TotChg=   0.00000
 Merz-Kollman atomic radii used.
 Read replacement radii for each type of atom:
 Rad(20) =   1.700000000000D+00
 Atom Element Radius
    1     6    1.50
    2     6    1.50
    3     8    1.40
    4     1    1.20
    5     1    1.20
    6     1    1.20
    7     7    1.50
    8     6    1.50
    9     6    1.50
   10     8    1.40
   11     6    1.50
   12     6    1.50
   13     8    1.40
   14     8    1.40
   15     1    1.20
   16     1    1.20
   17     1    1.20
   18     1    1.20
   19     7    1.50
   20     6    1.50
   21     6    1.50
   22     8    1.40
   23     6    1.50
   24     6    1.50
   25     6    1.50
   26     6    1.50
   27     7    1.50
   28     1    1.20
   29     1    1.20
   30     1    1.20
   31     1    1.20
   32     1    1.20
   33     1    1.20
   34     1    1.20
   35     1    1.20
   36     1    1.20
   37     1    1.20
   38     1    1.20
   39     1    1.20
   40     1    1.20
   41     7    1.50
   42     6    1.50
   43     6    1.50
   44     8    1.40
   45     6    1.50
   46     6    1.50
   47     8    1.40
   48     8    1.40
   49     1    1.20
   50     1    1.20
   51     1    1.20
   52     1    1.20
   53     7    1.50
   54     6    1.50
   55     6    1.50
   56     8    1.40
   57     1    1.20
   58     1    1.20
   59     1    1.20
   60     7    1.50
   61     6    1.50
   62     6    1.50
   63     8    1.40
   64     6    1.50
   65     6    1.50
   66     7    1.50
   67     8    1.40
   68     1    1.20
   69     1    1.20
   70     1    1.20
   71     1    1.20
   72     1    1.20
   73     1    1.20
   74     7    1.50
   75     6    1.50
   76     6    1.50
   77     8    1.40
   78     1    1.20
   79     1    1.20
   80     1    1.20
   81     7    1.50
   82     6    1.50
   83     6    1.50
   84     8    1.40
   85     6    1.50
   86     6    1.50
   87     6    1.50
   88     6    1.50
   89     6    1.50
   90     6    1.50
   91     6    1.50
   92     8    1.40
   93     1    1.20
   94     1    1.20
   95     1    1.20
   96     1    1.20
   97     1    1.20
   98     1    1.20
   99     1    1.20
  100     1    1.20
  101     1    1.20
  102     7    1.50
  103     6    1.50
  104     6    1.50
  105     8    1.40
  106     6    1.50
  107     6    1.50
  108     6    1.50
  109     6    1.50
  110     1    1.20
  111     1    1.20
  112     1    1.20
  113     1    1.20
  114     1    1.20
  115     1    1.20
  116     1    1.20
  117     1    1.20
  118     1    1.20
  119     1    1.20
  120     1    1.20
  121     7    1.50
  122     6    1.50
  123     6    1.50
  124     8    1.40
  125     6    1.50
  126     8    1.40
  127     1    1.20
  128     1    1.20
  129     1    1.20
  130     1    1.20
  131     1    1.20
  132     7    1.50
  133     6    1.50
  134     6    1.50
  135     8    1.40
  136     6    1.50
  137     1    1.20
  138     1    1.20
  139     1    1.20
  140     1    1.20
  141     1    1.20
  142     7    1.50
  143     6    1.50
  144     6    1.50
  145     8    1.40
  146     6    1.50
  147     1    1.20
  148     1    1.20
  149     1    1.20
  150     1    1.20
  151     1    1.20
  152     7    1.50
  153     6    1.50
  154     6    1.50
  155     8    1.40
  156     6    1.50
[...]
 **** Fit      -0.010153
 **** Fit      -0.007289
 **** Fit      -0.004114
 **** Fit      -0.006946
 **** Fit      -0.009801
 **** Fit      -0.012623
 **** Fit      -0.015269
 **** Fit      -0.017504
 **** Fit      -0.019046
 **** Fit      -0.019645
 **** Fit      -0.024656
 **** Fit      -0.021570
 **** Fit      -0.017976
 **** Fit      -0.014247
 **** Fit      -0.010597
 **** Fit      -0.007401
 **** Fit      -0.010901
 **** Fit      -0.014524
 **** Fit      -0.018201
 **** Fit      -0.021724
 **** Fit      -0.024738
 **** Fit      -0.019512
 **** Fit      -0.014767
 **** Fit      -0.016055
 **** Fit      -0.020774
 **** Fit      -0.021595
 **** Fit       0.005929
 **** Fit       0.004010
 **** Fit       0.005211
 **** Fit       0.006350
 **** Fit       0.007188
 **** Fit       0.003273
 **** Fit       0.004571
 **** Fit       0.005819
 **** Fit       0.006877
 **** Fit       0.007687
 **** Fit       0.008256
 **** Fit       0.008623
 **** Fit       0.001426
 **** Fit       0.002834
 **** Fit       0.004291
 **** Fit       0.005649
 **** Fit       0.006823
 **** Fit       0.007776
 **** Fit       0.008509
 **** Fit       0.009047
 **** Fit       0.009431
 **** Fit       0.001128
 **** Fit       0.002812
 **** Fit       0.004425
 **** Fit       0.005882
 **** Fit       0.007134
 **** Fit       0.008162
 **** Fit       0.008977
 **** Fit       0.009603
 **** Fit       0.010076
 **** Fit       0.010435
 **** Fit      -0.000808
 **** Fit       0.001121
 **** Fit       0.002977
 **** Fit       0.004693
 **** Fit       0.006218
 **** Fit       0.007523
 **** Fit       0.008605
 **** Fit       0.009483
 **** Fit       0.010184
 **** Fit       0.010737
 **** Fit       0.011176
 **** Fit       0.011534
 **** Fit      -0.002417
 **** Fit      -0.000089
 **** Fit       0.002098
 **** Fit       0.004109
 **** Fit       0.005903
 **** Fit       0.007444
 **** Fit       0.008728
 **** Fit       0.009779
 **** Fit       0.010635
 **** Fit       0.011331
 **** Fit       0.011901
 **** Fit       0.012373
 **** Fit       0.012782
 **** Fit      -0.001336
 **** Fit       0.001187
 **** Fit       0.003496
 **** Fit       0.005566
 **** Fit       0.007356
 **** Fit       0.008853
 **** Fit       0.010083
 **** Fit       0.011094
 **** Fit       0.011934
 **** Fit       0.012644
 **** Fit       0.013253
 **** Fit       0.013788
 **** Fit       0.014274
 **** Fit      -0.002114
 **** Fit       0.000771
 **** Fit       0.003389
 **** Fit       0.005733
 **** Fit       0.007759
 **** Fit       0.009447
 **** Fit       0.010828
 **** Fit       0.011967
 **** Fit       0.012928
 **** Fit       0.013760
 **** Fit       0.014502
 **** Fit       0.015179
 **** Fit       0.015811
 **** Fit      -0.001691
 **** Fit       0.001590
 **** Fit       0.004534
 **** Fit       0.007128
 **** Fit       0.009324
 **** Fit       0.011120
 **** Fit       0.012583
 **** Fit       0.013805
 **** Fit       0.014867
 **** Fit       0.015829
 **** Fit       0.016731
 **** Fit       0.017599
 **** Fit       0.018446
 **** Fit       0.003530
 **** Fit       0.006767
 **** Fit       0.009543
 **** Fit       0.011833
 **** Fit       0.013692
 **** Fit       0.015239
 **** Fit       0.016591
 **** Fit       0.017839
 **** Fit       0.019047
 **** Fit       0.020252
 **** Fit       0.009686
 **** Fit       0.012591
 **** Fit       0.014982
 **** Fit       0.016979
 **** Fit       0.018736
 **** Fit       0.020384
 **** Fit       0.022023
 **** Fit       0.023710
 **** Fit       0.018116
 **** Fit       0.020697
 **** Fit       0.023090
 **** Fit       0.025490
 **** Fit       0.007067
 **** Fit       0.005984
 **** Fit       0.008659
 **** Fit       0.008097
 **** Fit       0.007268
 **** Fit       0.006158
 **** Fit       0.004840
 **** Fit       0.003495
 **** Fit       0.009739
 **** Fit       0.009348
 **** Fit       0.008775
 **** Fit       0.007957
 **** Fit       0.006868
 **** Fit       0.005529
 **** Fit       0.004014
 **** Fit       0.002461
 **** Fit       0.010975
 **** Fit       0.010695
 **** Fit       0.010340
 **** Fit       0.009826
 **** Fit       0.009091
 **** Fit       0.008093
 **** Fit       0.006820
 **** Fit       0.005293
 **** Fit       0.003571
 **** Fit       0.001753
 **** Fit       0.012031
 **** Fit       0.011758
 **** Fit       0.011422
 **** Fit       0.010951
 **** Fit       0.010282
 **** Fit       0.009373
 **** Fit       0.008195
 **** Fit       0.006745
 **** Fit       0.005043
 **** Fit       0.003133
 **** Fit       0.001087
 **** Fit      -0.001001
 **** Fit       0.013285
 **** Fit       0.012983
 **** Fit       0.012624
 **** Fit       0.012134
 **** Fit       0.011446
 **** Fit       0.010510
 **** Fit       0.009288
 **** Fit       0.007763
 **** Fit       0.005942
 **** Fit       0.003856
 **** Fit       0.001556
 **** Fit      -0.000889
 **** Fit       0.014781
 **** Fit       0.014420
 **** Fit       0.014013
 **** Fit       0.013483
 **** Fit       0.012764
 **** Fit       0.011797
 **** Fit       0.010538
 **** Fit       0.008957
 **** Fit       0.007046
 **** Fit       0.004825
 **** Fit       0.002336
 **** Fit      -0.000361
 **** Fit      -0.003209
 **** Fit       0.016878
 **** Fit       0.016390
 **** Fit       0.015911
 **** Fit       0.015359
 **** Fit       0.014657
 **** Fit       0.013734
 **** Fit       0.012527
 **** Fit       0.010985
 **** Fit       0.009078
 **** Fit       0.006799
 **** Fit       0.004173
 **** Fit       0.001260
 **** Fit      -0.001865
 **** Fit      -0.005139
 **** Fit       0.018980
 **** Fit       0.018292
 **** Fit       0.017600
 **** Fit       0.016806
 **** Fit       0.015811
 **** Fit       0.014526
 **** Fit       0.012871
 **** Fit       0.010786
 **** Fit       0.008238
 **** Fit       0.005240
 **** Fit       0.001861
 **** Fit      -0.001784
 **** Fit      -0.005569
 **** Fit       0.020950
 **** Fit       0.019947
 **** Fit       0.018865
 **** Fit       0.017565
 **** Fit       0.015920
 **** Fit       0.013814
 **** Fit       0.011153
 **** Fit       0.007896
 **** Fit       0.004082
 **** Fit      -0.000144
 **** Fit      -0.004546
 **** Fit       0.024245
 **** Fit       0.022760
 **** Fit       0.021258
 **** Fit       0.019545
 **** Fit       0.017437
 **** Fit       0.014770
 **** Fit       0.011411
 **** Fit       0.007318
 **** Fit       0.002599
 **** Fit       0.025981
 **** Fit       0.023705
 **** Fit       0.021202
 **** Fit       0.018165
 **** Fit       0.014325
 **** Fit       0.009527
 **** Fit       0.025294
 **** Fit       0.026847
 **** Fit       0.028062
 **** Fit       0.029036
 **** Fit       0.029810
 **** Fit       0.030362
 **** Fit       0.030610
 **** Fit       0.030412
 **** Fit       0.023908
 **** Fit       0.025973
 **** Fit       0.027605
 **** Fit       0.028942
 **** Fit       0.030090
 **** Fit       0.031106
 **** Fit       0.031986
 **** Fit       0.032656
 **** Fit       0.032977
 **** Fit       0.032750
 **** Fit       0.031737
 **** Fit       0.024185
 **** Fit       0.026507
 **** Fit       0.028331
 **** Fit       0.029830
 **** Fit       0.031153
 **** Fit       0.032403
 **** Fit       0.033621
 **** Fit       0.034755
 **** Fit       0.035660
 **** Fit       0.036110
 **** Fit       0.035823
 **** Fit       0.025597
 **** Fit       0.028066
 **** Fit       0.029988
 **** Fit       0.031572
 **** Fit       0.033021
 **** Fit       0.034489
 **** Fit       0.036046
 **** Fit       0.037630
 **** Fit       0.039040
 **** Fit       0.029986
 **** Fit       0.032014
 **** Fit       0.033708
 **** Fit       0.035312
 **** Fit       0.037041
 **** Fit       0.038995
 **** Fit       0.035660
 **** Fit       0.037615
 **** Fit       0.039792
 **** Fit      -0.004096
 **** Fit       0.005965
 **** Fit       0.013511
 **** Fit       0.016941
 **** Fit       0.015352
 **** Fit       0.005670
 **** Fit       0.015397
 **** Fit       0.022159
 **** Fit       0.025533
 **** Fit       0.025199
 **** Fit       0.020768
 **** Fit       0.000468
 **** Fit       0.012722
 **** Fit       0.022330
 **** Fit       0.029125
 **** Fit       0.033039
 **** Fit       0.033967
 **** Fit       0.031695
 **** Fit       0.025868
 **** Fit       0.007994
 **** Fit       0.019712
 **** Fit       0.028804
 **** Fit       0.035390
 **** Fit       0.039554
 **** Fit       0.041293
 **** Fit       0.040498
 **** Fit       0.036951
 **** Fit       0.030325
 **** Fit       0.020171
 **** Fit       0.011922
 **** Fit       0.023673
 **** Fit       0.032863
 **** Fit       0.039741
 **** Fit       0.044469
 **** Fit       0.047112
 **** Fit       0.047626
 **** Fit       0.045867
 **** Fit       0.041599
 **** Fit       0.034515
 **** Fit       0.024274
 **** Fit       0.016013
 **** Fit       0.027377
 **** Fit       0.036364
 **** Fit       0.043272
 **** Fit       0.048296
 **** Fit       0.051532
 **** Fit       0.052979
 **** Fit       0.052543
 **** Fit       0.050039
 **** Fit       0.045213
 **** Fit       0.037765
 **** Fit       0.027410
 **** Fit       0.020079
 **** Fit       0.030743
 **** Fit       0.039295
 **** Fit       0.046026
 **** Fit       0.051129
 **** Fit       0.054708
 **** Fit       0.056788
 **** Fit       0.057310
 **** Fit       0.056136
 **** Fit       0.053048
 **** Fit       0.047772
 **** Fit       0.040007
 **** Fit       0.017263
 **** Fit       0.028626
 **** Fit       0.037848
 **** Fit       0.045259
 **** Fit       0.051090
 **** Fit       0.055488
 **** Fit       0.058519
 **** Fit       0.060176
 **** Fit       0.060372
 **** Fit       0.058933
 **** Fit       0.055610
 **** Fit       0.014519
 **** Fit       0.026144
 **** Fit       0.035702
 **** Fit       0.043517
 **** Fit       0.049827
 **** Fit       0.054793
 **** Fit       0.058512
 **** Fit       0.061012
 **** Fit       0.062256
 **** Fit       0.062133
 **** Fit       0.060449
 **** Fit       0.056948
 **** Fit       0.008194
 **** Fit       0.020446
 **** Fit       0.030665
 **** Fit       0.039155
 **** Fit       0.046149
 **** Fit       0.051822
 **** Fit       0.056294
 **** Fit       0.059629
 **** Fit       0.061836
 **** Fit       0.062860
 **** Fit       0.062579
 **** Fit       0.060798
 **** Fit       0.014768
 **** Fit       0.025167
 **** Fit       0.033982
 **** Fit       0.041390
 **** Fit       0.047539
 **** Fit       0.052544
 **** Fit       0.056479
 **** Fit       0.059380
 **** Fit       0.061232
 **** Fit       0.061970
 **** Fit       0.061469
 **** Fit       0.059561
 **** Fit       0.013496
 **** Fit       0.023361
 **** Fit       0.031868
 **** Fit       0.039100
 **** Fit       0.045152
 **** Fit       0.050104
 **** Fit       0.054011
 **** Fit       0.056894
 **** Fit       0.058731
 **** Fit       0.059458
 **** Fit       0.058957
 **** Fit       0.057089
 **** Fit       0.001745
 **** Fit       0.011799
 **** Fit       0.020887
 **** Fit       0.028894
 **** Fit       0.035802
 **** Fit       0.041639
 **** Fit       0.046439
 **** Fit       0.050226
 **** Fit       0.053001
 **** Fit       0.054731
 **** Fit       0.055345
 **** Fit       0.054735
 **** Fit       0.052790
 **** Fit      -0.002656
 **** Fit       0.006423
 **** Fit       0.015007
 **** Fit       0.022807
 **** Fit       0.029684
 **** Fit       0.035581
 **** Fit       0.040479
 **** Fit       0.044368
 **** Fit       0.047224
 **** Fit       0.049000
 **** Fit       0.049616
 **** Fit       0.048965
 **** Fit       0.046945
 **** Fit      -0.015281
 **** Fit      -0.007759
 **** Fit       0.000205
 **** Fit       0.008082
 **** Fit       0.015494
 **** Fit       0.022202
 **** Fit       0.028064
 **** Fit       0.032999
 **** Fit       0.036951
 **** Fit       0.039863
 **** Fit       0.041666
 **** Fit       0.042261
 **** Fit       0.041531
 **** Fit       0.039370
 **** Fit       0.035802
 **** Fit      -0.020064
 **** Fit      -0.012981
 **** Fit      -0.005508
 **** Fit       0.001974
 **** Fit       0.009101
 **** Fit       0.015594
 **** Fit       0.021255
 **** Fit       0.025950
 **** Fit       0.029569
 **** Fit       0.032005
 **** Fit       0.033131
 **** Fit       0.032792
 **** Fit       0.030829
 **** Fit      -0.029051
 **** Fit      -0.021808
 **** Fit      -0.014412
 **** Fit      -0.007053
 **** Fit      -0.000025
 **** Fit       0.006386
 **** Fit       0.011946
 **** Fit       0.016467
 **** Fit       0.019783
 **** Fit       0.021727
 **** Fit       0.022104
 **** Fit      -0.006294
 **** Fit      -0.000627
 **** Fit       0.003896
 **** Fit      -0.015458
 **** Fit      -0.013934
 **** Fit      -0.014121
 **** Fit      -0.014481
 **** Fit      -0.011495
 **** Fit      -0.010509
 **** Fit      -0.012561
 **** Fit      -0.012730
 **** Fit      -0.007705
 **** Fit      -0.004877
 **** Fit      -0.005133
 **** Fit      -0.024736
 **** Fit      -0.022335
 **** Fit      -0.018008
 **** Fit      -0.009213
 **** Fit      -0.001770
 **** Fit       0.003113
 **** Fit       0.004658
 **** Fit       0.002365
 **** Fit      -0.030703
 **** Fit      -0.029229
 **** Fit      -0.038649
 **** Fit      -0.045490
 **** Fit      -0.055126
 **** Fit      -0.057990
 **** Fit      -0.057512
 **** Fit      -0.058937
 **** Fit      -0.056968
 **** Fit      -0.016243
 **** Fit      -0.024014
 **** Fit      -0.018727
 **** Fit      -0.026930
 **** Fit      -0.022607
 **** Fit      -0.032430
 **** Fit      -0.028996
 **** Fit      -0.038210
 **** Fit      -0.035635
 **** Fit      -0.041845
 **** Fit      -0.013432
 **** Fit      -0.013964
 **** Fit      -0.012583
 **** Fit      -0.012163
 **** Fit      -0.014591
 **** Fit      -0.015859
 **** Fit      -0.014522
 **** Fit      -0.016817
 **** Fit      -0.015735
 **** Fit      -0.013114
 **** Fit      -0.011185
 **** Fit      -0.010955
 **** Fit      -0.012942
 **** Fit      -0.016966
 **** Fit      -0.020368
 **** Fit      -0.019957
 **** Fit      -0.017071
 **** Fit      -0.015222
 **** Fit      -0.015739
 **** Fit      -0.014766
 **** Fit      -0.011975
 **** Fit      -0.010445
 **** Fit      -0.010080
 **** Fit      -0.011205
 **** Fit      -0.014444
 **** Fit      -0.019890
 **** Fit      -0.020878
 **** Fit      -0.016917
 **** Fit      -0.015342
 **** Fit      -0.016666
 **** Fit      -0.013321
 **** Fit      -0.011408
 **** Fit      -0.010238
 **** Fit      -0.009772
 **** Fit      -0.010440
 **** Fit      -0.013049
 **** Fit      -0.021038
 **** Fit      -0.016466
 **** Fit      -0.014662
 **** Fit      -0.014966
 **** Fit      -0.013164
 **** Fit      -0.011739
 **** Fit      -0.010511
 **** Fit      -0.009721
 **** Fit      -0.010011
 **** Fit      -0.012354
 **** Fit      -0.021517
 **** Fit      -0.015868
 **** Fit      -0.016220
 **** Fit      -0.014766
 **** Fit      -0.013050
 **** Fit      -0.011161
 **** Fit      -0.009523
 **** Fit      -0.029636
 **** Fit      -0.021201
 **** Fit      -0.020218
 **** Fit      -0.018454
 **** Fit      -0.015879
 **** Fit      -0.012729
 **** Fit      -0.009516
 **** Fit      -0.026135
 **** Fit      -0.023594
 **** Fit      -0.019700
 **** Fit      -0.014909
 **** Fit      -0.032771
 **** Fit      -0.028198
 **** Fit      -0.022054
 -----------------------------------------------------------------
 Leave Link  602 at Wed Sep 18 19:54:13 2019, MaxMem=  1342177280 cpu:             123.4 elap:               2.6

 Test job not archived.
 1\1\GINC-C506-124\SP\RB3LYP\SVP\C54H83Ca1N15O23\PENGZHI\18-Sep-2019\0\
 \#b3lyp/svp scf=(tight,noincore) Test #IOP(5/87=12) Density=Current Po
 p=(MK,readradii) iop(6/33=2) iop(6/42=6)\\Ng-31_loop3_48.0\\0,1\C,0,84
 .61,75.18,25.94\C,0,86.11,74.98,26.09\O,0,86.56,74.11,26.83\H,0,84.13,
 75.067,26.912\H,0,84.413,76.179,25.552\H,0,84.211,74.436,25.25\N,0,86.
 97,75.82,25.49\C,0,88.4,75.7,25.69\C,0,88.83,75.91,27.14\O,0,89.3,75.0
 8,27.91\C,0,89.13,76.63,24.73\C,0,88.47,77.99,24.51\O,0,87.41,78.4,25.
 03\O,0,89.11,78.78,23.78\H,0,86.61,76.54,24.88\H,0,88.68,74.67,25.48\H
 ,0,88.99,76.17,23.75\H,0,90.18,76.69,24.99\N,0,88.5,77.1,27.63\C,0,89.
 09,77.84,28.73\C,0,90.61,77.89,28.65\O,0,91.14,78.71,27.91\C,0,88.38,7
 9.19,28.8\C,0,88.32,79.83,30.18\C,0,87.69,81.21,30.02\C,0,87.88,82.03,
 31.29\N,0,87.66,83.42,30.88\H,0,87.74,77.54,27.11\H,0,88.9,77.25,29.63
 \H,0,87.33,79.05,28.52\H,0,88.88,79.85,28.09\H,0,89.33,80.,30.55\H,0,8
 7.78,79.18,30.86\H,0,86.63,81.19,29.76\H,0,88.17,81.77,29.22\H,0,88.9,
 81.89,31.65\H,0,87.17,81.75,32.07\H,0,88.53,83.81,30.56\H,0,86.97,83.2
 7,30.15\H,0,87.41,83.99,31.68\N,0,91.34,77.07,29.41\C,0,92.78,76.92,29
 .5\C,0,93.34,76.18,28.3\O,0,94.46,76.49,27.93\C,0,93.13,76.1,30.73\C,0
 ,92.41,74.77,30.89\O,0,92.84,73.94,31.72\O,0,91.3,74.62,30.32\H,0,90.8
 6,76.3,29.85\H,0,93.17,77.94,29.5\H,0,93.,76.69,31.64\H,0,94.2,75.86,3
 0.73\N,0,92.52,75.36,27.63\C,0,92.81,74.7,26.37\C,0,92.88,75.66,25.19\
 O,0,92.79,76.88,25.27\H,0,91.63,75.19,28.07\H,0,92.17,73.85,26.13\H,0,
 93.77,74.19,26.48\N,0,92.84,75.2,23.94\C,0,92.92,73.83,23.46\C,0,91.57
 ,73.14,23.43\O,0,90.52,73.78,23.51\C,0,93.56,73.83,22.07\C,0,93.71,72.
 53,21.29\N,0,92.77,72.35,20.36\O,0,94.63,71.72,21.32\H,0,92.74,75.95,2
 3.28\H,0,93.6,73.24,24.07\H,0,94.53,74.32,22.16\H,0,92.93,74.5,21.49\H
 ,0,92.09,73.06,20.1\H,0,92.92,71.54,19.78\N,0,91.45,71.81,23.52\C,0,92
 .44,70.77,23.7\C,0,92.01,69.8,24.8\O,0,91.03,69.98,25.51\H,0,90.5,71.4
 7,23.42\H,0,93.4,71.15,24.05\H,0,92.54,70.27,22.74\N,0,92.99,68.92,25.
 03\C,0,92.84,67.84,25.98\C,0,94.11,67.79,26.82\O,0,95.22,67.65,26.31\C
 ,0,92.61,66.49,25.29\C,0,91.52,66.29,24.27\C,0,90.36,65.59,24.61\C,0,9
 1.79,66.76,22.98\C,0,89.47,65.2,23.61\C,0,90.79,66.55,22.02\C,0,89.66,
 65.78,22.34\O,0,88.63,65.68,21.45\H,0,93.86,69.,24.52\H,0,92.,68.1,26.
 62\H,0,92.37,65.82,26.11\H,0,93.47,66.,24.85\H,0,90.22,65.36,25.66\H,0
 ,92.73,67.23,22.74\H,0,88.55,64.66,23.83\H,0,91.11,66.93,21.06\H,0,88.
 64,66.29,20.71\N,0,93.92,67.58,28.12\C,0,94.98,67.53,29.1\C,0,95.,66.1
 2,29.7\O,0,95.85,65.8,30.53\C,0,94.72,68.6,30.16\C,0,93.6,68.21,31.11\
 C,0,95.9,69.08,30.99\C,0,93.06,69.32,32.01\H,0,93.01,67.81,28.49\H,0,9
 5.93,67.76,28.6\H,0,94.37,69.52,29.69\H,0,93.91,67.37,31.73\H,0,92.73,
 67.84,30.57\H,0,96.36,68.37,31.68\H,0,96.71,69.34,30.31\H,0,95.7,70.06
 ,31.43\H,0,92.14,69.02,32.52\H,0,93.87,69.78,32.57\H,0,92.67,70.18,31.
 46\N,0,94.,65.28,29.44\C,0,93.93,63.88,29.8\C,0,93.01,63.51,30.96\O,0,
 92.97,62.37,31.41\C,0,93.42,63.15,28.56\O,0,94.29,63.46,27.5\H,0,93.34
 ,65.63,28.76\H,0,94.95,63.61,30.08\H,0,92.45,63.62,28.38\H,0,93.32,62.
 09,28.79\H,0,95.18,63.58,27.84\N,0,92.3,64.46,31.58\C,0,91.68,64.27,32
 .87\C,0,90.63,65.33,33.14\O,0,90.94,66.5,32.95\C,0,92.7,64.24,34.\H,0,
 92.35,65.42,31.27\H,0,91.15,63.31,32.81\H,0,92.27,64.54,34.96\H,0,93.1
 8,63.26,34.07\H,0,93.42,65.03,33.78\N,0,89.49,64.9,33.7\C,0,88.44,65.6
 3,34.37\C,0,87.77,66.72,33.54\O,0,87.14,67.59,34.13\C,0,88.98,66.11,35
 .71\H,0,89.53,63.9,33.84\H,0,87.61,64.99,34.67\H,0,88.29,66.7,36.32\H,
 0,89.33,65.26,36.3\H,0,89.79,66.79,35.46\N,0,87.78,66.63,32.21\C,0,87.
 38,67.66,31.27\C,0,86.15,67.25,30.47\O,0,85.29,68.07,30.16\C,0,88.52,6
 7.91,30.28\C,0,89.64,68.78,30.83\C,0,89.38,70.27,30.65\O,0,90.19,71.04
 ,30.09\O,0,88.44,70.79,31.29\H,0,88.24,65.81,31.84\H,0,87.14,68.61,31.
 74\H,0,88.24,68.44,29.37\H,0,88.95,66.95,29.99\H,0,90.55,68.5,30.3\H,0
 ,89.85,68.61,31.88\N,0,85.92,65.96,30.2\C,0,84.7,65.28,29.82\H,0,83.92
 9,66.017,29.594\H,0,84.885,64.666,28.938\H,0,84.366,64.646,30.641\H,0,
 86.7,65.33,30.33\Ca,0,89.13,73.19,30.54\O,0,87.92,72.17,28.44\H,0,87.5
 7,72.69,27.71\H,0,87.45,71.34,28.38\\Version=ES64L-G16RevA.03\State=1-
 A\HF=-5333.3707584\RMSD=2.388e-09\Dipole=-7.3257667,6.8381582,5.952752
 8\Quadrupole=-120.244641,181.6929315,-61.4482905,-86.0407803,-46.39139
 15,154.5951276\PG=C01 [X(C54H83Ca1N15O23)]\\@


 NATURE REVEALS EVERY SECRET ONCE.
                    - RALPH WALDO EMERSON
 Job cpu time:       0 days  9 hours 43 minutes 34.6 seconds.
 Elapsed time:       0 days  0 hours 12 minutes 19.0 seconds.
 File lengths (MBytes):  RWF=   1517 Int=      0 D2E=      0 Chk=    171 Scr=      1
 Normal termination of Gaussian 16 at Wed Sep 18 19:54:15 2019.
