 Entering Gaussian System, Link 0=g16
 Initial command:
 /home1/apps/gaussian/16rA.03/g16/l1.exe "/scratch/01990/pengzhi/4356747/Gau-170964.inp" -scrdir="/scratch/01990/pengzhi/4356747/"
 Entering Link 1 = /home1/apps/gaussian/16rA.03/g16/l1.exe PID=    170965.
  
 Copyright (c) 1988,1990,1992,1993,1995,1998,2003,2009,2016,
            Gaussian, Inc.  All Rights Reserved.
  
 This is part of the Gaussian(R) 16 program.  It is based on
 the Gaussian(R) 09 system (copyright 2009, Gaussian, Inc.),
 the Gaussian(R) 03 system (copyright 2003, Gaussian, Inc.),
 the Gaussian(R) 98 system (copyright 1998, Gaussian, Inc.),
 the Gaussian(R) 94 system (copyright 1995, Gaussian, Inc.),
 the Gaussian 92(TM) system (copyright 1992, Gaussian, Inc.),
 the Gaussian 90(TM) system (copyright 1990, Gaussian, Inc.),
 the Gaussian 88(TM) system (copyright 1988, Gaussian, Inc.),
 the Gaussian 86(TM) system (copyright 1986, Carnegie Mellon
 University), and the Gaussian 82(TM) system (copyright 1983,
 Carnegie Mellon University). Gaussian is a federally registered
 trademark of Gaussian, Inc.
  
 This software contains proprietary and confidential information,
 including trade secrets, belonging to Gaussian, Inc.
  
 This software is provided under written license and may be
 used, copied, transmitted, or stored only in accord with that
 written license.
  
 The following legend is applicable only to US Government
 contracts under FAR:
  
                    RESTRICTED RIGHTS LEGEND
  
 Use, reproduction and disclosure by the US Government is
 subject to restrictions as set forth in subparagraphs (a)
 and (c) of the Commercial Computer Software - Restricted
 Rights clause in FAR 52.227-19.
  
 Gaussian, Inc.
 340 Quinnipiac St., Bldg. 40, Wallingford CT 06492
  
  
 ---------------------------------------------------------------
 Warning -- This program may not be used in any manner that
 competes with the business of Gaussian, Inc. or will provide
 assistance to any competitor of Gaussian, Inc.  The licensee
 of this program is prohibited from giving any competitor of
 Gaussian, Inc. access to this program.  By using this program,
 the user acknowledges that Gaussian, Inc. is engaged in the
 business of creating and licensing software in the field of
 computational chemistry and represents and warrants to the
 licensee that it is not a competitor of Gaussian, Inc. and that
 it will not use this program in any manner prohibited above.
 ---------------------------------------------------------------
  

 Cite this work as:
 Gaussian 16, Revision A.03,
 M. J. Frisch, G. W. Trucks, H. B. Schlegel, G. E. Scuseria, 
 M. A. Robb, J. R. Cheeseman, G. Scalmani, V. Barone, 
 G. A. Petersson, H. Nakatsuji, X. Li, M. Caricato, A. V. Marenich, 
 J. Bloino, B. G. Janesko, R. Gomperts, B. Mennucci, H. P. Hratchian, 
 J. V. Ortiz, A. F. Izmaylov, J. L. Sonnenberg, D. Williams-Young, 
 F. Ding, F. Lipparini, F. Egidi, J. Goings, B. Peng, A. Petrone, 
 T. Henderson, D. Ranasinghe, V. G. Zakrzewski, J. Gao, N. Rega, 
 G. Zheng, W. Liang, M. Hada, M. Ehara, K. Toyota, R. Fukuda, 
 J. Hasegawa, M. Ishida, T. Nakajima, Y. Honda, O. Kitao, H. Nakai, 
 T. Vreven, K. Throssell, J. A. Montgomery, Jr., J. E. Peralta, 
 F. Ogliaro, M. J. Bearpark, J. J. Heyd, E. N. Brothers, K. N. Kudin, 
 V. N. Staroverov, T. A. Keith, R. Kobayashi, J. Normand, 
 K. Raghavachari, A. P. Rendell, J. C. Burant, S. S. Iyengar, 
 J. Tomasi, M. Cossi, J. M. Millam, M. Klene, C. Adamo, R. Cammi, 
 J. W. Ochterski, R. L. Martin, K. Morokuma, O. Farkas, 
 J. B. Foresman, and D. J. Fox, Gaussian, Inc., Wallingford CT, 2016.
 
 ******************************************
 Gaussian 16:  ES64L-G16RevA.03 25-Dec-2016
                18-Sep-2019 
 ******************************************
 %chk=Ng-31_loop3_3.0.chk
 %nprocshared=48
 Will use up to   48 processors via shared memory.
 %mem=10GB
 %nosave
 ----------------------------------------------------------------------
 #b3lyp/svp scf=(tight,noincore) Test #IOP(5/87=12) Density=Current Pop
 =(MK,readradii) iop(6/33=2) iop(6/42=6)
 ----------------------------------------------------------------------
 1/30=1,38=1,172=1/1;
 2/12=2,17=6,18=5,40=1/2;
 3/5=18,7=101,11=2,25=1,30=1,74=-5/1,2,3;
 4//1;
 5/5=4,32=2,38=5,87=12/2;
 6/7=2,8=2,9=2,10=2,15=8,20=101,22=-1,28=1,33=2,42=6/1,2;
 99/5=1,9=1/99;
 ---------------
 Ng-31_loop3_3.0
 ---------------
 Symbolic Z-matrix:
 Charge =  0 Multiplicity = 1
 C                     5.519     43.26     15.43 
 C                     6.889     43.19     14.77 
 O                     7.249     42.27     14.03 
 H                     4.779     42.793    14.78 
 H                     5.547     42.734    16.384 
 H                     5.248     44.303    15.597 
 N                     7.729     44.22     14.87 
 C                     9.119     44.24     14.46 
 C                     9.949     43.32     15.35 
 O                     9.619     43.18     16.52 
 C                     9.729     45.64     14.52 
 C                     9.379     46.67     15.58 
 O                     8.319     46.55     16.24 
 O                     10.229    47.58     15.73 
 H                     7.359     45.03     15.35 
 H                     9.159     43.88     13.43 
 H                     9.369     46.07     13.59 
 H                     10.819    45.57     14.49 
 N                     11.039    42.73     14.84 
 C                     12.069    42.03     15.58 
 C                     12.559    40.69     15.04 
 O                     13.089    39.86     15.78 
 C                     13.189    43.04     15.81 
 C                     14.029    42.66     17.02 
 C                     14.329    43.92     17.83 
 C                     15.069    43.62     19.13 
 N                     16.249    42.75     19.08 
 H                     11.289    42.9      13.88 
 H                     11.669    41.79     16.56 
 H                     12.859    44.05     16.04 
 H                     13.819    43.09     14.92 
 H                     14.989    42.24     16.71 
 H                     13.459    41.97     17.64 
 H                     13.369    44.36     18.05 
 H                     14.969    44.59     17.25 
 H                     14.349    43.11     19.78 
 H                     15.279    44.5      19.74 
 H                     15.939    41.81     18.85 
 H                     16.939    42.98     18.37 
 H                     16.699    42.66     19.98 
 N                     12.199    40.45     13.78 
 C                     12.599    39.21     13.14 
 C                     12.469    39.34     11.63 
 O                     13.359    39.22     10.79 
 C                     11.879    37.97     13.66 
 C                     10.499    38.23     14.25 
 O                     9.649     38.88     13.61 
 O                     10.189    37.76     15.37 
 H                     11.769    41.21     13.28 
 H                     13.689    39.11     13.17 
 H                     12.509    37.46     14.39 
 H                     11.779    37.21     12.89 
 N                     11.209    39.58     11.24 
 C                     10.629    39.51     9.92 
 C                     9.189     39.99     9.8 
 O                     8.479     40.09     10.8 
 H                     10.529    39.81     11.95 
 H                     10.709    38.47     9.59 
 H                     11.219    40.01     9.16 
 N                     8.669     40.19     8.58 
 C                     9.059     39.65     7.29 
 C                     7.799     39.16     6.6 
 O                     6.809     39.89     6.61 
 C                     9.849     40.65     6.44 
 C                     9.729     40.33     4.96 
 N                     9.509     41.4      4.18 
 O                     9.779     39.22     4.44 
 H                     7.799     40.69     8.53 
 H                     9.639     38.73     7.38 
 H                     10.909    40.56     6.68 
 H                     9.519     41.67     6.61 
 H                     9.669     42.3      4.6 
 H                     9.279     41.21     3.22 
 N                     7.629     37.94     6.09 
 C                     8.569     36.84     6.18 
 C                     8.459     36.15     7.54 
 O                     8.379     36.8      8.58 
 H                     6.759     37.78     5.61 
 H                     9.619     37.06     5.98 
 H                     8.279     36.1      5.44 
 N                     8.479     34.82     7.52 
 C                     8.119     33.95     8.62 
 C                     8.929     32.66     8.57 
 O                     8.939     31.98     7.55 
 C                     6.649     33.55     8.53 
 C                     5.549     34.53     8.17 
 C                     5.049     35.39     9.16 
 C                     5.089     34.7      6.86 
 C                     4.009     36.29     8.89 
 C                     4.049     35.59     6.56 
 C                     3.479     36.38     7.58 
 O                     2.589     37.35     7.23 
 H                     8.669     34.39     6.63 
 H                     8.369     34.56     9.49 
 H                     6.359     33.09     9.47 
 H                     6.609     32.79     7.75 
 H                     5.389     35.28     10.17 
 H                     5.509     34.1      6.07 
 H                     3.659     37.02     9.61 
 H                     3.839     35.77     5.52 
 H                     2.319     37.22     6.32 
 N                     9.649     32.39     9.66 
 C                     10.549    31.26     9.67 
 C                     9.789     29.96     9.5 
 O                     10.369    28.99     9.01 
 C                     11.399    31.23     10.94 
 C                     10.639    30.78     12.19 
 C                     12.759    30.56     10.72 
 C                     11.499    30.73     13.45 
 H                     9.499     32.95     10.49 
 H                     11.289    31.28     8.87 
 H                     11.719    32.25     11.13 
 H                     10.279    29.77     12.01 
 H                     9.799     31.47     12.3 
 H                     13.299    30.99     9.88 
 H                     13.329    30.83     11.61 
 H                     12.699    29.47     10.78 
 H                     12.229    29.92     13.39 
 H                     11.989    31.7      13.49 
 H                     10.899    30.62     14.36 
 N                     8.499     29.94     9.86 
 C                     7.529     28.88     9.7 
 C                     7.059     28.21     10.98 
 O                     6.229     27.3      10.96 
 C                     6.379     29.36     8.82 
 O                     5.959     30.54     9.46 
 H                     8.029     30.82     10.01 
 H                     8.039     28.11     9.13 
 H                     5.589     28.61     8.79 
 H                     6.669     29.59     7.8 
 H                     5.169     30.77     8.96 
 N                     7.569     28.66     12.13 
 C                     7.049     28.28     13.43 
 C                     7.009     29.41     14.45 
 O                     7.989     30.16     14.51 
 C                     7.959     27.17     13.97 
 H                     8.099     29.52     12.17 
 H                     6.059     27.89     13.22 
 H                     7.779     26.27     13.39 
 H                     8.979     27.46     13.74 
 H                     7.879     26.98     15.04 
 N                     6.039     29.51     15.36 
 C                     5.869     30.54     16.37 
 C                     5.779     31.99     15.92 
 O                     5.899     32.97     16.65 
 C                     6.649     30.25     17.64 
 H                     5.329     28.8      15.27 
 H                     4.819     30.61     16.66 
 H                     6.469     29.25     18.03 
 H                     7.729     30.32     17.47 
 H                     6.289     30.92     18.42 
 N                     5.469     32.09     14.62 
 C                     5.389     33.38     13.96 
 C                     3.969     33.92     13.9 
 O                     3.609     35.08     14.08 
 C                     5.909     33.36     12.52 
 C                     7.309     32.76     12.42 
 C                     8.509     33.6      12.82 
 O                     8.699     33.82     14.03 
 O                     9.189     34.13     11.92 
 H                     5.359     31.21     14.15 
 H                     5.969     34.16     14.45 
 H                     6.029     34.37     12.14 
 H                     5.199     32.7      12.03 
 H                     7.459     32.47     11.38 
 H                     7.249     31.78     12.91 
 N                     3.009     32.99     13.87 
 C                     1.599     33.19     13.59 
 H                     1.064     33.357    14.525 
 H                     1.476     34.058    12.942 
 H                     1.197     32.306    13.095 
 H                     3.379     32.1      13.59 
 Ca                    7.24      38.43     12.74 
 O                     7.97      36.5      14.27 
 H                     8.41      36.68     15.1 
 H                     8.06      35.56     14.14 
 
 Stoichiometry    C54H83CaN15O23
 Framework group  C1[X(C54H83CaN15O23)]
 Deg. of freedom   522
 Full point group                 C1      NOp   1
 Largest Abelian subgroup         C1      NOp   1
 Largest concise Abelian subgroup C1      NOp   1
                         Standard orientation:                         
 ---------------------------------------------------------------------
 Center     Atomic      Atomic             Coordinates (Angstroms)
 Number     Number       Type             X           Y           Z
 ---------------------------------------------------------------------
      1          6           0        6.254661   -0.489550    5.276822
      2          6           0        6.415812   -0.141429    3.803648
      3          8           0        5.480443    0.190112    3.069642
      4          1           0        5.441043    0.098508    5.701559
      5          1           0        6.026242   -1.550332    5.377536
      6          1           0        7.180197   -0.264298    5.807694
      7          7           0        7.634042   -0.055814    3.269714
      8          6           0        7.948867    0.084694    1.861971
      9          6           0        7.573407   -1.184930    1.104023
     10          8           0        7.652883   -2.260000    1.683080
     11          6           0        9.430825    0.366448    1.616788
     12          6           0       10.553585   -0.229717    2.448051
     13          8           0       10.307298   -0.693612    3.587237
     14          8           0       11.677179   -0.230681    1.890705
     15          1           0        8.397616   -0.178588    3.921851
     16          1           0        7.361163    0.921704    1.479716
     17          1           0        9.480810    1.433415    1.812956
     18          1           0        9.674547    0.177935    0.568473
     19          7           0        7.213406   -1.092334   -0.183659
     20          6           0        7.059580   -2.187810   -1.118952
     21          6           0        5.827024   -2.199489   -2.017822
     22          8           0        5.408505   -3.247352   -2.512013
     23          6           0        8.374350   -2.279462   -1.887313
     24          6           0        8.582349   -3.676647   -2.451857
     25          6           0       10.040418   -4.082525   -2.244499
     26          6           0       10.316506   -5.520186   -2.674041
     27          7           0        9.844251   -5.961109   -3.990993
     28          1           0        7.192952   -0.188954   -0.626927
     29          1           0        6.977271   -3.105406   -0.545156
     30          1           0        9.268760   -2.112870   -1.292184
     31          1           0        8.371723   -1.547177   -2.696789
     32          1           0        8.393228   -3.692902   -3.527993
     33          1           0        7.942699   -4.372261   -1.911146
     34          1           0       10.224570   -3.976109   -1.186972
     35          1           0       10.692337   -3.442991   -2.845248
     36          1           0        9.806963   -6.159639   -1.944338
     37          1           0       11.346488   -5.844969   -2.518310
     38          1           0        8.828779   -5.991405   -3.968653
     39          1           0       10.071597   -5.349707   -4.770480
     40          1           0       10.125730   -6.907802   -4.203462
     41          7           0        5.174109   -1.038869   -2.056094
     42          6           0        3.981579   -0.909549   -2.873619
     43          6           0        3.671167    0.560785   -3.109551
     44          8           0        3.600326    1.146029   -4.188704
     45          6           0        2.765854   -1.660665   -2.340481
     46          6           0        2.758617   -1.881277   -0.833372
     47          8           0        2.944563   -0.926892   -0.052876
     48          8           0        2.526937   -3.018549   -0.359731
     49          1           0        5.619522   -0.254558   -1.610040
     50          1           0        4.213263   -1.163481   -3.913255
     51          1           0        2.668474   -2.615029   -2.859719
     52          1           0        1.836706   -1.168271   -2.613850
     53          7           0        3.425584    1.224763   -1.971078
     54          6           0        2.849881    2.534610   -1.779850
     55          6           0        2.843352    3.055788   -0.349210
     56          8           0        2.989540    2.283158    0.597242
     57          1           0        3.624837    0.758205   -1.098139
     58          1           0        1.829371    2.496076   -2.172248
     59          1           0        3.283935    3.296433   -2.417755
     60          7           0        2.559728    4.347916   -0.128387
     61          6           0        1.840117    5.307264   -0.946685
     62          6           0        0.844167    6.017841   -0.048373
     63          8           0        1.232155    6.417538    1.048352
     64          6           0        2.769304    6.276629   -1.683939
     65          6           0        2.055099    7.573815   -2.022199
     66          7           0        2.774153    8.680206   -1.776109
     67          8           0        0.912033    7.695193   -2.450765
     68          1           0        2.755059    4.708786    0.788684
     69          1           0        1.184253    4.826929   -1.674710
     70          1           0        3.056083    5.835726   -2.639273
     71          1           0        3.657330    6.502265   -1.101961
     72          1           0        3.758679    8.547584   -1.617615
     73          1           0        2.282953    9.554323   -1.848509
     74          7           0       -0.461398    6.134029   -0.292095
     75          6           0       -1.178693    5.532203   -1.398890
     76          6           0       -1.492653    4.065756   -1.100960
     77          8           0       -0.646831    3.318998   -0.613684
     78          1           0       -0.985746    6.684834    0.367126
     79          1           0       -0.723637    5.601515   -2.388344
     80          1           0       -2.136704    6.036883   -1.481429
     81          7           0       -2.717099    3.656874   -1.422280
     82          6           0       -3.336908    2.419625   -0.996191
     83          6           0       -4.303284    1.910724   -2.059128
     84          8           0       -5.191834    2.641767   -2.482159
     85          6           0       -4.154894    2.637717    0.273587
     86          6           0       -3.664690    3.481147    1.434762
     87          6           0       -2.760195    2.922677    2.351113
     88          6           0       -3.981945    4.836812    1.569377
     89          6           0       -2.302892    3.646134    3.461060
     90          6           0       -3.541651    5.585011    2.669395
     91          6           0       -2.714127    4.988766    3.643611
     92          8           0       -2.169656    5.782298    4.607643
     93          1           0       -3.289406    4.314523   -1.925334
     94          1           0       -2.476446    1.759607   -0.871767
     95          1           0       -4.418349    1.667642    0.684496
     96          1           0       -5.069247    3.128736   -0.058766
     97          1           0       -2.500437    1.886795    2.265819
     98          1           0       -4.618168    5.306215    0.837679
     99          1           0       -1.544829    3.270869    4.138051
    100          1           0       -3.707042    6.647981    2.640403
    101          1           0       -2.604190    6.636117    4.599095
    102          7           0       -4.059944    0.681688   -2.517010
    103          6           0       -4.837260    0.151900   -3.613415
    104          6           0       -6.299185    0.031141   -3.233032
    105          8           0       -7.151852    0.074823   -4.120979
    106          6           0       -4.288387   -1.191361   -4.093716
    107          6           0       -4.598314   -2.363138   -3.159112
    108          6           0       -4.568427   -1.442329   -5.578806
    109          6           0       -4.067563   -3.705245   -3.655853
    110          1           0       -3.371894    0.114210   -2.037889
    111          1           0       -4.812239    0.771245   -4.509956
    112          1           0       -3.206726   -1.100108   -4.117829
    113          1           0       -5.679762   -2.453389   -3.092585
    114          1           0       -4.177693   -2.096001   -2.186736
    115          1           0       -4.234137   -0.619438   -6.205862
    116          1           0       -3.923167   -2.286334   -5.826185
    117          1           0       -5.574212   -1.834940   -5.750720
    118          1           0       -4.617609   -4.037589   -4.538801
    119          1           0       -3.021659   -3.520563   -3.889472
    120          1           0       -4.106305   -4.480618   -2.882874
    121          7           0       -6.598015   -0.080629   -1.932144
    122          6           0       -7.897160   -0.096796   -1.298061
    123          6           0       -8.317857   -1.418276   -0.677654
    124          8           0       -9.401865   -1.541897   -0.105775
    125          6           0       -8.017149    1.080260   -0.335024
    126          8           0       -6.885683    0.935376    0.487893
    127          1           0       -5.884726    0.143935   -1.254951
    128          1           0       -8.606696    0.097579   -2.095982
    129          1           0       -8.944786    1.009824    0.232452
    130          1           0       -7.986337    2.051498   -0.817876
    131          1           0       -7.032812    1.614866    1.153962
    132          7           0       -7.456619   -2.436267   -0.761687
    133          6           0       -7.619497   -3.675023   -0.024290
    134          6           0       -6.325155   -4.257285    0.527570
    135          8           0       -5.334639   -4.248617   -0.210876
    136          6           0       -8.237739   -4.693624   -0.989707
    137          1           0       -6.500438   -2.293772   -1.057515
    138          1           0       -8.320307   -3.427517    0.765587
    139          1           0       -9.269649   -4.408487   -1.170426
    140          1           0       -7.734702   -4.568728   -1.942993
    141          1           0       -8.157833   -5.736061   -0.682559
    142          7           0       -6.277733   -4.899823    1.695430
    143          6           0       -5.115787   -5.481498    2.344609
    144          6           0       -3.923261   -4.584350    2.638053
    145          8           0       -2.796072   -4.972943    2.931548
    146          6           0       -4.826690   -6.895167    1.871997
    147          1           0       -7.160929   -4.915900    2.181235
    148          1           0       -5.280335   -5.542158    3.421988
    149          1           0       -5.698594   -7.544933    1.917677
    150          1           0       -4.493302   -6.906939    0.828486
    151          1           0       -4.111196   -7.343633    2.560362
    152          7           0       -4.258908   -3.287021    2.618529
    153          6           0       -3.265439   -2.247154    2.812938
    154          6           0       -3.195310   -1.766270    4.253574
    155          8           0       -2.184430   -1.499974    4.897631
    156          6           0       -3.507383   -1.005565    1.950199
    157          6           0       -3.680161   -1.353059    0.473922
    158          6           0       -2.454599   -1.671410   -0.364082
    159          8           0       -1.882385   -2.761580   -0.183247
    160          8           0       -2.003208   -0.785719   -1.115812
    161          1           0       -5.223512   -3.110382    2.404668
    162          1           0       -2.251490   -2.557994    2.567610
    163          1           0       -2.641062   -0.351235    1.965740
    164          1           0       -4.448489   -0.633321    2.344603
    165          1           0       -4.174099   -0.504018    0.001317
    166          1           0       -4.472864   -2.110917    0.436878
    167          7           0       -4.338026   -1.863804    4.940660
    168          6           0       -4.635348   -1.288266    6.239450
    169          1           0       -4.393608   -2.010195    7.019655
    170          1           0       -4.039925   -0.386424    6.383013
    171          1           0       -5.694786   -1.037623    6.292862
    172          1           0       -5.123304   -1.952722    4.321927
    173         20           0        1.605572    0.168643    1.888667
    174          8           0        0.437168   -2.000921    1.163049
    175          1           0        0.946248   -2.794603    1.002403
    176          1           0       -0.436351   -2.195552    0.834898
 ---------------------------------------------------------------------
 Rotational constants (GHZ):           0.0205591           0.0103614           0.0089893
 Standard basis: SVP (5D, 7F)
 There are  1809 symmetry adapted cartesian basis functions of A   symmetry.
 There are  1717 symmetry adapted basis functions of A   symmetry.
  1717 basis functions,  2922 primitive gaussians,  1809 cartesian basis functions
   358 alpha electrons      358 beta electrons
       nuclear repulsion energy     19827.0320641809 Hartrees.
 NAtoms=  176 NActive=  176 NUniq=  176 SFac= 1.00D+00 NAtFMM=   60 NAOKFM=T Big=T
 Integral buffers will be    131072 words long.
 Raffenetti 2 integral format.
 Two-electron integral symmetry is turned on.
 One-electron integrals computed using PRISM.
 NBasis=  1717 RedAO= T EigKep=  2.93D-04  NBF=  1717
 NBsUse=  1717 1.00D-06 EigRej= -1.00D+00 NBFU=  1717
 ExpMin= 1.98D-02 ExpMax= 3.51D+04 ExpMxC= 5.28D+03 IAcc=3 IRadAn=         5 AccDes= 0.00D+00
 Harris functional with IExCor=  402 and IRadAn=       5 diagonalized for initial guess.
 HarFok:  IExCor=  402 AccDes= 0.00D+00 IRadAn=         5 IDoV= 1 UseB2=F ITyADJ=14
 ICtDFT=  3500011 ScaDFX=  1.000000  1.000000  1.000000  1.000000
 FoFCou: FMM=F IPFlag=           0 FMFlag=      100000 FMFlg1=        2001
         NFxFlg=           0 DoJE=T BraDBF=F KetDBF=T FulRan=T
         wScrn=  0.000000 ICntrl=       500 IOpCl=  0 I1Cent=   200000004 NGrid=           0
         NMat0=    1 NMatS0=      1 NMatT0=    0 NMatD0=    1 NMtDS0=    0 NMtDT0=    0
 Petite list used in FoFCou.
 Requested convergence on RMS density matrix=1.00D-08 within 128 cycles.
 Requested convergence on MAX density matrix=1.00D-06.
 Requested convergence on             energy=1.00D-06.
 No special actions if energy rises.
 EnCoef did     2 forward-backward iterations
 EnCoef did     3 forward-backward iterations
 EnCoef did     2 forward-backward iterations
 Rare condition: small coef for last iteration:  0.000D+00
 Restarting incremental Fock formation.
 SCF Done:  E(RB3LYP) =  -5333.33108846     A.U. after   25 cycles
            NFock= 25  Conv=0.24D-08     -V/T= 2.0081
 SCF density gives NOpUse=  1 NOpAll=  1.
 Hyperfine terms turned off by default for NAtoms > 100.

 **********************************************************************

            Population analysis using the SCF density.

 **********************************************************************

 Orbital symmetries:
 BldTbl:  Degeneracy threshold= 1.00D-02
       Occupied  (A) (A) (A) (A) (A) (A) (A) (A) (A) (A) (A) (A)
                 (A) (A) (A) (A) (A) (A) (A) (A) (A) (A) (A) (A)
                 (A) (A) (A) (A) (A) (A) (A) (A) (A) (A) (A) (A)
                 (A) (A) (A) (A) (A) (A) (A) (A) (A) (A) (A) (A)
                 (A) (A) (A) (A) (A) (A) (A) (A) (A) (A) (A) (A)
                 (A) (A) (A) (A) (A) (A) (A) (A) (A) (A) (A) (A)
                 (A) (A) (A) (A) (A) (A) (A) (A) (A) (A) (A) (A)
                 (A) (A) (A) (A) (A) (A) (A) (A) (A) (A) (A) (A)
                 (A) (A) (A) (A) (A) (A) (A) (A) (A) (A) (A) (A)
                 (A) (A) (A) (A) (A) (A) (A) (A) (A) (A) (A) (A)
                 (A) (A) (A) (A) (A) (A) (A) (A) (A) (A) (A) (A)
                 (A) (A) (A) (A) (A) (A) (A) (A) (A) (A) (A) (A)
                 (A) (A) (A) (A) (A) (A) (A) (A) (A) (A) (A) (A)
                 (A) (A) (A) (A) (A) (A) (A) (A) (A) (A) (A) (A)
                 (A) (A) (A) (A) (A) (A) (A) (A) (A) (A) (A) (A)
                 (A) (A) (A) (A) (A) (A) (A) (A) (A) (A) (A) (A)
                 (A) (A) (A) (A) (A) (A) (A) (A) (A) (A) (A) (A)
                 (A) (A) (A) (A) (A) (A) (A) (A) (A) (A) (A) (A)
                 (A) (A) (A) (A) (A) (A) (A) (A) (A) (A) (A) (A)
                 (A) (A) (A) (A) (A) (A) (A) (A) (A) (A) (A) (A)
                 (A) (A) (A) (A) (A) (A) (A) (A) (A) (A) (A) (A)
                 (A) (A) (A) (A) (A) (A) (A) (A) (A) (A) (A) (A)
                 (A) (A) (A) (A) (A) (A) (A) (A) (A) (A) (A) (A)
                 (A) (A) (A) (A) (A) (A) (A) (A) (A) (A) (A) (A)
                 (A) (A) (A) (A) (A) (A) (A) (A) (A) (A) (A) (A)
                 (A) (A) (A) (A) (A) (A) (A) (A) (A) (A) (A) (A)
                 (A) (A) (A) (A) (A) (A) (A) (A) (A) (A) (A) (A)
                 (A) (A) (A) (A) (A) (A) (A) (A) (A) (A) (A) (A)
                 (A) (A) (A) (A) (A) (A) (A) (A) (A) (A) (A) (A)
                 (A) (A) (A) (A) (A) (A) (A) (A) (A) (A)
       Virtual   (A) (A) (A) (A) (A) (A) (A) (A) (A) (A) (A) (A)
                 (A) (A) (A) (A) (A) (A) (A) (A) (A) (A) (A) (A)
                 (A) (A) (A) (A) (A) (A) (A) (A) (A) (A) (A) (A)
                 (A) (A) (A) (A) (A) (A) (A) (A) (A) (A) (A) (A)
                 (A) (A) (A) (A) (A) (A) (A) (A) (A) (A) (A) (A)
                 (A) (A) (A) (A) (A) (A) (A) (A) (A) (A) (A) (A)
                 (A) (A) (A) (A) (A) (A) (A) (A) (A) (A) (A) (A)
                 (A) (A) (A) (A) (A) (A) (A) (A) (A) (A) (A) (A)
                 (A) (A) (A) (A) (A) (A) (A) (A) (A) (A) (A) (A)
                 (A) (A) (A) (A) (A) (A) (A) (A) (A) (A) (A) (A)
                 (A) (A) (A) (A) (A) (A) (A) (A) (A) (A) (A) (A)
                 (A) (A) (A) (A) (A) (A) (A) (A) (A) (A) (A) (A)
                 (A) (A) (A) (A) (A) (A) (A) (A) (A) (A) (A) (A)
                 (A) (A) (A) (A) (A) (A) (A) (A) (A) (A) (A) (A)
                 (A) (A) (A) (A) (A) (A) (A) (A) (A) (A) (A) (A)
                 (A) (A) (A) (A) (A) (A) (A) (A) (A) (A) (A) (A)
                 (A) (A) (A) (A) (A) (A) (A) (A) (A) (A) (A) (A)
                 (A) (A) (A) (A) (A) (A) (A) (A) (A) (A) (A) (A)
                 (A) (A) (A) (A) (A) (A) (A) (A) (A) (A) (A) (A)
                 (A) (A) (A) (A) (A) (A) (A) (A) (A) (A) (A) (A)
                 (A) (A) (A) (A) (A) (A) (A) (A) (A) (A) (A) (A)
                 (A) (A) (A) (A) (A) (A) (A) (A) (A) (A) (A) (A)
                 (A) (A) (A) (A) (A) (A) (A) (A) (A) (A) (A) (A)
                 (A) (A) (A) (A) (A) (A) (A) (A) (A) (A) (A) (A)
                 (A) (A) (A) (A) (A) (A) (A) (A) (A) (A) (A) (A)
                 (A) (A) (A) (A) (A) (A) (A) (A) (A) (A) (A) (A)
                 (A) (A) (A) (A) (A) (A) (A) (A) (A) (A) (A) (A)
                 (A) (A) (A) (A) (A) (A) (A) (A) (A) (A) (A) (A)
                 (A) (A) (A) (A) (A) (A) (A) (A) (A) (A) (A) (A)
                 (A) (A) (A) (A) (A) (A) (A) (A) (A) (A) (A) (A)
                 (A) (A) (A) (A) (A) (A) (A) (A) (A) (A) (A) (A)
                 (A) (A) (A) (A) (A) (A) (A) (A) (A) (A) (A) (A)
                 (A) (A) (A) (A) (A) (A) (A) (A) (A) (A) (A) (A)
                 (A) (A) (A) (A) (A) (A) (A) (A) (A) (A) (A) (A)
                 (A) (A) (A) (A) (A) (A) (A) (A) (A) (A) (A) (A)
                 (A) (A) (A) (A) (A) (A) (A) (A) (A) (A) (A) (A)
                 (A) (A) (A) (A) (A) (A) (A) (A) (A) (A) (A) (A)
                 (A) (A) (A) (A) (A) (A) (A) (A) (A) (A) (A) (A)
                 (A) (A) (A) (A) (A) (A) (A) (A) (A) (A) (A) (A)
                 (A) (A) (A) (A) (A) (A) (A) (A) (A) (A) (A) (A)
                 (A) (A) (A) (A) (A) (A) (A) (A) (A) (A) (A) (A)
                 (A) (A) (A) (A) (A) (A) (A) (A) (A) (A) (A) (A)
                 (A) (A) (A) (A) (A) (A) (A) (A) (A) (A) (A) (A)
                 (A) (A) (A) (A) (A) (A) (A) (A) (A) (A) (A) (A)
                 (A) (A) (A) (A) (A) (A) (A) (A) (A) (A) (A) (A)
                 (A) (A) (A) (A) (A) (A) (A) (A) (A) (A) (A) (A)
                 (A) (A) (A) (A) (A) (A) (A) (A) (A) (A) (A) (A)
                 (A) (A) (A) (A) (A) (A) (A) (A) (A) (A) (A) (A)
                 (A) (A) (A) (A) (A) (A) (A) (A) (A) (A) (A) (A)
                 (A) (A) (A) (A) (A) (A) (A) (A) (A) (A) (A) (A)
                 (A) (A) (A) (A) (A) (A) (A) (A) (A) (A) (A) (A)
                 (A) (A) (A) (A) (A) (A) (A) (A) (A) (A) (A) (A)
                 (A) (A) (A) (A) (A) (A) (A) (A) (A) (A) (A) (A)
                 (A) (A) (A) (A) (A) (A) (A) (A) (A) (A) (A) (A)
                 (A) (A) (A) (A) (A) (A) (A) (A) (A) (A) (A) (A)
                 (A) (A) (A) (A) (A) (A) (A) (A) (A) (A) (A) (A)
                 (A) (A) (A) (A) (A) (A) (A) (A) (A) (A) (A) (A)
                 (A) (A) (A) (A) (A) (A) (A) (A) (A) (A) (A) (A)
                 (A) (A) (A) (A) (A) (A) (A) (A) (A) (A) (A) (A)
                 (A) (A) (A) (A) (A) (A) (A) (A) (A) (A) (A) (A)
                 (A) (A) (A) (A) (A) (A) (A) (A) (A) (A) (A) (A)
                 (A) (A) (A) (A) (A) (A) (A) (A) (A) (A) (A) (A)
                 (A) (A) (A) (A) (A) (A) (A) (A) (A) (A) (A) (A)
                 (A) (A) (A) (A) (A) (A) (A) (A) (A) (A) (A) (A)
                 (A) (A) (A) (A) (A) (A) (A) (A) (A) (A) (A) (A)
                 (A) (A) (A) (A) (A) (A) (A) (A) (A) (A) (A) (A)
                 (A) (A) (A) (A) (A) (A) (A) (A) (A) (A) (A) (A)
                 (A) (A) (A) (A) (A) (A) (A) (A) (A) (A) (A) (A)
                 (A) (A) (A) (A) (A) (A) (A) (A) (A) (A) (A) (A)
                 (A) (A) (A) (A) (A) (A) (A) (A) (A) (A) (A) (A)
                 (A) (A) (A) (A) (A) (A) (A) (A) (A) (A) (A) (A)
                 (A) (A) (A) (A) (A) (A) (A) (A) (A) (A) (A) (A)
                 (A) (A) (A) (A) (A) (A) (A) (A) (A) (A) (A) (A)
                 (A) (A) (A) (A) (A) (A) (A) (A) (A) (A) (A) (A)
                 (A) (A) (A) (A) (A) (A) (A) (A) (A) (A) (A) (A)
                 (A) (A) (A) (A) (A) (A) (A) (A) (A) (A) (A) (A)
                 (A) (A) (A) (A) (A) (A) (A) (A) (A) (A) (A) (A)
                 (A) (A) (A) (A) (A) (A) (A) (A) (A) (A) (A) (A)
                 (A) (A) (A) (A) (A) (A) (A) (A) (A) (A) (A) (A)
                 (A) (A) (A) (A) (A) (A) (A) (A) (A) (A) (A) (A)
                 (A) (A) (A) (A) (A) (A) (A) (A) (A) (A) (A) (A)
                 (A) (A) (A) (A) (A) (A) (A) (A) (A) (A) (A) (A)
                 (A) (A) (A) (A) (A) (A) (A) (A) (A) (A) (A) (A)
                 (A) (A) (A) (A) (A) (A) (A) (A) (A) (A) (A) (A)
                 (A) (A) (A) (A) (A) (A) (A) (A) (A) (A) (A) (A)
                 (A) (A) (A) (A) (A) (A) (A) (A) (A) (A) (A) (A)
                 (A) (A) (A) (A) (A) (A) (A) (A) (A) (A) (A) (A)
                 (A) (A) (A) (A) (A) (A) (A) (A) (A) (A) (A) (A)
                 (A) (A) (A) (A) (A) (A) (A) (A) (A) (A) (A) (A)
                 (A) (A) (A) (A) (A) (A) (A) (A) (A) (A) (A) (A)
                 (A) (A) (A) (A) (A) (A) (A) (A) (A) (A) (A) (A)
                 (A) (A) (A) (A) (A) (A) (A) (A) (A) (A) (A) (A)
                 (A) (A) (A) (A) (A) (A) (A) (A) (A) (A) (A) (A)
                 (A) (A) (A) (A) (A) (A) (A) (A) (A) (A) (A) (A)
                 (A) (A) (A) (A) (A) (A) (A) (A) (A) (A) (A) (A)
                 (A) (A) (A) (A) (A) (A) (A) (A) (A) (A) (A) (A)
                 (A) (A) (A) (A) (A) (A) (A) (A) (A) (A) (A) (A)
                 (A) (A) (A) (A) (A) (A) (A) (A) (A) (A) (A) (A)
                 (A) (A) (A) (A) (A) (A) (A) (A) (A) (A) (A) (A)
                 (A) (A) (A) (A) (A) (A) (A) (A) (A) (A) (A) (A)
                 (A) (A) (A) (A) (A) (A) (A) (A) (A) (A) (A) (A)
                 (A) (A) (A) (A) (A) (A) (A) (A) (A) (A) (A) (A)
                 (A) (A) (A) (A) (A) (A) (A) (A) (A) (A) (A) (A)
                 (A) (A) (A) (A) (A) (A) (A) (A) (A) (A) (A) (A)
                 (A) (A) (A) (A) (A) (A) (A) (A) (A) (A) (A) (A)
                 (A) (A) (A) (A) (A) (A) (A) (A) (A) (A) (A) (A)
                 (A) (A) (A) (A) (A) (A) (A) (A) (A) (A) (A) (A)
                 (A) (A) (A) (A) (A) (A) (A) (A) (A) (A) (A) (A)
                 (A) (A) (A) (A) (A) (A) (A) (A) (A) (A) (A) (A)
                 (A) (A) (A) (A) (A) (A) (A) (A) (A) (A) (A) (A)
                 (A) (A) (A) (A) (A) (A) (A) (A) (A) (A) (A) (A)
                 (A) (A) (A) (A) (A) (A) (A) (A) (A) (A) (A) (A)
                 (A) (A) (A) (A) (A) (A) (A) (A) (A) (A) (A) (A)
                 (A) (A) (A)
 The electronic state is 1-A.
 Alpha  occ. eigenvalues -- -145.50603 -19.17429 -19.14820 -19.14695 -19.11928
 Alpha  occ. eigenvalues --  -19.11668 -19.11119 -19.10833 -19.10231 -19.09897
 Alpha  occ. eigenvalues --  -19.09208 -19.08952 -19.08934 -19.08620 -19.08605
 Alpha  occ. eigenvalues --  -19.07076 -19.06710 -19.05659 -19.05529 -19.03057
 Alpha  occ. eigenvalues --  -19.02408 -19.01815 -18.97861 -18.97101 -15.56370
 Alpha  occ. eigenvalues --  -14.58700 -14.38320 -14.37830 -14.37221 -14.36899
 Alpha  occ. eigenvalues --  -14.36278 -14.35936 -14.34911 -14.34717 -14.34684
 Alpha  occ. eigenvalues --  -14.34609 -14.34084 -14.33379 -14.33126 -14.29484
 Alpha  occ. eigenvalues --  -12.69998 -12.69940 -12.69916 -10.34385 -10.33245
 Alpha  occ. eigenvalues --  -10.30594 -10.30082 -10.29476 -10.29333 -10.28445
 Alpha  occ. eigenvalues --  -10.27871 -10.27751 -10.27534 -10.27141 -10.26893
 Alpha  occ. eigenvalues --  -10.26857 -10.26580 -10.26487 -10.25942 -10.25506
 Alpha  occ. eigenvalues --  -10.24798 -10.24492 -10.24384 -10.24343 -10.23808
 Alpha  occ. eigenvalues --  -10.23555 -10.23480 -10.23435 -10.23363 -10.22825
 Alpha  occ. eigenvalues --  -10.22554 -10.22441 -10.22367 -10.22143 -10.22079
 Alpha  occ. eigenvalues --  -10.22034 -10.21476 -10.20368 -10.20333 -10.20319
 Alpha  occ. eigenvalues --  -10.20293 -10.20252 -10.20037 -10.19426 -10.19221
 Alpha  occ. eigenvalues --  -10.18823 -10.18031 -10.17812 -10.17546 -10.16798
 Alpha  occ. eigenvalues --  -10.16505 -10.15899 -10.15183 -10.15035 -10.15015
 Alpha  occ. eigenvalues --  -10.14152 -10.13075  -1.92633  -1.20112  -1.19600
 Alpha  occ. eigenvalues --   -1.19443  -1.13647  -1.07104  -1.06275  -1.05053
 Alpha  occ. eigenvalues --   -1.04368  -1.03920  -1.03746  -1.03618  -1.02842
 Alpha  occ. eigenvalues --   -1.02226  -1.02162  -1.01732  -1.01581  -1.01193
 Alpha  occ. eigenvalues --   -1.00314  -0.99684  -0.99066  -0.98352  -0.98053
 Alpha  occ. eigenvalues --   -0.97166  -0.95423  -0.93967  -0.93267  -0.93239
 Alpha  occ. eigenvalues --   -0.93181  -0.92175  -0.91888  -0.91886  -0.91649
 Alpha  occ. eigenvalues --   -0.91455  -0.91178  -0.90617  -0.90307  -0.89707
 Alpha  occ. eigenvalues --   -0.88530  -0.87846  -0.87487  -0.86440  -0.85860
 Alpha  occ. eigenvalues --   -0.82361  -0.82218  -0.81306  -0.80117  -0.79838
 Alpha  occ. eigenvalues --   -0.78595  -0.78257  -0.78175  -0.76530  -0.76272
 Alpha  occ. eigenvalues --   -0.75616  -0.75447  -0.74671  -0.74124  -0.73890
 Alpha  occ. eigenvalues --   -0.72809  -0.72670  -0.72332  -0.71725  -0.71491
 Alpha  occ. eigenvalues --   -0.70751  -0.69661  -0.68843  -0.68678  -0.67875
 Alpha  occ. eigenvalues --   -0.66571  -0.66125  -0.65915  -0.65482  -0.64015
 Alpha  occ. eigenvalues --   -0.63484  -0.63274  -0.63055  -0.61859  -0.61601
 Alpha  occ. eigenvalues --   -0.61570  -0.60955  -0.60607  -0.60227  -0.60002
 Alpha  occ. eigenvalues --   -0.59704  -0.59477  -0.59182  -0.58932  -0.58479
 Alpha  occ. eigenvalues --   -0.58071  -0.57869  -0.57850  -0.57772  -0.57132
 Alpha  occ. eigenvalues --   -0.56887  -0.56750  -0.56393  -0.56161  -0.55659
 Alpha  occ. eigenvalues --   -0.54788  -0.54477  -0.54107  -0.53712  -0.53246
 Alpha  occ. eigenvalues --   -0.52745  -0.52177  -0.52014  -0.51984  -0.51787
 Alpha  occ. eigenvalues --   -0.51511  -0.51204  -0.50783  -0.50527  -0.50264
 Alpha  occ. eigenvalues --   -0.49960  -0.49931  -0.49742  -0.49632  -0.49305
 Alpha  occ. eigenvalues --   -0.48972  -0.48261  -0.48112  -0.48046  -0.47826
 Alpha  occ. eigenvalues --   -0.47426  -0.47124  -0.47014  -0.46775  -0.46759
 Alpha  occ. eigenvalues --   -0.46475  -0.46400  -0.46012  -0.45926  -0.45784
 Alpha  occ. eigenvalues --   -0.45474  -0.45260  -0.45066  -0.44932  -0.44562
 Alpha  occ. eigenvalues --   -0.44376  -0.44205  -0.44044  -0.44033  -0.43890
 Alpha  occ. eigenvalues --   -0.43810  -0.43616  -0.43224  -0.43120  -0.42925
 Alpha  occ. eigenvalues --   -0.42508  -0.42409  -0.42328  -0.42206  -0.42033
 Alpha  occ. eigenvalues --   -0.41986  -0.41808  -0.41685  -0.41444  -0.41392
 Alpha  occ. eigenvalues --   -0.41347  -0.41083  -0.40930  -0.40852  -0.40785
 Alpha  occ. eigenvalues --   -0.40640  -0.40380  -0.40346  -0.40101  -0.40080
 Alpha  occ. eigenvalues --   -0.39914  -0.39672  -0.39646  -0.39572  -0.39314
 Alpha  occ. eigenvalues --   -0.39254  -0.39072  -0.38914  -0.38792  -0.38588
 Alpha  occ. eigenvalues --   -0.38416  -0.38390  -0.38266  -0.38179  -0.37925
 Alpha  occ. eigenvalues --   -0.37872  -0.37684  -0.37409  -0.37376  -0.37188
 Alpha  occ. eigenvalues --   -0.37016  -0.36837  -0.36711  -0.36631  -0.36375
 Alpha  occ. eigenvalues --   -0.36006  -0.35924  -0.35865  -0.35802  -0.35672
 Alpha  occ. eigenvalues --   -0.35668  -0.35416  -0.35294  -0.34933  -0.34661
 Alpha  occ. eigenvalues --   -0.34430  -0.34357  -0.34129  -0.33963  -0.33561
 Alpha  occ. eigenvalues --   -0.33555  -0.32840  -0.32657  -0.32645  -0.32240
 Alpha  occ. eigenvalues --   -0.31855  -0.31548  -0.30867  -0.30632  -0.29914
 Alpha  occ. eigenvalues --   -0.29902  -0.29827  -0.29358  -0.29323  -0.28956
 Alpha  occ. eigenvalues --   -0.28865  -0.28550  -0.28108  -0.27667  -0.27303
 Alpha  occ. eigenvalues --   -0.27254  -0.27097  -0.27010  -0.26983  -0.26813
 Alpha  occ. eigenvalues --   -0.26802  -0.26607  -0.26228  -0.25962  -0.25743
 Alpha  occ. eigenvalues --   -0.25410  -0.25168  -0.25030  -0.24859  -0.24793
 Alpha  occ. eigenvalues --   -0.24171  -0.23757  -0.23438  -0.23214  -0.23149
 Alpha  occ. eigenvalues --   -0.22531  -0.22514  -0.22053  -0.21790  -0.21446
 Alpha  occ. eigenvalues --   -0.21077  -0.20591  -0.19929  -0.18231  -0.17655
 Alpha  occ. eigenvalues --   -0.14929  -0.14714  -0.13084
 Alpha virt. eigenvalues --   -0.11661  -0.10394  -0.04525  -0.03991  -0.03533
 Alpha virt. eigenvalues --   -0.02908  -0.01504  -0.01035  -0.00474  -0.00186
 Alpha virt. eigenvalues --   -0.00022   0.00333   0.00883   0.01049   0.01777
 Alpha virt. eigenvalues --    0.02139   0.02231   0.02431   0.02507   0.02708
 Alpha virt. eigenvalues --    0.02872   0.03083   0.03179   0.03358   0.03629
 Alpha virt. eigenvalues --    0.03766   0.04195   0.04256   0.04566   0.04568
 Alpha virt. eigenvalues --    0.04718   0.04943   0.05169   0.05245   0.05998
 Alpha virt. eigenvalues --    0.06309   0.06826   0.07085   0.07283   0.07389
 Alpha virt. eigenvalues --    0.07554   0.07806   0.07957   0.08306   0.08542
 Alpha virt. eigenvalues --    0.08664   0.08743   0.09003   0.09171   0.09287
 Alpha virt. eigenvalues --    0.09779   0.10040   0.10149   0.10433   0.10545
 Alpha virt. eigenvalues --    0.10660   0.10739   0.10934   0.11219   0.11464
 Alpha virt. eigenvalues --    0.11512   0.11654   0.11921   0.12074   0.12164
 Alpha virt. eigenvalues --    0.12467   0.12509   0.12612   0.12699   0.12809
 Alpha virt. eigenvalues --    0.13121   0.13285   0.13459   0.13704   0.13864
 Alpha virt. eigenvalues --    0.13934   0.14052   0.14308   0.14501   0.14640
 Alpha virt. eigenvalues --    0.14732   0.14842   0.14991   0.15291   0.15472
 Alpha virt. eigenvalues --    0.15819   0.15854   0.16078   0.16284   0.16387
 Alpha virt. eigenvalues --    0.16792   0.16935   0.17092   0.17303   0.17431
 Alpha virt. eigenvalues --    0.17677   0.17770   0.18113   0.18213   0.18434
 Alpha virt. eigenvalues --    0.18490   0.18687   0.18790   0.18882   0.18975
 Alpha virt. eigenvalues --    0.19057   0.19126   0.19307   0.19422   0.19493
 Alpha virt. eigenvalues --    0.19714   0.19962   0.20186   0.20451   0.20567
 Alpha virt. eigenvalues --    0.21052   0.21168   0.21491   0.21556   0.21799
 Alpha virt. eigenvalues --    0.21922   0.22031   0.22346   0.22572   0.23016
 Alpha virt. eigenvalues --    0.23050   0.23415   0.23569   0.23696   0.24028
 Alpha virt. eigenvalues --    0.24234   0.24395   0.24500   0.24602   0.24864
 Alpha virt. eigenvalues --    0.25093   0.25266   0.25703   0.25850   0.25931
 Alpha virt. eigenvalues --    0.26122   0.26335   0.26642   0.26701   0.26997
 Alpha virt. eigenvalues --    0.27314   0.27705   0.27863   0.28096   0.28108
 Alpha virt. eigenvalues --    0.28464   0.28538   0.29038   0.29190   0.29432
 Alpha virt. eigenvalues --    0.29668   0.29909   0.30106   0.30327   0.30809
 Alpha virt. eigenvalues --    0.30886   0.31133   0.31321   0.31627   0.31770
 Alpha virt. eigenvalues --    0.32064   0.32156   0.32693   0.32802   0.33049
 Alpha virt. eigenvalues --    0.33381   0.33790   0.34016   0.34020   0.34500
 Alpha virt. eigenvalues --    0.34702   0.34826   0.35212   0.35392   0.36147
 Alpha virt. eigenvalues --    0.36360   0.36694   0.37114   0.37716   0.37927
 Alpha virt. eigenvalues --    0.38334   0.38603   0.38701   0.38787   0.38948
 Alpha virt. eigenvalues --    0.39633   0.39743   0.40304   0.40408   0.40755
 Alpha virt. eigenvalues --    0.40982   0.41313   0.41651   0.41770   0.41897
 Alpha virt. eigenvalues --    0.42064   0.42685   0.42881   0.43046   0.43213
 Alpha virt. eigenvalues --    0.43276   0.43557   0.43679   0.43763   0.44247
 Alpha virt. eigenvalues --    0.44293   0.44394   0.44468   0.44556   0.44844
 Alpha virt. eigenvalues --    0.45204   0.45255   0.45509   0.45583   0.45901
 Alpha virt. eigenvalues --    0.45970   0.46016   0.46259   0.46541   0.46642
 Alpha virt. eigenvalues --    0.46759   0.47113   0.47308   0.47448   0.47563
 Alpha virt. eigenvalues --    0.48091   0.48106   0.48331   0.48682   0.48727
 Alpha virt. eigenvalues --    0.48861   0.48865   0.48911   0.49002   0.49651
 Alpha virt. eigenvalues --    0.49773   0.49839   0.50072   0.50296   0.50678
 Alpha virt. eigenvalues --    0.50790   0.50858   0.51235   0.51541   0.51640
 Alpha virt. eigenvalues --    0.51876   0.52234   0.52244   0.52573   0.52626
 Alpha virt. eigenvalues --    0.52892   0.52985   0.53091   0.53225   0.53288
 Alpha virt. eigenvalues --    0.53478   0.53816   0.54285   0.54316   0.54382
 Alpha virt. eigenvalues --    0.54490   0.54566   0.54702   0.54829   0.55249
 Alpha virt. eigenvalues --    0.55654   0.55805   0.55902   0.56307   0.56361
 Alpha virt. eigenvalues --    0.56380   0.56790   0.57319   0.57495   0.57616
 Alpha virt. eigenvalues --    0.57778   0.57871   0.58113   0.58346   0.58463
 Alpha virt. eigenvalues --    0.58641   0.58912   0.59207   0.59267   0.59463
 Alpha virt. eigenvalues --    0.59690   0.59835   0.59929   0.60097   0.60172
 Alpha virt. eigenvalues --    0.60338   0.60405   0.60601   0.60734   0.60845
 Alpha virt. eigenvalues --    0.60956   0.61164   0.61268   0.61420   0.61531
 Alpha virt. eigenvalues --    0.61755   0.61871   0.61998   0.62074   0.62256
 Alpha virt. eigenvalues --    0.62428   0.62560   0.62648   0.62782   0.62957
 Alpha virt. eigenvalues --    0.63024   0.63142   0.63291   0.63434   0.63520
 Alpha virt. eigenvalues --    0.63722   0.63827   0.63902   0.64093   0.64201
 Alpha virt. eigenvalues --    0.64304   0.64552   0.64630   0.64729   0.64831
 Alpha virt. eigenvalues --    0.64910   0.65066   0.65136   0.65270   0.65378
 Alpha virt. eigenvalues --    0.65466   0.65564   0.65740   0.65831   0.65967
 Alpha virt. eigenvalues --    0.66048   0.66119   0.66176   0.66280   0.66493
 Alpha virt. eigenvalues --    0.66549   0.66627   0.66709   0.66790   0.66903
 Alpha virt. eigenvalues --    0.67048   0.67140   0.67397   0.67510   0.67634
 Alpha virt. eigenvalues --    0.67692   0.67730   0.67875   0.68033   0.68205
 Alpha virt. eigenvalues --    0.68276   0.68412   0.68541   0.68597   0.68709
 Alpha virt. eigenvalues --    0.68724   0.68871   0.68970   0.69033   0.69187
 Alpha virt. eigenvalues --    0.69311   0.69362   0.69494   0.69641   0.69663
 Alpha virt. eigenvalues --    0.69776   0.69796   0.69990   0.70206   0.70223
 Alpha virt. eigenvalues --    0.70362   0.70457   0.70536   0.70604   0.70707
 Alpha virt. eigenvalues --    0.70882   0.71064   0.71283   0.71336   0.71413
 Alpha virt. eigenvalues --    0.71483   0.71634   0.71851   0.71963   0.72048
 Alpha virt. eigenvalues --    0.72210   0.72306   0.72569   0.72692   0.72899
 Alpha virt. eigenvalues --    0.73050   0.73383   0.73577   0.73645   0.73656
 Alpha virt. eigenvalues --    0.73936   0.74046   0.74522   0.74624   0.74675
 Alpha virt. eigenvalues --    0.74735   0.75257   0.75310   0.75479   0.75632
 Alpha virt. eigenvalues --    0.75735   0.75963   0.76168   0.76532   0.76651
 Alpha virt. eigenvalues --    0.76728   0.76831   0.77255   0.77444   0.77732
 Alpha virt. eigenvalues --    0.77865   0.78027   0.78562   0.78632   0.78819
 Alpha virt. eigenvalues --    0.78907   0.79244   0.79616   0.79746   0.79840
 Alpha virt. eigenvalues --    0.79905   0.80365   0.80500   0.80732   0.81331
 Alpha virt. eigenvalues --    0.81700   0.82048   0.82393   0.82628   0.82884
 Alpha virt. eigenvalues --    0.83005   0.83191   0.83652   0.83729   0.84096
 Alpha virt. eigenvalues --    0.84254   0.84533   0.84810   0.85015   0.85112
 Alpha virt. eigenvalues --    0.85248   0.85472   0.85842   0.86679   0.86930
 Alpha virt. eigenvalues --    0.87274   0.87788   0.87856   0.88058   0.88297
 Alpha virt. eigenvalues --    0.88480   0.88610   0.89406   0.89811   0.89911
 Alpha virt. eigenvalues --    0.90090   0.90190   0.90534   0.91037   0.91287
 Alpha virt. eigenvalues --    0.91460   0.91980   0.92222   0.92363   0.92599
 Alpha virt. eigenvalues --    0.92984   0.93287   0.93774   0.93855   0.94247
 Alpha virt. eigenvalues --    0.94473   0.94753   0.95006   0.95347   0.95546
 Alpha virt. eigenvalues --    0.95714   0.96038   0.96288   0.96645   0.96829
 Alpha virt. eigenvalues --    0.97107   0.97329   0.97578   0.97826   0.98172
 Alpha virt. eigenvalues --    0.98416   0.98623   0.98838   0.98924   0.99417
 Alpha virt. eigenvalues --    0.99831   1.00351   1.00549   1.00683   1.00917
 Alpha virt. eigenvalues --    1.01191   1.01736   1.02018   1.02198   1.02719
 Alpha virt. eigenvalues --    1.02869   1.03259   1.03637   1.03981   1.04250
 Alpha virt. eigenvalues --    1.04692   1.05385   1.05563   1.05725   1.06251
 Alpha virt. eigenvalues --    1.06370   1.06553   1.06848   1.07167   1.07458
 Alpha virt. eigenvalues --    1.07655   1.08190   1.08313   1.08639   1.09041
 Alpha virt. eigenvalues --    1.09047   1.09305   1.09534   1.09953   1.10002
 Alpha virt. eigenvalues --    1.10363   1.10708   1.10888   1.10937   1.11184
 Alpha virt. eigenvalues --    1.11777   1.11978   1.12104   1.12717   1.13112
 Alpha virt. eigenvalues --    1.13266   1.13437   1.13736   1.13985   1.14287
 Alpha virt. eigenvalues --    1.14529   1.14741   1.14870   1.14997   1.15222
 Alpha virt. eigenvalues --    1.15477   1.15623   1.15741   1.16046   1.16392
 Alpha virt. eigenvalues --    1.16661   1.16730   1.16821   1.17514   1.17710
 Alpha virt. eigenvalues --    1.18010   1.18223   1.18446   1.18539   1.18814
 Alpha virt. eigenvalues --    1.19104   1.19512   1.19723   1.19998   1.20466
 Alpha virt. eigenvalues --    1.20595   1.21110   1.21342   1.21416   1.21581
 Alpha virt. eigenvalues --    1.22178   1.22268   1.22656   1.22835   1.23123
 Alpha virt. eigenvalues --    1.23193   1.23572   1.23802   1.24049   1.24232
 Alpha virt. eigenvalues --    1.24559   1.24697   1.24845   1.25473   1.25588
 Alpha virt. eigenvalues --    1.25870   1.26089   1.26265   1.26408   1.26773
 Alpha virt. eigenvalues --    1.26904   1.27523   1.27562   1.27829   1.28074
 Alpha virt. eigenvalues --    1.28447   1.28530   1.28840   1.28939   1.29193
 Alpha virt. eigenvalues --    1.29668   1.29876   1.29935   1.30219   1.30279
 Alpha virt. eigenvalues --    1.30624   1.31060   1.31339   1.31683   1.31829
 Alpha virt. eigenvalues --    1.32401   1.32599   1.33017   1.33985   1.34155
 Alpha virt. eigenvalues --    1.34196   1.34557   1.34999   1.35308   1.35396
 Alpha virt. eigenvalues --    1.35807   1.36195   1.36632   1.36949   1.37353
 Alpha virt. eigenvalues --    1.37472   1.38034   1.38541   1.38837   1.39014
 Alpha virt. eigenvalues --    1.39216   1.39450   1.39579   1.39912   1.40294
 Alpha virt. eigenvalues --    1.40775   1.40885   1.41035   1.41204   1.41404
 Alpha virt. eigenvalues --    1.41838   1.41984   1.42268   1.42484   1.42792
 Alpha virt. eigenvalues --    1.42986   1.43319   1.43532   1.44149   1.44722
 Alpha virt. eigenvalues --    1.44912   1.44974   1.45634   1.46003   1.46798
 Alpha virt. eigenvalues --    1.47034   1.47272   1.47485   1.47538   1.48259
 Alpha virt. eigenvalues --    1.48539   1.48786   1.49036   1.49231   1.49307
 Alpha virt. eigenvalues --    1.49533   1.49632   1.49937   1.50263   1.50404
 Alpha virt. eigenvalues --    1.50587   1.50870   1.50899   1.51731   1.52002
 Alpha virt. eigenvalues --    1.52315   1.52642   1.52806   1.52840   1.53293
 Alpha virt. eigenvalues --    1.53619   1.53709   1.53758   1.53849   1.53934
 Alpha virt. eigenvalues --    1.54511   1.54931   1.55284   1.55385   1.55939
 Alpha virt. eigenvalues --    1.56035   1.56589   1.57165   1.57294   1.57422
 Alpha virt. eigenvalues --    1.58106   1.58379   1.58643   1.58746   1.59833
 Alpha virt. eigenvalues --    1.60046   1.60472   1.60610   1.60880   1.61006
 Alpha virt. eigenvalues --    1.61770   1.62099   1.62293   1.62627   1.62792
 Alpha virt. eigenvalues --    1.63411   1.63770   1.64362   1.64425   1.65175
 Alpha virt. eigenvalues --    1.65272   1.65431   1.65971   1.66236   1.66457
 Alpha virt. eigenvalues --    1.66756   1.67067   1.67426   1.67672   1.67858
 Alpha virt. eigenvalues --    1.67879   1.68338   1.68535   1.68783   1.69163
 Alpha virt. eigenvalues --    1.69666   1.69705   1.69868   1.70075   1.70142
 Alpha virt. eigenvalues --    1.70253   1.70423   1.70825   1.71022   1.71078
 Alpha virt. eigenvalues --    1.71478   1.71529   1.71731   1.72029   1.72248
 Alpha virt. eigenvalues --    1.72427   1.72695   1.73090   1.73258   1.73859
 Alpha virt. eigenvalues --    1.74032   1.74155   1.74343   1.74696   1.74753
 Alpha virt. eigenvalues --    1.75010   1.75382   1.75525   1.76120   1.76168
 Alpha virt. eigenvalues --    1.76408   1.76566   1.76629   1.76736   1.76786
 Alpha virt. eigenvalues --    1.76855   1.77070   1.77304   1.77381   1.77666
 Alpha virt. eigenvalues --    1.77907   1.78037   1.78281   1.78330   1.78578
 Alpha virt. eigenvalues --    1.78898   1.78956   1.79028   1.79326   1.79445
 Alpha virt. eigenvalues --    1.79548   1.79765   1.79934   1.79971   1.80031
 Alpha virt. eigenvalues --    1.80364   1.80536   1.80886   1.81007   1.81371
 Alpha virt. eigenvalues --    1.81483   1.81603   1.81818   1.81885   1.81957
 Alpha virt. eigenvalues --    1.82181   1.82226   1.82255   1.82375   1.82475
 Alpha virt. eigenvalues --    1.82801   1.82866   1.83123   1.83365   1.83434
 Alpha virt. eigenvalues --    1.83617   1.83764   1.83856   1.84183   1.84314
 Alpha virt. eigenvalues --    1.84443   1.85198   1.85247   1.85437   1.85541
 Alpha virt. eigenvalues --    1.85810   1.85853   1.86054   1.86086   1.86284
 Alpha virt. eigenvalues --    1.86381   1.86493   1.86731   1.86900   1.87112
 Alpha virt. eigenvalues --    1.87399   1.87750   1.87912   1.88160   1.88275
 Alpha virt. eigenvalues --    1.88587   1.88921   1.88959   1.89139   1.89486
 Alpha virt. eigenvalues --    1.89797   1.89966   1.90227   1.90368   1.90569
 Alpha virt. eigenvalues --    1.90665   1.90854   1.91085   1.91186   1.91557
 Alpha virt. eigenvalues --    1.91692   1.91928   1.92136   1.92161   1.92506
 Alpha virt. eigenvalues --    1.92622   1.92720   1.92927   1.93270   1.93377
 Alpha virt. eigenvalues --    1.93678   1.93762   1.93920   1.93942   1.94301
 Alpha virt. eigenvalues --    1.94634   1.95423   1.95471   1.95640   1.95995
 Alpha virt. eigenvalues --    1.96276   1.96394   1.96515   1.96602   1.96865
 Alpha virt. eigenvalues --    1.97287   1.97432   1.97694   1.97935   1.98184
 Alpha virt. eigenvalues --    1.98323   1.98411   1.98664   1.98842   1.99420
 Alpha virt. eigenvalues --    1.99652   1.99775   2.00206   2.00353   2.00545
 Alpha virt. eigenvalues --    2.00685   2.00951   2.01037   2.01474   2.01619
 Alpha virt. eigenvalues --    2.01844   2.02002   2.02463   2.02580   2.02841
 Alpha virt. eigenvalues --    2.02885   2.03238   2.03566   2.03815   2.04185
 Alpha virt. eigenvalues --    2.04340   2.04580   2.04950   2.05110   2.05294
 Alpha virt. eigenvalues --    2.05585   2.05701   2.05844   2.06219   2.06369
 Alpha virt. eigenvalues --    2.06645   2.06763   2.07046   2.07099   2.07614
 Alpha virt. eigenvalues --    2.08223   2.08539   2.08644   2.08817   2.09186
 Alpha virt. eigenvalues --    2.09317   2.09946   2.10395   2.10498   2.10737
 Alpha virt. eigenvalues --    2.11001   2.11141   2.11329   2.11671   2.12024
 Alpha virt. eigenvalues --    2.12363   2.12495   2.12828   2.13105   2.13562
 Alpha virt. eigenvalues --    2.13715   2.14034   2.14276   2.14490   2.14812
 Alpha virt. eigenvalues --    2.15367   2.15625   2.15736   2.16087   2.16771
 Alpha virt. eigenvalues --    2.16878   2.16971   2.17125   2.17324   2.17718
 Alpha virt. eigenvalues --    2.18020   2.18035   2.18704   2.18937   2.19291
 Alpha virt. eigenvalues --    2.19516   2.19633   2.19984   2.20182   2.20450
 Alpha virt. eigenvalues --    2.20949   2.21122   2.21485   2.22035   2.22524
 Alpha virt. eigenvalues --    2.22677   2.23297   2.23573   2.23616   2.23874
 Alpha virt. eigenvalues --    2.24628   2.24719   2.25081   2.25297   2.25348
 Alpha virt. eigenvalues --    2.25580   2.26555   2.26629   2.26753   2.27203
 Alpha virt. eigenvalues --    2.27686   2.27850   2.28073   2.28357   2.28623
 Alpha virt. eigenvalues --    2.28907   2.29259   2.29690   2.29758   2.30189
 Alpha virt. eigenvalues --    2.30565   2.30678   2.30771   2.31092   2.31450
 Alpha virt. eigenvalues --    2.31634   2.31810   2.31896   2.32719   2.32897
 Alpha virt. eigenvalues --    2.33286   2.33458   2.33634   2.33872   2.34281
 Alpha virt. eigenvalues --    2.34373   2.34391   2.34781   2.35725   2.35922
 Alpha virt. eigenvalues --    2.36104   2.36329   2.36473   2.36949   2.37462
 Alpha virt. eigenvalues --    2.37684   2.37870   2.37921   2.38526   2.38861
 Alpha virt. eigenvalues --    2.39131   2.39357   2.40086   2.40481   2.40646
 Alpha virt. eigenvalues --    2.40849   2.41084   2.41529   2.42103   2.42308
 Alpha virt. eigenvalues --    2.42780   2.43183   2.43868   2.44040   2.44389
 Alpha virt. eigenvalues --    2.44977   2.45116   2.45357   2.45523   2.45781
 Alpha virt. eigenvalues --    2.45895   2.46115   2.46279   2.47338   2.48057
 Alpha virt. eigenvalues --    2.48244   2.48622   2.48708   2.48781   2.49015
 Alpha virt. eigenvalues --    2.49885   2.50415   2.50819   2.50965   2.51895
 Alpha virt. eigenvalues --    2.51977   2.52312   2.52328   2.53110   2.53184
 Alpha virt. eigenvalues --    2.53470   2.54177   2.54573   2.54824   2.54890
 Alpha virt. eigenvalues --    2.55296   2.55372   2.55819   2.56837   2.57274
 Alpha virt. eigenvalues --    2.57433   2.57759   2.58237   2.58271   2.58616
 Alpha virt. eigenvalues --    2.58935   2.59702   2.59890   2.59980   2.60500
 Alpha virt. eigenvalues --    2.61003   2.61064   2.61243   2.61328   2.61690
 Alpha virt. eigenvalues --    2.62393   2.62805   2.62828   2.63173   2.63198
 Alpha virt. eigenvalues --    2.63438   2.63644   2.63827   2.64097   2.64182
 Alpha virt. eigenvalues --    2.64534   2.64675   2.65231   2.65580   2.65713
 Alpha virt. eigenvalues --    2.65957   2.66189   2.66422   2.67191   2.67318
 Alpha virt. eigenvalues --    2.68104   2.68308   2.68585   2.68653   2.68814
 Alpha virt. eigenvalues --    2.68997   2.69744   2.70522   2.70801   2.70906
 Alpha virt. eigenvalues --    2.71824   2.72102   2.72457   2.73014   2.73024
 Alpha virt. eigenvalues --    2.73449   2.73673   2.73771   2.73880   2.74162
 Alpha virt. eigenvalues --    2.74345   2.74682   2.74975   2.75179   2.75292
 Alpha virt. eigenvalues --    2.75736   2.76173   2.76294   2.76507   2.76867
 Alpha virt. eigenvalues --    2.77025   2.77289   2.77316   2.77604   2.77855
 Alpha virt. eigenvalues --    2.77920   2.78079   2.78273   2.78423   2.78983
 Alpha virt. eigenvalues --    2.79197   2.79321   2.79524   2.79765   2.80065
 Alpha virt. eigenvalues --    2.80085   2.80395   2.80545   2.80786   2.81467
 Alpha virt. eigenvalues --    2.81538   2.81566   2.81679   2.82223   2.82450
 Alpha virt. eigenvalues --    2.82798   2.82848   2.83110   2.83231   2.84097
 Alpha virt. eigenvalues --    2.84165   2.84332   2.84839   2.85501   2.85573
 Alpha virt. eigenvalues --    2.86198   2.86503   2.87088   2.87520   2.87994
 Alpha virt. eigenvalues --    2.88038   2.88121   2.88359   2.89239   2.89620
 Alpha virt. eigenvalues --    2.90190   2.90449   2.90766   2.90956   2.91035
 Alpha virt. eigenvalues --    2.91209   2.91313   2.91691   2.91942   2.92088
 Alpha virt. eigenvalues --    2.92395   2.92583   2.93295   2.93878   2.93960
 Alpha virt. eigenvalues --    2.94033   2.94113   2.94695   2.94748   2.95111
 Alpha virt. eigenvalues --    2.95442   2.95786   2.96037   2.96443   2.96937
 Alpha virt. eigenvalues --    2.97341   2.97359   2.97635   2.97647   2.98013
 Alpha virt. eigenvalues --    2.98108   2.98155   2.98330   2.98554   2.98642
 Alpha virt. eigenvalues --    2.99149   2.99653   3.00438   3.00719   3.00938
 Alpha virt. eigenvalues --    3.01131   3.01416   3.01690   3.02253   3.02405
 Alpha virt. eigenvalues --    3.02513   3.02903   3.02982   3.03553   3.03773
 Alpha virt. eigenvalues --    3.04214   3.04609   3.04858   3.05156   3.05208
 Alpha virt. eigenvalues --    3.06364   3.06625   3.07560   3.08028   3.08737
 Alpha virt. eigenvalues --    3.09246   3.09483   3.11268   3.11890   3.12765
 Alpha virt. eigenvalues --    3.13123   3.13246   3.13354   3.13720   3.14540
 Alpha virt. eigenvalues --    3.15102   3.15398   3.15823   3.15876   3.15974
 Alpha virt. eigenvalues --    3.16413   3.16512   3.16662   3.16912   3.17053
 Alpha virt. eigenvalues --    3.17683   3.18174   3.18290   3.18493   3.18690
 Alpha virt. eigenvalues --    3.19048   3.19103   3.19404   3.19608   3.20215
 Alpha virt. eigenvalues --    3.20243   3.21210   3.21542   3.21988   3.22298
 Alpha virt. eigenvalues --    3.22340   3.23357   3.23387   3.23777   3.24758
 Alpha virt. eigenvalues --    3.24941   3.25585   3.26202   3.26639   3.27215
 Alpha virt. eigenvalues --    3.27424   3.27559   3.27802   3.29938   3.30033
 Alpha virt. eigenvalues --    3.31132   3.32068   3.33190   3.34881   3.35718
 Alpha virt. eigenvalues --    3.36282   3.36394   3.36501   3.37230   3.37549
 Alpha virt. eigenvalues --    3.38406   3.41365   3.45410   3.50370   3.50401
 Alpha virt. eigenvalues --    3.50599   3.52168   3.53850   3.55115   3.55292
 Alpha virt. eigenvalues --    3.55401   3.57237   3.58363   3.58391   3.59506
 Alpha virt. eigenvalues --    3.60014   3.60216   3.60408   3.60547   3.60956
 Alpha virt. eigenvalues --    3.62892   3.64220   3.65444   3.66646   3.66957
 Alpha virt. eigenvalues --    3.67076   3.67836   3.68364   3.68657   3.69027
 Alpha virt. eigenvalues --    3.69078   3.69883   3.70360   3.70899   3.71444
 Alpha virt. eigenvalues --    3.71711   3.73221   3.73460   3.73639   3.78534
 Alpha virt. eigenvalues --    3.79319   3.80623   3.80737   3.88544
          Condensed to atoms (all electrons):
 Mulliken charges:
               1
     1  C    0.069502
     2  C    0.016385
     3  O   -0.355725
     4  H    0.002571
     5  H    0.045015
     6  H    0.026208
     7  N   -0.095625
     8  C    0.147461
     9  C    0.061432
    10  O   -0.265911
    11  C    0.028898
    12  C    0.088790
    13  O   -0.375671
    14  O   -0.385131
    15  H    0.110564
    16  H   -0.037442
    17  H    0.001203
    18  H   -0.034333
    19  N   -0.127089
    20  C    0.069296
    21  C    0.112436
    22  O   -0.277704
    23  C    0.069767
    24  C   -0.030258
    25  C   -0.015559
    26  C    0.012817
    27  N    0.065675
    28  H    0.106113
    29  H    0.034947
    30  H    0.040526
    31  H   -0.006496
    32  H   -0.026771
    33  H    0.027557
    34  H    0.083768
    35  H    0.035463
    36  H    0.066035
    37  H    0.071739
    38  H    0.200713
    39  H    0.193646
    40  H    0.193305
    41  N   -0.125675
    42  C    0.148000
    43  C   -0.013770
    44  O   -0.263108
    45  C    0.114537
    46  C    0.120424
    47  O   -0.488386
    48  O   -0.347717
    49  H    0.105441
    50  H    0.006017
    51  H    0.010846
    52  H    0.028255
    53  N   -0.162319
    54  C    0.179686
    55  C    0.080403
    56  O   -0.349271
    57  H    0.121617
    58  H    0.054997
    59  H    0.006325
    60  N   -0.097928
    61  C    0.074442
    62  C    0.049762
    63  O   -0.289566
    64  C    0.149803
    65  C   -0.028498
    66  N   -0.045834
    67  O   -0.263574
    68  H    0.133104
    69  H    0.014370
    70  H    0.045313
    71  H   -0.002862
    72  H    0.121825
    73  H    0.133383
    74  N   -0.083342
    75  C    0.183241
    76  C    0.044053
    77  O   -0.310815
    78  H    0.132229
    79  H    0.066086
    80  H   -0.006321
    81  N   -0.118372
    82  C    0.155502
    83  C    0.046230
    84  O   -0.292634
    85  C    0.137483
    86  C   -0.020238
    87  C    0.024162
    88  C   -0.042737
    89  C   -0.016105
    90  C   -0.050609
    91  C    0.167973
    92  O   -0.187749
    93  H    0.113460
    94  H    0.005371
    95  H    0.016506
    96  H   -0.022497
    97  H   -0.070987
    98  H   -0.033623
    99  H   -0.032132
   100  H   -0.038755
   101  H    0.174704
   102  N   -0.136120
   103  C    0.186901
   104  C    0.049975
   105  O   -0.264450
   106  C   -0.131015
   107  C   -0.023409
   108  C    0.082289
   109  C    0.038678
   110  H    0.145392
   111  H    0.000254
   112  H    0.002159
   113  H    0.010726
   114  H    0.021366
   115  H   -0.000040
   116  H   -0.010771
   117  H    0.016195
   118  H   -0.001691
   119  H    0.010831
   120  H    0.026386
   121  N   -0.194903
   122  C    0.126164
   123  C    0.074957
   124  O   -0.289599
   125  C    0.199212
   126  O   -0.308226
   127  H    0.162529
   128  H    0.028799
   129  H    0.011065
   130  H    0.011626
   131  H    0.166846
   132  N   -0.143111
   133  C    0.096381
   134  C    0.040477
   135  O   -0.263583
   136  C    0.074802
   137  H    0.147629
   138  H   -0.011149
   139  H    0.028413
   140  H    0.026950
   141  H    0.008155
   142  N   -0.124800
   143  C    0.031788
   144  C    0.093990
   145  O   -0.242304
   146  C    0.093845
   147  H    0.121570
   148  H    0.023738
   149  H   -0.011175
   150  H    0.049690
   151  H    0.026562
   152  N   -0.146175
   153  C    0.136628
   154  C    0.046059
   155  O   -0.280830
   156  C    0.002019
   157  C    0.080832
   158  C    0.097420
   159  O   -0.373113
   160  O   -0.378728
   161  H    0.105006
   162  H    0.008911
   163  H    0.001041
   164  H   -0.031670
   165  H   -0.069435
   166  H   -0.014847
   167  N   -0.137473
   168  C    0.130369
   169  H    0.032666
   170  H    0.027751
   171  H    0.010949
   172  H    0.082150
   173  Ca   1.469851
   174  O   -0.371794
   175  H    0.197864
   176  H    0.186311
 Sum of Mulliken charges =  -0.00000
 Mulliken charges with hydrogens summed into heavy atoms:
               1
     1  C    0.143297
     2  C    0.016385
     3  O   -0.355725
     7  N    0.014939
     8  C    0.110019
     9  C    0.061432
    10  O   -0.265911
    11  C   -0.004232
    12  C    0.088790
    13  O   -0.375671
    14  O   -0.385131
    19  N   -0.020976
    20  C    0.104242
    21  C    0.112436
    22  O   -0.277704
    23  C    0.103798
    24  C   -0.029472
    25  C    0.103672
    26  C    0.150591
    27  N    0.653340
    41  N   -0.020234
    42  C    0.154018
    43  C   -0.013770
    44  O   -0.263108
    45  C    0.153638
    46  C    0.120424
    47  O   -0.488386
    48  O   -0.347717
    53  N   -0.040701
    54  C    0.241009
    55  C    0.080403
    56  O   -0.349271
    60  N    0.035176
    61  C    0.088812
    62  C    0.049762
    63  O   -0.289566
    64  C    0.192254
    65  C   -0.028498
    66  N    0.209375
    67  O   -0.263574
    74  N    0.048886
    75  C    0.243006
    76  C    0.044053
    77  O   -0.310815
    81  N   -0.004913
    82  C    0.160874
    83  C    0.046230
    84  O   -0.292634
    85  C    0.131492
    86  C   -0.020238
    87  C   -0.046826
    88  C   -0.076361
    89  C   -0.048237
    90  C   -0.089364
    91  C    0.167973
    92  O   -0.013045
   102  N    0.009272
   103  C    0.187155
   104  C    0.049975
   105  O   -0.264450
   106  C   -0.128856
   107  C    0.008683
   108  C    0.087673
   109  C    0.074205
   121  N   -0.032374
   122  C    0.154963
   123  C    0.074957
   124  O   -0.289599
   125  C    0.221903
   126  O   -0.141380
   132  N    0.004518
   133  C    0.085232
   134  C    0.040477
   135  O   -0.263583
   136  C    0.138320
   142  N   -0.003230
   143  C    0.055526
   144  C    0.093990
   145  O   -0.242304
   146  C    0.158921
   152  N   -0.041169
   153  C    0.145539
   154  C    0.046059
   155  O   -0.280830
   156  C   -0.028609
   157  C   -0.003450
   158  C    0.097420
   159  O   -0.373113
   160  O   -0.378728
   167  N   -0.055323
   168  C    0.201735
   173  Ca   1.469851
   174  O    0.012381
 DipInt: DoE/N= T F RetVal/Mat= T F Init=T NMatP=  1 IDeriv=0 Min/MaxMlt=  0  4
 Entering OneElI...
 OneElI was handed  1333951383 working-precision words.
 Multipole integrals L=0 to 4 MinM= 0 MaxM= 0.
 Requested accuracy = 0.1000D-12
 ShPair: Thresh= 1.00D-13 NBox=     0 BxSize= 0.00D+00 RnKept= 2.55D+01
         NSMCal=               327645 NSMKep=              134221
 PrmmSu-InSpLW:  IPartL=    0 NPrtUS=    1 NPrtUL=    1 DoSpLW=F IThBeg=    0 IThEnd=    0 NThAct=    1.
 PrsmSu:  NPrtUS=   1 ThrOK=F IAlg=1 NPAlg=1 LenDen=           0 ISkipM=0 DoSpLW=F IThBeg=    0 IThEnd=    0.
 Prism:   IPart=     0 DynPar=F LinDyn=F Incr=         512.
 PRISM was handed  1324876911 working-precision words and134221 shell-pairs
 IPart=  0 NShTot=      134221 NBatch=         312 AvBLen=       430.2
 PrsmSu-ThDecC:  IPartSL=    0    0 NPrtUSL=    1    1 IThBeg=    0 IThEnd=    0 CPU=   -1 GPU=   -1 NThAct=    1.
 PrSmSu:  NxtVal=            513.
 Electronic moments (au):
       -716.00000000          2.71471210         -1.50754786         -4.40147911
     -77467.90013286     -31140.78067614     -17061.50712037       -120.33239347
       -231.50088041         71.73741816    -297108.05925066     -93959.09668201
     -20682.42353527       5903.43624891     215356.00667201      12566.28026970
       2821.55865392      14696.18361895      12528.24785868     -31300.90450395
  -17414885.52920065   -3672045.55867355   -1034621.10571124    1392310.02376790
    -637314.90153663    -299353.76438129     151996.24819276      -9960.43364245
     -66175.51219858   -2511510.86074347   -1827128.35454054    -597878.51607822
    -521508.99511469     652171.23084798      99293.29280015
 Electronic spatial extent (au):  <R**2>=         125670.1879
 DipInt: DoE/N= F T RetVal/Mat= T F Init=T NMatP=  1 IDeriv=0 Min/MaxMlt=  0  4
 Nuclear    moments (au):
        716.00000000         -0.00000000         -0.00000000         -0.00000000
      77055.03198099      30865.07213263      16660.42702983         -0.00000000
         -0.00000000          0.00000000     297109.67878627      93595.84879687
      20554.74486337      -4033.70817114    -218241.47683575     -15608.67352479
      -2237.82274536     -15253.46720950     -13323.77262749      32683.14710878
   17102832.39392509    3596547.87454570     976568.07765679   -1445727.91326501
     553499.78242228     280538.80968729    -143274.42289656      -1187.24084224
      71682.21317413    2494550.70981750    1780670.44098674     576493.01206000
     547423.35917193    -671093.92117709    -108325.82363264
 Total      moments (au):
         -0.00000000          2.71471210         -1.50754786         -4.40147911
       -412.86815187       -275.70854351       -401.08009054       -120.33239347
       -231.50088041         71.73741816          1.61953561       -363.24788514
       -127.67867190       1869.72807776      -2885.47016374      -3042.39325509
        583.73590856       -557.28359056       -795.52476881       1382.24260483
    -312053.13527556     -75497.68412785     -58053.02805445     -53417.88949711
     -83815.11911435     -18814.95469401       8721.82529619     -11147.67448469
       5506.70097555     -16960.15092597     -46457.91355380     -21385.50401822
      25914.36405724     -18922.69032910      -9032.53083249
 Traceless Quadrup. (au):
        -49.64922323         87.51038513        -37.86116190       -120.33239347
       -231.50088041         71.73741816
 Charge=             -0.0000 electrons
 Dipole moment (field-independent basis, Debye):
    X=              6.9001    Y=             -3.8318    Z=            -11.1874  Tot=             13.6914
 Quadrupole moment (field-independent basis, Debye-Ang):
   XX=           -555.3218   YY=           -370.8374   ZZ=           -539.4665
   XY=           -161.8512   XZ=           -311.3766   YZ=             96.4893
 Traceless Quadrupole moment (field-independent basis, Debye-Ang):
   XX=            -66.7799   YY=            117.7045   ZZ=            -50.9246
   XY=           -161.8512   XZ=           -311.3766   YZ=             96.4893
 Octapole moment (field-independent basis, Debye-Ang**2):
  XXX=              1.1527  YYY=           -258.5459  ZZZ=            -90.8768  XYY=           1330.8004
  XXY=          -2053.7665  XXZ=          -2165.4583  XZZ=            415.4807  YZZ=           -396.6530
  YYZ=           -566.2239  XYZ=            983.8270
 Hexadecapole moment (field-independent basis, Debye-Ang**3):
 XXXX=        -117534.1742 YYYY=         -28436.0481 ZZZZ=         -21865.5541 XXXY=         -20119.7387
 XXXZ=         -31568.7929 YYYX=          -7086.6141 YYYZ=           3285.0576 ZZZX=          -4198.7488
 ZZZY=           2074.0876 XXYY=          -6388.0061 XXZZ=         -17498.2780 YYZZ=          -8054.8063
 XXYZ=           9760.5921 YYXZ=          -7127.1926 ZZXY=          -3402.0842
 N-N= 1.982703206418D+04 E-N=-5.213300431096D+04  KE= 5.290335138543D+03
 Leave Link  601 at Wed Sep 18 16:42:17 2019, MaxMem=  1342177280 cpu:              41.6 elap:               1.1
 FitSet:  NAtFit=   176 NAtPot=   176 NAtFrz=     0 MDM=   180 TotChg=   0.00000
 Merz-Kollman atomic radii used.
 Read replacement radii for each type of atom:
 Rad(20) =   1.700000000000D+00
 Atom Element Radius
    1     6    1.50
    2     6    1.50
    3     8    1.40
    4     1    1.20
    5     1    1.20
    6     1    1.20
    7     7    1.50
    8     6    1.50
    9     6    1.50
   10     8    1.40
   11     6    1.50
   12     6    1.50
   13     8    1.40
   14     8    1.40
   15     1    1.20
   16     1    1.20
   17     1    1.20
   18     1    1.20
   19     7    1.50
   20     6    1.50
   21     6    1.50
   22     8    1.40
   23     6    1.50
   24     6    1.50
   25     6    1.50
   26     6    1.50
   27     7    1.50
   28     1    1.20
   29     1    1.20
   30     1    1.20
   31     1    1.20
   32     1    1.20
   33     1    1.20
   34     1    1.20
   35     1    1.20
   36     1    1.20
   37     1    1.20
   38     1    1.20
   39     1    1.20
   40     1    1.20
   41     7    1.50
   42     6    1.50
   43     6    1.50
   44     8    1.40
   45     6    1.50
   46     6    1.50
   47     8    1.40
   48     8    1.40
   49     1    1.20
   50     1    1.20
   51     1    1.20
   52     1    1.20
   53     7    1.50
   54     6    1.50
   55     6    1.50
   56     8    1.40
   57     1    1.20
   58     1    1.20
   59     1    1.20
   60     7    1.50
   61     6    1.50
   62     6    1.50
   63     8    1.40
   64     6    1.50
   65     6    1.50
   66     7    1.50
   67     8    1.40
   68     1    1.20
   69     1    1.20
   70     1    1.20
   71     1    1.20
   72     1    1.20
   73     1    1.20
   74     7    1.50
   75     6    1.50
   76     6    1.50
   77     8    1.40
   78     1    1.20
   79     1    1.20
   80     1    1.20
   81     7    1.50
   82     6    1.50
   83     6    1.50
   84     8    1.40
   85     6    1.50
   86     6    1.50
   87     6    1.50
   88     6    1.50
   89     6    1.50
   90     6    1.50
   91     6    1.50
   92     8    1.40
   93     1    1.20
   94     1    1.20
   95     1    1.20
   96     1    1.20
   97     1    1.20
   98     1    1.20
   99     1    1.20
  100     1    1.20
  101     1    1.20
  102     7    1.50
  103     6    1.50
  104     6    1.50
  105     8    1.40
  106     6    1.50
  107     6    1.50
  108     6    1.50
  109     6    1.50
  110     1    1.20
  111     1    1.20
  112     1    1.20
  113     1    1.20
  114     1    1.20
  115     1    1.20
  116     1    1.20
  117     1    1.20
  118     1    1.20
  119     1    1.20
  120     1    1.20
  121     7    1.50
  122     6    1.50
  123     6    1.50
  124     8    1.40
  125     6    1.50
  126     8    1.40
  127     1    1.20
  128     1    1.20
  129     1    1.20
  130     1    1.20
  131     1    1.20
  132     7    1.50
  133     6    1.50
  134     6    1.50
  135     8    1.40
  136     6    1.50
  137     1    1.20
  138     1    1.20
  139     1    1.20
  140     1    1.20
  141     1    1.20
  142     7    1.50
  143     6    1.50
  144     6    1.50
  145     8    1.40
  146     6    1.50
  147     1    1.20
  148     1    1.20
  149     1    1.20
  150     1    1.20
  151     1    1.20
  152     7    1.50
  153     6    1.50
  154     6    1.50
  155     8    1.40
  156     6    1.50
  157     6    1.50
  158     6    1.50
  159     8    1.40
  160     8    1.40
  161     1    1.20
  162     1    1.20
  163     1    1.20
  164     1    1.20
  165     1    1.20
  166     1    1.20
  167     7    1.50
[...]
 **** Fit       0.008427
 **** Fit       0.010799
 **** Fit       0.018090
 **** Fit       0.016766
 **** Fit       0.014959
 **** Fit       0.012562
 **** Fit       0.009517
 **** Fit       0.009727
 **** Fit       0.011338
 **** Fit       0.021115
 **** Fit       0.019761
 **** Fit       0.010127
 **** Fit       0.012009
 **** Fit       0.013932
 **** Fit       0.009801
 **** Fit       0.012033
 **** Fit       0.014262
 **** Fit       0.007698
 **** Fit       0.010199
 **** Fit       0.012835
 **** Fit       0.015433
 **** Fit       0.017881
 **** Fit       0.008238
 **** Fit       0.010937
 **** Fit       0.013878
 **** Fit       0.016809
 **** Fit       0.019558
 **** Fit       0.022094
 **** Fit       0.003106
 **** Fit       0.001607
 **** Fit       0.002636
 **** Fit       0.004063
 **** Fit       0.004440
 **** Fit       0.003538
 **** Fit       0.002133
 **** Fit      -0.000135
 **** Fit       0.000643
 **** Fit       0.002137
 **** Fit       0.003792
 **** Fit       0.005082
 **** Fit       0.005722
 **** Fit       0.005678
 **** Fit       0.005044
 **** Fit       0.003930
 **** Fit       0.002505
 **** Fit       0.001073
 **** Fit       0.000060
 **** Fit      -0.002217
 **** Fit      -0.001526
 **** Fit      -0.000154
 **** Fit       0.007123
 **** Fit       0.006895
 **** Fit       0.006324
 **** Fit       0.005449
 **** Fit       0.004289
 **** Fit       0.002889
 **** Fit       0.001356
 **** Fit      -0.000139
 **** Fit      -0.001379
 **** Fit      -0.002137
 **** Fit      -0.004772
 **** Fit      -0.004073
 **** Fit      -0.002649
 **** Fit       0.007889
 **** Fit       0.007168
 **** Fit       0.006234
 **** Fit       0.005069
 **** Fit       0.003672
 **** Fit       0.002083
 **** Fit       0.000386
 **** Fit      -0.001295
 **** Fit      -0.002814
 **** Fit      -0.004012
 **** Fit      -0.004719
 **** Fit      -0.008001
 **** Fit      -0.007264
 **** Fit       0.008451
 **** Fit       0.007494
 **** Fit       0.006345
 **** Fit       0.004970
 **** Fit       0.003364
 **** Fit       0.001562
 **** Fit      -0.000364
 **** Fit      -0.002312
 **** Fit      -0.004168
 **** Fit      -0.005813
 **** Fit      -0.007113
 **** Fit      -0.007903
 **** Fit      -0.012222
 **** Fit      -0.011509
 **** Fit       0.008912
 **** Fit       0.007748
 **** Fit       0.006385
 **** Fit       0.004788
 **** Fit       0.002954
 **** Fit       0.000919
 **** Fit      -0.001251
 **** Fit      -0.003466
 **** Fit      -0.005636
 **** Fit      -0.007676
 **** Fit      -0.009500
 **** Fit      -0.010992
 **** Fit      -0.011976
 **** Fit      -0.017964
 **** Fit       0.009094
 **** Fit       0.007574
 **** Fit       0.005797
 **** Fit       0.003740
 **** Fit       0.001421
 **** Fit      -0.001100
 **** Fit      -0.003734
 **** Fit      -0.006382
 **** Fit      -0.008963
 **** Fit      -0.011429
 **** Fit      -0.013731
 **** Fit      -0.015764
 **** Fit      -0.017298
 **** Fit       0.009063
 **** Fit       0.007084
 **** Fit       0.004791
 **** Fit       0.002182
 **** Fit      -0.000698
 **** Fit      -0.003761
 **** Fit      -0.006894
 **** Fit      -0.010001
 **** Fit      -0.013044
 **** Fit      -0.016046
 **** Fit      -0.019044
 **** Fit      -0.021975
 **** Fit       0.007031
 **** Fit       0.004151
 **** Fit       0.000907
 **** Fit      -0.002635
 **** Fit      -0.006351
 **** Fit      -0.010098
 **** Fit      -0.013783
 **** Fit      -0.017433
 **** Fit      -0.021215
 **** Fit       0.001404
 **** Fit      -0.002959
 **** Fit      -0.007568
 **** Fit       0.000448
 **** Fit       0.002247
 **** Fit       0.003985
 **** Fit      -0.001899
 **** Fit       0.000045
 **** Fit       0.001895
 **** Fit       0.003521
 **** Fit       0.004955
 **** Fit      -0.006626
 **** Fit      -0.004443
 **** Fit      -0.002064
 **** Fit       0.000109
 **** Fit       0.001948
 **** Fit       0.003492
 **** Fit       0.004842
 **** Fit       0.006096
 **** Fit      -0.010446
 **** Fit      -0.007387
 **** Fit      -0.004295
 **** Fit      -0.001597
 **** Fit       0.000583
 **** Fit       0.002317
 **** Fit       0.003755
 **** Fit       0.005032
 **** Fit       0.006242
 **** Fit       0.007463
 **** Fit      -0.015347
 **** Fit      -0.011080
 **** Fit      -0.007009
 **** Fit      -0.003588
 **** Fit      -0.000931
 **** Fit       0.001067
 **** Fit       0.002617
 **** Fit       0.003924
 **** Fit       0.005127
 **** Fit       0.006302
 **** Fit       0.007500
 **** Fit      -0.009854
 **** Fit      -0.005321
 **** Fit      -0.002002
 **** Fit       0.000316
 **** Fit       0.001971
 **** Fit       0.003291
 **** Fit       0.004507
 **** Fit       0.005723
 **** Fit       0.006975
 **** Fit       0.008295
 **** Fit      -0.007440
 **** Fit      -0.003225
 **** Fit      -0.000476
 **** Fit       0.001294
 **** Fit       0.002573
 **** Fit       0.003729
 **** Fit       0.004942
 **** Fit       0.006247
 **** Fit       0.007635
 **** Fit       0.009126
 **** Fit      -0.004250
 **** Fit      -0.001010
 **** Fit       0.000847
 **** Fit       0.002025
 **** Fit       0.003077
 **** Fit       0.004284
 **** Fit       0.005688
 **** Fit       0.007236
 **** Fit       0.008891
 **** Fit      -0.004446
 **** Fit      -0.000955
 **** Fit       0.000756
 **** Fit       0.001748
 **** Fit       0.002791
 **** Fit       0.004189
 **** Fit       0.005909
 **** Fit       0.007821
 **** Fit      -0.000719
 **** Fit       0.001585
 **** Fit       0.002911
 **** Fit       0.004801
 **** Fit       0.007057
 **** Fit       0.003730
 **** Fit       0.006196
 **** Fit       0.004392
 **** Fit       0.007290
 **** Fit       0.005889
 **** Fit       0.010991
 **** Fit       0.011257
 **** Fit       0.011324
 **** Fit       0.011181
 **** Fit       0.011199
 **** Fit       0.011647
 **** Fit       0.011962
 **** Fit       0.012125
 **** Fit       0.012125
 **** Fit       0.011953
 **** Fit       0.011609
 **** Fit       0.010910
 **** Fit       0.011527
 **** Fit       0.012072
 **** Fit       0.012505
 **** Fit       0.012814
 **** Fit       0.012997
 **** Fit       0.013051
 **** Fit       0.012966
 **** Fit       0.012720
 **** Fit       0.012295
 **** Fit       0.011187
 **** Fit       0.011866
 **** Fit       0.012483
 **** Fit       0.013000
 **** Fit       0.013406
 **** Fit       0.013711
 **** Fit       0.013924
 **** Fit       0.014049
 **** Fit       0.014076
 **** Fit       0.013974
 **** Fit       0.013703
 **** Fit       0.011965
 **** Fit       0.012709
 **** Fit       0.013353
 **** Fit       0.013880
 **** Fit       0.014298
 **** Fit       0.014632
 **** Fit       0.014905
 **** Fit       0.015127
 **** Fit       0.015289
 **** Fit       0.015353
 **** Fit       0.015257
 **** Fit       0.014921
 **** Fit       0.012050
 **** Fit       0.012913
 **** Fit       0.013682
 **** Fit       0.014323
 **** Fit       0.014839
 **** Fit       0.015259
 **** Fit       0.015623
 **** Fit       0.015967
 **** Fit       0.016309
 **** Fit       0.016643
 **** Fit       0.016926
 **** Fit       0.017083
 **** Fit       0.017004
 **** Fit       0.012458
 **** Fit       0.013440
 **** Fit       0.014317
 **** Fit       0.015042
 **** Fit       0.015620
 **** Fit       0.016088
 **** Fit       0.016503
 **** Fit       0.016923
 **** Fit       0.017390
 **** Fit       0.017920
 **** Fit       0.018490
 **** Fit       0.019028
 **** Fit       0.019414
 **** Fit       0.019482
 **** Fit       0.013674
 **** Fit       0.014767
 **** Fit       0.015684
 **** Fit       0.016402
 **** Fit       0.016962
 **** Fit       0.017441
 **** Fit       0.017930
 **** Fit       0.018512
 **** Fit       0.019241
 **** Fit       0.020119
 **** Fit       0.021087
 **** Fit       0.022009
 **** Fit       0.022669
 **** Fit       0.015655
 **** Fit       0.016752
 **** Fit       0.017595
 **** Fit       0.018233
 **** Fit       0.018780
 **** Fit       0.019379
 **** Fit       0.020163
 **** Fit       0.021220
 **** Fit       0.022566
 **** Fit       0.024120
 **** Fit       0.025682
 **** Fit       0.026911
 **** Fit       0.018065
 **** Fit       0.019051
 **** Fit       0.019793
 **** Fit       0.020442
 **** Fit       0.021199
 **** Fit       0.022260
 **** Fit       0.023760
 **** Fit       0.025738
 **** Fit       0.028098
 **** Fit       0.020474
 **** Fit       0.021496
 **** Fit       0.022378
 **** Fit       0.023421
 **** Fit       0.024947
 **** Fit       0.027206
 **** Fit       0.023473
 **** Fit       0.024735
 **** Fit       0.026243
 **** Fit       0.029402
 **** Fit       0.029149
 **** Fit       0.029707
 **** Fit       0.030387
 **** Fit       0.031241
 **** Fit       0.032048
 **** Fit       0.032457
 **** Fit       0.032061
 **** Fit       0.027366
 **** Fit       0.027973
 **** Fit       0.028585
 **** Fit       0.029452
 **** Fit       0.030720
 **** Fit       0.032398
 **** Fit       0.034328
 **** Fit       0.036179
 **** Fit       0.037458
 **** Fit       0.026451
 **** Fit       0.027085
 **** Fit       0.027778
 **** Fit       0.028859
 **** Fit       0.030556
 **** Fit       0.032958
 **** Fit       0.035960
 **** Fit       0.039231
 **** Fit       0.025759
 **** Fit       0.026363
 **** Fit       0.027266
 **** Fit       0.028836
 **** Fit       0.031333
 **** Fit       0.034854
 **** Fit       0.026745
 **** Fit       0.029084
 **** Fit       0.032623
 **** Fit       0.029516
 **** Fit       0.044592
 **** Fit       0.043791
 **** Fit       0.046877
 **** Fit       0.047387
 **** Fit       0.043674
 **** Fit       0.040897
 **** Fit       0.041565
 **** Fit       0.041119
 **** Fit       0.044250
 **** Fit       0.047839
 **** Fit       0.050194
 **** Fit       0.049973
 **** Fit       0.046581
 **** Fit       0.041091
 **** Fit       0.036723
 **** Fit       0.035738
 **** Fit       0.036903
 **** Fit       0.038248
 **** Fit       0.039346
 **** Fit       0.036226
 **** Fit       0.039179
 **** Fit       0.043355
 **** Fit       0.047583
 **** Fit       0.050873
 **** Fit       0.052619
 **** Fit       0.052334
 **** Fit       0.049513
 **** Fit       0.044020
 **** Fit       0.036902
 **** Fit       0.030791
 **** Fit       0.028257
 **** Fit       0.029154
 **** Fit       0.031432
 **** Fit       0.033463
 **** Fit       0.034574
 **** Fit       0.034837
 **** Fit       0.035001
 **** Fit       0.031275
 **** Fit       0.035988
 **** Fit       0.041317
 **** Fit       0.046224
 **** Fit       0.050171
 **** Fit       0.052955
 **** Fit       0.054457
 **** Fit       0.054414
 **** Fit       0.052322
 **** Fit       0.047673
 **** Fit       0.040390
 **** Fit       0.021360
 **** Fit       0.024943
 **** Fit       0.027919
 **** Fit       0.029813
 **** Fit       0.030475
 **** Fit       0.029989
 **** Fit       0.028778
 **** Fit       0.027807
 **** Fit       0.032519
 **** Fit       0.039166
 **** Fit       0.044744
 **** Fit       0.049135
 **** Fit       0.052417
 **** Fit       0.054700
 **** Fit       0.055973
 **** Fit       0.055918
 **** Fit       0.053873
 **** Fit       0.049192
 **** Fit       0.041566
 **** Fit       0.016233
 **** Fit       0.020553
 **** Fit       0.023692
 **** Fit       0.025517
 **** Fit       0.025956
 **** Fit       0.024979
 **** Fit       0.022660
 **** Fit       0.028988
 **** Fit       0.036579
 **** Fit       0.042583
 **** Fit       0.047244
 **** Fit       0.050816
 **** Fit       0.053543
 **** Fit       0.055614
 **** Fit       0.057028
 **** Fit       0.043889
 **** Fit       0.006363
 **** Fit       0.011843
 **** Fit       0.016112
 **** Fit       0.019120
 **** Fit       0.020777
 **** Fit       0.021010
 **** Fit       0.019718
 **** Fit       0.016721
 **** Fit       0.026778
 **** Fit       0.034680
 **** Fit       0.040738
 **** Fit       0.045398
 **** Fit       0.048987
 **** Fit       0.051816
 **** Fit       0.054188
 **** Fit       0.000466
 **** Fit       0.005895
 **** Fit       0.010309
 **** Fit       0.013497
 **** Fit       0.015290
 **** Fit       0.015616
 **** Fit       0.014381
 **** Fit       0.011316
 **** Fit       0.024704
 **** Fit       0.032332
 **** Fit       0.038208
 **** Fit       0.042749
 **** Fit       0.046243
 **** Fit       0.049000
 **** Fit       0.051369
 **** Fit       0.004006
 **** Fit       0.007339
 **** Fit       0.009193
 **** Fit       0.009563
 **** Fit       0.008444
 **** Fit       0.005617
 **** Fit       0.012887
 **** Fit       0.022044
 **** Fit       0.029177
 **** Fit       0.034860
 **** Fit       0.039291
 **** Fit       0.042637
 **** Fit       0.045188
 **** Fit       0.047299
 **** Fit       0.000778
 **** Fit       0.002507
 **** Fit       0.002740
 **** Fit       0.001653
 **** Fit      -0.000849
 **** Fit      -0.005250
 **** Fit       0.036734
 **** Fit       0.039550
 **** Fit       0.041560
 **** Fit       0.043153
 **** Fit      -0.004676
 **** Fit      -0.005671
 **** Fit      -0.007652
 **** Fit      -0.010869
 **** Fit       0.035566
 **** Fit       0.036839
 **** Fit       0.037689
 **** Fit      -0.016351
 **** Fit      -0.018875
 **** Fit      -0.022264
 **** Fit       0.031071
 **** Fit      -0.031949
 **** Fit      -0.034501
 **** Fit      -0.019451
 **** Fit      -0.019470
 **** Fit      -0.008120
 **** Fit      -0.035347
 **** Fit      -0.029946
 **** Fit      -0.022481
 **** Fit      -0.013271
 **** Fit      -0.001357
 **** Fit      -0.037749
 **** Fit      -0.031754
 **** Fit      -0.025067
 **** Fit      -0.017816
 **** Fit      -0.009216
 **** Fit      -0.046240
 **** Fit      -0.040622
 **** Fit      -0.034421
 **** Fit      -0.028481
 **** Fit      -0.022813
 **** Fit      -0.016815
 **** Fit      -0.009295
 **** Fit      -0.044169
 **** Fit      -0.028394
 **** Fit      -0.024148
 **** Fit      -0.019139
 **** Fit      -0.039965
 **** Fit      -0.035493
 **** Fit      -0.031907
 **** Fit      -0.029141
 **** Fit      -0.026503
 **** Fit      -0.022771
 **** Fit      -0.016143
 **** Fit      -0.043201
 **** Fit      -0.038802
 **** Fit      -0.035835
 **** Fit      -0.034167
 **** Fit      -0.033293
 **** Fit      -0.032375
 **** Fit      -0.030189
 **** Fit      -0.025028
 **** Fit      -0.051167
 **** Fit      -0.045767
 **** Fit      -0.041852
 **** Fit      -0.039636
 **** Fit      -0.038973
 **** Fit      -0.039509
 **** Fit      -0.040682
 **** Fit      -0.056798
 **** Fit      -0.050804
 **** Fit      -0.046451
 **** Fit      -0.044069
 **** Fit      -0.043630
 **** Fit      -0.044934
 **** Fit      -0.062128
 **** Fit      -0.055753
 **** Fit      -0.051114
 **** Fit      -0.048571
 **** Fit      -0.048193
 **** Fit      -0.049926
 **** Fit      -0.063097
 **** Fit      -0.057334
 **** Fit      -0.053886
 **** Fit      -0.052849
 **** Fit      -0.062776
 **** Fit      -0.058957
 **** Fit      -0.058166
 **** Fit      -0.065781
 **** Fit      -0.063949
 -----------------------------------------------------------------
 Leave Link  602 at Wed Sep 18 16:42:21 2019, MaxMem=  1342177280 cpu:             147.5 elap:               3.1

 Test job not archived.
 1\1\GINC-C506-113\SP\RB3LYP\SVP\C54H83Ca1N15O23\PENGZHI\18-Sep-2019\0\
 \#b3lyp/svp scf=(tight,noincore) Test #IOP(5/87=12) Density=Current Po
 p=(MK,readradii) iop(6/33=2) iop(6/42=6)\\Ng-31_loop3_3.0\\0,1\C,0,5.5
 19,43.26,15.43\C,0,6.889,43.19,14.77\O,0,7.249,42.27,14.03\H,0,4.779,4
 2.793,14.78\H,0,5.547,42.734,16.384\H,0,5.248,44.303,15.597\N,0,7.729,
 44.22,14.87\C,0,9.119,44.24,14.46\C,0,9.949,43.32,15.35\O,0,9.619,43.1
 8,16.52\C,0,9.729,45.64,14.52\C,0,9.379,46.67,15.58\O,0,8.319,46.55,16
 .24\O,0,10.229,47.58,15.73\H,0,7.359,45.03,15.35\H,0,9.159,43.88,13.43
 \H,0,9.369,46.07,13.59\H,0,10.819,45.57,14.49\N,0,11.039,42.73,14.84\C
 ,0,12.069,42.03,15.58\C,0,12.559,40.69,15.04\O,0,13.089,39.86,15.78\C,
 0,13.189,43.04,15.81\C,0,14.029,42.66,17.02\C,0,14.329,43.92,17.83\C,0
 ,15.069,43.62,19.13\N,0,16.249,42.75,19.08\H,0,11.289,42.9,13.88\H,0,1
 1.669,41.79,16.56\H,0,12.859,44.05,16.04\H,0,13.819,43.09,14.92\H,0,14
 .989,42.24,16.71\H,0,13.459,41.97,17.64\H,0,13.369,44.36,18.05\H,0,14.
 969,44.59,17.25\H,0,14.349,43.11,19.78\H,0,15.279,44.5,19.74\H,0,15.93
 9,41.81,18.85\H,0,16.939,42.98,18.37\H,0,16.699,42.66,19.98\N,0,12.199
 ,40.45,13.78\C,0,12.599,39.21,13.14\C,0,12.469,39.34,11.63\O,0,13.359,
 39.22,10.79\C,0,11.879,37.97,13.66\C,0,10.499,38.23,14.25\O,0,9.649,38
 .88,13.61\O,0,10.189,37.76,15.37\H,0,11.769,41.21,13.28\H,0,13.689,39.
 11,13.17\H,0,12.509,37.46,14.39\H,0,11.779,37.21,12.89\N,0,11.209,39.5
 8,11.24\C,0,10.629,39.51,9.92\C,0,9.189,39.99,9.8\O,0,8.479,40.09,10.8
 \H,0,10.529,39.81,11.95\H,0,10.709,38.47,9.59\H,0,11.219,40.01,9.16\N,
 0,8.669,40.19,8.58\C,0,9.059,39.65,7.29\C,0,7.799,39.16,6.6\O,0,6.809,
 39.89,6.61\C,0,9.849,40.65,6.44\C,0,9.729,40.33,4.96\N,0,9.509,41.4,4.
 18\O,0,9.779,39.22,4.44\H,0,7.799,40.69,8.53\H,0,9.639,38.73,7.38\H,0,
 10.909,40.56,6.68\H,0,9.519,41.67,6.61\H,0,9.669,42.3,4.6\H,0,9.279,41
 .21,3.22\N,0,7.629,37.94,6.09\C,0,8.569,36.84,6.18\C,0,8.459,36.15,7.5
 4\O,0,8.379,36.8,8.58\H,0,6.759,37.78,5.61\H,0,9.619,37.06,5.98\H,0,8.
 279,36.1,5.44\N,0,8.479,34.82,7.52\C,0,8.119,33.95,8.62\C,0,8.929,32.6
 6,8.57\O,0,8.939,31.98,7.55\C,0,6.649,33.55,8.53\C,0,5.549,34.53,8.17\
 C,0,5.049,35.39,9.16\C,0,5.089,34.7,6.86\C,0,4.009,36.29,8.89\C,0,4.04
 9,35.59,6.56\C,0,3.479,36.38,7.58\O,0,2.589,37.35,7.23\H,0,8.669,34.39
 ,6.63\H,0,8.369,34.56,9.49\H,0,6.359,33.09,9.47\H,0,6.609,32.79,7.75\H
 ,0,5.389,35.28,10.17\H,0,5.509,34.1,6.07\H,0,3.659,37.02,9.61\H,0,3.83
 9,35.77,5.52\H,0,2.319,37.22,6.32\N,0,9.649,32.39,9.66\C,0,10.549,31.2
 6,9.67\C,0,9.789,29.96,9.5\O,0,10.369,28.99,9.01\C,0,11.399,31.23,10.9
 4\C,0,10.639,30.78,12.19\C,0,12.759,30.56,10.72\C,0,11.499,30.73,13.45
 \H,0,9.499,32.95,10.49\H,0,11.289,31.28,8.87\H,0,11.719,32.25,11.13\H,
 0,10.279,29.77,12.01\H,0,9.799,31.47,12.3\H,0,13.299,30.99,9.88\H,0,13
 .329,30.83,11.61\H,0,12.699,29.47,10.78\H,0,12.229,29.92,13.39\H,0,11.
 989,31.7,13.49\H,0,10.899,30.62,14.36\N,0,8.499,29.94,9.86\C,0,7.529,2
 8.88,9.7\C,0,7.059,28.21,10.98\O,0,6.229,27.3,10.96\C,0,6.379,29.36,8.
 82\O,0,5.959,30.54,9.46\H,0,8.029,30.82,10.01\H,0,8.039,28.11,9.13\H,0
 ,5.589,28.61,8.79\H,0,6.669,29.59,7.8\H,0,5.169,30.77,8.96\N,0,7.569,2
 8.66,12.13\C,0,7.049,28.28,13.43\C,0,7.009,29.41,14.45\O,0,7.989,30.16
 ,14.51\C,0,7.959,27.17,13.97\H,0,8.099,29.52,12.17\H,0,6.059,27.89,13.
 22\H,0,7.779,26.27,13.39\H,0,8.979,27.46,13.74\H,0,7.879,26.98,15.04\N
 ,0,6.039,29.51,15.36\C,0,5.869,30.54,16.37\C,0,5.779,31.99,15.92\O,0,5
 .899,32.97,16.65\C,0,6.649,30.25,17.64\H,0,5.329,28.8,15.27\H,0,4.819,
 30.61,16.66\H,0,6.469,29.25,18.03\H,0,7.729,30.32,17.47\H,0,6.289,30.9
 2,18.42\N,0,5.469,32.09,14.62\C,0,5.389,33.38,13.96\C,0,3.969,33.92,13
 .9\O,0,3.609,35.08,14.08\C,0,5.909,33.36,12.52\C,0,7.309,32.76,12.42\C
 ,0,8.509,33.6,12.82\O,0,8.699,33.82,14.03\O,0,9.189,34.13,11.92\H,0,5.
 359,31.21,14.15\H,0,5.969,34.16,14.45\H,0,6.029,34.37,12.14\H,0,5.199,
 32.7,12.03\H,0,7.459,32.47,11.38\H,0,7.249,31.78,12.91\N,0,3.009,32.99
 ,13.87\C,0,1.599,33.19,13.59\H,0,1.064,33.357,14.525\H,0,1.476,34.058,
 12.942\H,0,1.197,32.306,13.095\H,0,3.379,32.1,13.59\Ca,0,7.24,38.43,12
 .74\O,0,7.97,36.5,14.27\H,0,8.41,36.68,15.1\H,0,8.06,35.56,14.14\\Vers
 ion=ES64L-G16RevA.03\State=1-A\HF=-5333.3310885\RMSD=2.433e-09\Dipole=
 5.1943788,1.0357949,0.9802747\Quadrupole=127.7968793,-190.9135204,63.1
 166411,159.5009295,156.8370855,-24.0168596\PG=C01 [X(C54H83Ca1N15O23)]
 \\@


 AND HERE I AM, FOR ALL MY LORE,
 THE WRETCHED FOOL I WAS BEFORE.
 CALLED MASTER OF ARTS, AND DOCTOR TO BOOT,
 FOR TEN YEARS ALMOST I CONFUTE
 AND UP AND DOWN, WHEREVER IT GOES
 I DRAG MY STUDENTS BY THE NOSE --
 AND SEE THAT FOR ALL OUR SCIENCE AND ART
 WE CAN KNOW NOTHING.  IT BURNS MY HEART.

                                       -- FAUST
 Job cpu time:       0 days  9 hours 23 minutes 13.5 seconds.
 Elapsed time:       0 days  0 hours 11 minutes 53.0 seconds.
 File lengths (MBytes):  RWF=   1517 Int=      0 D2E=      0 Chk=    171 Scr=      1
 Normal termination of Gaussian 16 at Wed Sep 18 16:42:22 2019.
