 Entering Gaussian System, Link 0=g16
 Initial command:
 /home1/apps/gaussian/16rA.03/g16/l1.exe "/scratch/01990/pengzhi/4356749/Gau-404519.inp" -scrdir="/scratch/01990/pengzhi/4356749/"
 Entering Link 1 = /home1/apps/gaussian/16rA.03/g16/l1.exe PID=    404520.
  
 Copyright (c) 1988,1990,1992,1993,1995,1998,2003,2009,2016,
            Gaussian, Inc.  All Rights Reserved.
  
 This is part of the Gaussian(R) 16 program.  It is based on
 the Gaussian(R) 09 system (copyright 2009, Gaussian, Inc.),
 the Gaussian(R) 03 system (copyright 2003, Gaussian, Inc.),
 the Gaussian(R) 98 system (copyright 1998, Gaussian, Inc.),
 the Gaussian(R) 94 system (copyright 1995, Gaussian, Inc.),
 the Gaussian 92(TM) system (copyright 1992, Gaussian, Inc.),
 the Gaussian 90(TM) system (copyright 1990, Gaussian, Inc.),
 the Gaussian 88(TM) system (copyright 1988, Gaussian, Inc.),
 the Gaussian 86(TM) system (copyright 1986, Carnegie Mellon
 University), and the Gaussian 82(TM) system (copyright 1983,
 Carnegie Mellon University). Gaussian is a federally registered
 trademark of Gaussian, Inc.
  
 This software contains proprietary and confidential information,
 including trade secrets, belonging to Gaussian, Inc.
  
 This software is provided under written license and may be
 used, copied, transmitted, or stored only in accord with that
 written license.
  
 The following legend is applicable only to US Government
 contracts under FAR:
  
                    RESTRICTED RIGHTS LEGEND
  
 Use, reproduction and disclosure by the US Government is
 subject to restrictions as set forth in subparagraphs (a)
 and (c) of the Commercial Computer Software - Restricted
 Rights clause in FAR 52.227-19.
  
 Gaussian, Inc.
 340 Quinnipiac St., Bldg. 40, Wallingford CT 06492
  
  
 ---------------------------------------------------------------
 Warning -- This program may not be used in any manner that
 competes with the business of Gaussian, Inc. or will provide
 assistance to any competitor of Gaussian, Inc.  The licensee
 of this program is prohibited from giving any competitor of
 Gaussian, Inc. access to this program.  By using this program,
 the user acknowledges that Gaussian, Inc. is engaged in the
 business of creating and licensing software in the field of
 computational chemistry and represents and warrants to the
 licensee that it is not a competitor of Gaussian, Inc. and that
 it will not use this program in any manner prohibited above.
 ---------------------------------------------------------------
  

 Cite this work as:
 Gaussian 16, Revision A.03,
 M. J. Frisch, G. W. Trucks, H. B. Schlegel, G. E. Scuseria, 
 M. A. Robb, J. R. Cheeseman, G. Scalmani, V. Barone, 
 G. A. Petersson, H. Nakatsuji, X. Li, M. Caricato, A. V. Marenich, 
 J. Bloino, B. G. Janesko, R. Gomperts, B. Mennucci, H. P. Hratchian, 
 J. V. Ortiz, A. F. Izmaylov, J. L. Sonnenberg, D. Williams-Young, 
 F. Ding, F. Lipparini, F. Egidi, J. Goings, B. Peng, A. Petrone, 
 T. Henderson, D. Ranasinghe, V. G. Zakrzewski, J. Gao, N. Rega, 
 G. Zheng, W. Liang, M. Hada, M. Ehara, K. Toyota, R. Fukuda, 
 J. Hasegawa, M. Ishida, T. Nakajima, Y. Honda, O. Kitao, H. Nakai, 
 T. Vreven, K. Throssell, J. A. Montgomery, Jr., J. E. Peralta, 
 F. Ogliaro, M. J. Bearpark, J. J. Heyd, E. N. Brothers, K. N. Kudin, 
 V. N. Staroverov, T. A. Keith, R. Kobayashi, J. Normand, 
 K. Raghavachari, A. P. Rendell, J. C. Burant, S. S. Iyengar, 
 J. Tomasi, M. Cossi, J. M. Millam, M. Klene, C. Adamo, R. Cammi, 
 J. W. Ochterski, R. L. Martin, K. Morokuma, O. Farkas, 
 J. B. Foresman, and D. J. Fox, Gaussian, Inc., Wallingford CT, 2016.
 
 ******************************************
 Gaussian 16:  ES64L-G16RevA.03 25-Dec-2016
                18-Sep-2019 
 ******************************************
 %chk=Ng-31_loop3_31.0.chk
 %nprocshared=48
 Will use up to   48 processors via shared memory.
 %mem=10GB
 %nosave
 ----------------------------------------------------------------------
 #b3lyp/svp scf=(tight,noincore) Test #IOP(5/87=12) Density=Current Pop
 =(MK,readradii) iop(6/33=2) iop(6/42=6)
 ----------------------------------------------------------------------
 1/30=1,38=1,172=1/1;
 2/12=2,17=6,18=5,40=1/2;
 3/5=18,7=101,11=2,25=1,30=1,74=-5/1,2,3;
 4//1;
 5/5=4,32=2,38=5,87=12/2;
 6/7=2,8=2,9=2,10=2,15=8,20=101,22=-1,28=1,33=2,42=6/1,2;
 99/5=1,9=1/99;
 ----------------
 Ng-31_loop3_31.0
 ----------------
 Symbolic Z-matrix:
 Charge =  0 Multiplicity = 1
 C                     94.41     76.42     15.52 
 C                     95.56     75.73     16.24 
 O                     95.48     74.7      16.91 
 H                     93.58     76.56     16.213 
 H                     94.742    77.39     15.151 
 H                     94.083    75.804    14.682 
 N                     96.77     76.28     16.12 
 C                     98.02     75.86     16.72 
 C                     98.45     76.73     17.89 
 O                     98.06     76.39     19.01 
 C                     99.07     75.63     15.63 
 C                     99.15     76.7      14.55 
 O                     99.31     77.9      14.87 
 O                     98.89     76.35     13.38 
 H                     96.74     77.21     15.71 
 H                     97.89     74.87     17.15 
 H                     98.85     74.64     15.24 
 H                     100.02    75.55     16.15 
 N                     99.26     77.77     17.73 
 C                     99.82     78.53     18.83 
 C                     100.79    77.57     19.5 
 O                     101.87    77.25     19. 
 C                     100.45    79.86     18.45 
 C                     99.46     81.02     18.37 
 C                     100.24    82.32     18.13 
 C                     99.27     83.42     18.56 
 N                     99.82     84.78     18.43 
 H                     99.58     78.01     16.8 
 H                     99.02     78.81     19.52 
 H                     101.04    79.81     17.53 
 H                     101.07    80.19     19.28 
 H                     98.93     81.07     19.32 
 H                     98.75     80.7      17.61 
 H                     100.59    82.35     17.1 
 H                     101.12    82.39     18.77 
 H                     98.92     83.28     19.59 
 H                     98.39     83.26     17.94 
 H                     100.67    84.88     18.96 
 H                     99.94     84.99     17.45 
 H                     99.12     85.41     18.79 
 N                     100.58    77.14     20.75 
 C                     101.55    76.29     21.41 
 C                     101.41    74.85     20.93 
 O                     102.27    73.99     21.11 
 C                     101.42    76.43     22.92 
 C                     100.04    76.01     23.39 
 O                     99.52     74.91     23.11 
 O                     99.46     76.67     24.28 
 H                     99.7      77.25     21.24 
 H                     102.51    76.7      21.11 
 H                     101.66    77.43     23.28 
 H                     102.25    75.95     23.44 
 N                     100.28    74.52     20.3 
 C                     100.04    73.25     19.63 
 C                     100.97    72.84     18.5 
 O                     101.95    73.51     18.16 
 H                     99.64     75.3      20.26 
 H                     99.       73.23     19.3 
 H                     100.02    72.47     20.39 
 N                     100.7     71.79     17.72 
 C                     99.63     70.85     17.95 
 C                     98.69     70.64     16.77 
 O                     99.1      70.47     15.63 
 C                     100.23    69.53     18.43 
 C                     100.99    69.57     19.74 
 N                     100.86    68.41     20.39 
 O                     101.56    70.53     20.25 
 H                     101.37    71.56     17. 
 H                     99.05     71.22     18.79 
 H                     100.94    69.12     17.71 
 H                     99.41     68.81     18.46 
 H                     100.09    67.81     20.14 
 H                     101.25    68.41     21.33 
 N                     97.36     70.6      16.89 
 C                     96.51     70.97     18. 
 C                     96.11     69.95     19.05 
 O                     95.51     70.34     20.05 
 H                     96.88     70.63     16. 
 H                     95.55     71.3      17.59 
 H                     97.05     71.76     18.52 
 N                     96.41     68.65     18.93 
 C                     95.86     67.59     19.75 
 C                     96.76     67.01     20.83 
 O                     97.89     66.62     20.55 
 C                     95.35     66.48     18.83 
 C                     94.43     66.9      17.71 
 C                     93.44     67.87     17.9 
 C                     94.63     66.5      16.38 
 C                     92.56     68.28     16.89 
 C                     93.76     66.84     15.34 
 C                     92.67     67.68     15.62 
 O                     91.83     68.15     14.65 
 H                     96.87     68.34     18.09 
 H                     94.97     68.01     20.24 
 H                     94.9      65.71     19.45 
 H                     96.22     65.96     18.44 
 H                     93.36     68.4      18.84 
 H                     95.47     65.86     16.15 
 H                     91.71     68.92     17.02 
 H                     93.88     66.37     14.37 
 H                     92.07     67.77     13.81 
 N                     96.21     67.08     22.04 
 C                     96.87     66.7      23.27 
 C                     95.91     66.18     24.33 
 O                     96.49     65.61     25.26 
 C                     97.62     67.89     23.85 
 C                     98.74     68.3      22.89 
 C                     96.67     69.02     24.25 
 C                     99.62     69.29     23.64 
 H                     95.23     67.32     22.05 
 H                     97.49     65.82     23.09 
 H                     98.06     67.55     24.79 
 H                     98.35     68.84     22.03 
 H                     99.35     67.44     22.61 
 H                     95.93     68.65     24.95 
 H                     97.3      69.72     24.81 
 H                     96.35     69.47     23.31 
 H                     100.49    69.34     22.97 
 H                     99.19     70.29     23.74 
 H                     100.01    68.97     24.6 
 N                     94.6      66.4      24.28 
 C                     93.68     66.02     25.33 
 C                     92.77     67.13     25.82 
 O                     92.15     67.8      24.99 
 C                     92.9      64.76     24.96 
 O                     93.75     63.64     24.87 
 H                     94.17     66.81     23.47 
 H                     94.31     65.78     26.19 
 H                     92.41     64.97     24.01 
 H                     92.12     64.53     25.69 
 H                     94.42     63.73     25.55 
 N                     92.63     67.24     27.15 
 C                     91.51     68.       27.67 
 C                     91.6      69.51     27.45 
 O                     92.62     70.09     27.11 
 C                     91.3      67.67     29.14 
 H                     93.23     66.71     27.76 
 H                     90.6      67.65     27.18 
 H                     90.69     68.36     29.72 
 H                     90.92     66.65     29.2 
 H                     92.25     67.54     29.66 
 N                     90.48     70.22     27.62 
 C                     90.39     71.67     27.67 
 C                     91.03     72.46     26.54 
 O                     91.49     73.56     26.83 
 C                     90.6      72.09     29.12 
 H                     89.7      69.64     27.9 
 H                     89.32     71.87     27.58 
 H                     91.69     72.08     29.19 
 H                     90.28     73.11     29.33 
 H                     90.22     71.4      29.87 
 N                     90.99     71.91     25.32 
 C                     91.56     72.46     24.1 
 C                     90.58     72.69     22.96 
 O                     90.56     73.78     22.4 
 C                     92.76     71.68     23.57 
 C                     94.04     71.9      24.38 
 C                     94.83     73.18     24.15 
 O                     95.65     73.22     23.21 
 O                     94.76     74.14     24.95 
 H                     90.55     71.       25.28 
 H                     91.93     73.45     24.35 
 H                     93.02     72.03     22.57 
 H                     92.4      70.66     23.45 
 H                     94.68     71.06     24.11 
 H                     93.95     71.61     25.42 
 N                     89.6      71.81     22.74 
 C                     88.44     71.96     21.88 
 H                     87.649    72.477    22.424 
 H                     88.713    72.54     20.999 
 H                     88.085    70.976    21.572 
 H                     89.74     70.88     23.12 
 Ca                    97.03     75.51     23.92 
 O                     94.98     76.25     22.6 
 H                     94.13     75.82     22.65 
 H                     94.98     76.67     21.74 
 
 Stoichiometry    C54H83CaN15O23
 Framework group  C1[X(C54H83CaN15O23)]
 Deg. of freedom   522
 Full point group                 C1      NOp   1
 Largest Abelian subgroup         C1      NOp   1
 Largest concise Abelian subgroup C1      NOp   1
                         Standard orientation:                         
 ---------------------------------------------------------------------
 Center     Atomic      Atomic             Coordinates (Angstroms)
 Number     Number       Type             X           Y           Z
 ---------------------------------------------------------------------
      1          6           0        4.741915    0.522303    5.497253
      2          6           0        4.482255    0.786783    4.020897
      3          8           0        3.383359    0.994094    3.505485
      4          1           0        4.077233   -0.268238    5.846525
      5          1           0        5.777511    0.212386    5.634287
      6          1           0        4.555328    1.431952    6.068526
      7          7           0        5.543627    0.815369    3.212396
      8          6           0        5.584619    1.007540    1.777025
      9          6           0        5.838687   -0.276102    1.003453
     10          8           0        4.847274   -0.925240    0.660207
     11          6           0        6.493569    2.190999    1.435362
     12          6           0        7.823344    2.240913    2.174893
     13          8           0        8.593540    1.254116    2.142803
     14          8           0        8.022625    3.219256    2.924649
     15          1           0        6.387624    0.466461    3.659422
     16          1           0        4.607218    1.341249    1.437575
     17          1           0        5.875795    3.069498    1.600265
     18          1           0        6.661966    2.131892    0.364171
     19          7           0        7.062868   -0.653400    0.653701
     20          6           0        7.339816   -1.780722   -0.214427
     21          6           0        6.822945   -1.346967   -1.576815
     22          8           0        7.391971   -0.504040   -2.272864
     23          6           0        8.786165   -2.247412   -0.236229
     24          6           0        9.142487   -3.229681    0.877450
     25          6           0       10.574549   -3.734147    0.652254
     26          6           0       10.646593   -5.024283    1.468438
     27          7           0       11.949982   -5.705222    1.387812
     28          1           0        7.854270   -0.086932    0.932444
     29          1           0        6.790673   -2.655488    0.142962
     30          1           0        9.504841   -1.422586   -0.249141
     31          1           0        8.923414   -2.882928   -1.107712
     32          1           0        8.439418   -4.059667    0.825325
     33          1           0        8.932049   -2.672839    1.788352
     34          1           0       11.282333   -2.949391    0.912062
     35          1           0       10.754029   -3.995484   -0.391005
     36          1           0        9.861150   -5.735090    1.184126
     37          1           0       10.393689   -4.716301    2.481150
     38          1           0       12.189791   -5.918315    0.433620
     39          1           0       12.643467   -5.136033    1.850417
     40          1           0       11.861761   -6.560555    1.914236
     41          7           0        5.795045   -1.978801   -2.156216
     42          6           0        5.360776   -1.612067   -3.488851
     43          6           0        4.510365   -0.347840   -3.442670
     44          8           0        4.250475    0.329589   -4.435216
     45          6           0        4.647369   -2.786428   -4.143471
     46          6           0        3.418561   -3.189229   -3.350072
     47          8           0        2.516587   -2.391150   -3.020963
     48          8           0        3.150442   -4.400746   -3.193742
     49          1           0        5.184151   -2.621526   -1.665998
     50          1           0        6.285461   -1.429748   -4.028683
     51          1           0        5.297176   -3.645651   -4.306830
     52          1           0        4.472499   -2.607884   -5.205188
     53          7           0        4.015573    0.016238   -2.257205
     54          6           0        3.328362    1.271794   -1.991273
     55          6           0        4.069134    2.572723   -2.253459
     56          8           0        5.207292    2.613180   -2.730806
     57          1           0        4.261383   -0.647120   -1.536696
     58          1           0        2.949808    1.243022   -0.968156
     59          1           0        2.391918    1.264300   -2.547525
     60          7           0        3.576391    3.748792   -1.856135
     61          6           0        2.256329    3.942632   -1.307261
     62          6           0        2.214466    4.656661    0.037547
     63          8           0        2.865852    5.667726    0.261252
     64          6           0        1.391526    4.653691   -2.346160
     65          6           0        1.157815    3.916976   -3.649207
     66          7           0       -0.048338    4.212518   -4.142005
     67          8           0        1.872637    3.066656   -4.171305
     68          1           0        4.109720    4.576872   -2.079844
     69          1           0        1.808183    2.960722   -1.189288
     70          1           0        1.818065    5.613198   -2.642827
     71          1           0        0.452443    4.903344   -1.848672
     72          1           0       -0.738952    4.588553   -3.511887
     73          1           0       -0.315099    3.662714   -4.955795
     74          7           0        1.452283    4.253959    1.058237
     75          6           0        0.733736    3.014619    1.256291
     76          6           0       -0.708230    2.868527    0.806523
     77          8           0       -1.231480    1.757087    0.861397
     78          1           0        1.669860    4.725503    1.926400
     79          1           0        0.682399    2.826828    2.333648
     80          1           0        1.308378    2.263841    0.715719
     81          7           0       -1.414542    3.903777    0.333469
     82          6           0       -2.847159    3.904887    0.118742
     83          6           0       -3.333897    3.780829   -1.316701
     84          8           0       -2.897662    4.531385   -2.184896
     85          6           0       -3.434806    5.155793    0.773345
     86          6           0       -3.051402    5.409923    2.210571
     87          6           0       -2.962664    4.368284    3.140202
     88          6           0       -2.575010    6.652574    2.655285
     89          6           0       -2.620397    4.563330    4.484602
     90          6           0       -2.262263    6.918073    3.991623
     91          6           0       -2.360511    5.875414    4.927203
     92          8           0       -1.975364    6.012824    6.231113
     93          1           0       -0.984905    4.814094    0.327441
     94          1           0       -3.244266    3.051154    0.686232
     95          1           0       -4.513111    5.126586    0.646050
     96          1           0       -3.167867    6.002247    0.147518
     97          1           0       -3.093653    3.339753    2.830580
     98          1           0       -2.487087    7.461011    1.943387
     99          1           0       -2.663969    3.821585    5.257205
    100          1           0       -2.053797    7.937476    4.297498
    101          1           0       -1.706741    6.912894    6.390220
    102          7           0       -4.161494    2.752016   -1.484415
    103          6           0       -4.702908    2.327044   -2.756881
    104          6           0       -6.080875    1.692019   -2.640479
    105          8           0       -6.648735    1.581831   -3.732080
    106          6           0       -3.769000    1.320480   -3.412356
    107          6           0       -2.436957    2.001834   -3.737192
    108          6           0       -3.650804    0.036174   -2.590172
    109          6           0       -1.662329    1.045782   -4.633247
    110          1           0       -4.494096    2.328473   -0.631135
    111          1           0       -4.920729    3.204872   -3.367759
    112          1           0       -4.250438    1.012273   -4.342961
    113          1           0       -1.828498    2.133174   -2.845101
    114          1           0       -2.596307    2.932909   -4.282909
    115          1           0       -4.633352   -0.392918   -2.432119
    116          1           0       -3.113819   -0.658376   -3.245723
    117          1           0       -3.030838    0.301689   -1.733642
    118          1           0       -0.854585    1.703073   -4.985126
    119          1           0       -1.223873    0.192210   -4.109729
    120          1           0       -2.164894    0.697246   -5.528820
    121          7           0       -6.565333    1.237542   -1.489066
    122          6           0       -7.819229    0.525748   -1.369087
    123          6           0       -7.739345   -0.797061   -0.631459
    124          8           0       -7.170599   -0.833815    0.462788
    125          6           0       -8.921564    1.426033   -0.814791
    126          8           0       -9.236640    2.462749   -1.715317
    127          1           0       -6.093655    1.411209   -0.619320
    128          1           0       -8.094152    0.255242   -2.391508
    129          1           0       -8.552326    1.815542    0.133179
    130          1           0       -9.840390    0.871616   -0.608438
    131          1           0       -9.169331    2.105547   -2.602603
    132          7           0       -8.390041   -1.829124   -1.190065
    133          6           0       -8.678603   -2.992128   -0.373637
    134          6           0       -7.458165   -3.831360    0.004281
    135          8           0       -6.363257   -3.719980   -0.525975
    136          6           0       -9.744637   -3.843642   -1.046240
    137          1           0       -8.761359   -1.739245   -2.121217
    138          1           0       -9.145115   -2.654315    0.553157
    139          1           0       -9.853580   -4.868321   -0.695863
    140          1           0      -10.687160   -3.298487   -0.992786
    141          1           0       -9.611541   -3.869136   -2.128569
    142          7           0       -7.609043   -4.718212    0.993285
    143          6           0       -6.655714   -5.751095    1.363983
    144          6           0       -5.214849   -5.332428    1.607349
    145          8           0       -4.348252   -6.153066    1.322280
    146          6           0       -6.969325   -6.983551    0.523924
    147          1           0       -8.552558   -4.725499    1.357876
    148          1           0       -7.012784   -6.101893    2.334777
    149          1           0       -6.458086   -6.741414   -0.410477
    150          1           0       -6.515319   -7.898142    0.903793
    151          1           0       -8.019895   -7.138392    0.288709
    152          7           0       -5.020462   -4.127678    2.158067
    153          6           0       -3.740061   -3.503534    2.452715
    154          6           0       -3.511346   -3.123441    3.907404
    155          8           0       -2.475181   -3.473363    4.460592
    156          6           0       -3.420097   -2.299316    1.571362
    157          6           0       -3.015841   -2.675107    0.143686
    158          6           0       -1.597769   -3.170452   -0.099429
    159          8           0       -0.689002   -2.332361   -0.270738
    160          8           0       -1.350914   -4.388439   -0.247992
    161          1           0       -5.866335   -3.602804    2.337806
    162          1           0       -2.977006   -4.245946    2.238073
    163          1           0       -2.546874   -1.773919    1.960642
    164          1           0       -4.263511   -1.624217    1.702869
    165          1           0       -3.150796   -1.756593   -0.427470
    166          1           0       -3.780243   -3.224278   -0.392878
    167          7           0       -4.520988   -2.634659    4.631915
    168          6           0       -4.578444   -2.441702    6.069679
    169          1           0       -4.883542   -3.372279    6.549105
    170          1           0       -3.595063   -2.150004    6.437052
    171          1           0       -5.300989   -1.659225    6.303779
    172          1           0       -5.294361   -2.236309    4.110272
    173         20           0        1.276812   -4.004407   -1.266951
    174          8           0        1.411797   -4.121149    1.274830
    175          1           0        0.652349   -4.088128    1.851068
    176          1           0        2.133362   -3.807551    1.819806
 ---------------------------------------------------------------------
 Rotational constants (GHZ):           0.0199185           0.0104949           0.0091654
 Standard basis: SVP (5D, 7F)
 There are  1809 symmetry adapted cartesian basis functions of A   symmetry.
 There are  1717 symmetry adapted basis functions of A   symmetry.
  1717 basis functions,  2922 primitive gaussians,  1809 cartesian basis functions
   358 alpha electrons      358 beta electrons
       nuclear repulsion energy     19586.5208906409 Hartrees.
 NAtoms=  176 NActive=  176 NUniq=  176 SFac= 1.00D+00 NAtFMM=   60 NAOKFM=T Big=T
 Integral buffers will be    131072 words long.
 Raffenetti 2 integral format.
 Two-electron integral symmetry is turned on.
 One-electron integrals computed using PRISM.
 NBasis=  1717 RedAO= T EigKep=  2.95D-04  NBF=  1717
 NBsUse=  1717 1.00D-06 EigRej= -1.00D+00 NBFU=  1717
 ExpMin= 1.98D-02 ExpMax= 3.51D+04 ExpMxC= 5.28D+03 IAcc=3 IRadAn=         5 AccDes= 0.00D+00
 Harris functional with IExCor=  402 and IRadAn=       5 diagonalized for initial guess.
 HarFok:  IExCor=  402 AccDes= 0.00D+00 IRadAn=         5 IDoV= 1 UseB2=F ITyADJ=14
 ICtDFT=  3500011 ScaDFX=  1.000000  1.000000  1.000000  1.000000
 FoFCou: FMM=F IPFlag=           0 FMFlag=      100000 FMFlg1=        2001
         NFxFlg=           0 DoJE=T BraDBF=F KetDBF=T FulRan=T
         wScrn=  0.000000 ICntrl=       500 IOpCl=  0 I1Cent=   200000004 NGrid=           0
         NMat0=    1 NMatS0=      1 NMatT0=    0 NMatD0=    1 NMtDS0=    0 NMtDT0=    0
 Petite list used in FoFCou.
 Requested convergence on RMS density matrix=1.00D-08 within 128 cycles.
 Requested convergence on MAX density matrix=1.00D-06.
 Requested convergence on             energy=1.00D-06.
 No special actions if energy rises.
 EnCoef did     2 forward-backward iterations
 EnCoef did     3 forward-backward iterations
 EnCoef did     4 forward-backward iterations
 Rare condition: small coef for last iteration:  0.000D+00
 EnCoef did   100 forward-backward iterations
 Rare condition: small coef for last iteration:  0.000D+00
 Rare condition: small coef for last iteration:  0.000D+00
 EnCoef did    10 forward-backward iterations
 Rare condition: small coef for last iteration:  0.000D+00
 Restarting incremental Fock formation.
 Rare condition: small coef for last iteration:  0.000D+00
 EnCoef did   100 forward-backward iterations
 Rare condition: small coef for last iteration:  0.000D+00
 SCF Done:  E(RB3LYP) =  -5333.34360268     A.U. after   36 cycles
            NFock= 36  Conv=0.13D-08     -V/T= 2.0081
 SCF density gives NOpUse=  1 NOpAll=  1.
 Hyperfine terms turned off by default for NAtoms > 100.

 **********************************************************************

            Population analysis using the SCF density.

 **********************************************************************

 Orbital symmetries:
 BldTbl:  Degeneracy threshold= 1.00D-02
       Occupied  (A) (A) (A) (A) (A) (A) (A) (A) (A) (A) (A) (A)
                 (A) (A) (A) (A) (A) (A) (A) (A) (A) (A) (A) (A)
                 (A) (A) (A) (A) (A) (A) (A) (A) (A) (A) (A) (A)
                 (A) (A) (A) (A) (A) (A) (A) (A) (A) (A) (A) (A)
                 (A) (A) (A) (A) (A) (A) (A) (A) (A) (A) (A) (A)
                 (A) (A) (A) (A) (A) (A) (A) (A) (A) (A) (A) (A)
                 (A) (A) (A) (A) (A) (A) (A) (A) (A) (A) (A) (A)
                 (A) (A) (A) (A) (A) (A) (A) (A) (A) (A) (A) (A)
                 (A) (A) (A) (A) (A) (A) (A) (A) (A) (A) (A) (A)
                 (A) (A) (A) (A) (A) (A) (A) (A) (A) (A) (A) (A)
                 (A) (A) (A) (A) (A) (A) (A) (A) (A) (A) (A) (A)
                 (A) (A) (A) (A) (A) (A) (A) (A) (A) (A) (A) (A)
                 (A) (A) (A) (A) (A) (A) (A) (A) (A) (A) (A) (A)
                 (A) (A) (A) (A) (A) (A) (A) (A) (A) (A) (A) (A)
                 (A) (A) (A) (A) (A) (A) (A) (A) (A) (A) (A) (A)
                 (A) (A) (A) (A) (A) (A) (A) (A) (A) (A) (A) (A)
                 (A) (A) (A) (A) (A) (A) (A) (A) (A) (A) (A) (A)
                 (A) (A) (A) (A) (A) (A) (A) (A) (A) (A) (A) (A)
                 (A) (A) (A) (A) (A) (A) (A) (A) (A) (A) (A) (A)
                 (A) (A) (A) (A) (A) (A) (A) (A) (A) (A) (A) (A)
                 (A) (A) (A) (A) (A) (A) (A) (A) (A) (A) (A) (A)
                 (A) (A) (A) (A) (A) (A) (A) (A) (A) (A) (A) (A)
                 (A) (A) (A) (A) (A) (A) (A) (A) (A) (A) (A) (A)
                 (A) (A) (A) (A) (A) (A) (A) (A) (A) (A) (A) (A)
                 (A) (A) (A) (A) (A) (A) (A) (A) (A) (A) (A) (A)
                 (A) (A) (A) (A) (A) (A) (A) (A) (A) (A) (A) (A)
                 (A) (A) (A) (A) (A) (A) (A) (A) (A) (A) (A) (A)
                 (A) (A) (A) (A) (A) (A) (A) (A) (A) (A) (A) (A)
                 (A) (A) (A) (A) (A) (A) (A) (A) (A) (A) (A) (A)
                 (A) (A) (A) (A) (A) (A) (A) (A) (A) (A)
       Virtual   (A) (A) (A) (A) (A) (A) (A) (A) (A) (A) (A) (A)
                 (A) (A) (A) (A) (A) (A) (A) (A) (A) (A) (A) (A)
                 (A) (A) (A) (A) (A) (A) (A) (A) (A) (A) (A) (A)
                 (A) (A) (A) (A) (A) (A) (A) (A) (A) (A) (A) (A)
                 (A) (A) (A) (A) (A) (A) (A) (A) (A) (A) (A) (A)
                 (A) (A) (A) (A) (A) (A) (A) (A) (A) (A) (A) (A)
                 (A) (A) (A) (A) (A) (A) (A) (A) (A) (A) (A) (A)
                 (A) (A) (A) (A) (A) (A) (A) (A) (A) (A) (A) (A)
                 (A) (A) (A) (A) (A) (A) (A) (A) (A) (A) (A) (A)
                 (A) (A) (A) (A) (A) (A) (A) (A) (A) (A) (A) (A)
                 (A) (A) (A) (A) (A) (A) (A) (A) (A) (A) (A) (A)
                 (A) (A) (A) (A) (A) (A) (A) (A) (A) (A) (A) (A)
                 (A) (A) (A) (A) (A) (A) (A) (A) (A) (A) (A) (A)
                 (A) (A) (A) (A) (A) (A) (A) (A) (A) (A) (A) (A)
                 (A) (A) (A) (A) (A) (A) (A) (A) (A) (A) (A) (A)
                 (A) (A) (A) (A) (A) (A) (A) (A) (A) (A) (A) (A)
                 (A) (A) (A) (A) (A) (A) (A) (A) (A) (A) (A) (A)
                 (A) (A) (A) (A) (A) (A) (A) (A) (A) (A) (A) (A)
                 (A) (A) (A) (A) (A) (A) (A) (A) (A) (A) (A) (A)
                 (A) (A) (A) (A) (A) (A) (A) (A) (A) (A) (A) (A)
                 (A) (A) (A) (A) (A) (A) (A) (A) (A) (A) (A) (A)
                 (A) (A) (A) (A) (A) (A) (A) (A) (A) (A) (A) (A)
                 (A) (A) (A) (A) (A) (A) (A) (A) (A) (A) (A) (A)
                 (A) (A) (A) (A) (A) (A) (A) (A) (A) (A) (A) (A)
                 (A) (A) (A) (A) (A) (A) (A) (A) (A) (A) (A) (A)
                 (A) (A) (A) (A) (A) (A) (A) (A) (A) (A) (A) (A)
                 (A) (A) (A) (A) (A) (A) (A) (A) (A) (A) (A) (A)
                 (A) (A) (A) (A) (A) (A) (A) (A) (A) (A) (A) (A)
                 (A) (A) (A) (A) (A) (A) (A) (A) (A) (A) (A) (A)
                 (A) (A) (A) (A) (A) (A) (A) (A) (A) (A) (A) (A)
                 (A) (A) (A) (A) (A) (A) (A) (A) (A) (A) (A) (A)
                 (A) (A) (A) (A) (A) (A) (A) (A) (A) (A) (A) (A)
                 (A) (A) (A) (A) (A) (A) (A) (A) (A) (A) (A) (A)
                 (A) (A) (A) (A) (A) (A) (A) (A) (A) (A) (A) (A)
                 (A) (A) (A) (A) (A) (A) (A) (A) (A) (A) (A) (A)
                 (A) (A) (A) (A) (A) (A) (A) (A) (A) (A) (A) (A)
                 (A) (A) (A) (A) (A) (A) (A) (A) (A) (A) (A) (A)
                 (A) (A) (A) (A) (A) (A) (A) (A) (A) (A) (A) (A)
                 (A) (A) (A) (A) (A) (A) (A) (A) (A) (A) (A) (A)
                 (A) (A) (A) (A) (A) (A) (A) (A) (A) (A) (A) (A)
                 (A) (A) (A) (A) (A) (A) (A) (A) (A) (A) (A) (A)
                 (A) (A) (A) (A) (A) (A) (A) (A) (A) (A) (A) (A)
                 (A) (A) (A) (A) (A) (A) (A) (A) (A) (A) (A) (A)
                 (A) (A) (A) (A) (A) (A) (A) (A) (A) (A) (A) (A)
                 (A) (A) (A) (A) (A) (A) (A) (A) (A) (A) (A) (A)
                 (A) (A) (A) (A) (A) (A) (A) (A) (A) (A) (A) (A)
                 (A) (A) (A) (A) (A) (A) (A) (A) (A) (A) (A) (A)
                 (A) (A) (A) (A) (A) (A) (A) (A) (A) (A) (A) (A)
                 (A) (A) (A) (A) (A) (A) (A) (A) (A) (A) (A) (A)
                 (A) (A) (A) (A) (A) (A) (A) (A) (A) (A) (A) (A)
                 (A) (A) (A) (A) (A) (A) (A) (A) (A) (A) (A) (A)
                 (A) (A) (A) (A) (A) (A) (A) (A) (A) (A) (A) (A)
                 (A) (A) (A) (A) (A) (A) (A) (A) (A) (A) (A) (A)
                 (A) (A) (A) (A) (A) (A) (A) (A) (A) (A) (A) (A)
                 (A) (A) (A) (A) (A) (A) (A) (A) (A) (A) (A) (A)
                 (A) (A) (A) (A) (A) (A) (A) (A) (A) (A) (A) (A)
                 (A) (A) (A) (A) (A) (A) (A) (A) (A) (A) (A) (A)
                 (A) (A) (A) (A) (A) (A) (A) (A) (A) (A) (A) (A)
                 (A) (A) (A) (A) (A) (A) (A) (A) (A) (A) (A) (A)
                 (A) (A) (A) (A) (A) (A) (A) (A) (A) (A) (A) (A)
                 (A) (A) (A) (A) (A) (A) (A) (A) (A) (A) (A) (A)
                 (A) (A) (A) (A) (A) (A) (A) (A) (A) (A) (A) (A)
                 (A) (A) (A) (A) (A) (A) (A) (A) (A) (A) (A) (A)
                 (A) (A) (A) (A) (A) (A) (A) (A) (A) (A) (A) (A)
                 (A) (A) (A) (A) (A) (A) (A) (A) (A) (A) (A) (A)
                 (A) (A) (A) (A) (A) (A) (A) (A) (A) (A) (A) (A)
                 (A) (A) (A) (A) (A) (A) (A) (A) (A) (A) (A) (A)
                 (A) (A) (A) (A) (A) (A) (A) (A) (A) (A) (A) (A)
                 (A) (A) (A) (A) (A) (A) (A) (A) (A) (A) (A) (A)
                 (A) (A) (A) (A) (A) (A) (A) (A) (A) (A) (A) (A)
                 (A) (A) (A) (A) (A) (A) (A) (A) (A) (A) (A) (A)
                 (A) (A) (A) (A) (A) (A) (A) (A) (A) (A) (A) (A)
                 (A) (A) (A) (A) (A) (A) (A) (A) (A) (A) (A) (A)
                 (A) (A) (A) (A) (A) (A) (A) (A) (A) (A) (A) (A)
                 (A) (A) (A) (A) (A) (A) (A) (A) (A) (A) (A) (A)
                 (A) (A) (A) (A) (A) (A) (A) (A) (A) (A) (A) (A)
                 (A) (A) (A) (A) (A) (A) (A) (A) (A) (A) (A) (A)
                 (A) (A) (A) (A) (A) (A) (A) (A) (A) (A) (A) (A)
                 (A) (A) (A) (A) (A) (A) (A) (A) (A) (A) (A) (A)
                 (A) (A) (A) (A) (A) (A) (A) (A) (A) (A) (A) (A)
                 (A) (A) (A) (A) (A) (A) (A) (A) (A) (A) (A) (A)
                 (A) (A) (A) (A) (A) (A) (A) (A) (A) (A) (A) (A)
                 (A) (A) (A) (A) (A) (A) (A) (A) (A) (A) (A) (A)
                 (A) (A) (A) (A) (A) (A) (A) (A) (A) (A) (A) (A)
                 (A) (A) (A) (A) (A) (A) (A) (A) (A) (A) (A) (A)
                 (A) (A) (A) (A) (A) (A) (A) (A) (A) (A) (A) (A)
                 (A) (A) (A) (A) (A) (A) (A) (A) (A) (A) (A) (A)
                 (A) (A) (A) (A) (A) (A) (A) (A) (A) (A) (A) (A)
                 (A) (A) (A) (A) (A) (A) (A) (A) (A) (A) (A) (A)
                 (A) (A) (A) (A) (A) (A) (A) (A) (A) (A) (A) (A)
                 (A) (A) (A) (A) (A) (A) (A) (A) (A) (A) (A) (A)
                 (A) (A) (A) (A) (A) (A) (A) (A) (A) (A) (A) (A)
                 (A) (A) (A) (A) (A) (A) (A) (A) (A) (A) (A) (A)
                 (A) (A) (A) (A) (A) (A) (A) (A) (A) (A) (A) (A)
                 (A) (A) (A) (A) (A) (A) (A) (A) (A) (A) (A) (A)
                 (A) (A) (A) (A) (A) (A) (A) (A) (A) (A) (A) (A)
                 (A) (A) (A) (A) (A) (A) (A) (A) (A) (A) (A) (A)
                 (A) (A) (A) (A) (A) (A) (A) (A) (A) (A) (A) (A)
                 (A) (A) (A) (A) (A) (A) (A) (A) (A) (A) (A) (A)
                 (A) (A) (A) (A) (A) (A) (A) (A) (A) (A) (A) (A)
                 (A) (A) (A) (A) (A) (A) (A) (A) (A) (A) (A) (A)
                 (A) (A) (A) (A) (A) (A) (A) (A) (A) (A) (A) (A)
                 (A) (A) (A) (A) (A) (A) (A) (A) (A) (A) (A) (A)
                 (A) (A) (A) (A) (A) (A) (A) (A) (A) (A) (A) (A)
                 (A) (A) (A) (A) (A) (A) (A) (A) (A) (A) (A) (A)
                 (A) (A) (A) (A) (A) (A) (A) (A) (A) (A) (A) (A)
                 (A) (A) (A) (A) (A) (A) (A) (A) (A) (A) (A) (A)
                 (A) (A) (A) (A) (A) (A) (A) (A) (A) (A) (A) (A)
                 (A) (A) (A) (A) (A) (A) (A) (A) (A) (A) (A) (A)
                 (A) (A) (A) (A) (A) (A) (A) (A) (A) (A) (A) (A)
                 (A) (A) (A) (A) (A) (A) (A) (A) (A) (A) (A) (A)
                 (A) (A) (A) (A) (A) (A) (A) (A) (A) (A) (A) (A)
                 (A) (A) (A) (A) (A) (A) (A) (A) (A) (A) (A) (A)
                 (A) (A) (A)
 The electronic state is 1-A.
 Alpha  occ. eigenvalues -- -145.43712 -19.18390 -19.15972 -19.13756 -19.12345
 Alpha  occ. eigenvalues --  -19.10244 -19.10070 -19.09929 -19.07983 -19.07948
 Alpha  occ. eigenvalues --  -19.07499 -19.06853 -19.06742 -19.06587 -19.06568
 Alpha  occ. eigenvalues --  -19.06437 -19.06090 -19.04338 -19.04324 -19.03836
 Alpha  occ. eigenvalues --  -19.02483 -19.01876 -18.98368 -18.96781 -15.49629
 Alpha  occ. eigenvalues --  -14.58702 -14.38717 -14.37646 -14.36776 -14.36484
 Alpha  occ. eigenvalues --  -14.34967 -14.34747 -14.34450 -14.33693 -14.33153
 Alpha  occ. eigenvalues --  -14.31954 -14.31554 -14.30697 -14.30182 -14.28496
 Alpha  occ. eigenvalues --  -12.63254 -12.63228 -12.63110 -10.35340 -10.30741
 Alpha  occ. eigenvalues --  -10.29066 -10.29048 -10.28544 -10.27921 -10.27553
 Alpha  occ. eigenvalues --  -10.27120 -10.26376 -10.26369 -10.26138 -10.25779
 Alpha  occ. eigenvalues --  -10.25466 -10.25380 -10.25205 -10.25102 -10.24954
 Alpha  occ. eigenvalues --  -10.24702 -10.24073 -10.23944 -10.23884 -10.23189
 Alpha  occ. eigenvalues --  -10.23152 -10.22989 -10.22633 -10.22436 -10.22137
 Alpha  occ. eigenvalues --  -10.22081 -10.21781 -10.21433 -10.21312 -10.21204
 Alpha  occ. eigenvalues --  -10.20679 -10.19560 -10.19472 -10.19188 -10.19122
 Alpha  occ. eigenvalues --  -10.18907 -10.18858 -10.18268 -10.18088 -10.18047
 Alpha  occ. eigenvalues --  -10.18032 -10.17636 -10.17161 -10.17038 -10.16829
 Alpha  occ. eigenvalues --  -10.16813 -10.16572 -10.15824 -10.15790 -10.14671
 Alpha  occ. eigenvalues --  -10.13969 -10.10731  -1.86217  -1.14167  -1.13949
 Alpha  occ. eigenvalues --   -1.13644  -1.12894  -1.05264  -1.04774  -1.04332
 Alpha  occ. eigenvalues --   -1.03833  -1.03418  -1.02863  -1.02051  -1.01993
 Alpha  occ. eigenvalues --   -1.01447  -1.01151  -1.00861  -1.00840  -1.00481
 Alpha  occ. eigenvalues --   -0.99506  -0.99156  -0.99019  -0.97645  -0.96374
 Alpha  occ. eigenvalues --   -0.95150  -0.94966  -0.94291  -0.93325  -0.93169
 Alpha  occ. eigenvalues --   -0.92139  -0.91473  -0.91274  -0.90211  -0.90132
 Alpha  occ. eigenvalues --   -0.89977  -0.89817  -0.89315  -0.88965  -0.88192
 Alpha  occ. eigenvalues --   -0.87261  -0.87049  -0.86903  -0.84729  -0.84392
 Alpha  occ. eigenvalues --   -0.82139  -0.81701  -0.81647  -0.80728  -0.78430
 Alpha  occ. eigenvalues --   -0.78255  -0.77225  -0.76446  -0.76120  -0.75167
 Alpha  occ. eigenvalues --   -0.74898  -0.74206  -0.73998  -0.73919  -0.73696
 Alpha  occ. eigenvalues --   -0.72439  -0.72363  -0.71635  -0.70746  -0.69120
 Alpha  occ. eigenvalues --   -0.69096  -0.68894  -0.68774  -0.68322  -0.67771
 Alpha  occ. eigenvalues --   -0.66697  -0.66392  -0.65295  -0.64780  -0.64757
 Alpha  occ. eigenvalues --   -0.63221  -0.63183  -0.62008  -0.61565  -0.61329
 Alpha  occ. eigenvalues --   -0.61058  -0.60773  -0.59861  -0.59549  -0.59008
 Alpha  occ. eigenvalues --   -0.58846  -0.58672  -0.58219  -0.57838  -0.57468
 Alpha  occ. eigenvalues --   -0.57354  -0.57186  -0.56929  -0.56898  -0.56231
 Alpha  occ. eigenvalues --   -0.56068  -0.55691  -0.55121  -0.54931  -0.54432
 Alpha  occ. eigenvalues --   -0.53947  -0.53529  -0.53175  -0.52433  -0.52110
 Alpha  occ. eigenvalues --   -0.51901  -0.51605  -0.51584  -0.51518  -0.51046
 Alpha  occ. eigenvalues --   -0.50574  -0.50277  -0.50167  -0.50024  -0.49657
 Alpha  occ. eigenvalues --   -0.48920  -0.48864  -0.48825  -0.48342  -0.48286
 Alpha  occ. eigenvalues --   -0.47884  -0.47709  -0.47218  -0.47010  -0.46914
 Alpha  occ. eigenvalues --   -0.46785  -0.46613  -0.46461  -0.45853  -0.45750
 Alpha  occ. eigenvalues --   -0.45283  -0.45129  -0.45085  -0.44722  -0.44524
 Alpha  occ. eigenvalues --   -0.44363  -0.44239  -0.44014  -0.43925  -0.43851
 Alpha  occ. eigenvalues --   -0.43651  -0.43489  -0.43318  -0.43266  -0.43002
 Alpha  occ. eigenvalues --   -0.42871  -0.42736  -0.42508  -0.42420  -0.42333
 Alpha  occ. eigenvalues --   -0.42195  -0.42023  -0.41794  -0.41748  -0.41458
 Alpha  occ. eigenvalues --   -0.41179  -0.41134  -0.41005  -0.40830  -0.40685
 Alpha  occ. eigenvalues --   -0.40606  -0.40516  -0.40455  -0.40060  -0.39934
 Alpha  occ. eigenvalues --   -0.39790  -0.39650  -0.39612  -0.39535  -0.39248
 Alpha  occ. eigenvalues --   -0.39198  -0.39085  -0.39059  -0.38945  -0.38682
 Alpha  occ. eigenvalues --   -0.38422  -0.38372  -0.38246  -0.38229  -0.37868
 Alpha  occ. eigenvalues --   -0.37755  -0.37422  -0.37357  -0.37265  -0.37144
 Alpha  occ. eigenvalues --   -0.36836  -0.36762  -0.36540  -0.36483  -0.36368
 Alpha  occ. eigenvalues --   -0.36208  -0.36084  -0.35796  -0.35732  -0.35667
 Alpha  occ. eigenvalues --   -0.35578  -0.35173  -0.34938  -0.34766  -0.34550
 Alpha  occ. eigenvalues --   -0.34536  -0.34375  -0.33966  -0.33874  -0.33799
 Alpha  occ. eigenvalues --   -0.33735  -0.33589  -0.33540  -0.33408  -0.33175
 Alpha  occ. eigenvalues --   -0.32969  -0.32494  -0.32378  -0.32073  -0.31416
 Alpha  occ. eigenvalues --   -0.31352  -0.31264  -0.31212  -0.30197  -0.29942
 Alpha  occ. eigenvalues --   -0.29827  -0.29507  -0.29091  -0.28866  -0.28487
 Alpha  occ. eigenvalues --   -0.27320  -0.27220  -0.26911  -0.26807  -0.26457
 Alpha  occ. eigenvalues --   -0.26090  -0.25793  -0.25713  -0.25641  -0.25421
 Alpha  occ. eigenvalues --   -0.25095  -0.25075  -0.24677  -0.24297  -0.24212
 Alpha  occ. eigenvalues --   -0.24116  -0.23989  -0.23804  -0.23570  -0.23381
 Alpha  occ. eigenvalues --   -0.22959  -0.22543  -0.22193  -0.22159  -0.22075
 Alpha  occ. eigenvalues --   -0.21774  -0.21483  -0.21238  -0.20760  -0.19893
 Alpha  occ. eigenvalues --   -0.19790  -0.19458  -0.19088  -0.17854  -0.17275
 Alpha  occ. eigenvalues --   -0.15384  -0.15084  -0.12388
 Alpha virt. eigenvalues --   -0.11272  -0.04998  -0.04662  -0.04507  -0.01496
 Alpha virt. eigenvalues --   -0.01289  -0.01194  -0.00030   0.00167   0.01130
 Alpha virt. eigenvalues --    0.01515   0.01543   0.01644   0.01822   0.01945
 Alpha virt. eigenvalues --    0.02304   0.02580   0.02742   0.03228   0.03292
 Alpha virt. eigenvalues --    0.03598   0.03746   0.03933   0.04129   0.04547
 Alpha virt. eigenvalues --    0.04635   0.04923   0.05095   0.05557   0.05825
 Alpha virt. eigenvalues --    0.05979   0.06173   0.06350   0.06560   0.06854
 Alpha virt. eigenvalues --    0.06955   0.07347   0.07419   0.07660   0.07747
 Alpha virt. eigenvalues --    0.07839   0.07991   0.08222   0.08450   0.08551
 Alpha virt. eigenvalues --    0.08646   0.08984   0.09096   0.09335   0.09686
 Alpha virt. eigenvalues --    0.09804   0.09973   0.10128   0.10300   0.10573
 Alpha virt. eigenvalues --    0.10737   0.11050   0.11444   0.11526   0.11671
 Alpha virt. eigenvalues --    0.11759   0.11966   0.12124   0.12265   0.12335
 Alpha virt. eigenvalues --    0.12818   0.12923   0.13019   0.13138   0.13251
 Alpha virt. eigenvalues --    0.13300   0.13570   0.13668   0.13888   0.14165
 Alpha virt. eigenvalues --    0.14331   0.14392   0.14452   0.14621   0.14798
 Alpha virt. eigenvalues --    0.14853   0.14996   0.15196   0.15436   0.15633
 Alpha virt. eigenvalues --    0.16107   0.16214   0.16297   0.16428   0.16558
 Alpha virt. eigenvalues --    0.16683   0.16758   0.16927   0.17122   0.17707
 Alpha virt. eigenvalues --    0.17899   0.18055   0.18305   0.18444   0.18597
 Alpha virt. eigenvalues --    0.18641   0.18769   0.19049   0.19131   0.19347
 Alpha virt. eigenvalues --    0.19388   0.19605   0.19772   0.19920   0.20145
 Alpha virt. eigenvalues --    0.20314   0.20890   0.21025   0.21237   0.21532
 Alpha virt. eigenvalues --    0.21800   0.22109   0.22252   0.22416   0.22622
 Alpha virt. eigenvalues --    0.22782   0.23011   0.23162   0.23315   0.23367
 Alpha virt. eigenvalues --    0.23602   0.24046   0.24193   0.24240   0.24384
 Alpha virt. eigenvalues --    0.24407   0.24907   0.25104   0.25330   0.25685
 Alpha virt. eigenvalues --    0.26055   0.26139   0.26387   0.26572   0.26616
 Alpha virt. eigenvalues --    0.26958   0.27182   0.27497   0.27762   0.27889
 Alpha virt. eigenvalues --    0.28321   0.28517   0.28852   0.28937   0.29060
 Alpha virt. eigenvalues --    0.29543   0.29583   0.29678   0.30173   0.30412
 Alpha virt. eigenvalues --    0.30566   0.30733   0.30972   0.31103   0.31384
 Alpha virt. eigenvalues --    0.31825   0.31915   0.32380   0.32427   0.32529
 Alpha virt. eigenvalues --    0.32876   0.32890   0.33058   0.33207   0.33360
 Alpha virt. eigenvalues --    0.33550   0.33913   0.34329   0.34527   0.35242
 Alpha virt. eigenvalues --    0.35304   0.35843   0.35983   0.36173   0.36407
 Alpha virt. eigenvalues --    0.36641   0.36959   0.37312   0.37708   0.38005
 Alpha virt. eigenvalues --    0.38501   0.38862   0.39108   0.39365   0.39541
 Alpha virt. eigenvalues --    0.40024   0.40246   0.40476   0.40719   0.40934
 Alpha virt. eigenvalues --    0.41219   0.41329   0.41435   0.41691   0.42225
 Alpha virt. eigenvalues --    0.42511   0.42568   0.42591   0.42863   0.43499
 Alpha virt. eigenvalues --    0.43510   0.43794   0.44052   0.44292   0.44416
 Alpha virt. eigenvalues --    0.44574   0.44913   0.44964   0.45193   0.45392
 Alpha virt. eigenvalues --    0.45663   0.45892   0.46118   0.46339   0.46598
 Alpha virt. eigenvalues --    0.46638   0.47005   0.47035   0.47267   0.47441
 Alpha virt. eigenvalues --    0.47651   0.47860   0.47966   0.48127   0.48303
 Alpha virt. eigenvalues --    0.48434   0.48598   0.48732   0.49047   0.49417
 Alpha virt. eigenvalues --    0.49475   0.49589   0.49732   0.50161   0.50353
 Alpha virt. eigenvalues --    0.50672   0.50772   0.51029   0.51101   0.51328
 Alpha virt. eigenvalues --    0.51606   0.51724   0.52058   0.52262   0.52573
 Alpha virt. eigenvalues --    0.52635   0.52807   0.52907   0.53179   0.53391
 Alpha virt. eigenvalues --    0.53504   0.53597   0.53793   0.53958   0.54117
 Alpha virt. eigenvalues --    0.54386   0.54478   0.54626   0.54993   0.55102
 Alpha virt. eigenvalues --    0.55476   0.55732   0.55804   0.55931   0.56096
 Alpha virt. eigenvalues --    0.56317   0.56396   0.56822   0.56997   0.57095
 Alpha virt. eigenvalues --    0.57214   0.57653   0.57799   0.57897   0.58143
 Alpha virt. eigenvalues --    0.58569   0.58799   0.58993   0.59157   0.59256
 Alpha virt. eigenvalues --    0.59491   0.59584   0.59657   0.59834   0.59912
 Alpha virt. eigenvalues --    0.59988   0.60101   0.60187   0.60259   0.60454
 Alpha virt. eigenvalues --    0.60556   0.60725   0.60885   0.61164   0.61277
 Alpha virt. eigenvalues --    0.61420   0.61513   0.61563   0.61750   0.61791
 Alpha virt. eigenvalues --    0.61960   0.61993   0.62081   0.62218   0.62398
 Alpha virt. eigenvalues --    0.62558   0.62773   0.62907   0.63006   0.63030
 Alpha virt. eigenvalues --    0.63398   0.63428   0.63531   0.63751   0.63910
 Alpha virt. eigenvalues --    0.64042   0.64057   0.64188   0.64303   0.64369
 Alpha virt. eigenvalues --    0.64509   0.64645   0.64695   0.64983   0.65044
 Alpha virt. eigenvalues --    0.65153   0.65327   0.65406   0.65507   0.65563
 Alpha virt. eigenvalues --    0.65804   0.65907   0.66005   0.66046   0.66233
 Alpha virt. eigenvalues --    0.66405   0.66507   0.66583   0.66655   0.66777
 Alpha virt. eigenvalues --    0.66842   0.67027   0.67085   0.67132   0.67231
 Alpha virt. eigenvalues --    0.67404   0.67516   0.67582   0.67663   0.67817
 Alpha virt. eigenvalues --    0.67906   0.67981   0.68135   0.68179   0.68247
 Alpha virt. eigenvalues --    0.68261   0.68376   0.68577   0.68725   0.68809
 Alpha virt. eigenvalues --    0.68842   0.68907   0.69037   0.69167   0.69412
 Alpha virt. eigenvalues --    0.69465   0.69516   0.69584   0.69639   0.69708
 Alpha virt. eigenvalues --    0.69915   0.70065   0.70184   0.70396   0.70554
 Alpha virt. eigenvalues --    0.70647   0.70730   0.70853   0.70957   0.71032
 Alpha virt. eigenvalues --    0.71294   0.71490   0.71554   0.71793   0.72010
 Alpha virt. eigenvalues --    0.72061   0.72321   0.72338   0.72418   0.72569
 Alpha virt. eigenvalues --    0.72754   0.73165   0.73285   0.73563   0.73740
 Alpha virt. eigenvalues --    0.73809   0.73927   0.74155   0.74276   0.74423
 Alpha virt. eigenvalues --    0.74585   0.74938   0.75045   0.75241   0.75478
 Alpha virt. eigenvalues --    0.75768   0.75967   0.76009   0.76375   0.76547
 Alpha virt. eigenvalues --    0.76729   0.76916   0.76956   0.77104   0.77404
 Alpha virt. eigenvalues --    0.77528   0.77765   0.77926   0.78257   0.78409
 Alpha virt. eigenvalues --    0.78775   0.78995   0.79298   0.79608   0.79850
 Alpha virt. eigenvalues --    0.79920   0.80438   0.80591   0.80769   0.80942
 Alpha virt. eigenvalues --    0.81231   0.81411   0.81792   0.81951   0.82244
 Alpha virt. eigenvalues --    0.82465   0.82571   0.82652   0.83090   0.83467
 Alpha virt. eigenvalues --    0.83532   0.83712   0.83973   0.84106   0.84602
 Alpha virt. eigenvalues --    0.84791   0.85347   0.85530   0.85791   0.85947
 Alpha virt. eigenvalues --    0.86230   0.86443   0.86590   0.86814   0.87195
 Alpha virt. eigenvalues --    0.87402   0.87567   0.87765   0.88120   0.88290
 Alpha virt. eigenvalues --    0.88473   0.88680   0.89312   0.89788   0.89897
 Alpha virt. eigenvalues --    0.90101   0.90264   0.90674   0.91218   0.91539
 Alpha virt. eigenvalues --    0.92015   0.92173   0.92281   0.92699   0.93140
 Alpha virt. eigenvalues --    0.93252   0.93964   0.94173   0.94530   0.94931
 Alpha virt. eigenvalues --    0.95282   0.95356   0.95567   0.95799   0.96232
 Alpha virt. eigenvalues --    0.96413   0.96980   0.97165   0.97355   0.97502
 Alpha virt. eigenvalues --    0.97597   0.98249   0.98348   0.98494   0.98594
 Alpha virt. eigenvalues --    0.98733   0.99105   0.99509   0.99625   0.99684
 Alpha virt. eigenvalues --    0.99911   1.00089   1.00390   1.00927   1.01140
 Alpha virt. eigenvalues --    1.01292   1.01615   1.01770   1.02393   1.02611
 Alpha virt. eigenvalues --    1.02898   1.03315   1.03331   1.03832   1.04232
 Alpha virt. eigenvalues --    1.04514   1.04608   1.05109   1.05284   1.05518
 Alpha virt. eigenvalues --    1.06298   1.06438   1.06790   1.07080   1.07253
 Alpha virt. eigenvalues --    1.07483   1.07591   1.07667   1.08205   1.08285
 Alpha virt. eigenvalues --    1.08493   1.09175   1.09425   1.09555   1.09640
 Alpha virt. eigenvalues --    1.09839   1.10285   1.10384   1.10544   1.10761
 Alpha virt. eigenvalues --    1.10961   1.11054   1.11348   1.11567   1.11778
 Alpha virt. eigenvalues --    1.12303   1.12547   1.12674   1.13017   1.13231
 Alpha virt. eigenvalues --    1.13366   1.13578   1.13934   1.14197   1.14405
 Alpha virt. eigenvalues --    1.14876   1.15157   1.15424   1.15903   1.16172
 Alpha virt. eigenvalues --    1.16306   1.16405   1.16827   1.17145   1.17416
 Alpha virt. eigenvalues --    1.18197   1.18295   1.18626   1.18986   1.19300
 Alpha virt. eigenvalues --    1.19468   1.19904   1.20043   1.20104   1.20363
 Alpha virt. eigenvalues --    1.20581   1.21098   1.21425   1.21690   1.21899
 Alpha virt. eigenvalues --    1.22087   1.22276   1.22535   1.22680   1.22884
 Alpha virt. eigenvalues --    1.23221   1.23260   1.23409   1.23526   1.23843
 Alpha virt. eigenvalues --    1.23874   1.24384   1.24602   1.24739   1.24974
 Alpha virt. eigenvalues --    1.25205   1.25430   1.25608   1.25703   1.26227
 Alpha virt. eigenvalues --    1.26298   1.26751   1.26874   1.27103   1.27717
 Alpha virt. eigenvalues --    1.28210   1.28514   1.28638   1.28821   1.29122
 Alpha virt. eigenvalues --    1.29310   1.29629   1.29858   1.30251   1.30712
 Alpha virt. eigenvalues --    1.30863   1.31408   1.31619   1.32109   1.32217
 Alpha virt. eigenvalues --    1.32329   1.32521   1.32816   1.33105   1.33181
 Alpha virt. eigenvalues --    1.33388   1.33459   1.33732   1.34402   1.34597
 Alpha virt. eigenvalues --    1.35012   1.35209   1.35648   1.35990   1.36024
 Alpha virt. eigenvalues --    1.36509   1.36900   1.36955   1.37317   1.37455
 Alpha virt. eigenvalues --    1.37650   1.38066   1.38623   1.39046   1.39136
 Alpha virt. eigenvalues --    1.39275   1.39434   1.39774   1.40167   1.40296
 Alpha virt. eigenvalues --    1.40667   1.41077   1.41504   1.42199   1.42314
 Alpha virt. eigenvalues --    1.42475   1.42703   1.43410   1.44066   1.44532
 Alpha virt. eigenvalues --    1.44855   1.44921   1.45191   1.45611   1.45691
 Alpha virt. eigenvalues --    1.46065   1.46231   1.46400   1.46783   1.47229
 Alpha virt. eigenvalues --    1.47264   1.47903   1.48366   1.48631   1.48854
 Alpha virt. eigenvalues --    1.49019   1.49623   1.49693   1.49937   1.50077
 Alpha virt. eigenvalues --    1.50192   1.50354   1.50546   1.50799   1.51174
 Alpha virt. eigenvalues --    1.51582   1.51747   1.52035   1.52214   1.52542
 Alpha virt. eigenvalues --    1.52713   1.53068   1.53234   1.53439   1.54007
 Alpha virt. eigenvalues --    1.54310   1.54695   1.55133   1.55487   1.55770
 Alpha virt. eigenvalues --    1.56487   1.56748   1.57284   1.57898   1.58175
 Alpha virt. eigenvalues --    1.58668   1.58862   1.59121   1.59212   1.59759
 Alpha virt. eigenvalues --    1.59976   1.60134   1.60455   1.61218   1.61331
 Alpha virt. eigenvalues --    1.61396   1.61816   1.62821   1.63303   1.63310
 Alpha virt. eigenvalues --    1.63454   1.63597   1.63784   1.64372   1.64730
 Alpha virt. eigenvalues --    1.64941   1.65763   1.65955   1.66095   1.66316
 Alpha virt. eigenvalues --    1.66669   1.66812   1.67226   1.67532   1.67607
 Alpha virt. eigenvalues --    1.67750   1.68217   1.68474   1.68782   1.68992
 Alpha virt. eigenvalues --    1.69610   1.69785   1.69795   1.70246   1.70709
 Alpha virt. eigenvalues --    1.70967   1.71676   1.71754   1.71894   1.72263
 Alpha virt. eigenvalues --    1.72392   1.72636   1.72670   1.73178   1.73268
 Alpha virt. eigenvalues --    1.73471   1.73670   1.73719   1.73848   1.73995
 Alpha virt. eigenvalues --    1.74163   1.74320   1.74804   1.75078   1.75404
 Alpha virt. eigenvalues --    1.75762   1.75830   1.76056   1.76156   1.76274
 Alpha virt. eigenvalues --    1.76316   1.76421   1.76636   1.76657   1.77060
 Alpha virt. eigenvalues --    1.77158   1.77332   1.77510   1.77809   1.78052
 Alpha virt. eigenvalues --    1.78147   1.78237   1.78296   1.78331   1.78640
 Alpha virt. eigenvalues --    1.78726   1.79043   1.79152   1.79380   1.79490
 Alpha virt. eigenvalues --    1.79719   1.79753   1.80085   1.80507   1.80573
 Alpha virt. eigenvalues --    1.80719   1.80799   1.81059   1.81137   1.81286
 Alpha virt. eigenvalues --    1.81444   1.81602   1.81701   1.81976   1.82043
 Alpha virt. eigenvalues --    1.82219   1.82479   1.82528   1.82771   1.82932
 Alpha virt. eigenvalues --    1.83154   1.83269   1.83628   1.83656   1.83847
 Alpha virt. eigenvalues --    1.83880   1.83990   1.84287   1.84501   1.84700
 Alpha virt. eigenvalues --    1.84950   1.85077   1.85207   1.85478   1.85669
 Alpha virt. eigenvalues --    1.85847   1.86062   1.86311   1.86410   1.86727
 Alpha virt. eigenvalues --    1.86928   1.87194   1.87305   1.87517   1.87528
 Alpha virt. eigenvalues --    1.88171   1.88201   1.88398   1.88698   1.88940
 Alpha virt. eigenvalues --    1.89287   1.89384   1.89394   1.89481   1.89961
 Alpha virt. eigenvalues --    1.90130   1.90385   1.90698   1.90750   1.90891
 Alpha virt. eigenvalues --    1.91036   1.91311   1.91331   1.91441   1.91786
 Alpha virt. eigenvalues --    1.91923   1.92017   1.92238   1.92440   1.92556
 Alpha virt. eigenvalues --    1.92906   1.92976   1.93743   1.93829   1.93850
 Alpha virt. eigenvalues --    1.93952   1.94204   1.94235   1.94527   1.94619
 Alpha virt. eigenvalues --    1.94818   1.95087   1.95661   1.95970   1.95995
 Alpha virt. eigenvalues --    1.96408   1.96489   1.96732   1.96973   1.97497
 Alpha virt. eigenvalues --    1.97662   1.97819   1.98390   1.98572   1.98843
 Alpha virt. eigenvalues --    1.98987   1.99026   1.99476   1.99630   1.99936
 Alpha virt. eigenvalues --    2.00039   2.00114   2.00213   2.00502   2.00885
 Alpha virt. eigenvalues --    2.01416   2.01572   2.01756   2.01961   2.02111
 Alpha virt. eigenvalues --    2.02323   2.02645   2.02676   2.02974   2.03016
 Alpha virt. eigenvalues --    2.03173   2.03551   2.03859   2.03975   2.04236
 Alpha virt. eigenvalues --    2.04512   2.04818   2.05095   2.05238   2.05434
 Alpha virt. eigenvalues --    2.05831   2.05957   2.06231   2.06678   2.06904
 Alpha virt. eigenvalues --    2.07447   2.07516   2.07971   2.08223   2.08676
 Alpha virt. eigenvalues --    2.08729   2.08820   2.08949   2.09243   2.09816
 Alpha virt. eigenvalues --    2.09946   2.10050   2.10309   2.10695   2.10910
 Alpha virt. eigenvalues --    2.11195   2.11202   2.11635   2.11882   2.12276
 Alpha virt. eigenvalues --    2.12320   2.12673   2.12851   2.13237   2.13258
 Alpha virt. eigenvalues --    2.13694   2.13881   2.14027   2.14534   2.14659
 Alpha virt. eigenvalues --    2.14788   2.14837   2.14981   2.15208   2.15790
 Alpha virt. eigenvalues --    2.16055   2.16249   2.16696   2.16803   2.17159
 Alpha virt. eigenvalues --    2.17345   2.17945   2.18225   2.18286   2.18477
 Alpha virt. eigenvalues --    2.18979   2.19161   2.19300   2.20603   2.20909
 Alpha virt. eigenvalues --    2.21162   2.21384   2.21547   2.21636   2.21791
 Alpha virt. eigenvalues --    2.22378   2.22536   2.22752   2.23045   2.23094
 Alpha virt. eigenvalues --    2.23330   2.23575   2.23688   2.24033   2.24227
 Alpha virt. eigenvalues --    2.24563   2.24813   2.25207   2.25608   2.26261
 Alpha virt. eigenvalues --    2.26942   2.27215   2.27768   2.27880   2.28461
 Alpha virt. eigenvalues --    2.29474   2.29738   2.30099   2.30339   2.30600
 Alpha virt. eigenvalues --    2.30940   2.30958   2.31433   2.31691   2.31804
 Alpha virt. eigenvalues --    2.31971   2.32432   2.32663   2.33250   2.33417
 Alpha virt. eigenvalues --    2.33438   2.33807   2.34113   2.34522   2.34952
 Alpha virt. eigenvalues --    2.35239   2.35419   2.35806   2.35912   2.36283
 Alpha virt. eigenvalues --    2.36820   2.37382   2.37639   2.37896   2.38162
 Alpha virt. eigenvalues --    2.38493   2.38687   2.38720   2.39133   2.39831
 Alpha virt. eigenvalues --    2.40097   2.40638   2.40897   2.41436   2.41581
 Alpha virt. eigenvalues --    2.41752   2.42381   2.42810   2.43053   2.43519
 Alpha virt. eigenvalues --    2.43715   2.44791   2.45036   2.45310   2.45598
 Alpha virt. eigenvalues --    2.45918   2.45934   2.46133   2.46772   2.46925
 Alpha virt. eigenvalues --    2.47191   2.47219   2.47305   2.47620   2.48055
 Alpha virt. eigenvalues --    2.48600   2.49294   2.49521   2.50104   2.50244
 Alpha virt. eigenvalues --    2.50361   2.50733   2.51241   2.51552   2.51861
 Alpha virt. eigenvalues --    2.52727   2.53057   2.53341   2.53639   2.53867
 Alpha virt. eigenvalues --    2.54215   2.55032   2.55479   2.55977   2.56263
 Alpha virt. eigenvalues --    2.56552   2.57169   2.57383   2.57944   2.57977
 Alpha virt. eigenvalues --    2.58226   2.58669   2.58827   2.59261   2.59359
 Alpha virt. eigenvalues --    2.59449   2.59682   2.59960   2.60156   2.60595
 Alpha virt. eigenvalues --    2.60730   2.60911   2.61134   2.61378   2.62037
 Alpha virt. eigenvalues --    2.62142   2.62351   2.62692   2.63612   2.63627
 Alpha virt. eigenvalues --    2.63777   2.63935   2.64264   2.65013   2.65060
 Alpha virt. eigenvalues --    2.65450   2.65541   2.66701   2.66989   2.67201
 Alpha virt. eigenvalues --    2.67259   2.67560   2.68208   2.68332   2.68668
 Alpha virt. eigenvalues --    2.68861   2.68905   2.69015   2.69422   2.69615
 Alpha virt. eigenvalues --    2.69841   2.70695   2.70793   2.70932   2.71129
 Alpha virt. eigenvalues --    2.71178   2.72018   2.72170   2.72442   2.72640
 Alpha virt. eigenvalues --    2.73169   2.73354   2.73583   2.74228   2.74344
 Alpha virt. eigenvalues --    2.74554   2.74651   2.75206   2.75291   2.75412
 Alpha virt. eigenvalues --    2.75972   2.76461   2.76751   2.76857   2.77139
 Alpha virt. eigenvalues --    2.77230   2.77553   2.77781   2.77905   2.78037
 Alpha virt. eigenvalues --    2.78360   2.79252   2.79666   2.79939   2.80021
 Alpha virt. eigenvalues --    2.80288   2.80500   2.80573   2.80646   2.80818
 Alpha virt. eigenvalues --    2.80846   2.81135   2.81562   2.81914   2.81936
 Alpha virt. eigenvalues --    2.82175   2.82584   2.82804   2.83094   2.83199
 Alpha virt. eigenvalues --    2.83484   2.83872   2.83950   2.84161   2.84465
 Alpha virt. eigenvalues --    2.85198   2.85480   2.85656   2.85843   2.86238
 Alpha virt. eigenvalues --    2.86566   2.86662   2.87250   2.87605   2.88281
 Alpha virt. eigenvalues --    2.88424   2.88587   2.88691   2.88914   2.89285
 Alpha virt. eigenvalues --    2.89468   2.89690   2.89723   2.90297   2.91032
 Alpha virt. eigenvalues --    2.91383   2.91694   2.91783   2.92062   2.92188
 Alpha virt. eigenvalues --    2.92289   2.92786   2.93141   2.93279   2.93488
 Alpha virt. eigenvalues --    2.94008   2.94871   2.95154   2.95222   2.95570
 Alpha virt. eigenvalues --    2.95793   2.96057   2.96137   2.96604   2.96763
 Alpha virt. eigenvalues --    2.97065   2.97265   2.97375   2.98109   2.98636
 Alpha virt. eigenvalues --    2.98734   2.98871   2.99053   2.99736   2.99910
 Alpha virt. eigenvalues --    3.00045   3.00266   3.00594   3.00853   3.01052
 Alpha virt. eigenvalues --    3.01177   3.01860   3.02145   3.02364   3.02415
 Alpha virt. eigenvalues --    3.02611   3.03302   3.03727   3.03907   3.04748
 Alpha virt. eigenvalues --    3.04815   3.05254   3.05462   3.05658   3.05784
 Alpha virt. eigenvalues --    3.06699   3.07152   3.08034   3.08178   3.08744
 Alpha virt. eigenvalues --    3.09202   3.10313   3.10427   3.10688   3.10944
 Alpha virt. eigenvalues --    3.11630   3.11811   3.12917   3.13401   3.13787
 Alpha virt. eigenvalues --    3.14243   3.14551   3.14712   3.15208   3.15572
 Alpha virt. eigenvalues --    3.16730   3.16776   3.16830   3.17160   3.17843
 Alpha virt. eigenvalues --    3.17907   3.18330   3.18480   3.18840   3.19354
 Alpha virt. eigenvalues --    3.19378   3.19840   3.20006   3.20282   3.20324
 Alpha virt. eigenvalues --    3.21182   3.21331   3.21382   3.22319   3.22686
 Alpha virt. eigenvalues --    3.22958   3.23115   3.23778   3.24004   3.24548
 Alpha virt. eigenvalues --    3.25951   3.26346   3.26441   3.26695   3.26767
 Alpha virt. eigenvalues --    3.27428   3.27445   3.28359   3.29432   3.30706
 Alpha virt. eigenvalues --    3.31497   3.32812   3.33547   3.34793   3.34971
 Alpha virt. eigenvalues --    3.36393   3.36580   3.38227   3.38710   3.41545
 Alpha virt. eigenvalues --    3.42002   3.42428   3.46335   3.48255   3.49788
 Alpha virt. eigenvalues --    3.50733   3.52638   3.53579   3.54074   3.55576
 Alpha virt. eigenvalues --    3.56412   3.57570   3.57662   3.57987   3.59094
 Alpha virt. eigenvalues --    3.59353   3.59934   3.60050   3.61574   3.63313
 Alpha virt. eigenvalues --    3.66367   3.66384   3.67390   3.67874   3.68349
 Alpha virt. eigenvalues --    3.68614   3.68815   3.69698   3.69759   3.69905
 Alpha virt. eigenvalues --    3.69981   3.70683   3.70776   3.71067   3.71941
 Alpha virt. eigenvalues --    3.72568   3.73031   3.73657   3.74636   3.76018
 Alpha virt. eigenvalues --    3.77474   3.78101   3.79950   3.82331
          Condensed to atoms (all electrons):
 Mulliken charges:
               1
     1  C    0.071248
     2  C   -0.005771
     3  O   -0.306317
     4  H    0.022156
     5  H   -0.006727
     6  H    0.046796
     7  N   -0.119519
     8  C    0.132393
     9  C    0.054490
    10  O   -0.339096
    11  C    0.092340
    12  C    0.057087
    13  O   -0.414057
    14  O   -0.344815
    15  H    0.116638
    16  H    0.002154
    17  H   -0.017952
    18  H    0.012252
    19  N   -0.107750
    20  C    0.161884
    21  C    0.077544
    22  O   -0.262296
    23  C    0.043541
    24  C   -0.035747
    25  C    0.011552
    26  C   -0.033910
    27  N    0.130432
    28  H    0.112451
    29  H   -0.049759
    30  H    0.046884
    31  H   -0.007624
    32  H   -0.004762
    33  H    0.048524
    34  H    0.053516
    35  H    0.015891
    36  H    0.068593
    37  H    0.081136
    38  H    0.171618
    39  H    0.173986
    40  H    0.160374
    41  N   -0.164581
    42  C    0.089524
    43  C    0.099320
    44  O   -0.264330
    45  C    0.152454
    46  C    0.021232
    47  O   -0.385297
    48  O   -0.430438
    49  H    0.105688
    50  H    0.019136
    51  H   -0.026319
    52  H    0.035567
    53  N   -0.125639
    54  C    0.167383
    55  C    0.074523
    56  O   -0.258875
    57  H    0.099292
    58  H    0.011057
    59  H    0.037806
    60  N   -0.093663
    61  C    0.049429
    62  C    0.076652
    63  O   -0.260534
    64  C    0.044806
    65  C    0.037352
    66  N   -0.075564
    67  O   -0.231641
    68  H    0.122898
    69  H   -0.004618
    70  H    0.035144
    71  H   -0.017630
    72  H    0.135578
    73  H    0.131052
    74  N   -0.132729
    75  C    0.182925
    76  C    0.017312
    77  O   -0.281982
    78  H    0.133437
    79  H    0.061917
    80  H    0.059945
    81  N   -0.098050
    82  C    0.052078
    83  C    0.120068
    84  O   -0.287940
    85  C    0.131831
    86  C    0.018206
    87  C   -0.027146
    88  C   -0.032290
    89  C   -0.011225
    90  C   -0.039785
    91  C    0.144804
    92  O   -0.190682
    93  H    0.124264
    94  H   -0.001518
    95  H   -0.001231
    96  H   -0.003214
    97  H   -0.012298
    98  H   -0.028679
    99  H   -0.021520
   100  H   -0.032518
   101  H    0.168391
   102  N   -0.139069
   103  C    0.177424
   104  C    0.041435
   105  O   -0.294468
   106  C   -0.108551
   107  C    0.039770
   108  C    0.006318
   109  C    0.028126
   110  H    0.123521
   111  H    0.027486
   112  H   -0.003989
   113  H    0.021734
   114  H   -0.008197
   115  H    0.015302
   116  H    0.015983
   117  H    0.053913
   118  H   -0.010099
   119  H    0.035390
   120  H   -0.003905
   121  N   -0.099719
   122  C    0.031253
   123  C    0.108837
   124  O   -0.289425
   125  C    0.296468
   126  O   -0.298373
   127  H    0.110655
   128  H   -0.011281
   129  H    0.000564
   130  H   -0.018880
   131  H    0.168187
   132  N   -0.115865
   133  C    0.066063
   134  C    0.067672
   135  O   -0.237762
   136  C    0.035133
   137  H    0.132155
   138  H    0.011006
   139  H    0.031853
   140  H    0.020043
   141  H    0.016623
   142  N   -0.147916
   143  C    0.055008
   144  C    0.098617
   145  O   -0.247362
   146  C    0.060577
   147  H    0.104015
   148  H    0.008532
   149  H    0.031440
   150  H    0.025419
   151  H   -0.008836
   152  N   -0.117914
   153  C    0.116530
   154  C    0.060248
   155  O   -0.279577
   156  C    0.017307
   157  C    0.144122
   158  C    0.066404
   159  O   -0.413774
   160  O   -0.420853
   161  H    0.102860
   162  H    0.015796
   163  H    0.022128
   164  H   -0.027947
   165  H   -0.018697
   166  H    0.007124
   167  N   -0.165382
   168  C    0.130995
   169  H    0.024183
   170  H    0.042743
   171  H    0.012837
   172  H    0.105828
   173  Ca   1.345258
   174  O   -0.327644
   175  H    0.215217
   176  H    0.190861
 Sum of Mulliken charges =  -0.00000
 Mulliken charges with hydrogens summed into heavy atoms:
               1
     1  C    0.133474
     2  C   -0.005771
     3  O   -0.306317
     7  N   -0.002881
     8  C    0.134547
     9  C    0.054490
    10  O   -0.339096
    11  C    0.086640
    12  C    0.057087
    13  O   -0.414057
    14  O   -0.344815
    19  N    0.004701
    20  C    0.112125
    21  C    0.077544
    22  O   -0.262296
    23  C    0.082802
    24  C    0.008015
    25  C    0.080958
    26  C    0.115819
    27  N    0.636410
    41  N   -0.058893
    42  C    0.108660
    43  C    0.099320
    44  O   -0.264330
    45  C    0.161703
    46  C    0.021232
    47  O   -0.385297
    48  O   -0.430438
    53  N   -0.026346
    54  C    0.216246
    55  C    0.074523
    56  O   -0.258875
    60  N    0.029235
    61  C    0.044810
    62  C    0.076652
    63  O   -0.260534
    64  C    0.062320
    65  C    0.037352
    66  N    0.191067
    67  O   -0.231641
    74  N    0.000708
    75  C    0.304787
    76  C    0.017312
    77  O   -0.281982
    81  N    0.026213
    82  C    0.050559
    83  C    0.120068
    84  O   -0.287940
    85  C    0.127387
    86  C    0.018206
    87  C   -0.039443
    88  C   -0.060970
    89  C   -0.032745
    90  C   -0.072303
    91  C    0.144804
    92  O   -0.022291
   102  N   -0.015549
   103  C    0.204909
   104  C    0.041435
   105  O   -0.294468
   106  C   -0.112539
   107  C    0.053307
   108  C    0.091517
   109  C    0.049512
   121  N    0.010936
   122  C    0.019972
   123  C    0.108837
   124  O   -0.289425
   125  C    0.278152
   126  O   -0.130186
   132  N    0.016291
   133  C    0.077069
   134  C    0.067672
   135  O   -0.237762
   136  C    0.103652
   142  N   -0.043901
   143  C    0.063540
   144  C    0.098617
   145  O   -0.247362
   146  C    0.108599
   152  N   -0.015054
   153  C    0.132326
   154  C    0.060248
   155  O   -0.279577
   156  C    0.011488
   157  C    0.132550
   158  C    0.066404
   159  O   -0.413774
   160  O   -0.420853
   167  N   -0.059553
   168  C    0.210758
   173  Ca   1.345258
   174  O    0.078435
 DipInt: DoE/N= T F RetVal/Mat= T F Init=T NMatP=  1 IDeriv=0 Min/MaxMlt=  0  4
 Entering OneElI...
 OneElI was handed  1333951383 working-precision words.
 Multipole integrals L=0 to 4 MinM= 0 MaxM= 0.
 Requested accuracy = 0.1000D-12
 ShPair: Thresh= 1.00D-13 NBox=     0 BxSize= 0.00D+00 RnKept= 2.58D+01
         NSMCal=               327645 NSMKep=              133530
 PrmmSu-InSpLW:  IPartL=    0 NPrtUS=    1 NPrtUL=    1 DoSpLW=F IThBeg=    0 IThEnd=    0 NThAct=    1.
 PrsmSu:  NPrtUS=   1 ThrOK=F IAlg=1 NPAlg=1 LenDen=           0 ISkipM=0 DoSpLW=F IThBeg=    0 IThEnd=    0.
 Prism:   IPart=     0 DynPar=F LinDyn=F Incr=         512.
 PRISM was handed  1324955945 working-precision words and133530 shell-pairs
 IPart=  0 NShTot=      133530 NBatch=         309 AvBLen=       432.1
 PrsmSu-ThDecC:  IPartSL=    0    0 NPrtUSL=    1    1 IThBeg=    0 IThEnd=    0 CPU=   -1 GPU=   -1 NThAct=    1.
 PrSmSu:  NxtVal=            513.
 Electronic moments (au):
       -716.00000000          2.25288711        -12.84322173          4.75741087
     -75308.61778736     -31248.62595818     -18151.20850259       -244.78554920
         32.68651818        -16.20002363    -122103.86361501      -7569.31311976
     -27653.58698145      48408.10811539     192516.92598672     -16869.38119163
        115.48949592     -31902.01959239     -44946.44083240     -18619.16062003
  -16770494.21075509   -2737890.51412415   -1187326.61657202    1077830.14052934
   -1243981.99148299     -49063.05291599    -247401.76387989     216318.50658593
    -127734.23947656   -3084033.42195073   -1217714.32146734    -783810.68709009
     283284.43303597     252959.42006097      70929.63881970
 Electronic spatial extent (au):  <R**2>=         124708.4522
 DipInt: DoE/N= F T RetVal/Mat= T F Init=T NMatP=  1 IDeriv=0 Min/MaxMlt=  0  4
 Nuclear    moments (au):
        716.00000000          0.00000000         -0.00000000          0.00000000
      75212.25873884      30922.75161329      17705.85922883          0.00000000
         -0.00000000         -0.00000000     127116.53681000       6671.59985104
      28065.78048178     -46621.00253288    -198792.73380826      17830.70966660
       -474.54780666      31749.34424927      45355.54152467      17864.93489551
   16706969.69784511    2642991.48175329    1124589.53131233   -1176007.10786175
    1259798.86772838      22710.93267976     247766.31767703    -215267.59764817
     128854.96698031    3068491.67129145    1163290.62647819     757594.44848169
    -298620.71029642    -249543.28600953     -73695.70431022
 Total      moments (au):
         -0.00000000          2.25288711        -12.84322173          4.75741087
        -96.35904852       -325.87434489       -445.34927377       -244.78554920
         32.68651818        -16.20002363       5012.67319500       -897.71326872
        412.19350033       1787.10558251      -6275.80782154        961.32847497
       -359.05831074       -152.67534311        409.10069227       -754.22572451
     -63524.51290998     -94899.03237086     -62737.08525970     -98176.96733242
      15816.87624539     -26352.12023623        364.55379715       1050.90893777
       1120.72750375     -15541.75065928     -54423.69498915     -26216.23860840
     -15336.27726045       3416.13405143      -2766.06549052
 Traceless Quadrup. (au):
        192.83517387        -36.68012250       -156.15505137       -244.78554920
         32.68651818        -16.20002363
 Charge=             -0.0000 electrons
 Dipole moment (field-independent basis, Debye):
    X=              5.7263    Y=            -32.6442    Z=             12.0921  Tot=             35.2797
 Quadrupole moment (field-independent basis, Debye-Ang):
   XX=           -129.6062   YY=           -438.3122   ZZ=           -599.0100
   XY=           -329.2449   XZ=             43.9645   YZ=            -21.7896
 Traceless Quadrupole moment (field-independent basis, Debye-Ang):
   XX=            259.3699   YY=            -49.3360   ZZ=           -210.0339
   XY=           -329.2449   XZ=             43.9645   YZ=            -21.7896
 Octapole moment (field-independent basis, Debye-Ang**2):
  XXX=           3567.8277  YYY=           -638.9577  ZZZ=            293.3835  XYY=           1271.9929
  XXY=          -4466.8782  XXZ=            684.2366  XZZ=           -255.5639  YZZ=           -108.6684
  YYZ=            291.1821  XYZ=           -536.8288
 Hexadecapole moment (field-independent basis, Debye-Ang**3):
 XXXX=         -23926.3777 YYYY=         -35743.5262 ZZZZ=         -23629.7947 XXXY=         -36978.1536
 XXXZ=           5957.3940 YYYX=          -9925.4721 YYYZ=            137.3084 ZZZX=            395.8227
 ZZZY=            422.1197 XXYY=          -5853.7685 XXZZ=         -20498.5732 YYZZ=          -9874.2926
 XXYZ=          -5776.3774 YYXZ=           1286.6799 ZZXY=          -1041.8329
 N-N= 1.958652089064D+04 E-N=-5.165920028077D+04  KE= 5.290584257113D+03
 Leave Link  601 at Wed Sep 18 16:54:31 2019, MaxMem=  1342177280 cpu:              50.6 elap:               1.3
 FitSet:  NAtFit=   176 NAtPot=   176 NAtFrz=     0 MDM=   180 TotChg=   0.00000
 Merz-Kollman atomic radii used.
 Read replacement radii for each type of atom:
 Rad(20) =   1.700000000000D+00
 Atom Element Radius
    1     6    1.50
    2     6    1.50
    3     8    1.40
    4     1    1.20
    5     1    1.20
    6     1    1.20
    7     7    1.50
    8     6    1.50
    9     6    1.50
   10     8    1.40
   11     6    1.50
   12     6    1.50
   13     8    1.40
   14     8    1.40
   15     1    1.20
   16     1    1.20
   17     1    1.20
   18     1    1.20
   19     7    1.50
   20     6    1.50
   21     6    1.50
   22     8    1.40
   23     6    1.50
   24     6    1.50
   25     6    1.50
   26     6    1.50
   27     7    1.50
   28     1    1.20
   29     1    1.20
   30     1    1.20
   31     1    1.20
   32     1    1.20
   33     1    1.20
   34     1    1.20
   35     1    1.20
   36     1    1.20
   37     1    1.20
   38     1    1.20
   39     1    1.20
   40     1    1.20
   41     7    1.50
   42     6    1.50
   43     6    1.50
   44     8    1.40
   45     6    1.50
   46     6    1.50
   47     8    1.40
   48     8    1.40
   49     1    1.20
   50     1    1.20
   51     1    1.20
   52     1    1.20
   53     7    1.50
   54     6    1.50
   55     6    1.50
   56     8    1.40
   57     1    1.20
   58     1    1.20
   59     1    1.20
   60     7    1.50
   61     6    1.50
   62     6    1.50
   63     8    1.40
   64     6    1.50
   65     6    1.50
   66     7    1.50
   67     8    1.40
   68     1    1.20
   69     1    1.20
   70     1    1.20
   71     1    1.20
   72     1    1.20
   73     1    1.20
   74     7    1.50
   75     6    1.50
   76     6    1.50
   77     8    1.40
   78     1    1.20
   79     1    1.20
   80     1    1.20
   81     7    1.50
   82     6    1.50
   83     6    1.50
   84     8    1.40
   85     6    1.50
   86     6    1.50
   87     6    1.50
   88     6    1.50
   89     6    1.50
   90     6    1.50
   91     6    1.50
   92     8    1.40
   93     1    1.20
   94     1    1.20
   95     1    1.20
   96     1    1.20
   97     1    1.20
   98     1    1.20
   99     1    1.20
  100     1    1.20
  101     1    1.20
  102     7    1.50
  103     6    1.50
  104     6    1.50
  105     8    1.40
  106     6    1.50
  107     6    1.50
  108     6    1.50
  109     6    1.50
  110     1    1.20
  111     1    1.20
  112     1    1.20
  113     1    1.20
  114     1    1.20
  115     1    1.20
  116     1    1.20
  117     1    1.20
  118     1    1.20
  119     1    1.20
  120     1    1.20
  121     7    1.50
  122     6    1.50
  123     6    1.50
  124     8    1.40
  125     6    1.50
  126     8    1.40
  127     1    1.20
  128     1    1.20
  129     1    1.20
  130     1    1.20
  131     1    1.20
  132     7    1.50
  133     6    1.50
  134     6    1.50
  135     8    1.40
  136     6    1.50
  137     1    1.20
  138     1    1.20
  139     1    1.20
  140     1    1.20
  141     1    1.20
  142     7    1.50
  143     6    1.50
[...]
 **** Fit       0.009034
 **** Fit       0.009643
 **** Fit       0.009919
 **** Fit       0.005413
 **** Fit       0.006639
 **** Fit       0.007853
 **** Fit       0.008947
 **** Fit       0.009844
 **** Fit       0.010493
 **** Fit       0.010866
 **** Fit       0.010962
 **** Fit       0.003982
 **** Fit       0.005246
 **** Fit       0.006585
 **** Fit       0.007896
 **** Fit       0.009106
 **** Fit       0.010153
 **** Fit       0.010997
 **** Fit       0.011606
 **** Fit       0.011965
 **** Fit       0.012070
 **** Fit       0.011942
 **** Fit       0.003810
 **** Fit       0.005187
 **** Fit       0.006592
 **** Fit       0.007962
 **** Fit       0.009245
 **** Fit       0.010398
 **** Fit       0.011387
 **** Fit       0.012188
 **** Fit       0.012780
 **** Fit       0.013151
 **** Fit       0.013289
 **** Fit       0.013200
 **** Fit       0.002917
 **** Fit       0.004423
 **** Fit       0.005952
 **** Fit       0.007453
 **** Fit       0.008891
 **** Fit       0.010228
 **** Fit       0.011429
 **** Fit       0.012471
 **** Fit       0.013332
 **** Fit       0.013997
 **** Fit       0.014445
 **** Fit       0.014658
 **** Fit       0.014622
 **** Fit       0.003705
 **** Fit       0.005341
 **** Fit       0.006937
 **** Fit       0.008481
 **** Fit       0.009949
 **** Fit       0.011314
 **** Fit       0.012552
 **** Fit       0.013646
 **** Fit       0.014581
 **** Fit       0.015340
 **** Fit       0.015898
 **** Fit       0.016225
 **** Fit       0.016289
 **** Fit       0.003399
 **** Fit       0.005187
 **** Fit       0.006899
 **** Fit       0.008547
 **** Fit       0.010125
 **** Fit       0.011614
 **** Fit       0.012997
 **** Fit       0.014261
 **** Fit       0.015398
 **** Fit       0.016394
 **** Fit       0.017222
 **** Fit       0.017845
 **** Fit       0.018209
 **** Fit       0.003998
 **** Fit       0.006010
 **** Fit       0.007902
 **** Fit       0.009702
 **** Fit       0.011415
 **** Fit       0.013034
 **** Fit       0.014555
 **** Fit       0.015977
 **** Fit       0.017295
 **** Fit       0.018488
 **** Fit       0.019511
 **** Fit       0.020291
 **** Fit       0.020727
 **** Fit       0.005423
 **** Fit       0.007686
 **** Fit       0.009785
 **** Fit       0.011761
 **** Fit       0.013635
 **** Fit       0.015426
 **** Fit       0.017153
 **** Fit       0.018827
 **** Fit       0.020427
 **** Fit       0.021893
 **** Fit       0.023108
 **** Fit       0.007479
 **** Fit       0.009982
 **** Fit       0.012287
 **** Fit       0.014460
 **** Fit       0.016563
 **** Fit       0.018655
 **** Fit       0.020776
 **** Fit       0.022923
 **** Fit       0.025020
 **** Fit       0.014737
 **** Fit       0.017439
 **** Fit       0.024562
 **** Fit       0.025604
 **** Fit       0.026382
 **** Fit       0.026732
 **** Fit       0.014755
 **** Fit       0.016980
 **** Fit       0.018859
 **** Fit       0.020548
 **** Fit       0.022175
 **** Fit       0.023801
 **** Fit       0.025397
 **** Fit       0.026840
 **** Fit       0.027926
 **** Fit       0.028391
 **** Fit       0.012407
 **** Fit       0.014428
 **** Fit       0.016131
 **** Fit       0.017742
 **** Fit       0.019460
 **** Fit       0.021406
 **** Fit       0.023585
 **** Fit       0.025878
 **** Fit       0.028064
 **** Fit       0.029851
 **** Fit       0.030908
 **** Fit       0.009078
 **** Fit       0.011019
 **** Fit       0.012440
 **** Fit       0.013693
 **** Fit       0.015157
 **** Fit       0.017130
 **** Fit       0.019745
 **** Fit       0.022925
 **** Fit       0.026406
 **** Fit       0.029804
 **** Fit       0.006277
 **** Fit       0.007878
 **** Fit       0.008651
 **** Fit       0.009123
 **** Fit       0.009964
 **** Fit       0.011783
 **** Fit       0.014915
 **** Fit       0.019293
 **** Fit       0.024498
 **** Fit       0.004402
 **** Fit      -0.037117
 **** Fit      -0.000877
 **** Fit       0.041754
 **** Fit      -0.039830
 **** Fit       0.004134
 **** Fit       0.014194
 **** Fit       0.021885
 **** Fit       0.027829
 **** Fit       0.032497
 **** Fit       0.036246
 **** Fit       0.039335
 **** Fit       0.041943
 **** Fit       0.044169
 **** Fit       0.046032
 **** Fit       0.047452
 **** Fit       0.048230
 **** Fit       0.048001
 **** Fit       0.046159
 **** Fit      -0.038365
 **** Fit      -0.042913
 **** Fit       0.002404
 **** Fit       0.013387
 **** Fit       0.021742
 **** Fit       0.028091
 **** Fit       0.032903
 **** Fit       0.036536
 **** Fit       0.039268
 **** Fit       0.041316
 **** Fit       0.042849
 **** Fit       0.044000
 **** Fit       0.044857
 **** Fit       0.045458
 **** Fit       0.045754
 **** Fit       0.045571
 **** Fit       0.044513
 **** Fit       0.001154
 **** Fit       0.012404
 **** Fit       0.020992
 **** Fit       0.027483
 **** Fit       0.032302
 **** Fit       0.035781
 **** Fit       0.038178
 **** Fit       0.039708
 **** Fit       0.040561
 **** Fit       0.040913
 **** Fit       0.040943
 **** Fit       0.040836
 **** Fit       0.040771
 **** Fit       0.040900
 **** Fit       0.041315
 **** Fit       0.008567
 **** Fit       0.017813
 **** Fit       0.024819
 **** Fit       0.029980
 **** Fit       0.033603
 **** Fit       0.035929
 **** Fit       0.037160
 **** Fit       0.037472
 **** Fit       0.037043
 **** Fit       0.036074
 **** Fit       0.034816
 **** Fit       0.033583
 **** Fit       0.032757
 **** Fit       0.005273
 **** Fit       0.014653
 **** Fit       0.021860
 **** Fit       0.027195
 **** Fit       0.030902
 **** Fit       0.033175
 **** Fit       0.034172
 **** Fit       0.034028
 **** Fit       0.032875
 **** Fit       0.030870
 **** Fit       0.028231
 **** Fit       0.006339
 **** Fit       0.014858
 **** Fit       0.021394
 **** Fit       0.026120
 **** Fit       0.029185
 **** Fit       0.030713
 **** Fit       0.030797
 **** Fit       0.029513
 **** Fit       0.026932
 **** Fit       0.023159
 **** Fit      -0.001324
 **** Fit       0.007692
 **** Fit       0.015036
 **** Fit       0.020664
 **** Fit       0.024599
 **** Fit       0.026884
 **** Fit       0.027549
 **** Fit       0.026602
 **** Fit       0.024027
 **** Fit       0.019795
 **** Fit      -0.001043
 **** Fit       0.006688
 **** Fit       0.013257
 **** Fit       0.018394
 **** Fit       0.021956
 **** Fit       0.023860
 **** Fit       0.024034
 **** Fit       0.022387
 **** Fit       0.018793
 **** Fit      -0.005829
 **** Fit       0.000270
 **** Fit       0.006362
 **** Fit       0.011831
 **** Fit       0.016238
 **** Fit       0.019284
 **** Fit       0.020752
 **** Fit       0.020456
 **** Fit       0.018195
 **** Fit       0.013718
 **** Fit      -0.025227
 **** Fit      -0.020454
 **** Fit      -0.016439
 **** Fit      -0.013382
 **** Fit      -0.011284
 **** Fit      -0.009703
 **** Fit      -0.007903
 **** Fit      -0.005258
 **** Fit      -0.001580
 **** Fit       0.002859
 **** Fit       0.007515
 **** Fit       0.011789
 **** Fit       0.015155
 **** Fit       0.017188
 **** Fit       0.017535
 **** Fit       0.015862
 **** Fit       0.011794
 **** Fit      -0.025338
 **** Fit      -0.018966
 **** Fit      -0.013937
 **** Fit      -0.009999
 **** Fit      -0.006945
 **** Fit      -0.004406
 **** Fit      -0.001886
 **** Fit       0.000999
 **** Fit       0.004323
 **** Fit       0.007825
 **** Fit       0.011033
 **** Fit       0.013413
 **** Fit       0.014447
 **** Fit       0.013648
 **** Fit       0.010519
 **** Fit      -0.020754
 **** Fit      -0.014073
 **** Fit      -0.008934
 **** Fit      -0.004918
 **** Fit      -0.001623
 **** Fit       0.001338
 **** Fit       0.004216
 **** Fit       0.006997
 **** Fit       0.009393
 **** Fit       0.010936
 **** Fit       0.011066
 **** Fit       0.009187
 **** Fit       0.004633
 **** Fit      -0.021823
 **** Fit      -0.013790
 **** Fit      -0.007753
 **** Fit      -0.003131
 **** Fit       0.000532
 **** Fit       0.003532
 **** Fit       0.005905
 **** Fit       0.007382
 **** Fit       0.007444
 **** Fit       0.005401
 **** Fit      -0.014630
 **** Fit      -0.007912
 **** Fit      -0.003015
 **** Fit       0.000460
 **** Fit       0.002609
 **** Fit       0.003154
 **** Fit       0.001472
 **** Fit      -0.012977
 **** Fit      -0.006942
 **** Fit      -0.003483
 **** Fit      -0.002708
 **** Fit      -0.005305
 **** Fit      -0.012858
 **** Fit      -0.010154
 **** Fit       0.015811
 **** Fit       0.020001
 **** Fit       0.012647
 **** Fit       0.016491
 **** Fit       0.020620
 **** Fit      -0.009403
 **** Fit       0.008664
 **** Fit       0.012214
 **** Fit       0.016072
 **** Fit       0.020212
 **** Fit      -0.017025
 **** Fit       0.003762
 **** Fit       0.007261
 **** Fit       0.010942
 **** Fit       0.014851
 **** Fit       0.019001
 **** Fit       0.023340
 **** Fit      -0.025109
 **** Fit      -0.026042
 **** Fit       0.002347
 **** Fit       0.006159
 **** Fit       0.010000
 **** Fit       0.013941
 **** Fit       0.018033
 **** Fit       0.022274
 **** Fit       0.026586
 **** Fit      -0.031400
 **** Fit      -0.033525
 **** Fit      -0.035096
 **** Fit      -0.004401
 **** Fit       0.000220
 **** Fit       0.004558
 **** Fit       0.008698
 **** Fit       0.012758
 **** Fit       0.016837
 **** Fit       0.020989
 **** Fit       0.025202
 **** Fit       0.029380
 **** Fit      -0.036795
 **** Fit      -0.040309
 **** Fit      -0.011141
 **** Fit      -0.004743
 **** Fit       0.000896
 **** Fit       0.005902
 **** Fit       0.010469
 **** Fit       0.014791
 **** Fit       0.019015
 **** Fit       0.023223
 **** Fit       0.027416
 **** Fit       0.031499
 **** Fit       0.035266
 **** Fit      -0.036075
 **** Fit      -0.039523
 **** Fit      -0.010897
 **** Fit      -0.003061
 **** Fit       0.003452
 **** Fit       0.008968
 **** Fit       0.013803
 **** Fit       0.018224
 **** Fit       0.022421
 **** Fit       0.026502
 **** Fit       0.030484
 **** Fit       0.034281
 **** Fit       0.037689
 **** Fit      -0.035428
 **** Fit      -0.040182
 **** Fit      -0.011027
 **** Fit      -0.001149
 **** Fit       0.006623
 **** Fit       0.012870
 **** Fit       0.018070
 **** Fit       0.022596
 **** Fit       0.026713
 **** Fit       0.030581
 **** Fit       0.034261
 **** Fit       0.037701
 **** Fit       0.040730
 **** Fit       0.043034
 **** Fit       0.010517
 **** Fit       0.018058
 **** Fit       0.023919
 **** Fit       0.028665
 **** Fit       0.032695
 **** Fit       0.036270
 **** Fit       0.039535
 **** Fit       0.042513
 **** Fit       0.045107
 **** Fit       0.047071
 **** Fit       0.047978
 **** Fit       0.047170
 **** Fit      -0.002964
 **** Fit       0.005736
 **** Fit      -0.000222
 **** Fit      -0.009760
 **** Fit      -0.005611
 **** Fit       0.003127
 **** Fit       0.009879
 **** Fit       0.002112
 **** Fit      -0.007074
 **** Fit      -0.007718
 **** Fit       0.001199
 **** Fit       0.008140
 **** Fit       0.012772
 **** Fit       0.003609
 **** Fit      -0.005036
 **** Fit      -0.013334
 **** Fit      -0.009097
 **** Fit      -0.000827
 **** Fit       0.006029
 **** Fit       0.011932
 **** Fit      -0.006250
 **** Fit      -0.013551
 **** Fit      -0.020616
 **** Fit      -0.012827
 **** Fit      -0.004708
 **** Fit       0.002099
 **** Fit       0.008039
 **** Fit      -0.010452
 **** Fit      -0.016741
 **** Fit      -0.022067
 **** Fit      -0.018920
 **** Fit      -0.010768
 **** Fit      -0.003718
 **** Fit       0.002416
 **** Fit       0.007887
 **** Fit      -0.021071
 **** Fit      -0.024886
 **** Fit      -0.027916
 **** Fit      -0.024005
 **** Fit      -0.016828
 **** Fit      -0.009898
 **** Fit      -0.003556
 **** Fit       0.002062
 **** Fit      -0.028613
 **** Fit      -0.030852
 **** Fit      -0.021538
 **** Fit      -0.014537
 **** Fit      -0.007702
 **** Fit      -0.001594
 **** Fit      -0.028275
 **** Fit      -0.020694
 **** Fit      -0.012898
 **** Fit      -0.022584
 **** Fit       0.014837
 **** Fit       0.017002
 **** Fit       0.012926
 **** Fit       0.010854
 **** Fit       0.012784
 **** Fit       0.016108
 **** Fit       0.018259
 **** Fit       0.019093
 **** Fit       0.014858
 **** Fit       0.010124
 **** Fit       0.006902
 **** Fit       0.006332
 **** Fit       0.008101
 **** Fit       0.016946
 **** Fit       0.019337
 **** Fit       0.021142
 **** Fit       0.021306
 **** Fit       0.020994
 **** Fit       0.016651
 **** Fit       0.011348
 **** Fit       0.006160
 **** Fit       0.002343
 **** Fit       0.000761
 **** Fit       0.001350
 **** Fit       0.019356
 **** Fit       0.021588
 **** Fit       0.023535
 **** Fit       0.024430
 **** Fit       0.023666
 **** Fit       0.022619
 **** Fit       0.017848
 **** Fit       0.011959
 **** Fit       0.005677
 **** Fit      -0.000069
 **** Fit      -0.004169
 **** Fit      -0.005856
 **** Fit      -0.005284
 **** Fit      -0.003082
 **** Fit       0.022753
 **** Fit       0.025153
 **** Fit       0.026789
 **** Fit       0.027120
 **** Fit       0.025773
 **** Fit       0.023903
 **** Fit       0.018441
 **** Fit       0.011708
 **** Fit       0.004370
 **** Fit      -0.002795
 **** Fit      -0.008832
 **** Fit      -0.012622
 **** Fit      -0.013607
 **** Fit      -0.012300
 **** Fit      -0.009499
 **** Fit       0.025771
 **** Fit       0.028217
 **** Fit       0.029601
 **** Fit       0.029509
 **** Fit       0.027646
 **** Fit       0.024801
 **** Fit       0.018590
 **** Fit       0.010937
 **** Fit       0.002540
 **** Fit      -0.005752
 **** Fit      -0.013105
 **** Fit      -0.018641
 **** Fit      -0.021485
 **** Fit      -0.021512
 **** Fit      -0.019567
 **** Fit       0.028908
 **** Fit       0.031148
 **** Fit       0.032145
 **** Fit       0.031571
 **** Fit       0.029163
 **** Fit       0.025324
 **** Fit       0.017818
 **** Fit       0.008439
 **** Fit      -0.028897
 **** Fit      -0.029066
 **** Fit      -0.027284
 **** Fit      -0.024628
 **** Fit       0.031233
 **** Fit       0.033522
 **** Fit       0.034394
 **** Fit       0.033512
 **** Fit       0.030560
 **** Fit       0.025609
 **** Fit       0.016751
 **** Fit      -0.034866
 **** Fit      -0.033083
 **** Fit       0.033729
 **** Fit       0.035863
 **** Fit       0.036473
 **** Fit       0.035214
 **** Fit       0.031708
 **** Fit       0.026025
 **** Fit      -0.035699
 **** Fit       0.038150
 **** Fit       0.038545
 **** Fit       0.036978
 **** Fit       0.032980
 **** Fit       0.027281
 **** Fit       0.041057
 **** Fit       0.039378
 **** Fit       0.035048
 **** Fit       0.030440
 **** Fit       0.042991
 **** Fit       0.038567
 **** Fit       0.036753
 **** Fit       0.044463
 -----------------------------------------------------------------
 Leave Link  602 at Wed Sep 18 16:54:34 2019, MaxMem=  1342177280 cpu:             149.5 elap:               3.2

 Test job not archived.
 1\1\GINC-C506-093\SP\RB3LYP\SVP\C54H83Ca1N15O23\PENGZHI\18-Sep-2019\0\
 \#b3lyp/svp scf=(tight,noincore) Test #IOP(5/87=12) Density=Current Po
 p=(MK,readradii) iop(6/33=2) iop(6/42=6)\\Ng-31_loop3_31.0\\0,1\C,0,94
 .41,76.42,15.52\C,0,95.56,75.73,16.24\O,0,95.48,74.7,16.91\H,0,93.58,7
 6.56,16.213\H,0,94.742,77.39,15.151\H,0,94.083,75.804,14.682\N,0,96.77
 ,76.28,16.12\C,0,98.02,75.86,16.72\C,0,98.45,76.73,17.89\O,0,98.06,76.
 39,19.01\C,0,99.07,75.63,15.63\C,0,99.15,76.7,14.55\O,0,99.31,77.9,14.
 87\O,0,98.89,76.35,13.38\H,0,96.74,77.21,15.71\H,0,97.89,74.87,17.15\H
 ,0,98.85,74.64,15.24\H,0,100.02,75.55,16.15\N,0,99.26,77.77,17.73\C,0,
 99.82,78.53,18.83\C,0,100.79,77.57,19.5\O,0,101.87,77.25,19.\C,0,100.4
 5,79.86,18.45\C,0,99.46,81.02,18.37\C,0,100.24,82.32,18.13\C,0,99.27,8
 3.42,18.56\N,0,99.82,84.78,18.43\H,0,99.58,78.01,16.8\H,0,99.02,78.81,
 19.52\H,0,101.04,79.81,17.53\H,0,101.07,80.19,19.28\H,0,98.93,81.07,19
 .32\H,0,98.75,80.7,17.61\H,0,100.59,82.35,17.1\H,0,101.12,82.39,18.77\
 H,0,98.92,83.28,19.59\H,0,98.39,83.26,17.94\H,0,100.67,84.88,18.96\H,0
 ,99.94,84.99,17.45\H,0,99.12,85.41,18.79\N,0,100.58,77.14,20.75\C,0,10
 1.55,76.29,21.41\C,0,101.41,74.85,20.93\O,0,102.27,73.99,21.11\C,0,101
 .42,76.43,22.92\C,0,100.04,76.01,23.39\O,0,99.52,74.91,23.11\O,0,99.46
 ,76.67,24.28\H,0,99.7,77.25,21.24\H,0,102.51,76.7,21.11\H,0,101.66,77.
 43,23.28\H,0,102.25,75.95,23.44\N,0,100.28,74.52,20.3\C,0,100.04,73.25
 ,19.63\C,0,100.97,72.84,18.5\O,0,101.95,73.51,18.16\H,0,99.64,75.3,20.
 26\H,0,99.,73.23,19.3\H,0,100.02,72.47,20.39\N,0,100.7,71.79,17.72\C,0
 ,99.63,70.85,17.95\C,0,98.69,70.64,16.77\O,0,99.1,70.47,15.63\C,0,100.
 23,69.53,18.43\C,0,100.99,69.57,19.74\N,0,100.86,68.41,20.39\O,0,101.5
 6,70.53,20.25\H,0,101.37,71.56,17.\H,0,99.05,71.22,18.79\H,0,100.94,69
 .12,17.71\H,0,99.41,68.81,18.46\H,0,100.09,67.81,20.14\H,0,101.25,68.4
 1,21.33\N,0,97.36,70.6,16.89\C,0,96.51,70.97,18.\C,0,96.11,69.95,19.05
 \O,0,95.51,70.34,20.05\H,0,96.88,70.63,16.\H,0,95.55,71.3,17.59\H,0,97
 .05,71.76,18.52\N,0,96.41,68.65,18.93\C,0,95.86,67.59,19.75\C,0,96.76,
 67.01,20.83\O,0,97.89,66.62,20.55\C,0,95.35,66.48,18.83\C,0,94.43,66.9
 ,17.71\C,0,93.44,67.87,17.9\C,0,94.63,66.5,16.38\C,0,92.56,68.28,16.89
 \C,0,93.76,66.84,15.34\C,0,92.67,67.68,15.62\O,0,91.83,68.15,14.65\H,0
 ,96.87,68.34,18.09\H,0,94.97,68.01,20.24\H,0,94.9,65.71,19.45\H,0,96.2
 2,65.96,18.44\H,0,93.36,68.4,18.84\H,0,95.47,65.86,16.15\H,0,91.71,68.
 92,17.02\H,0,93.88,66.37,14.37\H,0,92.07,67.77,13.81\N,0,96.21,67.08,2
 2.04\C,0,96.87,66.7,23.27\C,0,95.91,66.18,24.33\O,0,96.49,65.61,25.26\
 C,0,97.62,67.89,23.85\C,0,98.74,68.3,22.89\C,0,96.67,69.02,24.25\C,0,9
 9.62,69.29,23.64\H,0,95.23,67.32,22.05\H,0,97.49,65.82,23.09\H,0,98.06
 ,67.55,24.79\H,0,98.35,68.84,22.03\H,0,99.35,67.44,22.61\H,0,95.93,68.
 65,24.95\H,0,97.3,69.72,24.81\H,0,96.35,69.47,23.31\H,0,100.49,69.34,2
 2.97\H,0,99.19,70.29,23.74\H,0,100.01,68.97,24.6\N,0,94.6,66.4,24.28\C
 ,0,93.68,66.02,25.33\C,0,92.77,67.13,25.82\O,0,92.15,67.8,24.99\C,0,92
 .9,64.76,24.96\O,0,93.75,63.64,24.87\H,0,94.17,66.81,23.47\H,0,94.31,6
 5.78,26.19\H,0,92.41,64.97,24.01\H,0,92.12,64.53,25.69\H,0,94.42,63.73
 ,25.55\N,0,92.63,67.24,27.15\C,0,91.51,68.,27.67\C,0,91.6,69.51,27.45\
 O,0,92.62,70.09,27.11\C,0,91.3,67.67,29.14\H,0,93.23,66.71,27.76\H,0,9
 0.6,67.65,27.18\H,0,90.69,68.36,29.72\H,0,90.92,66.65,29.2\H,0,92.25,6
 7.54,29.66\N,0,90.48,70.22,27.62\C,0,90.39,71.67,27.67\C,0,91.03,72.46
 ,26.54\O,0,91.49,73.56,26.83\C,0,90.6,72.09,29.12\H,0,89.7,69.64,27.9\
 H,0,89.32,71.87,27.58\H,0,91.69,72.08,29.19\H,0,90.28,73.11,29.33\H,0,
 90.22,71.4,29.87\N,0,90.99,71.91,25.32\C,0,91.56,72.46,24.1\C,0,90.58,
 72.69,22.96\O,0,90.56,73.78,22.4\C,0,92.76,71.68,23.57\C,0,94.04,71.9,
 24.38\C,0,94.83,73.18,24.15\O,0,95.65,73.22,23.21\O,0,94.76,74.14,24.9
 5\H,0,90.55,71.,25.28\H,0,91.93,73.45,24.35\H,0,93.02,72.03,22.57\H,0,
 92.4,70.66,23.45\H,0,94.68,71.06,24.11\H,0,93.95,71.61,25.42\N,0,89.6,
 71.81,22.74\C,0,88.44,71.96,21.88\H,0,87.649,72.477,22.424\H,0,88.713,
 72.54,20.999\H,0,88.085,70.976,21.572\H,0,89.74,70.88,23.12\Ca,0,97.03
 ,75.51,23.92\O,0,94.98,76.25,22.6\H,0,94.13,75.82,22.65\H,0,94.98,76.6
 7,21.74\\Version=ES64L-G16RevA.03\State=1-A\HF=-5333.3436027\RMSD=1.28
 5e-09\Dipole=-6.1108077,11.2844214,5.2892973\Quadrupole=-143.2477857,3
 19.2814633,-176.0336776,117.3633649,6.0599089,-46.6190089\PG=C01 [X(C5
 4H83Ca1N15O23)]\\@


 WE'RE IN THE POSITION OF A VISITOR FROM ANOTHER
 DIMENSION WHO COMES TO EARTH AND SEES A CHESS MATCH.
 ASSUMING HE KNOWS IT'S A GAME, HE'S GOT TWO PROBLEMS:
 FIRST, FIGURE OUT THE RULES, AND SECOND, FIGURE OUT HOW TO WIN.
 NINETY PERCENT OF SCIENCE (INCLUDING VIRTUALLY ALL OF CHEMISRY)
 IS IN THAT SECOND CATEGORY.  THEY'RE TRYING TO APPLY
 THE LAWS THAT ARE ALREADY KNOWN.

                     -- SHELDON GLASHOW, 1979
 Job cpu time:       0 days 11 hours 44 minutes 25.3 seconds.
 Elapsed time:       0 days  0 hours 14 minutes 52.2 seconds.
 File lengths (MBytes):  RWF=   1517 Int=      0 D2E=      0 Chk=    171 Scr=      1
 Normal termination of Gaussian 16 at Wed Sep 18 16:54:36 2019.
