 Entering Gaussian System, Link 0=g16
 Initial command:
 /home1/apps/gaussian/16rA.03/g16/l1.exe "/scratch/01990/pengzhi/4354932/Gau-217835.inp" -scrdir="/scratch/01990/pengzhi/4354932/"
 Entering Link 1 = /home1/apps/gaussian/16rA.03/g16/l1.exe PID=    217836.
  
 Copyright (c) 1988,1990,1992,1993,1995,1998,2003,2009,2016,
            Gaussian, Inc.  All Rights Reserved.
  
 This is part of the Gaussian(R) 16 program.  It is based on
 the Gaussian(R) 09 system (copyright 2009, Gaussian, Inc.),
 the Gaussian(R) 03 system (copyright 2003, Gaussian, Inc.),
 the Gaussian(R) 98 system (copyright 1998, Gaussian, Inc.),
 the Gaussian(R) 94 system (copyright 1995, Gaussian, Inc.),
 the Gaussian 92(TM) system (copyright 1992, Gaussian, Inc.),
 the Gaussian 90(TM) system (copyright 1990, Gaussian, Inc.),
 the Gaussian 88(TM) system (copyright 1988, Gaussian, Inc.),
 the Gaussian 86(TM) system (copyright 1986, Carnegie Mellon
 University), and the Gaussian 82(TM) system (copyright 1983,
 Carnegie Mellon University). Gaussian is a federally registered
 trademark of Gaussian, Inc.
  
 This software contains proprietary and confidential information,
 including trade secrets, belonging to Gaussian, Inc.
  
 This software is provided under written license and may be
 used, copied, transmitted, or stored only in accord with that
 written license.
  
 The following legend is applicable only to US Government
 contracts under FAR:
  
                    RESTRICTED RIGHTS LEGEND
  
 Use, reproduction and disclosure by the US Government is
 subject to restrictions as set forth in subparagraphs (a)
 and (c) of the Commercial Computer Software - Restricted
 Rights clause in FAR 52.227-19.
  
 Gaussian, Inc.
 340 Quinnipiac St., Bldg. 40, Wallingford CT 06492
  
  
 ---------------------------------------------------------------
 Warning -- This program may not be used in any manner that
 competes with the business of Gaussian, Inc. or will provide
 assistance to any competitor of Gaussian, Inc.  The licensee
 of this program is prohibited from giving any competitor of
 Gaussian, Inc. access to this program.  By using this program,
 the user acknowledges that Gaussian, Inc. is engaged in the
 business of creating and licensing software in the field of
 computational chemistry and represents and warrants to the
 licensee that it is not a competitor of Gaussian, Inc. and that
 it will not use this program in any manner prohibited above.
 ---------------------------------------------------------------
  

 Cite this work as:
 Gaussian 16, Revision A.03,
 M. J. Frisch, G. W. Trucks, H. B. Schlegel, G. E. Scuseria, 
 M. A. Robb, J. R. Cheeseman, G. Scalmani, V. Barone, 
 G. A. Petersson, H. Nakatsuji, X. Li, M. Caricato, A. V. Marenich, 
 J. Bloino, B. G. Janesko, R. Gomperts, B. Mennucci, H. P. Hratchian, 
 J. V. Ortiz, A. F. Izmaylov, J. L. Sonnenberg, D. Williams-Young, 
 F. Ding, F. Lipparini, F. Egidi, J. Goings, B. Peng, A. Petrone, 
 T. Henderson, D. Ranasinghe, V. G. Zakrzewski, J. Gao, N. Rega, 
 G. Zheng, W. Liang, M. Hada, M. Ehara, K. Toyota, R. Fukuda, 
 J. Hasegawa, M. Ishida, T. Nakajima, Y. Honda, O. Kitao, H. Nakai, 
 T. Vreven, K. Throssell, J. A. Montgomery, Jr., J. E. Peralta, 
 F. Ogliaro, M. J. Bearpark, J. J. Heyd, E. N. Brothers, K. N. Kudin, 
 V. N. Staroverov, T. A. Keith, R. Kobayashi, J. Normand, 
 K. Raghavachari, A. P. Rendell, J. C. Burant, S. S. Iyengar, 
 J. Tomasi, M. Cossi, J. M. Millam, M. Klene, C. Adamo, R. Cammi, 
 J. W. Ochterski, R. L. Martin, K. Morokuma, O. Farkas, 
 J. B. Foresman, and D. J. Fox, Gaussian, Inc., Wallingford CT, 2016.
 
 ******************************************
 Gaussian 16:  ES64L-G16RevA.03 25-Dec-2016
                18-Sep-2019 
 ******************************************
 %chk=Ng-31_loop3_28.0.chk
 %nprocshared=48
 Will use up to   48 processors via shared memory.
 %mem=10GB
 %nosave
 ----------------------------------------------------------------------
 #b3lyp/svp scf=(tight,noincore) Test #IOP(5/87=12) Density=Current Pop
 =(MK,readradii) iop(6/33=2) iop(6/42=6)
 ----------------------------------------------------------------------
 1/30=1,38=1,172=1/1;
 2/12=2,17=6,18=5,40=1/2;
 3/5=18,7=101,11=2,25=1,30=1,74=-5/1,2,3;
 4//1;
 5/5=4,32=2,38=5,87=12/2;
 6/7=2,8=2,9=2,10=2,15=8,20=101,22=-1,28=1,33=2,42=6/1,2;
 99/5=1,9=1/99;
 ----------------
 Ng-31_loop3_28.0
 ----------------
 Symbolic Z-matrix:
 Charge =  0 Multiplicity = 1
 C                     85.27     71.42     28.47 
 C                     84.52     70.68     29.58 
 O                     83.38     70.91     29.99 
 H                     86.265    70.99     28.355 
 H                     84.722    71.322    27.533 
 H                     85.359    72.475    28.731 
 N                     85.2      69.63     30.02 
 C                     84.78     68.72     31.07 
 C                     85.17     69.12     32.48 
 O                     84.61     68.77     33.52 
 C                     85.2      67.27     30.85 
 C                     86.64     67.01     30.43 
 O                     87.46     67.96     30.48 
 O                     86.93     65.81     30.23 
 H                     86.16     69.59     29.71 
 H                     83.69     68.77     31.1 
 H                     84.64     66.86     30.01 
 H                     84.93     66.63     31.69 
 N                     86.13     70.04     32.56 
 C                     86.54     70.65     33.81 
 C                     87.19     69.7      34.8 
 O                     87.89     68.78     34.4 
 C                     87.23     72.       33.66 
 C                     86.41     73.07     32.92 
 C                     86.96     74.47     33.2 
 C                     86.32     75.48     32.25 
 N                     84.94     75.79     32.64 
 H                     86.55     70.32     31.68 
 H                     85.57     70.94     34.24 
 H                     88.13     71.84     33.07 
 H                     87.55     72.43     34.6 
 H                     85.4      73.06     33.32 
 H                     86.38     72.85     31.85 
 H                     88.01     74.52     32.92 
 H                     86.67     74.65     34.23 
 H                     86.31     75.14     31.21 
 H                     86.94     76.38     32.3 
 H                     84.61     76.53     32.04 
 H                     84.3      75.02     32.55 
 H                     84.87     76.05     33.62 
 N                     86.99     69.95     36.1 
 C                     87.31     69.07     37.21 
 C                     86.18     68.13     37.58 
 O                     86.21     67.58     38.68 
 C                     87.8      69.98     38.33 
 C                     86.78     70.94     38.93 
 O                     86.26     71.91     38.34 
 O                     86.33     70.67     40.07 
 H                     86.48     70.79     36.34 
 H                     88.17     68.53     36.81 
 H                     88.49     70.68     37.86 
 H                     88.3      69.37     39.08 
 N                     85.23     67.87     36.68 
 C                     84.29     66.77     36.74 
 C                     84.87     65.44     36.3 
 O                     86.1      65.31     36.3 
 H                     85.24     68.34     35.78 
 H                     83.45     67.03     36.1 
 H                     83.9      66.6      37.75 
 N                     84.07     64.4      36.06 
 C                     82.64     64.32     35.84 
 C                     82.3      63.59     34.55 
 O                     82.25     62.36     34.59 
 C                     81.99     63.75     37.09 
 C                     82.26     64.59     38.34 
 N                     83.1      64.09     39.25 
 O                     81.71     65.67     38.52 
 H                     84.53     63.52     35.84 
 H                     82.2      65.31     35.71 
 H                     82.39     62.74     37.18 
 H                     80.92     63.65     36.98 
 H                     83.43     63.14     39.14 
 H                     83.32     64.56     40.11 
 N                     82.13     64.25     33.4 
 C                     82.34     65.66     33.15 
 C                     81.24     66.66     33.46 
 O                     81.51     67.77     33.92 
 H                     81.93     63.75     32.55 
 H                     82.51     65.75     32.07 
 H                     83.3      65.96     33.57 
 N                     79.96     66.28     33.46 
 C                     78.85     66.91     34.15 
 C                     78.93     66.53     35.62 
 O                     79.44     65.5      36.03 
 C                     77.47     66.83     33.51 
 C                     77.24     67.56     32.2 
 C                     77.59     68.91     32.12 
 C                     76.8      66.89     31.06 
 C                     77.6      69.51     30.86 
 C                     76.73     67.53     29.82 
 C                     77.14     68.87     29.69 
 O                     77.02     69.5      28.48 
 H                     79.68     65.4      33.05 
 H                     79.09     67.97     34.19 
 H                     76.79     67.23     34.26 
 H                     77.17     65.8      33.31 
 H                     77.98     69.35     33.03 
 H                     76.47     65.86     31.09 
 H                     77.9      70.53     30.64 
 H                     76.25     66.99     29.01 
 H                     76.59     68.97     27.81 
 N                     78.35     67.38     36.48 
 C                     78.86     67.48     37.83 
 C                     77.87     67.13     38.94 
 O                     78.37     66.93     40.04 
 C                     79.62     68.78     38.06 
 C                     80.77     68.96     37.08 
 C                     78.64     69.94     37.86 
 C                     81.92     69.76     37.69 
 H                     77.86     68.16     36.07 
 H                     79.66     66.74     37.96 
 H                     80.       68.79     39.08 
 H                     80.44     69.35     36.12 
 H                     81.25     67.99     36.93 
 H                     78.13     69.95     36.89 
 H                     77.77     69.92     38.52 
 H                     79.14     70.9      37.88 
 H                     82.18     69.39     38.69 
 H                     82.88     69.76     37.17 
 H                     81.53     70.77     37.76 
 N                     76.55     67.14     38.73 
 C                     75.63     66.79     39.8 
 C                     75.37     68.02     40.65 
 O                     74.94     69.07     40.16 
 C                     74.28     66.37     39.23 
 O                     74.29     65.04     38.74 
 H                     76.19     67.4      37.83 
 H                     76.15     66.04     40.4 
 H                     73.98     67.01     38.4 
 H                     73.5      66.42     39.99 
 H                     73.91     65.08     37.86 
 N                     75.58     67.92     41.97 
 C                     75.21     68.96     42.91 
 C                     76.36     69.76     43.51 
 O                     77.48     69.26     43.52 
 C                     74.33     68.32     43.98 
 H                     76.01     67.07     42.31 
 H                     74.63     69.67     42.33 
 H                     73.41     67.85     43.63 
 H                     74.96     67.54     44.41 
 H                     74.07     69.03     44.76 
 N                     76.12     70.99     43.97 
 C                     77.16     71.8      44.56 
 C                     78.32     72.22     43.67 
 O                     79.44     72.41     44.13 
 C                     77.47     71.3      45.97 
 H                     75.23     71.43     43.8 
 H                     76.52     72.67     44.7 
 H                     78.08     70.39     45.97 
 H                     78.       72.11     46.47 
 H                     76.6      71.12     46.61 
 N                     78.02     72.39     42.39 
 C                     79.03     72.63     41.38 
 C                     78.67     73.65     40.3 
 O                     79.55     74.21     39.65 
 C                     79.49     71.32     40.76 
 C                     80.3      70.35     41.63 
 C                     81.73     70.78     41.94 
 O                     82.38     71.4      41.07 
 O                     82.36     70.36     42.93 
 H                     77.14     71.94     42.15 
 H                     79.93     73.       41.88 
 H                     80.15     71.54     39.93 
 H                     78.67     70.79     40.29 
 H                     80.3      69.41     41.07 
 H                     79.8      70.13     42.57 
 N                     77.37     73.83     40.04 
 C                     76.84     74.77     39.08 
 H                     75.935    75.226    39.481 
 H                     77.58     75.545    38.883 
 H                     76.603    74.248    38.153 
 H                     76.73     73.35     40.66 
 Ca                    84.74     71.25     42.13 
 O                     86.53     73.08     42.88 
 H                     86.28     73.9      43.31 
 H                     87.39     72.87     43.24 
 
 Stoichiometry    C54H83CaN15O23
 Framework group  C1[X(C54H83CaN15O23)]
 Deg. of freedom   522
 Full point group                 C1      NOp   1
 Largest Abelian subgroup         C1      NOp   1
 Largest concise Abelian subgroup C1      NOp   1
                         Standard orientation:                         
 ---------------------------------------------------------------------
 Center     Atomic      Atomic             Coordinates (Angstroms)
 Number     Number       Type             X           Y           Z
 ---------------------------------------------------------------------
      1          6           0        8.766908    0.298616    3.715732
      2          6           0        7.487567    0.659487    2.957275
      3          8           0        6.453903    1.140741    3.426885
      4          1           0        9.493812   -0.123197    3.021589
      5          1           0        9.182316    1.195263    4.175448
      6          1           0        8.537232   -0.434289    4.489790
      7          7           0        7.629566    0.504352    1.647974
      8          6           0        6.610605    0.750151    0.643832
      9          6           0        5.702967   -0.423378    0.328833
     10          8           0        4.565836   -0.361908   -0.141119
     11          6           0        7.145999    1.308043   -0.671238
     12          6           0        8.372012    0.636281   -1.273921
     13          8           0        8.760985   -0.452584   -0.783541
     14          8           0        8.794298    1.147282   -2.334418
     15          1           0        8.460868    0.002791    1.371073
     16          1           0        5.921066    1.475751    1.079194
     17          1           0        7.500255    2.325638   -0.509060
     18          1           0        6.364475    1.413096   -1.423757
     19          7           0        6.155455   -1.609991    0.730832
     20          6           0        5.371133   -2.826692    0.646114
     21          6           0        5.052556   -3.282809   -0.766531
     22          8           0        5.861580   -3.105339   -1.666745
     23          6           0        5.810015   -3.931215    1.599273
     24          6           0        5.818789   -3.540307    3.086557
     25          6           0        5.828852   -4.783760    3.977972
     26          6           0        6.117468   -4.385177    5.423667
     27          7           0        4.947968   -3.766500    6.057786
     28          1           0        7.086117   -1.615864    1.134608
     29          1           0        4.420524   -2.505576    1.096811
     30          1           0        6.835127   -4.191160    1.343787
     31          1           0        5.229404   -4.839631    1.506689
     32          1           0        4.889592   -3.022220    3.306507
     33          1           0        6.663005   -2.879584    3.298560
     34          1           0        6.684503   -5.409567    3.733786
     35          1           0        4.824814   -5.179355    3.864781
     36          1           0        6.958897   -3.691638    5.514777
     37          1           0        6.388609   -5.307802    5.945344
     38          1           0        5.167851   -3.619365    7.030670
     39          1           0        4.686790   -2.876907    5.669187
     40          1           0        4.111260   -4.333193    5.949715
     41          7           0        3.884505   -3.910501   -0.951351
     42          6           0        3.265419   -4.229712   -2.225611
     43          6           0        2.355197   -3.134833   -2.745357
     44          8           0        1.543673   -3.414815   -3.626515
     45          6           0        2.610536   -5.592746   -2.036226
     46          6           0        1.445999   -5.664304   -1.056056
     47          8           0        1.525700   -5.506697    0.180151
     48          8           0        0.290733   -5.770451   -1.534693
     49          1           0        3.323315   -4.101661   -0.131703
     50          1           0        4.143795   -4.359874   -2.860207
     51          1           0        3.350150   -6.205901   -1.522405
     52          1           0        2.365755   -5.999959   -3.015440
     53          7           0        2.509005   -1.890663   -2.288757
     54          6           0        1.971122   -0.694555   -2.902930
     55          6           0        2.768928   -0.202467   -4.094674
     56          8           0        3.525647   -1.000133   -4.661160
     57          1           0        3.192499   -1.696138   -1.563502
     58          1           0        1.948002    0.077244   -2.137037
     59          1           0        0.947801   -0.830251   -3.271035
     60          7           0        2.548981    1.012085   -4.600327
     61          6           0        1.860165    2.166457   -4.059347
     62          6           0        2.727441    3.415286   -4.088588
     63          8           0        2.755555    4.062523   -5.136106
     64          6           0        0.518381    2.300822   -4.760391
     65          6           0       -0.367841    1.064374   -4.596660
     66          7           0       -0.540694    0.282960   -5.665872
     67          8           0       -0.923458    0.807582   -3.535223
     68          1           0        3.066909    1.249088   -5.442931
     69          1           0        1.623160    2.031162   -3.002880
     70          1           0        0.764190    2.494189   -5.804607
     71          1           0       -0.037285    3.158319   -4.409770
     72          1           0       -0.183613    0.593141   -6.560177
     73          1           0       -1.121707   -0.536347   -5.658158
     74          7           0        3.485407    3.761768   -3.043389
     75          6           0        3.707400    3.012986   -1.824888
     76          6           0        2.720711    3.119840   -0.675485
     77          8           0        2.439558    2.133533    0.006242
     78          1           0        4.072858    4.577506   -3.087788
     79          1           0        4.658305    3.378842   -1.418281
     80          1           0        3.936393    1.977490   -2.076504
     81          7           0        1.970987    4.214604   -0.526472
     82          6           0        0.704772    4.331504    0.172193
     83          6           0       -0.381487    3.746955   -0.716651
     84          8           0       -0.320495    3.715788   -1.935014
     85          6           0        0.378529    5.657453    0.847342
     86          6           0        1.221469    6.088896    2.032757
     87          6           0        1.398443    5.188871    3.086338
     88          6           0        1.904959    7.303359    2.037301
     89          6           0        2.357155    5.493808    4.053595
     90          6           0        2.796323    7.634131    3.061098
     91          6           0        3.050026    6.721683    4.102095
     92          8           0        3.888021    7.077965    5.124948
     93          1           0        2.189665    5.065191   -1.026054
     94          1           0        0.741259    3.598682    0.974963
     95          1           0       -0.657077    5.560758    1.168388
     96          1           0        0.429948    6.495784    0.150594
     97          1           0        0.883351    4.240888    2.987295
     98          1           0        1.756235    8.049572    1.268049
     99          1           0        2.638669    4.867331    4.894474
    100          1           0        3.184975    8.647511    3.071621
    101          1           0        4.195579    7.982163    5.074617
    102          7           0       -1.476323    3.294700   -0.087922
    103          6           0       -2.241625    2.220460   -0.681995
    104          6           0       -3.695337    2.549680   -1.018205
    105          8           0       -4.246993    1.759608   -1.774156
    106          6           0       -2.057118    0.905393    0.064367
    107          6           0       -0.596578    0.487062    0.148758
    108          6           0       -2.579248    1.096742    1.491520
    109          6           0       -0.439082   -1.032303    0.185167
    110          1           0       -1.506848    3.440222    0.909320
    111          1           0       -1.804248    1.974337   -1.658020
    112          1           0       -2.633782    0.131166   -0.438556
    113          1           0       -0.066306    0.991160    0.953305
    114          1           0       -0.115273    0.721783   -0.803635
    115          1           0       -2.122569    1.927450    2.041490
    116          1           0       -3.628314    1.393606    1.556577
    117          1           0       -2.361672    0.242400    2.119820
    118          1           0       -1.044981   -1.517165   -0.590910
    119          1           0        0.555388   -1.451052    0.018801
    120          1           0       -0.805369   -1.311447    1.167517
    121          7           0       -4.331835    3.575594   -0.444645
    122          6           0       -5.711385    3.875305   -0.792228
    123          6           0       -6.631764    3.007892    0.046519
    124          8           0       -6.582347    3.011936    1.281445
    125          6           0       -6.049858    5.320357   -0.444287
    126          8           0       -5.558764    6.237648   -1.406838
    127          1           0       -3.857719    4.138018    0.238065
    128          1           0       -5.815116    3.599775   -1.843999
    129          1           0       -5.622504    5.610975    0.515613
    130          1           0       -7.128475    5.468795   -0.389060
    131          1           0       -5.096496    6.917287   -0.912066
    132          7           0       -7.540925    2.261986   -0.596560
    133          6           0       -8.585389    1.525176    0.087768
    134          6           0       -8.419984    0.010733    0.127813
    135          8           0       -7.710886   -0.524498   -0.717887
    136          6           0       -9.919391    1.945732   -0.522535
    137          1           0       -7.486353    2.229039   -1.605984
    138          1           0       -8.530995    1.853576    1.120287
    139          1           0      -10.166996    3.005983   -0.456501
    140          1           0       -9.819640    1.691975   -1.578876
    141          1           0      -10.746301    1.379867   -0.102872
    142          7           0       -9.019741   -0.678785    1.100930
    143          6           0       -8.913981   -2.116135    1.193881
    144          6           0       -7.536137   -2.709066    1.447021
    145          8           0       -7.233526   -3.820195    1.027595
    146          6           0       -9.804271   -2.771159    0.139117
    147          1           0       -9.458171   -0.195629    1.868353
    148          1           0       -9.477245   -2.182123    2.123654
    149          1           0       -9.367034   -2.732447   -0.864639
    150          1           0       -9.937137   -3.805786    0.453590
    151          1           0      -10.825794   -2.382268    0.074665
    152          7           0       -6.718416   -1.955551    2.168719
    153          6           0       -5.323590   -2.291544    2.367137
    154          6           0       -4.762790   -2.030897    3.764980
    155          8           0       -3.755126   -2.617079    4.154214
    156          6           0       -4.457775   -1.636801    1.302348
    157          6           0       -4.582775   -2.136030   -0.143004
    158          6           0       -3.990790   -3.514473   -0.417497
    159          8           0       -2.953231   -3.861551    0.188151
    160          8           0       -4.360350   -4.228766   -1.369658
    161          1           0       -7.030192   -0.987825    2.197055
    162          1           0       -5.199451   -3.360202    2.168491
    163          1           0       -3.416471   -1.805135    1.547807
    164          1           0       -4.545321   -0.556949    1.323693
    165          1           0       -4.070965   -1.377580   -0.743008
    166          1           0       -5.613888   -2.134283   -0.487683
    167          7           0       -5.360048   -1.081750    4.494639
    168          6           0       -4.991571   -0.719598    5.843406
    169          1           0       -5.891919   -0.515155    6.422489
    170          1           0       -4.443008   -1.540782    6.303590
    171          1           0       -4.364080    0.171343    5.821888
    172          1           0       -6.204051   -0.690564    4.095851
    173         20           0       -2.347012   -5.964819   -1.199098
    174          8           0       -1.986936   -8.531934   -0.570000
    175          1           0       -2.538998   -8.989064    0.067229
    176          1           0       -1.733864   -9.205660   -1.198767
 ---------------------------------------------------------------------
 Rotational constants (GHZ):           0.0188308           0.0118284           0.0098767
 Standard basis: SVP (5D, 7F)
 There are  1809 symmetry adapted cartesian basis functions of A   symmetry.
 There are  1717 symmetry adapted basis functions of A   symmetry.
  1717 basis functions,  2922 primitive gaussians,  1809 cartesian basis functions
   358 alpha electrons      358 beta electrons
       nuclear repulsion energy     19867.1938087586 Hartrees.
 NAtoms=  176 NActive=  176 NUniq=  176 SFac= 1.00D+00 NAtFMM=   60 NAOKFM=T Big=T
 Integral buffers will be    131072 words long.
 Raffenetti 2 integral format.
 Two-electron integral symmetry is turned on.
 One-electron integrals computed using PRISM.
 NBasis=  1717 RedAO= T EigKep=  2.78D-04  NBF=  1717
 NBsUse=  1717 1.00D-06 EigRej= -1.00D+00 NBFU=  1717
 ExpMin= 1.98D-02 ExpMax= 3.51D+04 ExpMxC= 5.28D+03 IAcc=3 IRadAn=         5 AccDes= 0.00D+00
 Harris functional with IExCor=  402 and IRadAn=       5 diagonalized for initial guess.
 HarFok:  IExCor=  402 AccDes= 0.00D+00 IRadAn=         5 IDoV= 1 UseB2=F ITyADJ=14
 ICtDFT=  3500011 ScaDFX=  1.000000  1.000000  1.000000  1.000000
 FoFCou: FMM=F IPFlag=           0 FMFlag=      100000 FMFlg1=        2001
         NFxFlg=           0 DoJE=T BraDBF=F KetDBF=T FulRan=T
         wScrn=  0.000000 ICntrl=       500 IOpCl=  0 I1Cent=   200000004 NGrid=           0
         NMat0=    1 NMatS0=      1 NMatT0=    0 NMatD0=    1 NMtDS0=    0 NMtDT0=    0
 Petite list used in FoFCou.
 Requested convergence on RMS density matrix=1.00D-08 within 128 cycles.
 Requested convergence on MAX density matrix=1.00D-06.
 Requested convergence on             energy=1.00D-06.
 No special actions if energy rises.
 EnCoef did     2 forward-backward iterations
 EnCoef did     3 forward-backward iterations
 EnCoef did     4 forward-backward iterations
 EnCoef did     3 forward-backward iterations
 EnCoef did     2 forward-backward iterations
 EnCoef did     2 forward-backward iterations
 Rare condition: small coef for last iteration:  0.000D+00
 Restarting incremental Fock formation.
 SCF Done:  E(RB3LYP) =  -5333.35746587     A.U. after   28 cycles
            NFock= 28  Conv=0.10D-08     -V/T= 2.0082
 SCF density gives NOpUse=  1 NOpAll=  1.
 Hyperfine terms turned off by default for NAtoms > 100.

 **********************************************************************

            Population analysis using the SCF density.

 **********************************************************************

 Orbital symmetries:
 BldTbl:  Degeneracy threshold= 1.00D-02
       Occupied  (A) (A) (A) (A) (A) (A) (A) (A) (A) (A) (A) (A)
                 (A) (A) (A) (A) (A) (A) (A) (A) (A) (A) (A) (A)
                 (A) (A) (A) (A) (A) (A) (A) (A) (A) (A) (A) (A)
                 (A) (A) (A) (A) (A) (A) (A) (A) (A) (A) (A) (A)
                 (A) (A) (A) (A) (A) (A) (A) (A) (A) (A) (A) (A)
                 (A) (A) (A) (A) (A) (A) (A) (A) (A) (A) (A) (A)
                 (A) (A) (A) (A) (A) (A) (A) (A) (A) (A) (A) (A)
                 (A) (A) (A) (A) (A) (A) (A) (A) (A) (A) (A) (A)
                 (A) (A) (A) (A) (A) (A) (A) (A) (A) (A) (A) (A)
                 (A) (A) (A) (A) (A) (A) (A) (A) (A) (A) (A) (A)
                 (A) (A) (A) (A) (A) (A) (A) (A) (A) (A) (A) (A)
                 (A) (A) (A) (A) (A) (A) (A) (A) (A) (A) (A) (A)
                 (A) (A) (A) (A) (A) (A) (A) (A) (A) (A) (A) (A)
                 (A) (A) (A) (A) (A) (A) (A) (A) (A) (A) (A) (A)
                 (A) (A) (A) (A) (A) (A) (A) (A) (A) (A) (A) (A)
                 (A) (A) (A) (A) (A) (A) (A) (A) (A) (A) (A) (A)
                 (A) (A) (A) (A) (A) (A) (A) (A) (A) (A) (A) (A)
                 (A) (A) (A) (A) (A) (A) (A) (A) (A) (A) (A) (A)
                 (A) (A) (A) (A) (A) (A) (A) (A) (A) (A) (A) (A)
                 (A) (A) (A) (A) (A) (A) (A) (A) (A) (A) (A) (A)
                 (A) (A) (A) (A) (A) (A) (A) (A) (A) (A) (A) (A)
                 (A) (A) (A) (A) (A) (A) (A) (A) (A) (A) (A) (A)
                 (A) (A) (A) (A) (A) (A) (A) (A) (A) (A) (A) (A)
                 (A) (A) (A) (A) (A) (A) (A) (A) (A) (A) (A) (A)
                 (A) (A) (A) (A) (A) (A) (A) (A) (A) (A) (A) (A)
                 (A) (A) (A) (A) (A) (A) (A) (A) (A) (A) (A) (A)
                 (A) (A) (A) (A) (A) (A) (A) (A) (A) (A) (A) (A)
                 (A) (A) (A) (A) (A) (A) (A) (A) (A) (A) (A) (A)
                 (A) (A) (A) (A) (A) (A) (A) (A) (A) (A) (A) (A)
                 (A) (A) (A) (A) (A) (A) (A) (A) (A) (A)
       Virtual   (A) (A) (A) (A) (A) (A) (A) (A) (A) (A) (A) (A)
                 (A) (A) (A) (A) (A) (A) (A) (A) (A) (A) (A) (A)
                 (A) (A) (A) (A) (A) (A) (A) (A) (A) (A) (A) (A)
                 (A) (A) (A) (A) (A) (A) (A) (A) (A) (A) (A) (A)
                 (A) (A) (A) (A) (A) (A) (A) (A) (A) (A) (A) (A)
                 (A) (A) (A) (A) (A) (A) (A) (A) (A) (A) (A) (A)
                 (A) (A) (A) (A) (A) (A) (A) (A) (A) (A) (A) (A)
                 (A) (A) (A) (A) (A) (A) (A) (A) (A) (A) (A) (A)
                 (A) (A) (A) (A) (A) (A) (A) (A) (A) (A) (A) (A)
                 (A) (A) (A) (A) (A) (A) (A) (A) (A) (A) (A) (A)
                 (A) (A) (A) (A) (A) (A) (A) (A) (A) (A) (A) (A)
                 (A) (A) (A) (A) (A) (A) (A) (A) (A) (A) (A) (A)
                 (A) (A) (A) (A) (A) (A) (A) (A) (A) (A) (A) (A)
                 (A) (A) (A) (A) (A) (A) (A) (A) (A) (A) (A) (A)
                 (A) (A) (A) (A) (A) (A) (A) (A) (A) (A) (A) (A)
                 (A) (A) (A) (A) (A) (A) (A) (A) (A) (A) (A) (A)
                 (A) (A) (A) (A) (A) (A) (A) (A) (A) (A) (A) (A)
                 (A) (A) (A) (A) (A) (A) (A) (A) (A) (A) (A) (A)
                 (A) (A) (A) (A) (A) (A) (A) (A) (A) (A) (A) (A)
                 (A) (A) (A) (A) (A) (A) (A) (A) (A) (A) (A) (A)
                 (A) (A) (A) (A) (A) (A) (A) (A) (A) (A) (A) (A)
                 (A) (A) (A) (A) (A) (A) (A) (A) (A) (A) (A) (A)
                 (A) (A) (A) (A) (A) (A) (A) (A) (A) (A) (A) (A)
                 (A) (A) (A) (A) (A) (A) (A) (A) (A) (A) (A) (A)
                 (A) (A) (A) (A) (A) (A) (A) (A) (A) (A) (A) (A)
                 (A) (A) (A) (A) (A) (A) (A) (A) (A) (A) (A) (A)
                 (A) (A) (A) (A) (A) (A) (A) (A) (A) (A) (A) (A)
                 (A) (A) (A) (A) (A) (A) (A) (A) (A) (A) (A) (A)
                 (A) (A) (A) (A) (A) (A) (A) (A) (A) (A) (A) (A)
                 (A) (A) (A) (A) (A) (A) (A) (A) (A) (A) (A) (A)
                 (A) (A) (A) (A) (A) (A) (A) (A) (A) (A) (A) (A)
                 (A) (A) (A) (A) (A) (A) (A) (A) (A) (A) (A) (A)
                 (A) (A) (A) (A) (A) (A) (A) (A) (A) (A) (A) (A)
                 (A) (A) (A) (A) (A) (A) (A) (A) (A) (A) (A) (A)
                 (A) (A) (A) (A) (A) (A) (A) (A) (A) (A) (A) (A)
                 (A) (A) (A) (A) (A) (A) (A) (A) (A) (A) (A) (A)
                 (A) (A) (A) (A) (A) (A) (A) (A) (A) (A) (A) (A)
                 (A) (A) (A) (A) (A) (A) (A) (A) (A) (A) (A) (A)
                 (A) (A) (A) (A) (A) (A) (A) (A) (A) (A) (A) (A)
                 (A) (A) (A) (A) (A) (A) (A) (A) (A) (A) (A) (A)
                 (A) (A) (A) (A) (A) (A) (A) (A) (A) (A) (A) (A)
                 (A) (A) (A) (A) (A) (A) (A) (A) (A) (A) (A) (A)
                 (A) (A) (A) (A) (A) (A) (A) (A) (A) (A) (A) (A)
                 (A) (A) (A) (A) (A) (A) (A) (A) (A) (A) (A) (A)
                 (A) (A) (A) (A) (A) (A) (A) (A) (A) (A) (A) (A)
                 (A) (A) (A) (A) (A) (A) (A) (A) (A) (A) (A) (A)
                 (A) (A) (A) (A) (A) (A) (A) (A) (A) (A) (A) (A)
                 (A) (A) (A) (A) (A) (A) (A) (A) (A) (A) (A) (A)
                 (A) (A) (A) (A) (A) (A) (A) (A) (A) (A) (A) (A)
                 (A) (A) (A) (A) (A) (A) (A) (A) (A) (A) (A) (A)
                 (A) (A) (A) (A) (A) (A) (A) (A) (A) (A) (A) (A)
                 (A) (A) (A) (A) (A) (A) (A) (A) (A) (A) (A) (A)
                 (A) (A) (A) (A) (A) (A) (A) (A) (A) (A) (A) (A)
                 (A) (A) (A) (A) (A) (A) (A) (A) (A) (A) (A) (A)
                 (A) (A) (A) (A) (A) (A) (A) (A) (A) (A) (A) (A)
                 (A) (A) (A) (A) (A) (A) (A) (A) (A) (A) (A) (A)
                 (A) (A) (A) (A) (A) (A) (A) (A) (A) (A) (A) (A)
                 (A) (A) (A) (A) (A) (A) (A) (A) (A) (A) (A) (A)
                 (A) (A) (A) (A) (A) (A) (A) (A) (A) (A) (A) (A)
                 (A) (A) (A) (A) (A) (A) (A) (A) (A) (A) (A) (A)
                 (A) (A) (A) (A) (A) (A) (A) (A) (A) (A) (A) (A)
                 (A) (A) (A) (A) (A) (A) (A) (A) (A) (A) (A) (A)
                 (A) (A) (A) (A) (A) (A) (A) (A) (A) (A) (A) (A)
                 (A) (A) (A) (A) (A) (A) (A) (A) (A) (A) (A) (A)
                 (A) (A) (A) (A) (A) (A) (A) (A) (A) (A) (A) (A)
                 (A) (A) (A) (A) (A) (A) (A) (A) (A) (A) (A) (A)
                 (A) (A) (A) (A) (A) (A) (A) (A) (A) (A) (A) (A)
                 (A) (A) (A) (A) (A) (A) (A) (A) (A) (A) (A) (A)
                 (A) (A) (A) (A) (A) (A) (A) (A) (A) (A) (A) (A)
                 (A) (A) (A) (A) (A) (A) (A) (A) (A) (A) (A) (A)
                 (A) (A) (A) (A) (A) (A) (A) (A) (A) (A) (A) (A)
                 (A) (A) (A) (A) (A) (A) (A) (A) (A) (A) (A) (A)
                 (A) (A) (A) (A) (A) (A) (A) (A) (A) (A) (A) (A)
                 (A) (A) (A) (A) (A) (A) (A) (A) (A) (A) (A) (A)
                 (A) (A) (A) (A) (A) (A) (A) (A) (A) (A) (A) (A)
                 (A) (A) (A) (A) (A) (A) (A) (A) (A) (A) (A) (A)
                 (A) (A) (A) (A) (A) (A) (A) (A) (A) (A) (A) (A)
                 (A) (A) (A) (A) (A) (A) (A) (A) (A) (A) (A) (A)
                 (A) (A) (A) (A) (A) (A) (A) (A) (A) (A) (A) (A)
                 (A) (A) (A) (A) (A) (A) (A) (A) (A) (A) (A) (A)
                 (A) (A) (A) (A) (A) (A) (A) (A) (A) (A) (A) (A)
                 (A) (A) (A) (A) (A) (A) (A) (A) (A) (A) (A) (A)
                 (A) (A) (A) (A) (A) (A) (A) (A) (A) (A) (A) (A)
                 (A) (A) (A) (A) (A) (A) (A) (A) (A) (A) (A) (A)
                 (A) (A) (A) (A) (A) (A) (A) (A) (A) (A) (A) (A)
                 (A) (A) (A) (A) (A) (A) (A) (A) (A) (A) (A) (A)
                 (A) (A) (A) (A) (A) (A) (A) (A) (A) (A) (A) (A)
                 (A) (A) (A) (A) (A) (A) (A) (A) (A) (A) (A) (A)
                 (A) (A) (A) (A) (A) (A) (A) (A) (A) (A) (A) (A)
                 (A) (A) (A) (A) (A) (A) (A) (A) (A) (A) (A) (A)
                 (A) (A) (A) (A) (A) (A) (A) (A) (A) (A) (A) (A)
                 (A) (A) (A) (A) (A) (A) (A) (A) (A) (A) (A) (A)
                 (A) (A) (A) (A) (A) (A) (A) (A) (A) (A) (A) (A)
                 (A) (A) (A) (A) (A) (A) (A) (A) (A) (A) (A) (A)
                 (A) (A) (A) (A) (A) (A) (A) (A) (A) (A) (A) (A)
                 (A) (A) (A) (A) (A) (A) (A) (A) (A) (A) (A) (A)
                 (A) (A) (A) (A) (A) (A) (A) (A) (A) (A) (A) (A)
                 (A) (A) (A) (A) (A) (A) (A) (A) (A) (A) (A) (A)
                 (A) (A) (A) (A) (A) (A) (A) (A) (A) (A) (A) (A)
                 (A) (A) (A) (A) (A) (A) (A) (A) (A) (A) (A) (A)
                 (A) (A) (A) (A) (A) (A) (A) (A) (A) (A) (A) (A)
                 (A) (A) (A) (A) (A) (A) (A) (A) (A) (A) (A) (A)
                 (A) (A) (A) (A) (A) (A) (A) (A) (A) (A) (A) (A)
                 (A) (A) (A) (A) (A) (A) (A) (A) (A) (A) (A) (A)
                 (A) (A) (A) (A) (A) (A) (A) (A) (A) (A) (A) (A)
                 (A) (A) (A) (A) (A) (A) (A) (A) (A) (A) (A) (A)
                 (A) (A) (A) (A) (A) (A) (A) (A) (A) (A) (A) (A)
                 (A) (A) (A) (A) (A) (A) (A) (A) (A) (A) (A) (A)
                 (A) (A) (A) (A) (A) (A) (A) (A) (A) (A) (A) (A)
                 (A) (A) (A) (A) (A) (A) (A) (A) (A) (A) (A) (A)
                 (A) (A) (A) (A) (A) (A) (A) (A) (A) (A) (A) (A)
                 (A) (A) (A) (A) (A) (A) (A) (A) (A) (A) (A) (A)
                 (A) (A) (A) (A) (A) (A) (A) (A) (A) (A) (A) (A)
                 (A) (A) (A)
 The electronic state is 1-A.
 Alpha  occ. eigenvalues -- -145.46217 -19.23897 -19.16311 -19.13406 -19.10929
 Alpha  occ. eigenvalues --  -19.10002 -19.09525 -19.08726 -19.08353 -19.07596
 Alpha  occ. eigenvalues --  -19.07308 -19.07189 -19.06596 -19.06507 -19.06047
 Alpha  occ. eigenvalues --  -19.05727 -19.05264 -19.04419 -19.04019 -19.03453
 Alpha  occ. eigenvalues --  -19.03344 -19.02109 -18.95500 -18.94265 -15.52144
 Alpha  occ. eigenvalues --  -14.57401 -14.37873 -14.36152 -14.35761 -14.35578
 Alpha  occ. eigenvalues --  -14.35003 -14.34210 -14.34122 -14.33972 -14.32762
 Alpha  occ. eigenvalues --  -14.31937 -14.31148 -14.30835 -14.30269 -14.29556
 Alpha  occ. eigenvalues --  -12.65768 -12.65720 -12.65640 -10.34297 -10.29450
 Alpha  occ. eigenvalues --  -10.28538 -10.28525 -10.27399 -10.27085 -10.26770
 Alpha  occ. eigenvalues --  -10.26608 -10.26367 -10.26268 -10.25826 -10.25291
 Alpha  occ. eigenvalues --  -10.25063 -10.24906 -10.24738 -10.24711 -10.24440
 Alpha  occ. eigenvalues --  -10.23553 -10.23552 -10.23510 -10.23396 -10.23219
 Alpha  occ. eigenvalues --  -10.22846 -10.22697 -10.22410 -10.22326 -10.21806
 Alpha  occ. eigenvalues --  -10.21238 -10.20927 -10.20875 -10.20517 -10.20469
 Alpha  occ. eigenvalues --  -10.20461 -10.19742 -10.19422 -10.19199 -10.19161
 Alpha  occ. eigenvalues --  -10.19029 -10.18955 -10.18595 -10.18519 -10.17949
 Alpha  occ. eigenvalues --  -10.17643 -10.17508 -10.16496 -10.16102 -10.16004
 Alpha  occ. eigenvalues --  -10.15973 -10.15337 -10.14816 -10.14288 -10.13806
 Alpha  occ. eigenvalues --  -10.12846 -10.10432  -1.88699  -1.16360  -1.15951
 Alpha  occ. eigenvalues --   -1.15431  -1.12894  -1.09708  -1.04684  -1.04591
 Alpha  occ. eigenvalues --   -1.03106  -1.02669  -1.02358  -1.01749  -1.01614
 Alpha  occ. eigenvalues --   -1.01368  -1.00910  -1.00601  -1.00110  -0.99474
 Alpha  occ. eigenvalues --   -0.99005  -0.98380  -0.97658  -0.97355  -0.97198
 Alpha  occ. eigenvalues --   -0.95938  -0.94836  -0.92787  -0.92490  -0.91713
 Alpha  occ. eigenvalues --   -0.91161  -0.90922  -0.90820  -0.90210  -0.89990
 Alpha  occ. eigenvalues --   -0.89410  -0.88717  -0.88568  -0.88116  -0.87883
 Alpha  occ. eigenvalues --   -0.87309  -0.86972  -0.86400  -0.85396  -0.85205
 Alpha  occ. eigenvalues --   -0.80883  -0.80350  -0.79724  -0.79600  -0.78233
 Alpha  occ. eigenvalues --   -0.78129  -0.76678  -0.75902  -0.75551  -0.74779
 Alpha  occ. eigenvalues --   -0.74320  -0.73764  -0.73734  -0.73295  -0.72668
 Alpha  occ. eigenvalues --   -0.71475  -0.71061  -0.70575  -0.70031  -0.69213
 Alpha  occ. eigenvalues --   -0.69010  -0.68750  -0.68156  -0.67700  -0.67093
 Alpha  occ. eigenvalues --   -0.66288  -0.66180  -0.65542  -0.63925  -0.63032
 Alpha  occ. eigenvalues --   -0.62917  -0.62329  -0.61988  -0.61912  -0.61373
 Alpha  occ. eigenvalues --   -0.60811  -0.60040  -0.59837  -0.59401  -0.59151
 Alpha  occ. eigenvalues --   -0.58979  -0.58705  -0.58517  -0.58022  -0.57909
 Alpha  occ. eigenvalues --   -0.57300  -0.57023  -0.56707  -0.55995  -0.55368
 Alpha  occ. eigenvalues --   -0.55294  -0.55010  -0.54627  -0.54564  -0.54117
 Alpha  occ. eigenvalues --   -0.53594  -0.53437  -0.52672  -0.52510  -0.51708
 Alpha  occ. eigenvalues --   -0.51700  -0.51528  -0.51143  -0.50998  -0.50481
 Alpha  occ. eigenvalues --   -0.50446  -0.49881  -0.49771  -0.49666  -0.48997
 Alpha  occ. eigenvalues --   -0.48529  -0.48515  -0.48473  -0.48276  -0.47960
 Alpha  occ. eigenvalues --   -0.47580  -0.47234  -0.47111  -0.47074  -0.46864
 Alpha  occ. eigenvalues --   -0.46337  -0.46221  -0.46180  -0.45845  -0.45167
 Alpha  occ. eigenvalues --   -0.45111  -0.44978  -0.44699  -0.44666  -0.44379
 Alpha  occ. eigenvalues --   -0.44258  -0.43929  -0.43811  -0.43596  -0.43409
 Alpha  occ. eigenvalues --   -0.43190  -0.42989  -0.42844  -0.42706  -0.42603
 Alpha  occ. eigenvalues --   -0.42532  -0.42240  -0.42047  -0.41713  -0.41566
 Alpha  occ. eigenvalues --   -0.41512  -0.41443  -0.41322  -0.41227  -0.41207
 Alpha  occ. eigenvalues --   -0.41146  -0.40868  -0.40852  -0.40638  -0.40545
 Alpha  occ. eigenvalues --   -0.40444  -0.40289  -0.40060  -0.39940  -0.39814
 Alpha  occ. eigenvalues --   -0.39422  -0.39230  -0.39188  -0.38920  -0.38768
 Alpha  occ. eigenvalues --   -0.38646  -0.38565  -0.38480  -0.38445  -0.38277
 Alpha  occ. eigenvalues --   -0.38202  -0.38108  -0.37972  -0.37776  -0.37667
 Alpha  occ. eigenvalues --   -0.37533  -0.37328  -0.37224  -0.37052  -0.36987
 Alpha  occ. eigenvalues --   -0.36794  -0.36707  -0.36671  -0.36501  -0.36455
 Alpha  occ. eigenvalues --   -0.36264  -0.35972  -0.35808  -0.35601  -0.35183
 Alpha  occ. eigenvalues --   -0.35053  -0.34807  -0.34651  -0.34246  -0.34139
 Alpha  occ. eigenvalues --   -0.33949  -0.33911  -0.33680  -0.33446  -0.33356
 Alpha  occ. eigenvalues --   -0.33275  -0.33040  -0.32901  -0.32380  -0.32160
 Alpha  occ. eigenvalues --   -0.32086  -0.32061  -0.31661  -0.31475  -0.31052
 Alpha  occ. eigenvalues --   -0.31010  -0.30474  -0.30188  -0.30104  -0.29890
 Alpha  occ. eigenvalues --   -0.28998  -0.28258  -0.27759  -0.27367  -0.27028
 Alpha  occ. eigenvalues --   -0.26743  -0.26547  -0.26251  -0.25918  -0.25844
 Alpha  occ. eigenvalues --   -0.25744  -0.25575  -0.25357  -0.25044  -0.24979
 Alpha  occ. eigenvalues --   -0.24601  -0.24581  -0.24502  -0.24114  -0.23862
 Alpha  occ. eigenvalues --   -0.23684  -0.23510  -0.23489  -0.22879  -0.22524
 Alpha  occ. eigenvalues --   -0.22433  -0.22407  -0.22212  -0.22090  -0.21858
 Alpha  occ. eigenvalues --   -0.21421  -0.21350  -0.21033  -0.20934  -0.20406
 Alpha  occ. eigenvalues --   -0.20025  -0.19762  -0.19315  -0.18266  -0.17387
 Alpha  occ. eigenvalues --   -0.12440  -0.12264  -0.10520
 Alpha virt. eigenvalues --   -0.09446  -0.08208  -0.03813  -0.03120  -0.01754
 Alpha virt. eigenvalues --   -0.01682  -0.00750  -0.00725  -0.00145   0.00696
 Alpha virt. eigenvalues --    0.01343   0.01790   0.01937   0.02053   0.02130
 Alpha virt. eigenvalues --    0.02510   0.02647   0.02812   0.03168   0.03272
 Alpha virt. eigenvalues --    0.03842   0.04036   0.04535   0.04748   0.04859
 Alpha virt. eigenvalues --    0.04863   0.04941   0.05440   0.05570   0.05639
 Alpha virt. eigenvalues --    0.06011   0.06031   0.06289   0.06487   0.06776
 Alpha virt. eigenvalues --    0.06982   0.07177   0.07213   0.07368   0.07589
 Alpha virt. eigenvalues --    0.07732   0.08080   0.08175   0.08324   0.08395
 Alpha virt. eigenvalues --    0.08973   0.09025   0.09363   0.09576   0.09728
 Alpha virt. eigenvalues --    0.10079   0.10493   0.10675   0.10718   0.11238
 Alpha virt. eigenvalues --    0.11357   0.11434   0.11567   0.11917   0.12046
 Alpha virt. eigenvalues --    0.12190   0.12375   0.12442   0.12787   0.12868
 Alpha virt. eigenvalues --    0.13159   0.13182   0.13212   0.13233   0.13439
 Alpha virt. eigenvalues --    0.13664   0.13753   0.13823   0.13968   0.14179
 Alpha virt. eigenvalues --    0.14249   0.14692   0.14852   0.15033   0.15115
 Alpha virt. eigenvalues --    0.15377   0.15536   0.15711   0.16045   0.16065
 Alpha virt. eigenvalues --    0.16442   0.16630   0.16978   0.17069   0.17226
 Alpha virt. eigenvalues --    0.17333   0.17714   0.17925   0.18229   0.18320
 Alpha virt. eigenvalues --    0.18392   0.18658   0.18725   0.19013   0.19071
 Alpha virt. eigenvalues --    0.19297   0.19495   0.19648   0.19896   0.20030
 Alpha virt. eigenvalues --    0.20103   0.20423   0.20617   0.20846   0.20934
 Alpha virt. eigenvalues --    0.21170   0.21647   0.21764   0.21963   0.22115
 Alpha virt. eigenvalues --    0.22240   0.22313   0.22577   0.22827   0.23103
 Alpha virt. eigenvalues --    0.23396   0.23504   0.23696   0.24112   0.24255
 Alpha virt. eigenvalues --    0.24396   0.24675   0.24846   0.24970   0.25155
 Alpha virt. eigenvalues --    0.25240   0.25528   0.25772   0.25949   0.26209
 Alpha virt. eigenvalues --    0.26461   0.26764   0.26935   0.27121   0.27270
 Alpha virt. eigenvalues --    0.27290   0.28159   0.28367   0.28749   0.28859
 Alpha virt. eigenvalues --    0.29164   0.29371   0.29528   0.29675   0.29821
 Alpha virt. eigenvalues --    0.30032   0.30105   0.30348   0.30556   0.30768
 Alpha virt. eigenvalues --    0.30961   0.31011   0.31071   0.31561   0.31631
 Alpha virt. eigenvalues --    0.31814   0.31908   0.32508   0.32702   0.32974
 Alpha virt. eigenvalues --    0.33189   0.33416   0.34084   0.34258   0.34330
 Alpha virt. eigenvalues --    0.34603   0.35208   0.35572   0.35619   0.35738
 Alpha virt. eigenvalues --    0.36181   0.36487   0.36909   0.37330   0.37390
 Alpha virt. eigenvalues --    0.37559   0.37736   0.38092   0.38333   0.38713
 Alpha virt. eigenvalues --    0.39136   0.39244   0.39859   0.39951   0.40198
 Alpha virt. eigenvalues --    0.40719   0.40916   0.41053   0.41219   0.41432
 Alpha virt. eigenvalues --    0.41562   0.41657   0.41903   0.42096   0.42258
 Alpha virt. eigenvalues --    0.42503   0.42588   0.42809   0.43219   0.43293
 Alpha virt. eigenvalues --    0.43561   0.43874   0.44289   0.44419   0.44638
 Alpha virt. eigenvalues --    0.44924   0.45046   0.45142   0.45312   0.45517
 Alpha virt. eigenvalues --    0.45696   0.45826   0.45982   0.46568   0.46789
 Alpha virt. eigenvalues --    0.47052   0.47167   0.47293   0.47637   0.47734
 Alpha virt. eigenvalues --    0.47834   0.48194   0.48235   0.48389   0.48798
 Alpha virt. eigenvalues --    0.48868   0.48919   0.49156   0.49373   0.49472
 Alpha virt. eigenvalues --    0.49809   0.50225   0.50302   0.50741   0.50891
 Alpha virt. eigenvalues --    0.51160   0.51304   0.51503   0.51521   0.51690
 Alpha virt. eigenvalues --    0.51958   0.52030   0.52212   0.52351   0.52660
 Alpha virt. eigenvalues --    0.52733   0.53194   0.53461   0.53743   0.53902
 Alpha virt. eigenvalues --    0.54072   0.54189   0.54554   0.54605   0.54814
 Alpha virt. eigenvalues --    0.55244   0.55303   0.55361   0.55490   0.55726
 Alpha virt. eigenvalues --    0.55913   0.56131   0.56284   0.56546   0.56690
 Alpha virt. eigenvalues --    0.56990   0.57116   0.57378   0.57612   0.57723
 Alpha virt. eigenvalues --    0.58116   0.58231   0.58355   0.58625   0.58708
 Alpha virt. eigenvalues --    0.58849   0.58973   0.59062   0.59164   0.59618
 Alpha virt. eigenvalues --    0.59721   0.59729   0.59893   0.60207   0.60354
 Alpha virt. eigenvalues --    0.60645   0.60787   0.60837   0.61060   0.61101
 Alpha virt. eigenvalues --    0.61220   0.61357   0.61417   0.61620   0.61704
 Alpha virt. eigenvalues --    0.61765   0.61893   0.62083   0.62167   0.62296
 Alpha virt. eigenvalues --    0.62409   0.62475   0.62619   0.62702   0.63002
 Alpha virt. eigenvalues --    0.63136   0.63278   0.63457   0.63576   0.63702
 Alpha virt. eigenvalues --    0.63891   0.64026   0.64259   0.64381   0.64561
 Alpha virt. eigenvalues --    0.64650   0.64777   0.64831   0.65009   0.65122
 Alpha virt. eigenvalues --    0.65301   0.65394   0.65568   0.65708   0.65836
 Alpha virt. eigenvalues --    0.65927   0.65942   0.66004   0.66138   0.66319
 Alpha virt. eigenvalues --    0.66380   0.66528   0.66585   0.66634   0.66761
 Alpha virt. eigenvalues --    0.66785   0.66962   0.67053   0.67172   0.67269
 Alpha virt. eigenvalues --    0.67332   0.67357   0.67509   0.67608   0.67876
 Alpha virt. eigenvalues --    0.67901   0.68009   0.68273   0.68402   0.68567
 Alpha virt. eigenvalues --    0.68810   0.68884   0.69018   0.69063   0.69161
 Alpha virt. eigenvalues --    0.69239   0.69315   0.69433   0.69487   0.69507
 Alpha virt. eigenvalues --    0.69698   0.69941   0.70008   0.70077   0.70271
 Alpha virt. eigenvalues --    0.70360   0.70523   0.70683   0.70731   0.70863
 Alpha virt. eigenvalues --    0.71080   0.71122   0.71384   0.71524   0.71719
 Alpha virt. eigenvalues --    0.71878   0.72057   0.72130   0.72306   0.72424
 Alpha virt. eigenvalues --    0.72855   0.72991   0.73094   0.73334   0.73457
 Alpha virt. eigenvalues --    0.73727   0.73819   0.73914   0.74111   0.74185
 Alpha virt. eigenvalues --    0.74368   0.74553   0.74720   0.74769   0.74940
 Alpha virt. eigenvalues --    0.75175   0.75290   0.75552   0.75675   0.75929
 Alpha virt. eigenvalues --    0.76105   0.76354   0.76409   0.76471   0.76833
 Alpha virt. eigenvalues --    0.76913   0.77065   0.77334   0.77599   0.77648
 Alpha virt. eigenvalues --    0.77887   0.77995   0.78265   0.78523   0.78605
 Alpha virt. eigenvalues --    0.78800   0.78994   0.79213   0.79653   0.79920
 Alpha virt. eigenvalues --    0.80109   0.80274   0.80647   0.80876   0.81003
 Alpha virt. eigenvalues --    0.81214   0.81355   0.81556   0.81826   0.81907
 Alpha virt. eigenvalues --    0.82143   0.82553   0.82771   0.82968   0.83161
 Alpha virt. eigenvalues --    0.83474   0.83496   0.83788   0.83897   0.84311
 Alpha virt. eigenvalues --    0.84514   0.84642   0.84755   0.84958   0.85261
 Alpha virt. eigenvalues --    0.85397   0.85830   0.86020   0.86064   0.86309
 Alpha virt. eigenvalues --    0.86616   0.86966   0.87659   0.87864   0.88278
 Alpha virt. eigenvalues --    0.88545   0.88712   0.88765   0.89207   0.89300
 Alpha virt. eigenvalues --    0.89454   0.89478   0.89973   0.90035   0.90230
 Alpha virt. eigenvalues --    0.90511   0.90630   0.91006   0.91357   0.91619
 Alpha virt. eigenvalues --    0.92200   0.92516   0.92856   0.92944   0.93434
 Alpha virt. eigenvalues --    0.93504   0.93570   0.93940   0.94346   0.94381
 Alpha virt. eigenvalues --    0.94836   0.95031   0.95099   0.95648   0.95711
 Alpha virt. eigenvalues --    0.96156   0.96569   0.96721   0.97287   0.97783
 Alpha virt. eigenvalues --    0.98027   0.98310   0.98543   0.98659   0.98763
 Alpha virt. eigenvalues --    0.98844   0.99231   0.99665   1.00017   1.00172
 Alpha virt. eigenvalues --    1.00445   1.00689   1.01025   1.01702   1.01923
 Alpha virt. eigenvalues --    1.02070   1.02313   1.02778   1.03267   1.03492
 Alpha virt. eigenvalues --    1.03818   1.04256   1.04541   1.04777   1.04963
 Alpha virt. eigenvalues --    1.05674   1.05858   1.06234   1.06514   1.06892
 Alpha virt. eigenvalues --    1.06993   1.07166   1.07451   1.07574   1.07722
 Alpha virt. eigenvalues --    1.07924   1.08117   1.08263   1.08814   1.08870
 Alpha virt. eigenvalues --    1.09092   1.09382   1.09847   1.10085   1.10166
 Alpha virt. eigenvalues --    1.10735   1.10812   1.11185   1.11205   1.11635
 Alpha virt. eigenvalues --    1.11888   1.12186   1.12413   1.12777   1.12949
 Alpha virt. eigenvalues --    1.13192   1.13428   1.13541   1.13707   1.14161
 Alpha virt. eigenvalues --    1.14674   1.14803   1.14905   1.15478   1.15592
 Alpha virt. eigenvalues --    1.15902   1.16523   1.16748   1.16974   1.16999
 Alpha virt. eigenvalues --    1.17647   1.17743   1.17914   1.18042   1.18521
 Alpha virt. eigenvalues --    1.19113   1.19244   1.19436   1.19452   1.19679
 Alpha virt. eigenvalues --    1.20115   1.20284   1.20654   1.21002   1.21073
 Alpha virt. eigenvalues --    1.21328   1.21608   1.21853   1.22297   1.22499
 Alpha virt. eigenvalues --    1.22597   1.22798   1.23266   1.23398   1.23636
 Alpha virt. eigenvalues --    1.24287   1.24350   1.24716   1.24771   1.24814
 Alpha virt. eigenvalues --    1.24965   1.25051   1.25370   1.25614   1.25918
 Alpha virt. eigenvalues --    1.26019   1.26282   1.26490   1.26568   1.27112
 Alpha virt. eigenvalues --    1.27228   1.27474   1.27552   1.27908   1.28110
 Alpha virt. eigenvalues --    1.28362   1.28390   1.28656   1.29607   1.29749
 Alpha virt. eigenvalues --    1.30154   1.30263   1.30430   1.30811   1.31152
 Alpha virt. eigenvalues --    1.31491   1.31736   1.32071   1.32331   1.32636
 Alpha virt. eigenvalues --    1.32794   1.32852   1.33307   1.33541   1.33811
 Alpha virt. eigenvalues --    1.33972   1.34291   1.34567   1.34691   1.34997
 Alpha virt. eigenvalues --    1.35143   1.35362   1.36488   1.36631   1.36981
 Alpha virt. eigenvalues --    1.37415   1.37855   1.38298   1.38906   1.39076
 Alpha virt. eigenvalues --    1.39419   1.39668   1.39830   1.40416   1.40682
 Alpha virt. eigenvalues --    1.41036   1.41237   1.41330   1.41755   1.42090
 Alpha virt. eigenvalues --    1.42181   1.42238   1.42795   1.43118   1.43284
 Alpha virt. eigenvalues --    1.44024   1.44219   1.44433   1.44824   1.45374
 Alpha virt. eigenvalues --    1.45397   1.45663   1.45969   1.46164   1.46908
 Alpha virt. eigenvalues --    1.47146   1.47273   1.47279   1.47607   1.47892
 Alpha virt. eigenvalues --    1.48271   1.48790   1.48842   1.49046   1.49430
 Alpha virt. eigenvalues --    1.49528   1.49731   1.50082   1.50168   1.50986
 Alpha virt. eigenvalues --    1.51153   1.51441   1.51605   1.51775   1.51888
 Alpha virt. eigenvalues --    1.52204   1.52405   1.52664   1.52844   1.53101
 Alpha virt. eigenvalues --    1.53242   1.53839   1.53930   1.54457   1.54684
 Alpha virt. eigenvalues --    1.54760   1.55215   1.55497   1.55736   1.56325
 Alpha virt. eigenvalues --    1.56617   1.56874   1.57243   1.57320   1.57719
 Alpha virt. eigenvalues --    1.58052   1.58490   1.58592   1.58971   1.59172
 Alpha virt. eigenvalues --    1.59472   1.59795   1.60160   1.60524   1.60711
 Alpha virt. eigenvalues --    1.61149   1.61367   1.61832   1.62804   1.62952
 Alpha virt. eigenvalues --    1.63036   1.63318   1.64013   1.64569   1.64766
 Alpha virt. eigenvalues --    1.65269   1.65566   1.66149   1.66480   1.66647
 Alpha virt. eigenvalues --    1.67316   1.67500   1.67646   1.67997   1.68185
 Alpha virt. eigenvalues --    1.68350   1.68568   1.69272   1.69499   1.69732
 Alpha virt. eigenvalues --    1.70104   1.70298   1.70531   1.70765   1.71108
 Alpha virt. eigenvalues --    1.71170   1.71490   1.71838   1.72113   1.72179
 Alpha virt. eigenvalues --    1.72515   1.72724   1.73008   1.73236   1.73387
 Alpha virt. eigenvalues --    1.73547   1.73658   1.73713   1.73969   1.74916
 Alpha virt. eigenvalues --    1.74989   1.75171   1.75232   1.75393   1.75574
 Alpha virt. eigenvalues --    1.75866   1.76293   1.76394   1.76553   1.76631
 Alpha virt. eigenvalues --    1.76744   1.76993   1.77329   1.77407   1.77531
 Alpha virt. eigenvalues --    1.77743   1.77757   1.77933   1.78071   1.78347
 Alpha virt. eigenvalues --    1.78414   1.78535   1.78788   1.78880   1.79092
 Alpha virt. eigenvalues --    1.79232   1.79283   1.79538   1.80008   1.80120
 Alpha virt. eigenvalues --    1.80303   1.80446   1.80607   1.80745   1.80872
 Alpha virt. eigenvalues --    1.80931   1.81246   1.81462   1.81676   1.81880
 Alpha virt. eigenvalues --    1.82047   1.82212   1.82380   1.82505   1.82801
 Alpha virt. eigenvalues --    1.82814   1.83002   1.83230   1.83380   1.83433
 Alpha virt. eigenvalues --    1.83773   1.84281   1.84321   1.84444   1.84661
 Alpha virt. eigenvalues --    1.84700   1.85034   1.85315   1.85394   1.85788
 Alpha virt. eigenvalues --    1.85928   1.86052   1.86419   1.86455   1.86863
 Alpha virt. eigenvalues --    1.87054   1.87345   1.87496   1.87840   1.87883
 Alpha virt. eigenvalues --    1.88103   1.88656   1.88852   1.89066   1.89113
 Alpha virt. eigenvalues --    1.89148   1.89599   1.89707   1.89765   1.89951
 Alpha virt. eigenvalues --    1.90039   1.90187   1.90534   1.90821   1.91255
 Alpha virt. eigenvalues --    1.91415   1.91579   1.91634   1.91871   1.92043
 Alpha virt. eigenvalues --    1.92213   1.92520   1.92925   1.93109   1.93150
 Alpha virt. eigenvalues --    1.93232   1.93442   1.93636   1.93789   1.93888
 Alpha virt. eigenvalues --    1.93964   1.94305   1.94372   1.94636   1.94722
 Alpha virt. eigenvalues --    1.95037   1.95290   1.95677   1.95815   1.95866
 Alpha virt. eigenvalues --    1.96040   1.96181   1.96672   1.96851   1.97127
 Alpha virt. eigenvalues --    1.97271   1.97391   1.97471   1.97809   1.97951
 Alpha virt. eigenvalues --    1.98293   1.98543   1.98594   1.98689   1.99114
 Alpha virt. eigenvalues --    1.99129   1.99385   1.99515   1.99773   2.00010
 Alpha virt. eigenvalues --    2.00184   2.00356   2.00620   2.00855   2.01344
 Alpha virt. eigenvalues --    2.01559   2.01864   2.02075   2.02171   2.02240
 Alpha virt. eigenvalues --    2.02521   2.02636   2.02731   2.03101   2.03303
 Alpha virt. eigenvalues --    2.03636   2.03678   2.04373   2.04559   2.04602
 Alpha virt. eigenvalues --    2.04895   2.04983   2.05319   2.05578   2.05780
 Alpha virt. eigenvalues --    2.06125   2.06374   2.06556   2.07333   2.07539
 Alpha virt. eigenvalues --    2.07902   2.08024   2.08298   2.08622   2.08702
 Alpha virt. eigenvalues --    2.08829   2.09067   2.09344   2.09564   2.09830
 Alpha virt. eigenvalues --    2.10199   2.10331   2.10616   2.10818   2.11111
 Alpha virt. eigenvalues --    2.11298   2.11740   2.11876   2.12171   2.12514
 Alpha virt. eigenvalues --    2.12621   2.12725   2.12949   2.13088   2.13590
 Alpha virt. eigenvalues --    2.13713   2.13736   2.13878   2.14313   2.14668
 Alpha virt. eigenvalues --    2.14792   2.15055   2.15560   2.16060   2.16181
 Alpha virt. eigenvalues --    2.16665   2.16804   2.17159   2.17307   2.17651
 Alpha virt. eigenvalues --    2.17853   2.17997   2.18299   2.18532   2.18930
 Alpha virt. eigenvalues --    2.19384   2.19666   2.19699   2.20024   2.20358
 Alpha virt. eigenvalues --    2.20701   2.21504   2.21919   2.22274   2.22364
 Alpha virt. eigenvalues --    2.22554   2.22684   2.23354   2.23539   2.23936
 Alpha virt. eigenvalues --    2.24196   2.24633   2.24663   2.24965   2.25424
 Alpha virt. eigenvalues --    2.25747   2.25844   2.26077   2.26528   2.27029
 Alpha virt. eigenvalues --    2.27551   2.28165   2.28947   2.29147   2.29236
 Alpha virt. eigenvalues --    2.29826   2.30310   2.30641   2.30891   2.31219
 Alpha virt. eigenvalues --    2.31359   2.31627   2.31832   2.32472   2.32656
 Alpha virt. eigenvalues --    2.33243   2.33300   2.33770   2.33787   2.34047
 Alpha virt. eigenvalues --    2.34667   2.34854   2.35219   2.35655   2.35685
 Alpha virt. eigenvalues --    2.35960   2.36908   2.37184   2.37293   2.37769
 Alpha virt. eigenvalues --    2.38314   2.38479   2.38949   2.39380   2.39689
 Alpha virt. eigenvalues --    2.39829   2.40286   2.40437   2.40712   2.40803
 Alpha virt. eigenvalues --    2.41062   2.41331   2.41595   2.41823   2.42060
 Alpha virt. eigenvalues --    2.42372   2.42432   2.42921   2.43154   2.43356
 Alpha virt. eigenvalues --    2.43410   2.43776   2.44042   2.44706   2.45115
 Alpha virt. eigenvalues --    2.45214   2.45581   2.45859   2.46611   2.47110
 Alpha virt. eigenvalues --    2.47417   2.47971   2.48182   2.48596   2.49221
 Alpha virt. eigenvalues --    2.49777   2.50621   2.51090   2.51490   2.51724
 Alpha virt. eigenvalues --    2.52029   2.52300   2.52579   2.52785   2.53072
 Alpha virt. eigenvalues --    2.53295   2.53576   2.53904   2.54578   2.54742
 Alpha virt. eigenvalues --    2.54838   2.55303   2.55941   2.56475   2.56735
 Alpha virt. eigenvalues --    2.57288   2.57585   2.58156   2.58226   2.58887
 Alpha virt. eigenvalues --    2.59034   2.59113   2.59312   2.59618   2.59712
 Alpha virt. eigenvalues --    2.59832   2.60291   2.60428   2.60676   2.60880
 Alpha virt. eigenvalues --    2.61423   2.61596   2.62049   2.62388   2.62624
 Alpha virt. eigenvalues --    2.63026   2.63212   2.63240   2.63557   2.63643
 Alpha virt. eigenvalues --    2.63744   2.64005   2.64266   2.64577   2.65094
 Alpha virt. eigenvalues --    2.65229   2.65783   2.66036   2.66455   2.66894
 Alpha virt. eigenvalues --    2.67163   2.67344   2.67507   2.68575   2.68816
 Alpha virt. eigenvalues --    2.69079   2.69636   2.69976   2.70059   2.70631
 Alpha virt. eigenvalues --    2.71004   2.71272   2.71476   2.71623   2.72172
 Alpha virt. eigenvalues --    2.72348   2.72685   2.72753   2.73468   2.73475
 Alpha virt. eigenvalues --    2.73935   2.74124   2.74232   2.74410   2.74559
 Alpha virt. eigenvalues --    2.75057   2.75488   2.75550   2.75679   2.75716
 Alpha virt. eigenvalues --    2.76489   2.76663   2.76852   2.77037   2.77138
 Alpha virt. eigenvalues --    2.77343   2.77448   2.77734   2.78498   2.78699
 Alpha virt. eigenvalues --    2.79060   2.79328   2.79380   2.80117   2.80305
 Alpha virt. eigenvalues --    2.80545   2.80757   2.80816   2.81083   2.81592
 Alpha virt. eigenvalues --    2.81839   2.82277   2.82364   2.82403   2.82692
 Alpha virt. eigenvalues --    2.82869   2.83311   2.83374   2.83475   2.83695
 Alpha virt. eigenvalues --    2.83900   2.83999   2.84123   2.84438   2.84614
 Alpha virt. eigenvalues --    2.85133   2.85379   2.85564   2.85894   2.86267
 Alpha virt. eigenvalues --    2.86833   2.86908   2.87576   2.87947   2.88337
 Alpha virt. eigenvalues --    2.88411   2.88843   2.88940   2.89224   2.89334
 Alpha virt. eigenvalues --    2.89398   2.89913   2.90286   2.90640   2.90947
 Alpha virt. eigenvalues --    2.91221   2.91327   2.91701   2.92077   2.92398
 Alpha virt. eigenvalues --    2.92651   2.93256   2.93445   2.93791   2.94086
 Alpha virt. eigenvalues --    2.94435   2.94901   2.95203   2.95345   2.95465
 Alpha virt. eigenvalues --    2.96234   2.96582   2.96998   2.97098   2.97145
 Alpha virt. eigenvalues --    2.97353   2.97532   2.97743   2.98405   2.98606
 Alpha virt. eigenvalues --    2.98758   2.99048   2.99377   3.00153   3.00240
 Alpha virt. eigenvalues --    3.00459   3.00880   3.01187   3.01966   3.02391
 Alpha virt. eigenvalues --    3.02870   3.03033   3.03284   3.03834   3.04549
 Alpha virt. eigenvalues --    3.04773   3.05354   3.05483   3.05628   3.06144
 Alpha virt. eigenvalues --    3.06502   3.07202   3.07435   3.07874   3.07905
 Alpha virt. eigenvalues --    3.07922   3.08849   3.09180   3.10046   3.10406
 Alpha virt. eigenvalues --    3.10779   3.11310   3.11664   3.11918   3.12501
 Alpha virt. eigenvalues --    3.13016   3.13797   3.14042   3.14629   3.14818
 Alpha virt. eigenvalues --    3.15428   3.15692   3.15893   3.16175   3.16320
 Alpha virt. eigenvalues --    3.16697   3.16762   3.17086   3.17673   3.17747
 Alpha virt. eigenvalues --    3.18532   3.19082   3.19113   3.19405   3.19871
 Alpha virt. eigenvalues --    3.20166   3.20485   3.20710   3.20975   3.21609
 Alpha virt. eigenvalues --    3.21792   3.21869   3.22113   3.22257   3.22445
 Alpha virt. eigenvalues --    3.23011   3.23191   3.23864   3.24720   3.24840
 Alpha virt. eigenvalues --    3.26025   3.26589   3.27183   3.27653   3.28379
 Alpha virt. eigenvalues --    3.28479   3.28684   3.29203   3.30760   3.30821
 Alpha virt. eigenvalues --    3.32182   3.32525   3.33463   3.33681   3.34794
 Alpha virt. eigenvalues --    3.35435   3.36759   3.38115   3.39577   3.39954
 Alpha virt. eigenvalues --    3.40311   3.40757   3.44322   3.47968   3.50569
 Alpha virt. eigenvalues --    3.52668   3.52870   3.53801   3.55304   3.55722
 Alpha virt. eigenvalues --    3.55962   3.56756   3.57951   3.59555   3.59854
 Alpha virt. eigenvalues --    3.59972   3.60499   3.61944   3.63379   3.63616
 Alpha virt. eigenvalues --    3.64603   3.66074   3.67196   3.67766   3.69010
 Alpha virt. eigenvalues --    3.69083   3.69664   3.70094   3.70099   3.70844
 Alpha virt. eigenvalues --    3.71236   3.71473   3.71717   3.71983   3.72067
 Alpha virt. eigenvalues --    3.72460   3.73771   3.74298   3.74813   3.76074
 Alpha virt. eigenvalues --    3.76314   3.76501   3.79617   3.83299
          Condensed to atoms (all electrons):
 Mulliken charges:
               1
     1  C    0.058502
     2  C   -0.023168
     3  O   -0.305128
     4  H    0.017436
     5  H    0.043072
     6  H   -0.018481
     7  N   -0.134245
     8  C    0.160678
     9  C    0.083654
    10  O   -0.293359
    11  C    0.027144
    12  C    0.077060
    13  O   -0.408329
    14  O   -0.375501
    15  H    0.115155
    16  H    0.003181
    17  H   -0.023375
    18  H    0.010523
    19  N   -0.103029
    20  C    0.116129
    21  C    0.063315
    22  O   -0.233474
    23  C    0.062002
    24  C   -0.029282
    25  C   -0.019027
    26  C    0.034130
    27  N    0.087441
    28  H    0.096337
    29  H   -0.015658
    30  H    0.016332
    31  H    0.006758
    32  H   -0.014985
    33  H    0.018779
    34  H    0.049053
    35  H    0.040827
    36  H    0.073756
    37  H    0.065985
    38  H    0.173186
    39  H    0.185067
    40  H    0.177762
    41  N   -0.198512
    42  C    0.112065
    43  C    0.109039
    44  O   -0.291941
    45  C    0.131645
    46  C    0.070235
    47  O   -0.366401
    48  O   -0.488694
    49  H    0.101753
    50  H    0.039358
    51  H   -0.020551
    52  H   -0.005861
    53  N   -0.133532
    54  C    0.158741
    55  C    0.008357
    56  O   -0.252338
    57  H    0.143932
    58  H    0.037703
    59  H    0.051154
    60  N   -0.120803
    61  C    0.018127
    62  C    0.089879
    63  O   -0.272982
    64  C    0.149791
    65  C    0.006768
    66  N   -0.031982
    67  O   -0.254351
    68  H    0.125131
    69  H    0.041360
    70  H   -0.021780
    71  H    0.027232
    72  H    0.114974
    73  H    0.125811
    74  N   -0.106711
    75  C    0.124134
    76  C    0.064504
    77  O   -0.262352
    78  H    0.124689
    79  H    0.044921
    80  H    0.078327
    81  N   -0.112329
    82  C    0.087796
    83  C    0.065184
    84  O   -0.243135
    85  C    0.175570
    86  C   -0.013181
    87  C    0.024750
    88  C   -0.016952
    89  C   -0.011683
    90  C   -0.063502
    91  C    0.170151
    92  O   -0.196695
    93  H    0.099029
    94  H    0.006416
    95  H   -0.019705
    96  H   -0.014408
    97  H   -0.023050
    98  H   -0.035575
    99  H   -0.019383
   100  H   -0.041327
   101  H    0.176405
   102  N   -0.146535
   103  C    0.120309
   104  C    0.079235
   105  O   -0.277136
   106  C   -0.097115
   107  C    0.023004
   108  C    0.047855
   109  C    0.021055
   110  H    0.105063
   111  H    0.068122
   112  H    0.011028
   113  H   -0.001290
   114  H    0.017568
   115  H   -0.051931
   116  H    0.009070
   117  H    0.010860
   118  H    0.015282
   119  H    0.017965
   120  H   -0.007025
   121  N   -0.116286
   122  C    0.139840
   123  C    0.062833
   124  O   -0.315032
   125  C    0.217545
   126  O   -0.301980
   127  H    0.097591
   128  H    0.013367
   129  H   -0.002842
   130  H    0.000295
   131  H    0.162450
   132  N   -0.111209
   133  C    0.099903
   134  C    0.080374
   135  O   -0.241112
   136  C    0.053119
   137  H    0.131087
   138  H   -0.004166
   139  H    0.028646
   140  H    0.014279
   141  H    0.002164
   142  N   -0.175897
   143  C    0.064268
   144  C    0.081921
   145  O   -0.253265
   146  C    0.078059
   147  H    0.118206
   148  H   -0.010337
   149  H    0.050995
   150  H    0.016075
   151  H   -0.007720
   152  N   -0.135002
   153  C    0.122466
   154  C    0.067100
   155  O   -0.275977
   156  C    0.009327
   157  C    0.082789
   158  C    0.108325
   159  O   -0.445403
   160  O   -0.428600
   161  H    0.115199
   162  H    0.022820
   163  H    0.029869
   164  H   -0.024312
   165  H    0.043134
   166  H    0.022779
   167  N   -0.160421
   168  C    0.133425
   169  H    0.010416
   170  H    0.038445
   171  H    0.026934
   172  H    0.095786
   173  Ca   1.382590
   174  O   -0.307265
   175  H    0.195952
   176  H    0.199626
 Sum of Mulliken charges =  -0.00000
 Mulliken charges with hydrogens summed into heavy atoms:
               1
     1  C    0.100529
     2  C   -0.023168
     3  O   -0.305128
     7  N   -0.019090
     8  C    0.163859
     9  C    0.083654
    10  O   -0.293359
    11  C    0.014292
    12  C    0.077060
    13  O   -0.408329
    14  O   -0.375501
    19  N   -0.006691
    20  C    0.100471
    21  C    0.063315
    22  O   -0.233474
    23  C    0.085092
    24  C   -0.025489
    25  C    0.070853
    26  C    0.173871
    27  N    0.623455
    41  N   -0.096759
    42  C    0.151423
    43  C    0.109039
    44  O   -0.291941
    45  C    0.105233
    46  C    0.070235
    47  O   -0.366401
    48  O   -0.488694
    53  N    0.010400
    54  C    0.247598
    55  C    0.008357
    56  O   -0.252338
    60  N    0.004329
    61  C    0.059487
    62  C    0.089879
    63  O   -0.272982
    64  C    0.155242
    65  C    0.006768
    66  N    0.208803
    67  O   -0.254351
    74  N    0.017978
    75  C    0.247382
    76  C    0.064504
    77  O   -0.262352
    81  N   -0.013300
    82  C    0.094212
    83  C    0.065184
    84  O   -0.243135
    85  C    0.141458
    86  C   -0.013181
    87  C    0.001701
    88  C   -0.052527
    89  C   -0.031066
    90  C   -0.104829
    91  C    0.170151
    92  O   -0.020290
   102  N   -0.041473
   103  C    0.188431
   104  C    0.079235
   105  O   -0.277136
   106  C   -0.086088
   107  C    0.039283
   108  C    0.015854
   109  C    0.047277
   121  N   -0.018695
   122  C    0.153207
   123  C    0.062833
   124  O   -0.315032
   125  C    0.214998
   126  O   -0.139530
   132  N    0.019879
   133  C    0.095737
   134  C    0.080374
   135  O   -0.241112
   136  C    0.098207
   142  N   -0.057690
   143  C    0.053931
   144  C    0.081921
   145  O   -0.253265
   146  C    0.137409
   152  N   -0.019803
   153  C    0.145286
   154  C    0.067100
   155  O   -0.275977
   156  C    0.014884
   157  C    0.148703
   158  C    0.108325
   159  O   -0.445403
   160  O   -0.428600
   167  N   -0.064634
   168  C    0.209221
   173  Ca   1.382590
   174  O    0.088313
 DipInt: DoE/N= T F RetVal/Mat= T F Init=T NMatP=  1 IDeriv=0 Min/MaxMlt=  0  4
 Entering OneElI...
 OneElI was handed  1333951383 working-precision words.
 Multipole integrals L=0 to 4 MinM= 0 MaxM= 0.
 Requested accuracy = 0.1000D-12
 ShPair: Thresh= 1.00D-13 NBox=     0 BxSize= 0.00D+00 RnKept= 3.14D+01
         NSMCal=               327645 NSMKep=              140247
 PrmmSu-InSpLW:  IPartL=    0 NPrtUS=    1 NPrtUL=    1 DoSpLW=F IThBeg=    0 IThEnd=    0 NThAct=    1.
 PrsmSu:  NPrtUS=   1 ThrOK=F IAlg=1 NPAlg=1 LenDen=           0 ISkipM=0 DoSpLW=F IThBeg=    0 IThEnd=    0.
 Prism:   IPart=     0 DynPar=F LinDyn=F Incr=         512.
 PRISM was handed  1324711723 working-precision words and140247 shell-pairs
 IPart=  0 NShTot=      140247 NBatch=         323 AvBLen=       434.2
 PrsmSu-ThDecC:  IPartSL=    0    0 NPrtUSL=    1    1 IThBeg=    0 IThEnd=    0 CPU=   -1 GPU=   -1 NThAct=    1.
 PrSmSu:  NxtVal=            513.
 Electronic moments (au):
       -716.00000000         -8.47201009         -5.89295682         12.95816217
     -64677.97490454     -33799.85657175     -18132.64787501        -30.04511708
        129.92231396        -40.92943778     110491.97945622     -11248.32895201
     -16595.01178050     -11347.61239800      28395.63379879     -80511.94922101
     -52878.63323492      -9881.20126528     -30889.74546387     -10065.24957993
  -12133703.96905403   -3841651.53629514   -1315077.26268450     160937.59879318
    -173558.42690978    -255217.97126708    -568504.09741627     -84164.77979452
     155522.95449021   -1805363.61889756   -1229218.58004543    -814169.80696255
     340772.32496389    -387939.11740367     -43342.07837547
 Electronic spatial extent (au):  <R**2>=         116610.4794
 DipInt: DoE/N= F T RetVal/Mat= T F Init=T NMatP=  1 IDeriv=0 Min/MaxMlt=  0  4
 Nuclear    moments (au):
        716.00000000         -0.00000000          0.00000000         -0.00000000
      64217.23226628      33558.27258822      17799.83481412          0.00000000
          0.00000000          0.00000000    -113917.74174224       9657.67111747
      17824.47191907      11360.04466955     -28850.55735837      82637.75789263
      53362.29008502       8957.23043678      31393.27916205       9239.87083913
   11894677.28162284    3775593.02341621    1269706.25235827    -171174.83422981
     192177.24856151     265688.90366334     573640.62240981      97640.89827929
    -163766.21175425    1756742.48754859    1189004.08501802     789682.62584413
    -347626.78630898     396829.70433236      36274.84285639
 Total      moments (au):
          0.00000000         -8.47201009         -5.89295682         12.95816217
       -460.74263826       -241.58398353       -332.81306089        -30.04511708
        129.92231396        -40.92943778      -3425.76228602      -1590.65783454
       1229.46013857         12.43227155       -454.92355958       2125.80867163
        483.65685010       -923.97082851        503.53369818       -825.37874080
    -239026.68743119     -66058.51287893     -45371.01032623     -10237.23543663
      18618.82165173      10470.93239626       5136.52499354      13476.11848477
      -8243.25726404     -48621.13134897     -40214.49502741     -24487.18111842
      -6854.46134509       8890.58692870      -7067.23551908
 Traceless Quadrup. (au):
       -115.69607737        103.46257736         12.23350000        -30.04511708
        129.92231396        -40.92943778
 Charge=              0.0000 electrons
 Dipole moment (field-independent basis, Debye):
    X=            -21.5337    Y=            -14.9784    Z=             32.9364  Tot=             42.1053
 Quadrupole moment (field-independent basis, Debye-Ang):
   XX=           -619.7146   YY=           -324.9387   ZZ=           -447.6450
   XY=            -40.4117   XZ=            174.7500   YZ=            -55.0515
 Traceless Quadrupole moment (field-independent basis, Debye-Ang):
   XX=           -155.6152   YY=            139.1607   ZZ=             16.4545
   XY=            -40.4117   XZ=            174.7500   YZ=            -55.0515
 Octapole moment (field-independent basis, Debye-Ang**2):
  XXX=          -2438.3256  YYY=          -1132.1690  ZZZ=            875.0824  XYY=              8.8488
  XXY=           -323.7971  XXZ=           1513.0687  XZZ=            344.2483  YZZ=           -657.6468
  YYZ=            358.3959  XYZ=           -587.4728
 Hexadecapole moment (field-independent basis, Debye-Ang**3):
 XXXX=         -90028.9122 YYYY=         -24880.8036 ZZZZ=         -17088.8981 XXXY=          -3855.8338
 XXXZ=           7012.7410 YYYX=           3943.8552 YYYZ=           1934.6616 ZZZX=           5075.7524
 ZZZY=          -3104.8060 XXYY=         -18313.0495 XXZZ=         -15146.7072 YYZZ=          -9223.0466
 XXYZ=          -2581.7188 YYXZ=           3348.6214 ZZXY=          -2661.8598
 N-N= 1.986719380876D+04 E-N=-5.222259245811D+04  KE= 5.290234489831D+03
 Leave Link  601 at Wed Sep 18 14:55:09 2019, MaxMem=  1342177280 cpu:              43.0 elap:               1.1
 FitSet:  NAtFit=   176 NAtPot=   176 NAtFrz=     0 MDM=   180 TotChg=   0.00000
 Merz-Kollman atomic radii used.
 Read replacement radii for each type of atom:
 Rad(20) =   1.700000000000D+00
 Atom Element Radius
    1     6    1.50
    2     6    1.50
    3     8    1.40
    4     1    1.20
    5     1    1.20
    6     1    1.20
    7     7    1.50
    8     6    1.50
    9     6    1.50
   10     8    1.40
   11     6    1.50
   12     6    1.50
   13     8    1.40
   14     8    1.40
   15     1    1.20
   16     1    1.20
   17     1    1.20
   18     1    1.20
   19     7    1.50
   20     6    1.50
   21     6    1.50
   22     8    1.40
   23     6    1.50
   24     6    1.50
   25     6    1.50
   26     6    1.50
   27     7    1.50
   28     1    1.20
   29     1    1.20
   30     1    1.20
   31     1    1.20
   32     1    1.20
   33     1    1.20
   34     1    1.20
   35     1    1.20
   36     1    1.20
   37     1    1.20
   38     1    1.20
   39     1    1.20
   40     1    1.20
   41     7    1.50
   42     6    1.50
   43     6    1.50
   44     8    1.40
   45     6    1.50
   46     6    1.50
   47     8    1.40
   48     8    1.40
   49     1    1.20
   50     1    1.20
   51     1    1.20
   52     1    1.20
   53     7    1.50
   54     6    1.50
   55     6    1.50
   56     8    1.40
   57     1    1.20
   58     1    1.20
   59     1    1.20
   60     7    1.50
   61     6    1.50
   62     6    1.50
   63     8    1.40
   64     6    1.50
   65     6    1.50
   66     7    1.50
   67     8    1.40
   68     1    1.20
   69     1    1.20
   70     1    1.20
   71     1    1.20
   72     1    1.20
   73     1    1.20
   74     7    1.50
   75     6    1.50
   76     6    1.50
   77     8    1.40
   78     1    1.20
   79     1    1.20
   80     1    1.20
   81     7    1.50
   82     6    1.50
   83     6    1.50
   84     8    1.40
   85     6    1.50
   86     6    1.50
   87     6    1.50
   88     6    1.50
   89     6    1.50
   90     6    1.50
   91     6    1.50
   92     8    1.40
   93     1    1.20
   94     1    1.20
   95     1    1.20
   96     1    1.20
   97     1    1.20
   98     1    1.20
   99     1    1.20
  100     1    1.20
  101     1    1.20
  102     7    1.50
  103     6    1.50
  104     6    1.50
  105     8    1.40
  106     6    1.50
  107     6    1.50
  108     6    1.50
  109     6    1.50
  110     1    1.20
  111     1    1.20
  112     1    1.20
  113     1    1.20
  114     1    1.20
  115     1    1.20
  116     1    1.20
  117     1    1.20
  118     1    1.20
  119     1    1.20
  120     1    1.20
  121     7    1.50
  122     6    1.50
  123     6    1.50
  124     8    1.40
  125     6    1.50
  126     8    1.40
  127     1    1.20
  128     1    1.20
  129     1    1.20
  130     1    1.20
  131     1    1.20
  132     7    1.50
  133     6    1.50
  134     6    1.50
  135     8    1.40
  136     6    1.50
  137     1    1.20
  138     1    1.20
  139     1    1.20
  140     1    1.20
  141     1    1.20
  142     7    1.50
  143     6    1.50
  144     6    1.50
  145     8    1.40
  146     6    1.50
  147     1    1.20
  148     1    1.20
  149     1    1.20
  150     1    1.20
  151     1    1.20
  152     7    1.50
  153     6    1.50
  154     6    1.50
  155     8    1.40
  156     6    1.50
  157     6    1.50
  158     6    1.50
[...]
 **** Fit       0.027374
 **** Fit       0.020650
 **** Fit       0.009902
 **** Fit      -0.007934
 **** Fit      -0.017464
 **** Fit       0.007811
 **** Fit       0.021294
 **** Fit       0.031722
 **** Fit       0.038067
 **** Fit       0.039116
 **** Fit       0.034519
 **** Fit       0.025758
 **** Fit       0.014839
 **** Fit       0.003149
 **** Fit      -0.017691
 **** Fit      -0.025838
 **** Fit      -0.032037
 **** Fit       0.008764
 **** Fit       0.021876
 **** Fit       0.033270
 **** Fit       0.042494
 **** Fit       0.048810
 **** Fit       0.017359
 **** Fit       0.005311
 **** Fit      -0.006859
 **** Fit       0.015471
 **** Fit       0.028035
 **** Fit       0.039428
 **** Fit       0.049436
 **** Fit       0.006792
 **** Fit      -0.006808
 **** Fit       0.007559
 **** Fit       0.020545
 **** Fit       0.032973
 **** Fit       0.044484
 **** Fit       0.055218
 **** Fit      -0.006779
 **** Fit       0.018234
 **** Fit       0.031405
 **** Fit       0.043622
 **** Fit       0.055153
 **** Fit       0.014829
 **** Fit       0.028781
 **** Fit       0.041508
 **** Fit       0.053299
 **** Fit       0.010858
 **** Fit       0.025545
 **** Fit       0.038646
 **** Fit       0.050436
 **** Fit       0.061623
 **** Fit       0.023353
 **** Fit       0.037035
 **** Fit       0.048995
 **** Fit       0.059873
 **** Fit       0.021361
 **** Fit       0.035352
 **** Fit       0.047281
 **** Fit       0.057709
 **** Fit       0.027858
 **** Fit       0.040778
 **** Fit       0.051635
 **** Fit       0.060963
 **** Fit       0.020206
 **** Fit       0.034173
 **** Fit       0.045692
 **** Fit       0.055267
 **** Fit       0.063334
 **** Fit       0.029059
 **** Fit       0.041404
 **** Fit       0.051489
 **** Fit       0.059754
 **** Fit       0.066570
 **** Fit       0.024181
 **** Fit       0.037191
 **** Fit       0.047762
 **** Fit       0.056347
 **** Fit       0.063310
 **** Fit       0.068995
 **** Fit       0.027532
 **** Fit       0.039674
 **** Fit       0.049536
 **** Fit       0.057504
 **** Fit       0.063919
 **** Fit       0.069135
 **** Fit      -0.035963
 **** Fit      -0.030127
 **** Fit      -0.027545
 **** Fit       0.031065
 **** Fit       0.042097
 **** Fit       0.051098
 **** Fit       0.058367
 **** Fit       0.064198
 **** Fit       0.068921
 **** Fit       0.072966
 **** Fit      -0.033388
 **** Fit      -0.026136
 **** Fit      -0.022663
 **** Fit       0.023442
 **** Fit       0.035507
 **** Fit       0.045512
 **** Fit       0.053639
 **** Fit       0.060120
 **** Fit       0.065218
 **** Fit       0.069240
 **** Fit       0.072517
 **** Fit       0.036116
 **** Fit      -0.029322
 **** Fit      -0.021227
 **** Fit      -0.016903
 **** Fit      -0.016057
 **** Fit       0.028790
 **** Fit       0.039453
 **** Fit       0.048330
 **** Fit       0.055475
 **** Fit       0.061035
 **** Fit       0.065205
 **** Fit       0.068167
 **** Fit       0.069982
 **** Fit       0.070371
 **** Fit       0.055009
 **** Fit       0.043091
 **** Fit       0.028452
 **** Fit      -0.023421
 **** Fit      -0.015436
 **** Fit      -0.010598
 **** Fit      -0.008814
 **** Fit       0.022871
 **** Fit       0.033380
 **** Fit       0.042623
 **** Fit       0.050300
 **** Fit       0.056339
 **** Fit       0.060785
 **** Fit       0.063702
 **** Fit       0.065072
 **** Fit       0.064659
 **** Fit       0.061965
 **** Fit       0.056439
 **** Fit       0.047847
 **** Fit       0.036394
 **** Fit       0.022522
 **** Fit      -0.022342
 **** Fit      -0.014430
 **** Fit      -0.007622
 **** Fit      -0.003156
 **** Fit      -0.001068
 **** Fit      -0.000520
 **** Fit       0.014278
 **** Fit       0.023364
 **** Fit       0.032759
 **** Fit       0.041418
 **** Fit       0.048707
 **** Fit       0.054318
 **** Fit       0.058122
 **** Fit       0.060033
 **** Fit       0.059871
 **** Fit       0.057303
 **** Fit       0.051955
 **** Fit       0.043680
 **** Fit       0.032716
 **** Fit       0.019644
 **** Fit       0.005396
 **** Fit      -0.004480
 **** Fit      -0.011024
 **** Fit      -0.012788
 **** Fit      -0.010107
 **** Fit      -0.004889
 **** Fit       0.000484
 **** Fit       0.004518
 **** Fit       0.007087
 **** Fit       0.009147
 **** Fit       0.012116
 **** Fit       0.017043
 **** Fit       0.023956
 **** Fit       0.031950
 **** Fit       0.039821
 **** Fit       0.046583
 **** Fit       0.051611
 **** Fit       0.054538
 **** Fit       0.055098
 **** Fit       0.053007
 **** Fit       0.048008
 **** Fit       0.040090
 **** Fit       0.029686
 **** Fit       0.017741
 **** Fit       0.005726
 **** Fit       0.008373
 **** Fit       0.002970
 **** Fit       0.002351
 **** Fit       0.005314
 **** Fit       0.009451
 **** Fit       0.013176
 **** Fit       0.016646
 **** Fit       0.021026
 **** Fit       0.027072
 **** Fit       0.034278
 **** Fit       0.041275
 **** Fit       0.046691
 **** Fit       0.049556
 **** Fit       0.049261
 **** Fit       0.045457
 **** Fit       0.038218
 **** Fit       0.028360
 **** Fit       0.017608
 **** Fit       0.018353
 **** Fit       0.014005
 **** Fit       0.014684
 **** Fit       0.018120
 **** Fit       0.022552
 **** Fit       0.028201
 **** Fit       0.034960
 **** Fit       0.040995
 **** Fit       0.043986
 **** Fit       0.042433
 **** Fit       0.036182
 **** Fit       0.026958
 **** Fit       0.025764
 **** Fit       0.023188
 **** Fit       0.027197
 **** Fit       0.033871
 **** Fit       0.037776
 **** Fit       0.033793
 **** Fit       0.030865
 **** Fit       0.035766
 **** Fit       0.028901
 **** Fit       0.026847
 **** Fit       0.029655
 **** Fit       0.035950
 **** Fit       0.034668
 **** Fit       0.022183
 **** Fit       0.018883
 **** Fit       0.019287
 **** Fit       0.023830
 **** Fit       0.031049
 **** Fit       0.038556
 **** Fit       0.044906
 **** Fit       0.034735
 **** Fit       0.027844
 **** Fit       0.015514
 **** Fit       0.011005
 **** Fit       0.009280
 **** Fit       0.011672
 **** Fit       0.035059
 **** Fit       0.028131
 **** Fit       0.021489
 **** Fit       0.009069
 **** Fit       0.003054
 **** Fit      -0.000915
 **** Fit      -0.000911
 **** Fit       0.036536
 **** Fit       0.029707
 **** Fit       0.022791
 **** Fit       0.015844
 **** Fit       0.003173
 **** Fit      -0.004657
 **** Fit      -0.011331
 **** Fit       0.039286
 **** Fit       0.032652
 **** Fit       0.025761
 **** Fit       0.018570
 **** Fit       0.011031
 **** Fit      -0.001684
 **** Fit      -0.011173
 **** Fit       0.048221
 **** Fit       0.042344
 **** Fit       0.036127
 **** Fit       0.029554
 **** Fit       0.022588
 **** Fit       0.015148
 **** Fit       0.007103
 **** Fit      -0.004952
 **** Fit       0.051931
 **** Fit       0.046646
 **** Fit       0.040902
 **** Fit       0.034702
 **** Fit       0.028041
 **** Fit       0.020885
 **** Fit       0.013135
 **** Fit       0.004609
 **** Fit      -0.006259
 **** Fit       0.042060
 **** Fit       0.035696
 **** Fit       0.028760
 **** Fit       0.021241
 **** Fit       0.013049
 **** Fit       0.003988
 **** Fit      -0.005646
 **** Fit       0.022536
 **** Fit       0.014084
 **** Fit       0.004787
 **** Fit       0.065668
 **** Fit       0.016570
 **** Fit       0.007061
 **** Fit       0.065062
 **** Fit       0.063614
 **** Fit       0.063548
 **** Fit       0.010618
 **** Fit       0.068137
 **** Fit       0.064673
 **** Fit       0.063325
 **** Fit       0.063291
 **** Fit       0.064040
 **** Fit       0.065213
 **** Fit       0.067566
 **** Fit       0.064532
 **** Fit       0.063528
 **** Fit       0.063817
 **** Fit       0.069311
 **** Fit       0.065662
 **** Fit       0.064425
 **** Fit       0.071082
 **** Fit       0.067051
 **** Fit       0.069932
 **** Fit       0.044913
 **** Fit       0.042450
 **** Fit       0.042346
 **** Fit       0.044818
 **** Fit       0.046921
 **** Fit       0.047246
 **** Fit       0.045246
 **** Fit       0.039427
 **** Fit       0.038230
 **** Fit       0.039656
 **** Fit       0.042542
 **** Fit       0.045205
 **** Fit       0.047164
 **** Fit       0.048579
 **** Fit       0.049390
 **** Fit       0.049316
 **** Fit       0.048108
 **** Fit       0.045703
 **** Fit       0.042453
 **** Fit       0.035757
 **** Fit       0.041009
 **** Fit       0.044324
 **** Fit       0.046488
 **** Fit       0.047869
 **** Fit       0.048969
 **** Fit       0.049975
 **** Fit       0.050795
 **** Fit       0.051240
 **** Fit       0.051136
 **** Fit       0.050340
 **** Fit       0.048736
 **** Fit       0.046258
 **** Fit       0.042972
 **** Fit       0.039216
 **** Fit       0.048677
 **** Fit       0.049497
 **** Fit       0.049794
 **** Fit       0.050179
 **** Fit       0.050813
 **** Fit       0.051575
 **** Fit       0.052269
 **** Fit       0.052724
 **** Fit       0.052812
 **** Fit       0.052428
 **** Fit       0.051473
 **** Fit       0.049844
 **** Fit       0.047440
 **** Fit       0.044203
 **** Fit       0.040192
 **** Fit       0.053259
 **** Fit       0.052170
 **** Fit       0.051800
 **** Fit       0.052042
 **** Fit       0.052621
 **** Fit       0.053282
 **** Fit       0.053839
 **** Fit       0.054169
 **** Fit       0.054181
 **** Fit       0.053797
 **** Fit       0.052929
 **** Fit       0.051472
 **** Fit       0.049302
 **** Fit       0.046292
 **** Fit       0.042353
 **** Fit       0.056996
 **** Fit       0.054560
 **** Fit       0.053464
 **** Fit       0.053294
 **** Fit       0.053638
 **** Fit       0.054193
 **** Fit       0.054761
 **** Fit       0.055217
 **** Fit       0.055480
 **** Fit       0.055485
 **** Fit       0.055168
 **** Fit       0.054452
 **** Fit       0.053236
 **** Fit       0.051394
 **** Fit       0.048772
 **** Fit       0.045209
 **** Fit       0.057492
 **** Fit       0.055399
 **** Fit       0.054688
 **** Fit       0.054743
 **** Fit       0.055160
 **** Fit       0.055697
 **** Fit       0.056207
 **** Fit       0.056602
 **** Fit       0.056817
 **** Fit       0.056794
 **** Fit       0.056465
 **** Fit       0.055740
 **** Fit       0.054493
 **** Fit       0.052557
 **** Fit       0.049720
 **** Fit       0.060929
 **** Fit       0.057726
 **** Fit       0.056363
 **** Fit       0.056026
 **** Fit       0.056223
 **** Fit       0.056663
 **** Fit       0.057178
 **** Fit       0.057669
 **** Fit       0.058068
 **** Fit       0.058323
 **** Fit       0.058380
 **** Fit       0.058166
 **** Fit       0.057576
 **** Fit       0.056458
 **** Fit       0.054600
 **** Fit       0.062587
 **** Fit       0.059324
 **** Fit       0.057893
 **** Fit       0.057480
 **** Fit       0.057616
 **** Fit       0.058031
 **** Fit       0.058570
 **** Fit       0.059141
 **** Fit       0.059685
 **** Fit       0.060156
 **** Fit       0.060503
 **** Fit       0.060656
 **** Fit       0.060502
 **** Fit       0.064522
 **** Fit       0.061046
 **** Fit       0.059516
 **** Fit       0.059071
 **** Fit       0.059232
 **** Fit       0.059730
 **** Fit       0.060418
 **** Fit       0.061212
 **** Fit       0.062064
 **** Fit       0.062934
 **** Fit       0.063775
 **** Fit       0.064231
 **** Fit       0.061846
 **** Fit       0.061000
 **** Fit       0.061042
 **** Fit       0.061620
 **** Fit       0.062553
 **** Fit       0.063754
 **** Fit       0.065194
 **** Fit       0.063405
 **** Fit       0.063373
 **** Fit       0.064131
 **** Fit       0.065480
 **** Fit       0.056204
 **** Fit       0.051627
 **** Fit       0.046911
 **** Fit       0.041858
 **** Fit       0.060746
 **** Fit       0.056959
 **** Fit       0.053166
 **** Fit       0.049230
 **** Fit       0.045011
 **** Fit       0.040363
 **** Fit       0.035127
 **** Fit       0.066390
 **** Fit       0.063312
 **** Fit       0.060292
 **** Fit       0.057276
 **** Fit       0.054191
 **** Fit       0.050951
 **** Fit       0.047467
 **** Fit       0.043638
 **** Fit       0.039355
 **** Fit       0.034494
 **** Fit       0.028919
 **** Fit       0.022481
 **** Fit       0.016688
 **** Fit       0.064945
 **** Fit       0.062657
 **** Fit       0.060321
 **** Fit       0.057916
 **** Fit       0.055406
 **** Fit       0.052739
 **** Fit       0.049856
 **** Fit       0.046688
 **** Fit       0.043159
 **** Fit       0.039184
 **** Fit       0.034664
 **** Fit       0.029492
 **** Fit       0.023545
 **** Fit       0.019004
 **** Fit       0.064761
 **** Fit       0.063015
 **** Fit       0.061200
 **** Fit       0.059289
 **** Fit       0.057255
 **** Fit       0.055067
 **** Fit       0.052684
 **** Fit       0.050056
 **** Fit       0.047127
 **** Fit       0.043831
 **** Fit       0.040098
 **** Fit       0.035845
 **** Fit       0.030983
 **** Fit       0.025411
 **** Fit       0.021967
 **** Fit       0.015289
 **** Fit       0.063787
 **** Fit       0.062154
 **** Fit       0.060585
 **** Fit       0.058958
 **** Fit       0.057208
 **** Fit       0.055288
 **** Fit       0.053156
 **** Fit       0.050765
 **** Fit       0.048065
 **** Fit       0.045000
 **** Fit       0.041510
 **** Fit       0.037531
 **** Fit       0.032995
 **** Fit       0.027834
 **** Fit       0.025603
 **** Fit       0.020214
 **** Fit       0.063974
 **** Fit       0.061898
 **** Fit       0.060250
 **** Fit       0.058724
 **** Fit       0.057156
 **** Fit       0.055452
 **** Fit       0.053548
 **** Fit       0.051393
 **** Fit       0.048937
 **** Fit       0.046133
 **** Fit       0.042937
 **** Fit       0.039306
 **** Fit       0.035210
 **** Fit       0.030636
 **** Fit       0.029877
 **** Fit       0.025949
 **** Fit       0.023477
 **** Fit       0.065695
 **** Fit       0.062378
 **** Fit       0.060136
 **** Fit       0.058353
 **** Fit       0.056685
 **** Fit       0.054936
 **** Fit       0.052988
 **** Fit       0.050762
 **** Fit       0.048200
 **** Fit       0.045259
 **** Fit       0.041914
 **** Fit       0.038173
 **** Fit       0.034101
 **** Fit       0.034659
 **** Fit       0.032582
 **** Fit       0.033400
 **** Fit       0.069500
 **** Fit       0.064223
 **** Fit       0.060843
 **** Fit       0.058471
 **** Fit       0.056515
 **** Fit       0.054617
 **** Fit       0.052570
 **** Fit       0.050252
 **** Fit       0.047597
 **** Fit       0.044589
 **** Fit       0.041282
 **** Fit       0.037842
 **** Fit       0.039739
 **** Fit       0.039641
 **** Fit       0.043822
 **** Fit       0.070347
 **** Fit       0.064525
 **** Fit       0.060478
 **** Fit       0.057613
 **** Fit       0.055269
 **** Fit       0.052992
 **** Fit       0.050528
 **** Fit       0.047781
 **** Fit       0.044815
 **** Fit       0.041911
 **** Fit       0.044878
 **** Fit       0.047018
 **** Fit       0.054487
 **** Fit       0.066383
 **** Fit       0.061834
 **** Fit       0.057931
 **** Fit       0.054817
 **** Fit       0.051925
 **** Fit       0.048975
 **** Fit       0.046251
 **** Fit       0.049839
 **** Fit       0.054442
 **** Fit       0.059917
 **** Fit       0.058451
 **** Fit       0.054532
 **** Fit       0.051023
 **** Fit       0.054417
 -----------------------------------------------------------------
 Leave Link  602 at Wed Sep 18 14:55:12 2019, MaxMem=  1342177280 cpu:             146.6 elap:               3.1

 Test job not archived.
 1\1\GINC-C478-113\SP\RB3LYP\SVP\C54H83Ca1N15O23\PENGZHI\18-Sep-2019\0\
 \#b3lyp/svp scf=(tight,noincore) Test #IOP(5/87=12) Density=Current Po
 p=(MK,readradii) iop(6/33=2) iop(6/42=6)\\Ng-31_loop3_28.0\\0,1\C,0,85
 .27,71.42,28.47\C,0,84.52,70.68,29.58\O,0,83.38,70.91,29.99\H,0,86.265
 ,70.99,28.355\H,0,84.722,71.322,27.533\H,0,85.359,72.475,28.731\N,0,85
 .2,69.63,30.02\C,0,84.78,68.72,31.07\C,0,85.17,69.12,32.48\O,0,84.61,6
 8.77,33.52\C,0,85.2,67.27,30.85\C,0,86.64,67.01,30.43\O,0,87.46,67.96,
 30.48\O,0,86.93,65.81,30.23\H,0,86.16,69.59,29.71\H,0,83.69,68.77,31.1
 \H,0,84.64,66.86,30.01\H,0,84.93,66.63,31.69\N,0,86.13,70.04,32.56\C,0
 ,86.54,70.65,33.81\C,0,87.19,69.7,34.8\O,0,87.89,68.78,34.4\C,0,87.23,
 72.,33.66\C,0,86.41,73.07,32.92\C,0,86.96,74.47,33.2\C,0,86.32,75.48,3
 2.25\N,0,84.94,75.79,32.64\H,0,86.55,70.32,31.68\H,0,85.57,70.94,34.24
 \H,0,88.13,71.84,33.07\H,0,87.55,72.43,34.6\H,0,85.4,73.06,33.32\H,0,8
 6.38,72.85,31.85\H,0,88.01,74.52,32.92\H,0,86.67,74.65,34.23\H,0,86.31
 ,75.14,31.21\H,0,86.94,76.38,32.3\H,0,84.61,76.53,32.04\H,0,84.3,75.02
 ,32.55\H,0,84.87,76.05,33.62\N,0,86.99,69.95,36.1\C,0,87.31,69.07,37.2
 1\C,0,86.18,68.13,37.58\O,0,86.21,67.58,38.68\C,0,87.8,69.98,38.33\C,0
 ,86.78,70.94,38.93\O,0,86.26,71.91,38.34\O,0,86.33,70.67,40.07\H,0,86.
 48,70.79,36.34\H,0,88.17,68.53,36.81\H,0,88.49,70.68,37.86\H,0,88.3,69
 .37,39.08\N,0,85.23,67.87,36.68\C,0,84.29,66.77,36.74\C,0,84.87,65.44,
 36.3\O,0,86.1,65.31,36.3\H,0,85.24,68.34,35.78\H,0,83.45,67.03,36.1\H,
 0,83.9,66.6,37.75\N,0,84.07,64.4,36.06\C,0,82.64,64.32,35.84\C,0,82.3,
 63.59,34.55\O,0,82.25,62.36,34.59\C,0,81.99,63.75,37.09\C,0,82.26,64.5
 9,38.34\N,0,83.1,64.09,39.25\O,0,81.71,65.67,38.52\H,0,84.53,63.52,35.
 84\H,0,82.2,65.31,35.71\H,0,82.39,62.74,37.18\H,0,80.92,63.65,36.98\H,
 0,83.43,63.14,39.14\H,0,83.32,64.56,40.11\N,0,82.13,64.25,33.4\C,0,82.
 34,65.66,33.15\C,0,81.24,66.66,33.46\O,0,81.51,67.77,33.92\H,0,81.93,6
 3.75,32.55\H,0,82.51,65.75,32.07\H,0,83.3,65.96,33.57\N,0,79.96,66.28,
 33.46\C,0,78.85,66.91,34.15\C,0,78.93,66.53,35.62\O,0,79.44,65.5,36.03
 \C,0,77.47,66.83,33.51\C,0,77.24,67.56,32.2\C,0,77.59,68.91,32.12\C,0,
 76.8,66.89,31.06\C,0,77.6,69.51,30.86\C,0,76.73,67.53,29.82\C,0,77.14,
 68.87,29.69\O,0,77.02,69.5,28.48\H,0,79.68,65.4,33.05\H,0,79.09,67.97,
 34.19\H,0,76.79,67.23,34.26\H,0,77.17,65.8,33.31\H,0,77.98,69.35,33.03
 \H,0,76.47,65.86,31.09\H,0,77.9,70.53,30.64\H,0,76.25,66.99,29.01\H,0,
 76.59,68.97,27.81\N,0,78.35,67.38,36.48\C,0,78.86,67.48,37.83\C,0,77.8
 7,67.13,38.94\O,0,78.37,66.93,40.04\C,0,79.62,68.78,38.06\C,0,80.77,68
 .96,37.08\C,0,78.64,69.94,37.86\C,0,81.92,69.76,37.69\H,0,77.86,68.16,
 36.07\H,0,79.66,66.74,37.96\H,0,80.,68.79,39.08\H,0,80.44,69.35,36.12\
 H,0,81.25,67.99,36.93\H,0,78.13,69.95,36.89\H,0,77.77,69.92,38.52\H,0,
 79.14,70.9,37.88\H,0,82.18,69.39,38.69\H,0,82.88,69.76,37.17\H,0,81.53
 ,70.77,37.76\N,0,76.55,67.14,38.73\C,0,75.63,66.79,39.8\C,0,75.37,68.0
 2,40.65\O,0,74.94,69.07,40.16\C,0,74.28,66.37,39.23\O,0,74.29,65.04,38
 .74\H,0,76.19,67.4,37.83\H,0,76.15,66.04,40.4\H,0,73.98,67.01,38.4\H,0
 ,73.5,66.42,39.99\H,0,73.91,65.08,37.86\N,0,75.58,67.92,41.97\C,0,75.2
 1,68.96,42.91\C,0,76.36,69.76,43.51\O,0,77.48,69.26,43.52\C,0,74.33,68
 .32,43.98\H,0,76.01,67.07,42.31\H,0,74.63,69.67,42.33\H,0,73.41,67.85,
 43.63\H,0,74.96,67.54,44.41\H,0,74.07,69.03,44.76\N,0,76.12,70.99,43.9
 7\C,0,77.16,71.8,44.56\C,0,78.32,72.22,43.67\O,0,79.44,72.41,44.13\C,0
 ,77.47,71.3,45.97\H,0,75.23,71.43,43.8\H,0,76.52,72.67,44.7\H,0,78.08,
 70.39,45.97\H,0,78.,72.11,46.47\H,0,76.6,71.12,46.61\N,0,78.02,72.39,4
 2.39\C,0,79.03,72.63,41.38\C,0,78.67,73.65,40.3\O,0,79.55,74.21,39.65\
 C,0,79.49,71.32,40.76\C,0,80.3,70.35,41.63\C,0,81.73,70.78,41.94\O,0,8
 2.38,71.4,41.07\O,0,82.36,70.36,42.93\H,0,77.14,71.94,42.15\H,0,79.93,
 73.,41.88\H,0,80.15,71.54,39.93\H,0,78.67,70.79,40.29\H,0,80.3,69.41,4
 1.07\H,0,79.8,70.13,42.57\N,0,77.37,73.83,40.04\C,0,76.84,74.77,39.08\
 H,0,75.935,75.226,39.481\H,0,77.58,75.545,38.883\H,0,76.603,74.248,38.
 153\H,0,76.73,73.35,40.66\Ca,0,84.74,71.25,42.13\O,0,86.53,73.08,42.88
 \H,0,86.28,73.9,43.31\H,0,87.39,72.87,43.24\\Version=ES64L-G16RevA.03\
 State=1-A\HF=-5333.3574659\RMSD=1.032e-09\Dipole=-5.8021649,14.7251756
 ,4.8908024\Quadrupole=-43.9957665,53.0221551,-9.0263886,134.2562615,76
 .744379,-72.4495615\PG=C01 [X(C54H83Ca1N15O23)]\\@


 SUCCESS IS NEVER CERTAIN,
 FAILURE IS NEVER FINAL.
 Job cpu time:       0 days 10 hours 16 minutes 20.0 seconds.
 Elapsed time:       0 days  0 hours 13 minutes  0.3 seconds.
 File lengths (MBytes):  RWF=   1517 Int=      0 D2E=      0 Chk=    171 Scr=      1
 Normal termination of Gaussian 16 at Wed Sep 18 14:55:13 2019.
