 Entering Gaussian System, Link 0=g16
 Initial command:
 /home1/apps/gaussian/16rA.03/g16/l1.exe "/scratch/01990/pengzhi/4356780/Gau-92333.inp" -scrdir="/scratch/01990/pengzhi/4356780/"
 Entering Link 1 = /home1/apps/gaussian/16rA.03/g16/l1.exe PID=     92334.
  
 Copyright (c) 1988,1990,1992,1993,1995,1998,2003,2009,2016,
            Gaussian, Inc.  All Rights Reserved.
  
 This is part of the Gaussian(R) 16 program.  It is based on
 the Gaussian(R) 09 system (copyright 2009, Gaussian, Inc.),
 the Gaussian(R) 03 system (copyright 2003, Gaussian, Inc.),
 the Gaussian(R) 98 system (copyright 1998, Gaussian, Inc.),
 the Gaussian(R) 94 system (copyright 1995, Gaussian, Inc.),
 the Gaussian 92(TM) system (copyright 1992, Gaussian, Inc.),
 the Gaussian 90(TM) system (copyright 1990, Gaussian, Inc.),
 the Gaussian 88(TM) system (copyright 1988, Gaussian, Inc.),
 the Gaussian 86(TM) system (copyright 1986, Carnegie Mellon
 University), and the Gaussian 82(TM) system (copyright 1983,
 Carnegie Mellon University). Gaussian is a federally registered
 trademark of Gaussian, Inc.
  
 This software contains proprietary and confidential information,
 including trade secrets, belonging to Gaussian, Inc.
  
 This software is provided under written license and may be
 used, copied, transmitted, or stored only in accord with that
 written license.
  
 The following legend is applicable only to US Government
 contracts under FAR:
  
                    RESTRICTED RIGHTS LEGEND
  
 Use, reproduction and disclosure by the US Government is
 subject to restrictions as set forth in subparagraphs (a)
 and (c) of the Commercial Computer Software - Restricted
 Rights clause in FAR 52.227-19.
  
 Gaussian, Inc.
 340 Quinnipiac St., Bldg. 40, Wallingford CT 06492
  
  
 ---------------------------------------------------------------
 Warning -- This program may not be used in any manner that
 competes with the business of Gaussian, Inc. or will provide
 assistance to any competitor of Gaussian, Inc.  The licensee
 of this program is prohibited from giving any competitor of
 Gaussian, Inc. access to this program.  By using this program,
 the user acknowledges that Gaussian, Inc. is engaged in the
 business of creating and licensing software in the field of
 computational chemistry and represents and warrants to the
 licensee that it is not a competitor of Gaussian, Inc. and that
 it will not use this program in any manner prohibited above.
 ---------------------------------------------------------------
  

 Cite this work as:
 Gaussian 16, Revision A.03,
 M. J. Frisch, G. W. Trucks, H. B. Schlegel, G. E. Scuseria, 
 M. A. Robb, J. R. Cheeseman, G. Scalmani, V. Barone, 
 G. A. Petersson, H. Nakatsuji, X. Li, M. Caricato, A. V. Marenich, 
 J. Bloino, B. G. Janesko, R. Gomperts, B. Mennucci, H. P. Hratchian, 
 J. V. Ortiz, A. F. Izmaylov, J. L. Sonnenberg, D. Williams-Young, 
 F. Ding, F. Lipparini, F. Egidi, J. Goings, B. Peng, A. Petrone, 
 T. Henderson, D. Ranasinghe, V. G. Zakrzewski, J. Gao, N. Rega, 
 G. Zheng, W. Liang, M. Hada, M. Ehara, K. Toyota, R. Fukuda, 
 J. Hasegawa, M. Ishida, T. Nakajima, Y. Honda, O. Kitao, H. Nakai, 
 T. Vreven, K. Throssell, J. A. Montgomery, Jr., J. E. Peralta, 
 F. Ogliaro, M. J. Bearpark, J. J. Heyd, E. N. Brothers, K. N. Kudin, 
 V. N. Staroverov, T. A. Keith, R. Kobayashi, J. Normand, 
 K. Raghavachari, A. P. Rendell, J. C. Burant, S. S. Iyengar, 
 J. Tomasi, M. Cossi, J. M. Millam, M. Klene, C. Adamo, R. Cammi, 
 J. W. Ochterski, R. L. Martin, K. Morokuma, O. Farkas, 
 J. B. Foresman, and D. J. Fox, Gaussian, Inc., Wallingford CT, 2016.
 
 ******************************************
 Gaussian 16:  ES64L-G16RevA.03 25-Dec-2016
                18-Sep-2019 
 ******************************************
 %chk=Ng-31_loop3_51.0.chk
 %nprocshared=48
 Will use up to   48 processors via shared memory.
 %mem=10GB
 %nosave
 ----------------------------------------------------------------------
 #b3lyp/svp scf=(tight,noincore) Test #IOP(5/87=12) Density=Current Pop
 =(MK,readradii) iop(6/33=2) iop(6/42=6)
 ----------------------------------------------------------------------
 1/30=1,38=1,172=1/1;
 2/12=2,17=6,18=5,40=1/2;
 3/5=18,7=101,11=2,25=1,30=1,74=-5/1,2,3;
 4//1;
 5/5=4,32=2,38=5,87=12/2;
 6/7=2,8=2,9=2,10=2,15=8,20=101,22=-1,28=1,33=2,42=6/1,2;
 99/5=1,9=1/99;
 ----------------
 Ng-31_loop3_51.0
 ----------------
 Symbolic Z-matrix:
 Charge =  0 Multiplicity = 1
 C                     51.04     55.42     45.62 
 C                     51.45     53.96     45.72 
 O                     50.72     53.05     45.32 
 H                     50.092    55.567    46.137 
 H                     51.805    56.045    46.081 
 H                     50.928    55.696    44.571 
 N                     52.61     53.73     46.34 
 C                     52.67     52.82     47.47 
 C                     52.94     53.66     48.71 
 O                     52.14     53.49     49.63 
 C                     53.59     51.63     47.25 
 C                     55.06     51.82     46.88 
 O                     55.76     50.86     46.51 
 O                     55.61     52.92     47.13 
 H                     53.23     54.53     46.32 
 H                     51.68     52.4      47.59 
 H                     53.14     50.97     46.51 
 H                     53.6      51.18     48.24 
 N                     53.95     54.53     48.73 
 C                     54.08     55.46     49.84 
 C                     54.78     54.81     51.03 
 O                     55.88     55.17     51.45 
 C                     54.8      56.75     49.45 
 C                     54.51     57.95     50.35 
 C                     53.09     58.52     50.38 
 C                     52.31     58.53     49.06 
 N                     52.79     59.63     48.21 
 H                     54.7      54.47     48.05 
 H                     53.08     55.78     50.1 
 H                     54.46     57.05     48.46 
 H                     55.87     56.62     49.33 
 H                     55.19     58.72     50. 
 H                     54.78     57.67     51.37 
 H                     53.14     59.48     50.89 
 H                     52.55     57.9      51.09 
 H                     51.27     58.71     49.33 
 H                     52.35     57.57     48.55 
 H                     52.08     59.81     47.52 
 H                     52.84     60.42     48.84 
 H                     53.65     59.42     47.72 
 N                     54.09     53.82     51.6 
 C                     54.68     52.74     52.37 
 C                     54.83     51.46     51.58 
 O                     53.96     50.59     51.5 
 C                     53.96     52.38     53.67 
 C                     52.46     52.16     53.53 
 O                     51.82     53.08     52.97 
 O                     51.87     51.16     53.99 
 H                     53.12     53.68     51.34 
 H                     55.63     53.09     52.78 
 H                     54.09     53.2      54.38 
 H                     54.4      51.48     54.09 
 N                     55.97     51.49     50.88 
 C                     56.6      50.39     50.19 
 C                     57.37     49.56     51.2 
 O                     58.51     49.97     51.43 
 H                     56.51     52.33     51.01 
 H                     57.31     50.78     49.46 
 H                     55.83     49.8      49.69 
 N                     56.94     48.42     51.74 
 C                     55.64     47.81     51.55 
 C                     55.8      46.44     50.92 
 O                     56.42     45.67     51.66 
 C                     54.97     47.77     52.92 
 C                     53.49     47.41     52.82 
 N                     52.5      48.31     52.85 
 O                     53.08     46.27     52.62 
 H                     57.46     48.06     52.53 
 H                     54.96     48.45     50.97 
 H                     55.06     48.76     53.37 
 H                     55.49     47.09     53.59 
 H                     52.64     49.27     53.12 
 H                     51.59     47.89     53.01 
 N                     55.14     46.07     49.82 
 C                     54.33     46.83     48.89 
 C                     52.86     46.43     48.85 
 O                     52.23     46.59     47.81 
 H                     55.16     45.1      49.53 
 H                     54.78     46.78     47.9 
 H                     54.42     47.88     49.18 
 N                     52.32     45.82     49.91 
 C                     50.92     45.44     50. 
 C                     50.15     46.6      50.61 
 O                     50.09     46.82     51.82 
 C                     50.7      44.08     50.65 
 C                     51.01     42.93     49.72 
 C                     50.14     41.83     49.87 
 C                     52.1      42.88     48.85 
 C                     50.48     40.63     49.25 
 C                     52.46     41.68     48.24 
 C                     51.64     40.56     48.45 
 O                     51.96     39.31     47.98 
 H                     52.88     45.83     50.75 
 H                     50.6      45.26     48.97 
 H                     49.69     43.98     51.04 
 H                     51.42     43.88     51.45 
 H                     49.21     41.95     50.4 
 H                     52.72     43.75     48.66 
 H                     49.92     39.71     49.35 
 H                     53.37     41.63     47.65 
 H                     52.66     39.26     47.33 
 N                     49.44     47.32     49.73 
 C                     48.48     48.36     50.03 
 C                     47.35     47.78     50.86 
 O                     47.11     46.57     50.92 
 C                     47.91     48.99     48.76 
 C                     48.94     49.88     48.06 
 C                     47.4      47.93     47.79 
 C                     50.34     49.48     47.61 
 H                     49.72     47.2      48.77 
 H                     48.98     49.12     50.63 
 H                     47.07     49.64     49. 
 H                     49.04     50.76     48.69 
 H                     48.4      50.42     47.28 
 H                     47.02     48.34     46.85 
 H                     48.17     47.21     47.51 
 H                     46.57     47.39     48.24 
 H                     50.88     50.28     47.11 
 H                     50.92     49.02     48.41 
 H                     50.25     48.74     46.82 
 N                     46.7      48.68     51.59 
 C                     45.47     48.34     52.27 
 C                     44.32     48.04     51.32 
 O                     44.27     48.57     50.21 
 C                     45.68     47.35     53.41 
 O                     44.69     47.43     54.41 
 H                     47.11     49.58     51.81 
 H                     45.13     49.23     52.82 
 H                     46.63     47.59     53.88 
 H                     45.7      46.31     53.09 
 H                     45.03     47.09     55.24 
 N                     43.35     47.27     51.81 
 C                     41.99     47.5      51.38 
 C                     41.53     48.83     51.97 
 O                     42.1      49.41     52.89 
 C                     41.14     46.34     51.9 
 H                     43.53     46.98     52.76 
 H                     41.95     47.62     50.3 
 H                     41.25     45.41     51.34 
 H                     41.55     46.14     52.89 
 H                     40.09     46.63     52. 
 N                     40.49     49.33     51.3 
 C                     40.14     50.73     51.27 
 C                     41.23     51.64     50.74 
 O                     40.95     52.75     50.31 
 C                     39.57     51.22     52.6 
 H                     40.02     48.74     50.63 
 H                     39.31     50.73     50.57 
 H                     40.38     51.35     53.32 
 H                     39.24     52.25     52.42 
 H                     38.82     50.53     52.99 
 N                     42.49     51.23     50.59 
 C                     43.39     52.02     49.77 
 C                     43.23     51.84     48.27 
 O                     42.91     52.81     47.57 
 C                     44.82     51.87     50.29 
 C                     45.12     52.06     51.77 
 C                     46.59     51.81     52.11 
 O                     47.54     51.52     51.35 
 O                     46.84     51.79     53.33 
 H                     42.86     50.43     51.09 
 H                     43.14     53.06     49.97 
 H                     45.32     52.69     49.78 
 H                     45.26     50.94     49.94 
 H                     44.38     51.44     52.27 
 H                     44.88     53.09     52.05 
 N                     43.41     50.64     47.72 
 C                     43.13     50.4      46.32 
 H                     42.339    51.073    45.988 
 H                     44.03     50.58     45.733 
 H                     42.808    49.367    46.185 
 H                     43.71     49.89     48.32 
 Ca                    49.51     51.81     53.14 
 O                     49.35     49.13     53.11 
 H                     49.67     48.42     52.55 
 H                     49.68     48.91     53.98 
 
 Stoichiometry    C54H83CaN15O23
 Framework group  C1[X(C54H83CaN15O23)]
 Deg. of freedom   522
 Full point group                 C1      NOp   1
 Largest Abelian subgroup         C1      NOp   1
 Largest concise Abelian subgroup C1      NOp   1
                         Standard orientation:                         
 ---------------------------------------------------------------------
 Center     Atomic      Atomic             Coordinates (Angstroms)
 Number     Number       Type             X           Y           Z
 ---------------------------------------------------------------------
      1          6           0        2.611196   -5.311115    4.271496
      2          6           0        2.679194   -3.793214    4.239052
      3          8           0        1.799429   -3.091269    4.743322
      4          1           0        1.681902   -5.642770    3.808873
      5          1           0        3.457229   -5.724903    3.722516
      6          1           0        2.644908   -5.655353    5.305654
      7          7           0        3.707820   -3.278386    3.560980
      8          6           0        3.477081   -2.324996    2.490277
      9          6           0        3.828864   -3.022013    1.183940
     10          8           0        2.942022   -2.992484    0.330746
     11          6           0        4.125453   -0.970389    2.725976
     12          6           0        5.625287   -0.842073    2.986612
     13          8           0        6.122304    0.231964    3.371214
     14          8           0        6.383739   -1.776656    2.631214
     15          1           0        4.488986   -3.918248    3.489173
     16          1           0        2.412463   -2.133430    2.462152
     17          1           0        3.599602   -0.465027    3.534549
     18          1           0        3.958698   -0.482630    1.768383
     19          7           0        5.001534   -3.640255    1.042438
     20          6           0        5.247224   -4.462628   -0.131120
     21          6           0        5.691479   -3.615259   -1.319902
     22          8           0        6.807777   -3.697706   -1.832816
     23          6           0        6.262715   -5.574597    0.127538
     24          6           0        6.176130   -6.764384   -0.826931
     25          6           0        4.919377   -7.637369   -0.801072
     26          6           0        4.265955   -7.886198    0.563488
     27          7           0        5.041891   -8.889429    1.308036
     28          1           0        5.770253   -3.445683    1.674666
     29          1           0        4.325613   -4.986700   -0.345552
     30          1           0        6.075496   -5.990693    1.116230
     31          1           0        7.283499   -5.212927    0.185796
     32          1           0        7.034653   -7.377408   -0.572095
     33          1           0        6.297388   -6.382070   -1.842230
     34          1           0        5.140584   -8.535797   -1.373867
     35          1           0        4.202128   -7.121483   -1.433143
     36          1           0        3.273727   -8.282557    0.350695
     37          1           0        4.132242   -6.967504    1.130430
     38          1           0        4.445118   -9.257638    2.029760
     39          1           0        5.216179   -9.616655    0.626666
     40          1           0        5.869607   -8.514984    1.753543
     41          7           0        4.757487   -2.779820   -1.779032
     42          6           0        5.032390   -1.558965   -2.514792
     43          6           0        4.956633   -0.317563   -1.655617
     44          8           0        3.924729    0.329318   -1.463472
     45          6           0        4.151763   -1.308257   -3.739390
     46          6           0        2.655788   -1.438655   -3.488283
     47          8           0        2.280571   -2.504970   -2.948112
     48          8           0        1.825352   -0.576257   -3.843735
     49          1           0        3.803768   -2.874497   -1.448038
     50          1           0        6.001434   -1.665937   -3.007349
     51          1           0        4.404236   -2.042818   -4.507556
     52          1           0        4.347859   -0.313170   -4.128424
     53          7           0        6.125944   -0.123718   -1.034620
     54          6           0        6.548839    1.055410   -0.317811
     55          6           0        7.035342    2.085051   -1.320334
     56          8           0        8.216355    1.953819   -1.649858
     57          1           0        6.826518   -0.813307   -1.253166
     58          1           0        7.382055    0.800662    0.337898
     59          1           0        5.708716    1.432138    0.268082
     60          7           0        6.323275    3.123562   -1.756863
     61          6           0        4.939388    3.415316   -1.443916
     62          6           0        4.841012    4.754245   -0.738940
     63          8           0        5.215954    5.678741   -1.466693
     64          6           0        4.172677    3.369246   -2.762033
     65          6           0        2.662080    3.381513   -2.543064
     66          7           0        1.896313    2.284218   -2.566374
     67          8           0        2.026998    4.388949   -2.243992
     68          1           0        6.687766    3.628961   -2.554245
     69          1           0        4.464933    2.611510   -0.863238
     70          1           0        4.444068    2.447746   -3.279608
     71          1           0        4.475747    4.180277   -3.419358
     72          1           0        2.223675    1.394516   -2.906028
     73          1           0        0.906356    2.495721   -2.639534
     74          7           0        4.203122    4.912804    0.423152
     75          6           0        3.656035    3.946122    1.353109
     76          6           0        2.141651    4.002452    1.514249
     77          8           0        1.645443    3.654891    2.580588
     78          1           0        4.030648    5.847303    0.772958
     79          1           0        4.159427    4.048507    2.312909
     80          1           0        3.953134    2.958541    0.991009
     81          7           0        1.399397    4.525434    0.533001
     82          6           0       -0.052625    4.584313    0.558846
     83          6           0       -0.592133    3.311427   -0.073048
     84          8           0       -0.695908    3.142003   -1.288213
     85          6           0       -0.617736    5.889487    0.013255
     86          6           0       -0.498321    7.033679    0.993085
     87          6           0       -1.598962    7.915438    0.970971
     88          6           0        0.617913    7.285942    1.791762
     89          6           0       -1.485543    9.129946    1.643360
     90          6           0        0.749998    8.505434    2.452892
     91          6           0       -0.311124    9.420799    2.369062
     92          8           0       -0.239866   10.686672    2.896592
     93          1           0        1.880692    4.682185   -0.340546
     94          1           0       -0.323418    4.637901    1.616910
     95          1           0       -1.652040    5.778129   -0.302997
     96          1           0       -0.024218    6.284700   -0.817373
     97          1           0       -2.517738    7.614736    0.495967
     98          1           0        1.427775    6.569788    1.884745
     99          1           0       -2.241133    9.903940    1.639309
    100          1           0        1.669474    8.730629    2.984448
    101          1           0        0.480125   10.861697    3.501555
    102          7           0       -1.054738    2.408591    0.803185
    103          6           0       -1.781381    1.194793    0.500060
    104          6           0       -3.072684    1.544673   -0.215706
    105          8           0       -3.578196    2.671007   -0.182104
    106          6           0       -2.097458    0.392312    1.761337
    107          6           0       -0.844937   -0.275506    2.334234
    108          6           0       -2.752193    1.262359    2.828549
    109          6           0        0.462619    0.407350    2.716995
    110          1           0       -0.734421    2.542258    1.748664
    111          1           0       -1.173927    0.596645   -0.178776
    112          1           0       -2.789008   -0.417828    1.535213
    113          1           0       -0.602142   -1.079055    1.643830
    114          1           0       -1.189850   -0.960091    3.111394
    115          1           0       -2.957865    0.732615    3.762985
    116          1           0       -2.141061    2.122933    3.103555
    117          1           0       -3.713460    1.622595    2.469110
    118          1           0        1.203337   -0.273603    3.128381
    119          1           0        0.862551    1.024053    1.912177
    120          1           0        0.272940    1.069220    3.557084
    121          7           0       -3.562352    0.557591   -0.958197
    122          6           0       -4.886142    0.644191   -1.533507
    123          6           0       -5.996570    0.631509   -0.493416
    124          8           0       -5.841682    0.051123    0.581136
    125          6           0       -4.989525    1.709688   -2.618785
    126          8           0       -6.012020    1.456998   -3.555348
    127          1           0       -2.981889   -0.215331   -1.261766
    128          1           0       -5.062659   -0.272012   -2.116272
    129          1           0       -4.049469    1.712645   -3.164023
    130          1           0       -5.175144    2.710863   -2.234607
    131          1           0       -5.821204    1.904326   -4.382141
    132          7           0       -7.147900    1.185965   -0.868805
    133          6           0       -8.385730    0.635239   -0.366930
    134          6           0       -8.584731   -0.734239   -1.009992
    135          8           0       -7.973908   -1.126076   -2.000476
    136          6           0       -9.508965    1.597679   -0.754940
    137          1           0       -7.110904    1.554379   -1.807901
    138          1           0       -8.314105    0.457530    0.703439
    139          1           0       -9.564108    2.500536   -0.144688
    140          1           0       -9.231586    1.932223   -1.754611
    141          1           0      -10.473375    1.083849   -0.804863
    142          7           0       -9.433115   -1.487196   -0.307282
    143          6           0       -9.461493   -2.929833   -0.344592
    144          6           0       -8.159440   -3.595430    0.053829
    145          8           0       -8.152784   -4.759329    0.428923
    146          6           0      -10.010696   -3.471070   -1.663432
    147          1           0       -9.968375   -1.051091    0.428388
    148          1           0      -10.213943   -3.150380    0.406459
    149          1           0       -9.250500   -3.380572   -2.441451
    150          1           0      -10.089774   -4.556357   -1.528900
    151          1           0      -10.922691   -2.949735   -1.958688
    152          7           0       -7.013524   -2.919943    0.147594
    153          6           0       -5.900161   -3.525489    0.854869
    154          6           0       -5.978865   -3.458471    2.370558
    155          8           0       -6.021053   -4.508120    3.026118
    156          6           0       -4.583591   -3.032524    0.253678
    157          6           0       -4.365021   -3.078711   -1.251843
    158          6           0       -3.017679   -2.488081   -1.669964
    159          8           0       -2.099162   -2.028501   -0.956302
    160          8           0       -2.873929   -2.353669   -2.899830
    161          1           0       -6.869589   -2.034084   -0.322977
    162          1           0       -5.928805   -4.584223    0.605147
    163          1           0       -3.876559   -3.742428    0.676339
    164          1           0       -4.334255   -2.045264    0.633347
    165          1           0       -5.260370   -2.617956   -1.661786
    166          1           0       -4.392375   -4.121616   -1.581237
    167          7           0       -6.026432   -2.276625    2.983646
    168          6           0       -6.242835   -2.173432    4.411414
    169          1           0       -6.837186   -3.022422    4.750230
    170          1           0       -5.282461   -2.174165    4.925856
    171          1           0       -6.773765   -1.247182    4.633160
    172          1           0       -5.947268   -1.450377    2.414834
    173         20           0       -0.259103   -1.781062   -2.885564
    174          8           0       -1.004862    0.789463   -2.673097
    175          1           0       -0.807212    1.525518   -2.090638
    176          1           0       -0.800346    1.119688   -3.546782
 ---------------------------------------------------------------------
 Rotational constants (GHZ):           0.0187287           0.0131920           0.0095311
 Standard basis: SVP (5D, 7F)
 There are  1809 symmetry adapted cartesian basis functions of A   symmetry.
 There are  1717 symmetry adapted basis functions of A   symmetry.
  1717 basis functions,  2922 primitive gaussians,  1809 cartesian basis functions
   358 alpha electrons      358 beta electrons
       nuclear repulsion energy     20441.2887180260 Hartrees.
 NAtoms=  176 NActive=  176 NUniq=  176 SFac= 1.00D+00 NAtFMM=   60 NAOKFM=T Big=T
 Integral buffers will be    131072 words long.
 Raffenetti 2 integral format.
 Two-electron integral symmetry is turned on.
 One-electron integrals computed using PRISM.
 NBasis=  1717 RedAO= T EigKep=  2.90D-04  NBF=  1717
 NBsUse=  1717 1.00D-06 EigRej= -1.00D+00 NBFU=  1717
 ExpMin= 1.98D-02 ExpMax= 3.51D+04 ExpMxC= 5.28D+03 IAcc=3 IRadAn=         5 AccDes= 0.00D+00
 Harris functional with IExCor=  402 and IRadAn=       5 diagonalized for initial guess.
 HarFok:  IExCor=  402 AccDes= 0.00D+00 IRadAn=         5 IDoV= 1 UseB2=F ITyADJ=14
 ICtDFT=  3500011 ScaDFX=  1.000000  1.000000  1.000000  1.000000
 FoFCou: FMM=F IPFlag=           0 FMFlag=      100000 FMFlg1=        2001
         NFxFlg=           0 DoJE=T BraDBF=F KetDBF=T FulRan=T
         wScrn=  0.000000 ICntrl=       500 IOpCl=  0 I1Cent=   200000004 NGrid=           0
         NMat0=    1 NMatS0=      1 NMatT0=    0 NMatD0=    1 NMtDS0=    0 NMtDT0=    0
 Petite list used in FoFCou.
 Requested convergence on RMS density matrix=1.00D-08 within 128 cycles.
 Requested convergence on MAX density matrix=1.00D-06.
 Requested convergence on             energy=1.00D-06.
 No special actions if energy rises.
 EnCoef did     2 forward-backward iterations
 EnCoef did     2 forward-backward iterations
 EnCoef did     4 forward-backward iterations
 EnCoef did     3 forward-backward iterations
 EnCoef did     1 forward-backward iterations
 Restarting incremental Fock formation.
 SCF Done:  E(RB3LYP) =  -5333.44018672     A.U. after   24 cycles
            NFock= 24  Conv=0.25D-08     -V/T= 2.0081
 SCF density gives NOpUse=  1 NOpAll=  1.
 Hyperfine terms turned off by default for NAtoms > 100.

 **********************************************************************

            Population analysis using the SCF density.

 **********************************************************************

 Orbital symmetries:
 BldTbl:  Degeneracy threshold= 1.00D-02
       Occupied  (A) (A) (A) (A) (A) (A) (A) (A) (A) (A) (A) (A)
                 (A) (A) (A) (A) (A) (A) (A) (A) (A) (A) (A) (A)
                 (A) (A) (A) (A) (A) (A) (A) (A) (A) (A) (A) (A)
                 (A) (A) (A) (A) (A) (A) (A) (A) (A) (A) (A) (A)
                 (A) (A) (A) (A) (A) (A) (A) (A) (A) (A) (A) (A)
                 (A) (A) (A) (A) (A) (A) (A) (A) (A) (A) (A) (A)
                 (A) (A) (A) (A) (A) (A) (A) (A) (A) (A) (A) (A)
                 (A) (A) (A) (A) (A) (A) (A) (A) (A) (A) (A) (A)
                 (A) (A) (A) (A) (A) (A) (A) (A) (A) (A) (A) (A)
                 (A) (A) (A) (A) (A) (A) (A) (A) (A) (A) (A) (A)
                 (A) (A) (A) (A) (A) (A) (A) (A) (A) (A) (A) (A)
                 (A) (A) (A) (A) (A) (A) (A) (A) (A) (A) (A) (A)
                 (A) (A) (A) (A) (A) (A) (A) (A) (A) (A) (A) (A)
                 (A) (A) (A) (A) (A) (A) (A) (A) (A) (A) (A) (A)
                 (A) (A) (A) (A) (A) (A) (A) (A) (A) (A) (A) (A)
                 (A) (A) (A) (A) (A) (A) (A) (A) (A) (A) (A) (A)
                 (A) (A) (A) (A) (A) (A) (A) (A) (A) (A) (A) (A)
                 (A) (A) (A) (A) (A) (A) (A) (A) (A) (A) (A) (A)
                 (A) (A) (A) (A) (A) (A) (A) (A) (A) (A) (A) (A)
                 (A) (A) (A) (A) (A) (A) (A) (A) (A) (A) (A) (A)
                 (A) (A) (A) (A) (A) (A) (A) (A) (A) (A) (A) (A)
                 (A) (A) (A) (A) (A) (A) (A) (A) (A) (A) (A) (A)
                 (A) (A) (A) (A) (A) (A) (A) (A) (A) (A) (A) (A)
                 (A) (A) (A) (A) (A) (A) (A) (A) (A) (A) (A) (A)
                 (A) (A) (A) (A) (A) (A) (A) (A) (A) (A) (A) (A)
                 (A) (A) (A) (A) (A) (A) (A) (A) (A) (A) (A) (A)
                 (A) (A) (A) (A) (A) (A) (A) (A) (A) (A) (A) (A)
                 (A) (A) (A) (A) (A) (A) (A) (A) (A) (A) (A) (A)
                 (A) (A) (A) (A) (A) (A) (A) (A) (A) (A) (A) (A)
                 (A) (A) (A) (A) (A) (A) (A) (A) (A) (A)
       Virtual   (A) (A) (A) (A) (A) (A) (A) (A) (A) (A) (A) (A)
                 (A) (A) (A) (A) (A) (A) (A) (A) (A) (A) (A) (A)
                 (A) (A) (A) (A) (A) (A) (A) (A) (A) (A) (A) (A)
                 (A) (A) (A) (A) (A) (A) (A) (A) (A) (A) (A) (A)
                 (A) (A) (A) (A) (A) (A) (A) (A) (A) (A) (A) (A)
                 (A) (A) (A) (A) (A) (A) (A) (A) (A) (A) (A) (A)
                 (A) (A) (A) (A) (A) (A) (A) (A) (A) (A) (A) (A)
                 (A) (A) (A) (A) (A) (A) (A) (A) (A) (A) (A) (A)
                 (A) (A) (A) (A) (A) (A) (A) (A) (A) (A) (A) (A)
                 (A) (A) (A) (A) (A) (A) (A) (A) (A) (A) (A) (A)
                 (A) (A) (A) (A) (A) (A) (A) (A) (A) (A) (A) (A)
                 (A) (A) (A) (A) (A) (A) (A) (A) (A) (A) (A) (A)
                 (A) (A) (A) (A) (A) (A) (A) (A) (A) (A) (A) (A)
                 (A) (A) (A) (A) (A) (A) (A) (A) (A) (A) (A) (A)
                 (A) (A) (A) (A) (A) (A) (A) (A) (A) (A) (A) (A)
                 (A) (A) (A) (A) (A) (A) (A) (A) (A) (A) (A) (A)
                 (A) (A) (A) (A) (A) (A) (A) (A) (A) (A) (A) (A)
                 (A) (A) (A) (A) (A) (A) (A) (A) (A) (A) (A) (A)
                 (A) (A) (A) (A) (A) (A) (A) (A) (A) (A) (A) (A)
                 (A) (A) (A) (A) (A) (A) (A) (A) (A) (A) (A) (A)
                 (A) (A) (A) (A) (A) (A) (A) (A) (A) (A) (A) (A)
                 (A) (A) (A) (A) (A) (A) (A) (A) (A) (A) (A) (A)
                 (A) (A) (A) (A) (A) (A) (A) (A) (A) (A) (A) (A)
                 (A) (A) (A) (A) (A) (A) (A) (A) (A) (A) (A) (A)
                 (A) (A) (A) (A) (A) (A) (A) (A) (A) (A) (A) (A)
                 (A) (A) (A) (A) (A) (A) (A) (A) (A) (A) (A) (A)
                 (A) (A) (A) (A) (A) (A) (A) (A) (A) (A) (A) (A)
                 (A) (A) (A) (A) (A) (A) (A) (A) (A) (A) (A) (A)
                 (A) (A) (A) (A) (A) (A) (A) (A) (A) (A) (A) (A)
                 (A) (A) (A) (A) (A) (A) (A) (A) (A) (A) (A) (A)
                 (A) (A) (A) (A) (A) (A) (A) (A) (A) (A) (A) (A)
                 (A) (A) (A) (A) (A) (A) (A) (A) (A) (A) (A) (A)
                 (A) (A) (A) (A) (A) (A) (A) (A) (A) (A) (A) (A)
                 (A) (A) (A) (A) (A) (A) (A) (A) (A) (A) (A) (A)
                 (A) (A) (A) (A) (A) (A) (A) (A) (A) (A) (A) (A)
                 (A) (A) (A) (A) (A) (A) (A) (A) (A) (A) (A) (A)
                 (A) (A) (A) (A) (A) (A) (A) (A) (A) (A) (A) (A)
                 (A) (A) (A) (A) (A) (A) (A) (A) (A) (A) (A) (A)
                 (A) (A) (A) (A) (A) (A) (A) (A) (A) (A) (A) (A)
                 (A) (A) (A) (A) (A) (A) (A) (A) (A) (A) (A) (A)
                 (A) (A) (A) (A) (A) (A) (A) (A) (A) (A) (A) (A)
                 (A) (A) (A) (A) (A) (A) (A) (A) (A) (A) (A) (A)
                 (A) (A) (A) (A) (A) (A) (A) (A) (A) (A) (A) (A)
                 (A) (A) (A) (A) (A) (A) (A) (A) (A) (A) (A) (A)
                 (A) (A) (A) (A) (A) (A) (A) (A) (A) (A) (A) (A)
                 (A) (A) (A) (A) (A) (A) (A) (A) (A) (A) (A) (A)
                 (A) (A) (A) (A) (A) (A) (A) (A) (A) (A) (A) (A)
                 (A) (A) (A) (A) (A) (A) (A) (A) (A) (A) (A) (A)
                 (A) (A) (A) (A) (A) (A) (A) (A) (A) (A) (A) (A)
                 (A) (A) (A) (A) (A) (A) (A) (A) (A) (A) (A) (A)
                 (A) (A) (A) (A) (A) (A) (A) (A) (A) (A) (A) (A)
                 (A) (A) (A) (A) (A) (A) (A) (A) (A) (A) (A) (A)
                 (A) (A) (A) (A) (A) (A) (A) (A) (A) (A) (A) (A)
                 (A) (A) (A) (A) (A) (A) (A) (A) (A) (A) (A) (A)
                 (A) (A) (A) (A) (A) (A) (A) (A) (A) (A) (A) (A)
                 (A) (A) (A) (A) (A) (A) (A) (A) (A) (A) (A) (A)
                 (A) (A) (A) (A) (A) (A) (A) (A) (A) (A) (A) (A)
                 (A) (A) (A) (A) (A) (A) (A) (A) (A) (A) (A) (A)
                 (A) (A) (A) (A) (A) (A) (A) (A) (A) (A) (A) (A)
                 (A) (A) (A) (A) (A) (A) (A) (A) (A) (A) (A) (A)
                 (A) (A) (A) (A) (A) (A) (A) (A) (A) (A) (A) (A)
                 (A) (A) (A) (A) (A) (A) (A) (A) (A) (A) (A) (A)
                 (A) (A) (A) (A) (A) (A) (A) (A) (A) (A) (A) (A)
                 (A) (A) (A) (A) (A) (A) (A) (A) (A) (A) (A) (A)
                 (A) (A) (A) (A) (A) (A) (A) (A) (A) (A) (A) (A)
                 (A) (A) (A) (A) (A) (A) (A) (A) (A) (A) (A) (A)
                 (A) (A) (A) (A) (A) (A) (A) (A) (A) (A) (A) (A)
                 (A) (A) (A) (A) (A) (A) (A) (A) (A) (A) (A) (A)
                 (A) (A) (A) (A) (A) (A) (A) (A) (A) (A) (A) (A)
                 (A) (A) (A) (A) (A) (A) (A) (A) (A) (A) (A) (A)
                 (A) (A) (A) (A) (A) (A) (A) (A) (A) (A) (A) (A)
                 (A) (A) (A) (A) (A) (A) (A) (A) (A) (A) (A) (A)
                 (A) (A) (A) (A) (A) (A) (A) (A) (A) (A) (A) (A)
                 (A) (A) (A) (A) (A) (A) (A) (A) (A) (A) (A) (A)
                 (A) (A) (A) (A) (A) (A) (A) (A) (A) (A) (A) (A)
                 (A) (A) (A) (A) (A) (A) (A) (A) (A) (A) (A) (A)
                 (A) (A) (A) (A) (A) (A) (A) (A) (A) (A) (A) (A)
                 (A) (A) (A) (A) (A) (A) (A) (A) (A) (A) (A) (A)
                 (A) (A) (A) (A) (A) (A) (A) (A) (A) (A) (A) (A)
                 (A) (A) (A) (A) (A) (A) (A) (A) (A) (A) (A) (A)
                 (A) (A) (A) (A) (A) (A) (A) (A) (A) (A) (A) (A)
                 (A) (A) (A) (A) (A) (A) (A) (A) (A) (A) (A) (A)
                 (A) (A) (A) (A) (A) (A) (A) (A) (A) (A) (A) (A)
                 (A) (A) (A) (A) (A) (A) (A) (A) (A) (A) (A) (A)
                 (A) (A) (A) (A) (A) (A) (A) (A) (A) (A) (A) (A)
                 (A) (A) (A) (A) (A) (A) (A) (A) (A) (A) (A) (A)
                 (A) (A) (A) (A) (A) (A) (A) (A) (A) (A) (A) (A)
                 (A) (A) (A) (A) (A) (A) (A) (A) (A) (A) (A) (A)
                 (A) (A) (A) (A) (A) (A) (A) (A) (A) (A) (A) (A)
                 (A) (A) (A) (A) (A) (A) (A) (A) (A) (A) (A) (A)
                 (A) (A) (A) (A) (A) (A) (A) (A) (A) (A) (A) (A)
                 (A) (A) (A) (A) (A) (A) (A) (A) (A) (A) (A) (A)
                 (A) (A) (A) (A) (A) (A) (A) (A) (A) (A) (A) (A)
                 (A) (A) (A) (A) (A) (A) (A) (A) (A) (A) (A) (A)
                 (A) (A) (A) (A) (A) (A) (A) (A) (A) (A) (A) (A)
                 (A) (A) (A) (A) (A) (A) (A) (A) (A) (A) (A) (A)
                 (A) (A) (A) (A) (A) (A) (A) (A) (A) (A) (A) (A)
                 (A) (A) (A) (A) (A) (A) (A) (A) (A) (A) (A) (A)
                 (A) (A) (A) (A) (A) (A) (A) (A) (A) (A) (A) (A)
                 (A) (A) (A) (A) (A) (A) (A) (A) (A) (A) (A) (A)
                 (A) (A) (A) (A) (A) (A) (A) (A) (A) (A) (A) (A)
                 (A) (A) (A) (A) (A) (A) (A) (A) (A) (A) (A) (A)
                 (A) (A) (A) (A) (A) (A) (A) (A) (A) (A) (A) (A)
                 (A) (A) (A) (A) (A) (A) (A) (A) (A) (A) (A) (A)
                 (A) (A) (A) (A) (A) (A) (A) (A) (A) (A) (A) (A)
                 (A) (A) (A) (A) (A) (A) (A) (A) (A) (A) (A) (A)
                 (A) (A) (A) (A) (A) (A) (A) (A) (A) (A) (A) (A)
                 (A) (A) (A) (A) (A) (A) (A) (A) (A) (A) (A) (A)
                 (A) (A) (A) (A) (A) (A) (A) (A) (A) (A) (A) (A)
                 (A) (A) (A) (A) (A) (A) (A) (A) (A) (A) (A) (A)
                 (A) (A) (A) (A) (A) (A) (A) (A) (A) (A) (A) (A)
                 (A) (A) (A) (A) (A) (A) (A) (A) (A) (A) (A) (A)
                 (A) (A) (A) (A) (A) (A) (A) (A) (A) (A) (A) (A)
                 (A) (A) (A)
 The electronic state is 1-A.
 Alpha  occ. eigenvalues -- -145.45397 -19.17040 -19.14166 -19.13983 -19.11690
 Alpha  occ. eigenvalues --  -19.10870 -19.10793 -19.10786 -19.10728 -19.10593
 Alpha  occ. eigenvalues --  -19.10328 -19.10260 -19.09728 -19.08816 -19.08616
 Alpha  occ. eigenvalues --  -19.08259 -19.08099 -19.07784 -19.07766 -19.07415
 Alpha  occ. eigenvalues --  -19.06737 -19.06178 -18.98572 -18.97314 -15.51331
 Alpha  occ. eigenvalues --  -14.59618 -14.36621 -14.35586 -14.35472 -14.35451
 Alpha  occ. eigenvalues --  -14.35314 -14.34574 -14.34504 -14.34248 -14.33795
 Alpha  occ. eigenvalues --  -14.33537 -14.33501 -14.32909 -14.32646 -14.32034
 Alpha  occ. eigenvalues --  -12.64961 -12.64926 -12.64804 -10.36085 -10.29391
 Alpha  occ. eigenvalues --  -10.29246 -10.29083 -10.28812 -10.28671 -10.28421
 Alpha  occ. eigenvalues --  -10.28389 -10.28231 -10.28061 -10.27268 -10.27053
 Alpha  occ. eigenvalues --  -10.27011 -10.26974 -10.26860 -10.26831 -10.26235
 Alpha  occ. eigenvalues --  -10.25566 -10.25137 -10.25021 -10.24455 -10.23684
 Alpha  occ. eigenvalues --  -10.23432 -10.23426 -10.23314 -10.23208 -10.23164
 Alpha  occ. eigenvalues --  -10.22759 -10.22430 -10.22137 -10.21983 -10.21031
 Alpha  occ. eigenvalues --  -10.20587 -10.20479 -10.20353 -10.20332 -10.20149
 Alpha  occ. eigenvalues --  -10.19560 -10.18986 -10.18488 -10.18123 -10.18049
 Alpha  occ. eigenvalues --  -10.17962 -10.17549 -10.17472 -10.17400 -10.17388
 Alpha  occ. eigenvalues --  -10.17335 -10.16981 -10.16800 -10.15719 -10.15345
 Alpha  occ. eigenvalues --  -10.14654 -10.13120  -1.88025  -1.15740  -1.15540
 Alpha  occ. eigenvalues --   -1.15044  -1.14837  -1.05462  -1.05000  -1.04955
 Alpha  occ. eigenvalues --   -1.03943  -1.03806  -1.03441  -1.03031  -1.02783
 Alpha  occ. eigenvalues --   -1.02633  -1.02477  -1.02256  -1.01846  -1.01677
 Alpha  occ. eigenvalues --   -1.01227  -1.00997  -1.00855  -1.00545  -1.00003
 Alpha  occ. eigenvalues --   -0.99052  -0.95032  -0.94137  -0.93465  -0.93349
 Alpha  occ. eigenvalues --   -0.93325  -0.92787  -0.92615  -0.92110  -0.91855
 Alpha  occ. eigenvalues --   -0.91402  -0.91027  -0.90867  -0.90533  -0.90316
 Alpha  occ. eigenvalues --   -0.90105  -0.89698  -0.88630  -0.86567  -0.83399
 Alpha  occ. eigenvalues --   -0.83158  -0.82311  -0.80632  -0.79932  -0.79356
 Alpha  occ. eigenvalues --   -0.78118  -0.77703  -0.77363  -0.76927  -0.76756
 Alpha  occ. eigenvalues --   -0.76024  -0.75157  -0.75054  -0.73416  -0.73243
 Alpha  occ. eigenvalues --   -0.73008  -0.72861  -0.72045  -0.71897  -0.71862
 Alpha  occ. eigenvalues --   -0.70890  -0.70265  -0.68735  -0.67871  -0.67561
 Alpha  occ. eigenvalues --   -0.67259  -0.66854  -0.65570  -0.64727  -0.64582
 Alpha  occ. eigenvalues --   -0.63720  -0.62917  -0.62024  -0.61849  -0.61762
 Alpha  occ. eigenvalues --   -0.61023  -0.60669  -0.60306  -0.59391  -0.59335
 Alpha  occ. eigenvalues --   -0.59148  -0.58726  -0.58560  -0.57907  -0.57508
 Alpha  occ. eigenvalues --   -0.57230  -0.57198  -0.57115  -0.56966  -0.56758
 Alpha  occ. eigenvalues --   -0.56513  -0.56145  -0.56035  -0.55805  -0.55329
 Alpha  occ. eigenvalues --   -0.55091  -0.54974  -0.53815  -0.53493  -0.53466
 Alpha  occ. eigenvalues --   -0.52838  -0.52749  -0.52652  -0.51947  -0.51630
 Alpha  occ. eigenvalues --   -0.51591  -0.51394  -0.51342  -0.50954  -0.50351
 Alpha  occ. eigenvalues --   -0.50123  -0.49930  -0.49757  -0.49272  -0.48940
 Alpha  occ. eigenvalues --   -0.48754  -0.48471  -0.48275  -0.48162  -0.47510
 Alpha  occ. eigenvalues --   -0.47311  -0.47072  -0.46705  -0.46426  -0.46402
 Alpha  occ. eigenvalues --   -0.46166  -0.46029  -0.45897  -0.45750  -0.45313
 Alpha  occ. eigenvalues --   -0.45114  -0.45053  -0.45032  -0.44978  -0.44836
 Alpha  occ. eigenvalues --   -0.44820  -0.44719  -0.44397  -0.44201  -0.44041
 Alpha  occ. eigenvalues --   -0.43748  -0.43658  -0.43584  -0.43218  -0.43164
 Alpha  occ. eigenvalues --   -0.43084  -0.43022  -0.42875  -0.42747  -0.42610
 Alpha  occ. eigenvalues --   -0.42561  -0.42168  -0.41908  -0.41789  -0.41763
 Alpha  occ. eigenvalues --   -0.41648  -0.41502  -0.41423  -0.41164  -0.41037
 Alpha  occ. eigenvalues --   -0.40996  -0.40829  -0.40625  -0.40316  -0.40142
 Alpha  occ. eigenvalues --   -0.40025  -0.39916  -0.39686  -0.39464  -0.39445
 Alpha  occ. eigenvalues --   -0.39380  -0.39331  -0.39239  -0.38894  -0.38702
 Alpha  occ. eigenvalues --   -0.38633  -0.38569  -0.38357  -0.38334  -0.38175
 Alpha  occ. eigenvalues --   -0.38130  -0.37961  -0.37894  -0.37712  -0.37511
 Alpha  occ. eigenvalues --   -0.37305  -0.37036  -0.36932  -0.36906  -0.36805
 Alpha  occ. eigenvalues --   -0.36322  -0.36277  -0.36211  -0.36120  -0.36044
 Alpha  occ. eigenvalues --   -0.36004  -0.35863  -0.35404  -0.35303  -0.35234
 Alpha  occ. eigenvalues --   -0.35072  -0.34851  -0.34303  -0.34206  -0.34118
 Alpha  occ. eigenvalues --   -0.33777  -0.33414  -0.33341  -0.33267  -0.32624
 Alpha  occ. eigenvalues --   -0.32596  -0.31955  -0.31889  -0.31096  -0.30980
 Alpha  occ. eigenvalues --   -0.29751  -0.29373  -0.29112  -0.29014  -0.28575
 Alpha  occ. eigenvalues --   -0.28522  -0.28447  -0.28278  -0.28161  -0.28071
 Alpha  occ. eigenvalues --   -0.27838  -0.27570  -0.27214  -0.27150  -0.26955
 Alpha  occ. eigenvalues --   -0.26680  -0.26593  -0.26487  -0.26238  -0.25832
 Alpha  occ. eigenvalues --   -0.25520  -0.25162  -0.25144  -0.25062  -0.24627
 Alpha  occ. eigenvalues --   -0.24572  -0.24418  -0.24130  -0.24081  -0.23879
 Alpha  occ. eigenvalues --   -0.23693  -0.23507  -0.23485  -0.23095  -0.22904
 Alpha  occ. eigenvalues --   -0.22578  -0.22436  -0.22027  -0.21395  -0.20152
 Alpha  occ. eigenvalues --   -0.16187  -0.15508  -0.13145
 Alpha virt. eigenvalues --   -0.11718  -0.05944  -0.05751  -0.05643  -0.02330
 Alpha virt. eigenvalues --   -0.00988  -0.00710  -0.00457   0.00066   0.00684
 Alpha virt. eigenvalues --    0.00732   0.00803   0.01130   0.01287   0.01555
 Alpha virt. eigenvalues --    0.01696   0.01889   0.02203   0.02272   0.02660
 Alpha virt. eigenvalues --    0.02847   0.02965   0.03250   0.03425   0.03502
 Alpha virt. eigenvalues --    0.03608   0.03737   0.03962   0.04171   0.04390
 Alpha virt. eigenvalues --    0.04981   0.05341   0.05787   0.05952   0.06121
 Alpha virt. eigenvalues --    0.06345   0.06572   0.07124   0.07164   0.07513
 Alpha virt. eigenvalues --    0.07564   0.07985   0.08188   0.08420   0.08910
 Alpha virt. eigenvalues --    0.09376   0.09487   0.09569   0.09621   0.09735
 Alpha virt. eigenvalues --    0.10061   0.10168   0.10328   0.10479   0.10743
 Alpha virt. eigenvalues --    0.11089   0.11293   0.11398   0.11654   0.11882
 Alpha virt. eigenvalues --    0.12052   0.12272   0.12357   0.12545   0.12776
 Alpha virt. eigenvalues --    0.12945   0.13222   0.13367   0.13646   0.13684
 Alpha virt. eigenvalues --    0.13876   0.13996   0.14181   0.14351   0.14437
 Alpha virt. eigenvalues --    0.14655   0.14762   0.14778   0.14826   0.14956
 Alpha virt. eigenvalues --    0.15158   0.15503   0.15753   0.15792   0.16029
 Alpha virt. eigenvalues --    0.16325   0.16396   0.16459   0.16773   0.16933
 Alpha virt. eigenvalues --    0.17144   0.17310   0.17471   0.17613   0.17662
 Alpha virt. eigenvalues --    0.17899   0.18010   0.18111   0.18177   0.18544
 Alpha virt. eigenvalues --    0.18607   0.18708   0.18893   0.19096   0.19368
 Alpha virt. eigenvalues --    0.19451   0.19658   0.19999   0.20320   0.20589
 Alpha virt. eigenvalues --    0.20654   0.20682   0.20915   0.21202   0.21226
 Alpha virt. eigenvalues --    0.21313   0.21587   0.21784   0.22001   0.22164
 Alpha virt. eigenvalues --    0.22485   0.22691   0.22841   0.22872   0.23154
 Alpha virt. eigenvalues --    0.23469   0.23520   0.23684   0.23924   0.23987
 Alpha virt. eigenvalues --    0.24132   0.24193   0.24767   0.24826   0.25091
 Alpha virt. eigenvalues --    0.25149   0.25566   0.25680   0.25768   0.26170
 Alpha virt. eigenvalues --    0.26272   0.26523   0.26682   0.27183   0.27429
 Alpha virt. eigenvalues --    0.27797   0.27898   0.28005   0.28245   0.28689
 Alpha virt. eigenvalues --    0.28751   0.29008   0.29690   0.29834   0.29893
 Alpha virt. eigenvalues --    0.30072   0.30228   0.30379   0.30543   0.30705
 Alpha virt. eigenvalues --    0.31018   0.31207   0.31377   0.31550   0.31785
 Alpha virt. eigenvalues --    0.31912   0.32347   0.32595   0.32683   0.33013
 Alpha virt. eigenvalues --    0.33306   0.33689   0.34070   0.34313   0.34720
 Alpha virt. eigenvalues --    0.35020   0.35206   0.35398   0.35689   0.36216
 Alpha virt. eigenvalues --    0.36272   0.36757   0.37172   0.37386   0.37618
 Alpha virt. eigenvalues --    0.37726   0.38499   0.38606   0.39214   0.39490
 Alpha virt. eigenvalues --    0.39626   0.39761   0.40190   0.40418   0.40444
 Alpha virt. eigenvalues --    0.40672   0.40777   0.40878   0.41082   0.41179
 Alpha virt. eigenvalues --    0.41951   0.42153   0.42333   0.42628   0.42780
 Alpha virt. eigenvalues --    0.42907   0.43145   0.43527   0.43690   0.43940
 Alpha virt. eigenvalues --    0.44133   0.44377   0.44539   0.44869   0.45039
 Alpha virt. eigenvalues --    0.45440   0.45729   0.46052   0.46232   0.46406
 Alpha virt. eigenvalues --    0.46428   0.46624   0.46725   0.47177   0.47407
 Alpha virt. eigenvalues --    0.47535   0.47552   0.47784   0.47941   0.47989
 Alpha virt. eigenvalues --    0.48258   0.48370   0.48684   0.48771   0.48973
 Alpha virt. eigenvalues --    0.49031   0.49045   0.49279   0.49509   0.49811
 Alpha virt. eigenvalues --    0.50119   0.50358   0.50439   0.50631   0.50694
 Alpha virt. eigenvalues --    0.50905   0.50955   0.51203   0.51349   0.51573
 Alpha virt. eigenvalues --    0.52066   0.52380   0.52450   0.52719   0.52876
 Alpha virt. eigenvalues --    0.52974   0.53307   0.53447   0.53588   0.53676
 Alpha virt. eigenvalues --    0.53953   0.54126   0.54221   0.54540   0.54595
 Alpha virt. eigenvalues --    0.54748   0.54966   0.55020   0.55242   0.55596
 Alpha virt. eigenvalues --    0.55692   0.55787   0.56155   0.56270   0.56371
 Alpha virt. eigenvalues --    0.56570   0.56936   0.56965   0.57222   0.57347
 Alpha virt. eigenvalues --    0.57573   0.57901   0.58016   0.58120   0.58131
 Alpha virt. eigenvalues --    0.58463   0.58591   0.58849   0.59009   0.59147
 Alpha virt. eigenvalues --    0.59260   0.59587   0.59687   0.59776   0.59970
 Alpha virt. eigenvalues --    0.60133   0.60326   0.60563   0.60673   0.61078
 Alpha virt. eigenvalues --    0.61223   0.61341   0.61537   0.61583   0.61841
 Alpha virt. eigenvalues --    0.61874   0.61991   0.62031   0.62103   0.62294
 Alpha virt. eigenvalues --    0.62381   0.62467   0.62510   0.62600   0.62843
 Alpha virt. eigenvalues --    0.62982   0.63070   0.63324   0.63446   0.63777
 Alpha virt. eigenvalues --    0.63934   0.63959   0.64179   0.64189   0.64263
 Alpha virt. eigenvalues --    0.64429   0.64534   0.64741   0.64936   0.65075
 Alpha virt. eigenvalues --    0.65154   0.65204   0.65329   0.65476   0.65759
 Alpha virt. eigenvalues --    0.65835   0.65883   0.65944   0.66039   0.66096
 Alpha virt. eigenvalues --    0.66149   0.66343   0.66436   0.66536   0.66568
 Alpha virt. eigenvalues --    0.66721   0.66804   0.66841   0.66992   0.67156
 Alpha virt. eigenvalues --    0.67190   0.67271   0.67304   0.67380   0.67573
 Alpha virt. eigenvalues --    0.67696   0.67740   0.67844   0.67927   0.68045
 Alpha virt. eigenvalues --    0.68107   0.68240   0.68296   0.68504   0.68606
 Alpha virt. eigenvalues --    0.68748   0.68831   0.68936   0.69137   0.69257
 Alpha virt. eigenvalues --    0.69298   0.69500   0.69550   0.69645   0.69872
 Alpha virt. eigenvalues --    0.70298   0.70402   0.70599   0.70645   0.70876
 Alpha virt. eigenvalues --    0.71041   0.71242   0.71462   0.71516   0.71618
 Alpha virt. eigenvalues --    0.71696   0.71818   0.71975   0.71988   0.72209
 Alpha virt. eigenvalues --    0.72485   0.72624   0.72938   0.73049   0.73252
 Alpha virt. eigenvalues --    0.73329   0.73439   0.73705   0.74117   0.74260
 Alpha virt. eigenvalues --    0.74564   0.74748   0.74947   0.75129   0.75218
 Alpha virt. eigenvalues --    0.75406   0.75585   0.75697   0.75734   0.75992
 Alpha virt. eigenvalues --    0.76248   0.76346   0.76441   0.76709   0.76854
 Alpha virt. eigenvalues --    0.77311   0.77408   0.77745   0.77835   0.78032
 Alpha virt. eigenvalues --    0.78125   0.78489   0.78809   0.78949   0.79358
 Alpha virt. eigenvalues --    0.79716   0.79990   0.80282   0.80499   0.80690
 Alpha virt. eigenvalues --    0.80939   0.81230   0.81483   0.81747   0.81838
 Alpha virt. eigenvalues --    0.81978   0.82163   0.82510   0.82688   0.82962
 Alpha virt. eigenvalues --    0.83025   0.83132   0.83501   0.83673   0.83823
 Alpha virt. eigenvalues --    0.84053   0.84296   0.84839   0.84948   0.85111
 Alpha virt. eigenvalues --    0.85382   0.85741   0.86017   0.86566   0.86920
 Alpha virt. eigenvalues --    0.87305   0.87480   0.87686   0.87775   0.88236
 Alpha virt. eigenvalues --    0.88575   0.88634   0.88880   0.88998   0.89332
 Alpha virt. eigenvalues --    0.89619   0.89982   0.90450   0.90544   0.90812
 Alpha virt. eigenvalues --    0.90969   0.91015   0.91309   0.91919   0.92382
 Alpha virt. eigenvalues --    0.92497   0.92822   0.92967   0.93076   0.93718
 Alpha virt. eigenvalues --    0.93865   0.94128   0.94301   0.94698   0.95200
 Alpha virt. eigenvalues --    0.95657   0.95772   0.96059   0.96410   0.96571
 Alpha virt. eigenvalues --    0.96831   0.97049   0.97089   0.97510   0.97804
 Alpha virt. eigenvalues --    0.98140   0.98506   0.98667   0.99012   0.99233
 Alpha virt. eigenvalues --    0.99541   0.99803   1.00271   1.00375   1.00408
 Alpha virt. eigenvalues --    1.00700   1.00887   1.01086   1.01347   1.01488
 Alpha virt. eigenvalues --    1.01908   1.02275   1.02356   1.02819   1.03123
 Alpha virt. eigenvalues --    1.03433   1.03674   1.04404   1.04564   1.04902
 Alpha virt. eigenvalues --    1.05168   1.05268   1.05505   1.05737   1.06199
 Alpha virt. eigenvalues --    1.06479   1.06600   1.06667   1.06924   1.07352
 Alpha virt. eigenvalues --    1.07431   1.07698   1.07985   1.08331   1.08846
 Alpha virt. eigenvalues --    1.08964   1.09118   1.09483   1.09777   1.09998
 Alpha virt. eigenvalues --    1.10226   1.10615   1.10977   1.11116   1.11362
 Alpha virt. eigenvalues --    1.11510   1.11795   1.12223   1.12581   1.12758
 Alpha virt. eigenvalues --    1.13002   1.13266   1.13576   1.13698   1.13904
 Alpha virt. eigenvalues --    1.14530   1.14778   1.15019   1.15152   1.15416
 Alpha virt. eigenvalues --    1.15722   1.16065   1.16480   1.16780   1.17233
 Alpha virt. eigenvalues --    1.17590   1.17795   1.17898   1.18166   1.18532
 Alpha virt. eigenvalues --    1.18594   1.18888   1.19154   1.19927   1.20082
 Alpha virt. eigenvalues --    1.20215   1.20611   1.20826   1.21157   1.21338
 Alpha virt. eigenvalues --    1.21637   1.21857   1.21927   1.22301   1.22593
 Alpha virt. eigenvalues --    1.22772   1.22978   1.23259   1.23662   1.23718
 Alpha virt. eigenvalues --    1.24021   1.24247   1.24365   1.24620   1.24937
 Alpha virt. eigenvalues --    1.25030   1.25224   1.25459   1.25632   1.25941
 Alpha virt. eigenvalues --    1.26233   1.26764   1.27047   1.27154   1.27374
 Alpha virt. eigenvalues --    1.27699   1.27793   1.28092   1.28385   1.28492
 Alpha virt. eigenvalues --    1.28702   1.28908   1.29409   1.29451   1.29697
 Alpha virt. eigenvalues --    1.29744   1.29928   1.30503   1.30786   1.30816
 Alpha virt. eigenvalues --    1.31201   1.31588   1.31675   1.31995   1.32288
 Alpha virt. eigenvalues --    1.33253   1.33368   1.33630   1.34284   1.34372
 Alpha virt. eigenvalues --    1.34784   1.35434   1.35561   1.35946   1.36047
 Alpha virt. eigenvalues --    1.36133   1.36570   1.36810   1.36991   1.37414
 Alpha virt. eigenvalues --    1.37574   1.37740   1.38199   1.38539   1.38682
 Alpha virt. eigenvalues --    1.38809   1.39037   1.39360   1.39826   1.39973
 Alpha virt. eigenvalues --    1.40400   1.40640   1.40895   1.41060   1.41197
 Alpha virt. eigenvalues --    1.41709   1.42088   1.42513   1.42885   1.42944
 Alpha virt. eigenvalues --    1.43210   1.43590   1.44063   1.44326   1.44533
 Alpha virt. eigenvalues --    1.44608   1.45052   1.45176   1.45548   1.45791
 Alpha virt. eigenvalues --    1.46028   1.46970   1.47562   1.47705   1.47850
 Alpha virt. eigenvalues --    1.47990   1.48742   1.48816   1.49141   1.49256
 Alpha virt. eigenvalues --    1.49364   1.49533   1.49772   1.50155   1.50685
 Alpha virt. eigenvalues --    1.51049   1.51141   1.51441   1.51575   1.51855
 Alpha virt. eigenvalues --    1.52234   1.52434   1.53000   1.53210   1.53889
 Alpha virt. eigenvalues --    1.54326   1.54462   1.55157   1.55268   1.55294
 Alpha virt. eigenvalues --    1.55646   1.55880   1.56177   1.56402   1.56897
 Alpha virt. eigenvalues --    1.57030   1.57064   1.57471   1.57700   1.57882
 Alpha virt. eigenvalues --    1.58229   1.59123   1.59274   1.59387   1.59611
 Alpha virt. eigenvalues --    1.60190   1.60557   1.61027   1.61334   1.61621
 Alpha virt. eigenvalues --    1.62024   1.62281   1.62456   1.62560   1.63174
 Alpha virt. eigenvalues --    1.63254   1.63873   1.64079   1.64636   1.64783
 Alpha virt. eigenvalues --    1.65207   1.65450   1.65952   1.66311   1.66504
 Alpha virt. eigenvalues --    1.66821   1.66979   1.67338   1.67451   1.68178
 Alpha virt. eigenvalues --    1.68261   1.68545   1.68696   1.68950   1.69045
 Alpha virt. eigenvalues --    1.69482   1.69544   1.69677   1.70153   1.70332
 Alpha virt. eigenvalues --    1.70680   1.71007   1.71186   1.71544   1.71768
 Alpha virt. eigenvalues --    1.71939   1.72180   1.72331   1.72456   1.73063
 Alpha virt. eigenvalues --    1.73355   1.73525   1.73612   1.73750   1.73927
 Alpha virt. eigenvalues --    1.74107   1.74227   1.74298   1.74386   1.74553
 Alpha virt. eigenvalues --    1.74876   1.75186   1.75512   1.75698   1.75884
 Alpha virt. eigenvalues --    1.76013   1.76247   1.76801   1.77012   1.77053
 Alpha virt. eigenvalues --    1.77251   1.77474   1.77690   1.77836   1.78027
 Alpha virt. eigenvalues --    1.78267   1.78498   1.78708   1.78863   1.79111
 Alpha virt. eigenvalues --    1.79299   1.79415   1.79616   1.79652   1.79792
 Alpha virt. eigenvalues --    1.79962   1.80098   1.80265   1.80430   1.80653
 Alpha virt. eigenvalues --    1.80684   1.80902   1.80994   1.81167   1.81467
 Alpha virt. eigenvalues --    1.81594   1.81737   1.81860   1.82084   1.82323
 Alpha virt. eigenvalues --    1.82374   1.82599   1.82689   1.83010   1.83115
 Alpha virt. eigenvalues --    1.83371   1.83649   1.83752   1.83849   1.84026
 Alpha virt. eigenvalues --    1.84367   1.84546   1.84691   1.84805   1.85029
 Alpha virt. eigenvalues --    1.85220   1.85430   1.85563   1.85743   1.85908
 Alpha virt. eigenvalues --    1.86046   1.86204   1.86430   1.86675   1.86966
 Alpha virt. eigenvalues --    1.87084   1.87211   1.87304   1.87374   1.87576
 Alpha virt. eigenvalues --    1.88066   1.88244   1.88452   1.88649   1.88807
 Alpha virt. eigenvalues --    1.88875   1.89139   1.89362   1.89555   1.89915
 Alpha virt. eigenvalues --    1.90020   1.90255   1.90576   1.90719   1.90849
 Alpha virt. eigenvalues --    1.91030   1.91577   1.91680   1.91976   1.92062
 Alpha virt. eigenvalues --    1.92318   1.92633   1.92783   1.92987   1.93129
 Alpha virt. eigenvalues --    1.93411   1.93422   1.93557   1.93813   1.93979
 Alpha virt. eigenvalues --    1.94346   1.94546   1.94626   1.94867   1.94956
 Alpha virt. eigenvalues --    1.95200   1.95625   1.95831   1.96046   1.96421
 Alpha virt. eigenvalues --    1.96594   1.96710   1.96945   1.97205   1.97503
 Alpha virt. eigenvalues --    1.97681   1.97908   1.98272   1.98409   1.98621
 Alpha virt. eigenvalues --    1.98654   1.99327   1.99468   1.99606   1.99798
 Alpha virt. eigenvalues --    1.99879   2.00238   2.00460   2.00713   2.01094
 Alpha virt. eigenvalues --    2.01275   2.01466   2.01518   2.01658   2.02033
 Alpha virt. eigenvalues --    2.02225   2.02464   2.02514   2.02935   2.03311
 Alpha virt. eigenvalues --    2.03415   2.03732   2.03797   2.03966   2.04205
 Alpha virt. eigenvalues --    2.04381   2.04567   2.04733   2.04945   2.05487
 Alpha virt. eigenvalues --    2.05565   2.05750   2.06068   2.06236   2.06442
 Alpha virt. eigenvalues --    2.06780   2.06922   2.07078   2.07374   2.07539
 Alpha virt. eigenvalues --    2.07953   2.08177   2.08349   2.08814   2.08848
 Alpha virt. eigenvalues --    2.09251   2.09483   2.09850   2.10133   2.10334
 Alpha virt. eigenvalues --    2.10432   2.10490   2.11009   2.11198   2.11496
 Alpha virt. eigenvalues --    2.11715   2.11996   2.12103   2.12668   2.13088
 Alpha virt. eigenvalues --    2.13305   2.13381   2.13726   2.13822   2.14212
 Alpha virt. eigenvalues --    2.14619   2.14898   2.15061   2.15187   2.15583
 Alpha virt. eigenvalues --    2.16041   2.16784   2.17361   2.17648   2.17757
 Alpha virt. eigenvalues --    2.17838   2.18169   2.18405   2.18514   2.18594
 Alpha virt. eigenvalues --    2.18706   2.19018   2.19424   2.20088   2.20303
 Alpha virt. eigenvalues --    2.20343   2.20596   2.20809   2.21125   2.21601
 Alpha virt. eigenvalues --    2.21924   2.22128   2.22396   2.22706   2.23360
 Alpha virt. eigenvalues --    2.23926   2.24161   2.24384   2.24739   2.25329
 Alpha virt. eigenvalues --    2.25390   2.26352   2.26544   2.26733   2.27136
 Alpha virt. eigenvalues --    2.27286   2.27305   2.27922   2.28231   2.28365
 Alpha virt. eigenvalues --    2.28848   2.29498   2.29697   2.30076   2.30209
 Alpha virt. eigenvalues --    2.30572   2.31128   2.31335   2.31723   2.31868
 Alpha virt. eigenvalues --    2.32309   2.32363   2.32694   2.32739   2.33187
 Alpha virt. eigenvalues --    2.33503   2.34281   2.34699   2.34998   2.35257
 Alpha virt. eigenvalues --    2.35493   2.35883   2.36033   2.36600   2.36682
 Alpha virt. eigenvalues --    2.36910   2.37168   2.37671   2.37988   2.38197
 Alpha virt. eigenvalues --    2.38685   2.38907   2.39129   2.39468   2.39573
 Alpha virt. eigenvalues --    2.39966   2.40116   2.40953   2.41338   2.41490
 Alpha virt. eigenvalues --    2.41834   2.41966   2.42588   2.42897   2.43518
 Alpha virt. eigenvalues --    2.43685   2.44026   2.44474   2.44752   2.44811
 Alpha virt. eigenvalues --    2.45192   2.45365   2.46046   2.46559   2.47189
 Alpha virt. eigenvalues --    2.47414   2.47564   2.47814   2.47931   2.48055
 Alpha virt. eigenvalues --    2.48326   2.48554   2.48808   2.49110   2.49535
 Alpha virt. eigenvalues --    2.50547   2.51011   2.51295   2.51590   2.51976
 Alpha virt. eigenvalues --    2.52100   2.52308   2.52320   2.53360   2.53937
 Alpha virt. eigenvalues --    2.54180   2.54360   2.54387   2.55006   2.55078
 Alpha virt. eigenvalues --    2.55796   2.56032   2.56311   2.56624   2.57060
 Alpha virt. eigenvalues --    2.57466   2.57566   2.57896   2.58291   2.58500
 Alpha virt. eigenvalues --    2.58894   2.59123   2.59288   2.59595   2.60166
 Alpha virt. eigenvalues --    2.60267   2.60603   2.60665   2.62084   2.62394
 Alpha virt. eigenvalues --    2.62473   2.63040   2.63314   2.63535   2.63863
 Alpha virt. eigenvalues --    2.64220   2.64386   2.64643   2.64944   2.65364
 Alpha virt. eigenvalues --    2.65603   2.65853   2.65995   2.66105   2.66457
 Alpha virt. eigenvalues --    2.66655   2.66773   2.66813   2.66918   2.67456
 Alpha virt. eigenvalues --    2.67944   2.68408   2.68545   2.68863   2.69100
 Alpha virt. eigenvalues --    2.69403   2.69740   2.69931   2.70127   2.70562
 Alpha virt. eigenvalues --    2.70950   2.71199   2.71509   2.71827   2.72044
 Alpha virt. eigenvalues --    2.72240   2.72533   2.73036   2.73193   2.73517
 Alpha virt. eigenvalues --    2.73704   2.74383   2.74800   2.75065   2.75112
 Alpha virt. eigenvalues --    2.75235   2.75454   2.75481   2.76287   2.76555
 Alpha virt. eigenvalues --    2.76598   2.76975   2.77124   2.77236   2.77394
 Alpha virt. eigenvalues --    2.77711   2.78012   2.78299   2.78466   2.78671
 Alpha virt. eigenvalues --    2.78988   2.79134   2.79493   2.79933   2.80045
 Alpha virt. eigenvalues --    2.80119   2.80426   2.81003   2.81177   2.81353
 Alpha virt. eigenvalues --    2.81518   2.81859   2.81950   2.82035   2.82368
 Alpha virt. eigenvalues --    2.82936   2.83879   2.83948   2.84373   2.84655
 Alpha virt. eigenvalues --    2.85129   2.85410   2.85665   2.86154   2.86224
 Alpha virt. eigenvalues --    2.86715   2.87054   2.87440   2.87795   2.88306
 Alpha virt. eigenvalues --    2.88438   2.88588   2.88713   2.88905   2.89036
 Alpha virt. eigenvalues --    2.89434   2.89538   2.89893   2.90169   2.90822
 Alpha virt. eigenvalues --    2.91033   2.91309   2.91429   2.91837   2.92027
 Alpha virt. eigenvalues --    2.92731   2.92780   2.92919   2.93432   2.93464
 Alpha virt. eigenvalues --    2.94209   2.94549   2.94821   2.95027   2.95784
 Alpha virt. eigenvalues --    2.95983   2.96171   2.96628   2.96833   2.97044
 Alpha virt. eigenvalues --    2.97120   2.97422   2.97652   2.97900   2.98154
 Alpha virt. eigenvalues --    2.98644   2.98897   2.99035   2.99497   2.99913
 Alpha virt. eigenvalues --    3.00267   3.00633   3.01102   3.01370   3.02150
 Alpha virt. eigenvalues --    3.02532   3.02884   3.03032   3.03286   3.03476
 Alpha virt. eigenvalues --    3.03847   3.04379   3.04569   3.04899   3.05105
 Alpha virt. eigenvalues --    3.05421   3.05701   3.06147   3.06302   3.06475
 Alpha virt. eigenvalues --    3.07023   3.07349   3.07397   3.08172   3.08802
 Alpha virt. eigenvalues --    3.08953   3.09155   3.09694   3.10377   3.11583
 Alpha virt. eigenvalues --    3.11882   3.12644   3.13353   3.13557   3.14854
 Alpha virt. eigenvalues --    3.14901   3.15412   3.15756   3.16336   3.16474
 Alpha virt. eigenvalues --    3.16539   3.16633   3.17220   3.17263   3.17500
 Alpha virt. eigenvalues --    3.17755   3.17952   3.18143   3.18572   3.18927
 Alpha virt. eigenvalues --    3.19024   3.19220   3.19273   3.19765   3.20054
 Alpha virt. eigenvalues --    3.20289   3.20671   3.20774   3.20802   3.21285
 Alpha virt. eigenvalues --    3.22101   3.22165   3.22558   3.23230   3.24136
 Alpha virt. eigenvalues --    3.24690   3.24905   3.25719   3.26313   3.27262
 Alpha virt. eigenvalues --    3.27717   3.28042   3.28369   3.29017   3.29795
 Alpha virt. eigenvalues --    3.30558   3.32204   3.32621   3.34018   3.35137
 Alpha virt. eigenvalues --    3.35925   3.36444   3.36589   3.38858   3.41033
 Alpha virt. eigenvalues --    3.41215   3.42764   3.43178   3.48953   3.50241
 Alpha virt. eigenvalues --    3.53073   3.53634   3.53972   3.54076   3.54341
 Alpha virt. eigenvalues --    3.55492   3.56119   3.56812   3.57290   3.57774
 Alpha virt. eigenvalues --    3.57901   3.58871   3.59800   3.61848   3.62678
 Alpha virt. eigenvalues --    3.64272   3.65226   3.65951   3.66419   3.66639
 Alpha virt. eigenvalues --    3.67702   3.68401   3.68454   3.69500   3.69600
 Alpha virt. eigenvalues --    3.69780   3.70280   3.70418   3.70582   3.70675
 Alpha virt. eigenvalues --    3.71786   3.71883   3.73001   3.73203   3.74418
 Alpha virt. eigenvalues --    3.78240   3.78472   3.81476   3.85632
          Condensed to atoms (all electrons):
 Mulliken charges:
               1
     1  C    0.053575
     2  C    0.006406
     3  O   -0.255369
     4  H    0.040747
     5  H   -0.068501
     6  H    0.037235
     7  N   -0.121059
     8  C    0.169093
     9  C    0.022186
    10  O   -0.306209
    11  C    0.071206
    12  C    0.041882
    13  O   -0.359330
    14  O   -0.417868
    15  H    0.094185
    16  H    0.000050
    17  H    0.023541
    18  H   -0.003802
    19  N   -0.119073
    20  C    0.079720
    21  C    0.069725
    22  O   -0.282041
    23  C    0.085028
    24  C    0.009184
    25  C   -0.065708
    26  C   -0.003594
    27  N    0.091343
    28  H    0.123604
    29  H   -0.027029
    30  H   -0.076188
    31  H    0.040712
    32  H   -0.011439
    33  H    0.048627
    34  H    0.025319
    35  H    0.060228
    36  H    0.075225
    37  H    0.109524
    38  H    0.186588
    39  H    0.186567
    40  H    0.198612
    41  N   -0.086482
    42  C    0.047992
    43  C    0.090532
    44  O   -0.285206
    45  C    0.140281
    46  C    0.126341
    47  O   -0.451554
    48  O   -0.441549
    49  H    0.150072
    50  H    0.020770
    51  H    0.014256
    52  H   -0.002104
    53  N   -0.128898
    54  C    0.228161
    55  C   -0.009000
    56  O   -0.284890
    57  H    0.136076
    58  H    0.065081
    59  H    0.021907
    60  N   -0.069324
    61  C   -0.036229
    62  C    0.145356
    63  O   -0.281953
    64  C    0.176900
    65  C   -0.030313
    66  N   -0.054204
    67  O   -0.310998
    68  H    0.130882
    69  H    0.034109
    70  H   -0.016930
    71  H    0.023194
    72  H    0.118097
    73  H    0.114450
    74  N   -0.143849
    75  C    0.201621
    76  C    0.022235
    77  O   -0.283378
    78  H    0.130964
    79  H    0.048706
    80  H    0.054167
    81  N   -0.169376
    82  C    0.075965
    83  C    0.149214
    84  O   -0.332503
    85  C    0.211480
    86  C   -0.073767
    87  C   -0.007566
    88  C    0.010034
    89  C   -0.006307
    90  C   -0.043061
    91  C    0.171891
    92  O   -0.221794
    93  H    0.147050
    94  H    0.020317
    95  H    0.008003
    96  H    0.034851
    97  H   -0.026847
    98  H   -0.043543
    99  H   -0.028408
   100  H   -0.043877
   101  H    0.171400
   102  N   -0.114196
   103  C    0.111713
   104  C    0.079520
   105  O   -0.279958
   106  C   -0.069047
   107  C    0.015603
   108  C    0.058254
   109  C    0.031355
   110  H    0.152774
   111  H   -0.018309
   112  H    0.016347
   113  H   -0.026392
   114  H   -0.013145
   115  H    0.001645
   116  H   -0.005227
   117  H    0.015685
   118  H    0.029319
   119  H    0.016532
   120  H    0.002779
   121  N   -0.115425
   122  C    0.059235
   123  C    0.084095
   124  O   -0.295837
   125  C    0.199642
   126  O   -0.313104
   127  H    0.145781
   128  H    0.047746
   129  H   -0.011379
   130  H    0.017534
   131  H    0.170744
   132  N   -0.096124
   133  C    0.060467
   134  C    0.016980
   135  O   -0.265993
   136  C    0.078203
   137  H    0.129107
   138  H    0.020616
   139  H    0.038167
   140  H    0.011376
   141  H    0.012870
   142  N   -0.122545
   143  C    0.077067
   144  C    0.079057
   145  O   -0.271273
   146  C    0.066549
   147  H    0.119912
   148  H    0.010209
   149  H    0.023787
   150  H    0.028052
   151  H    0.011680
   152  N   -0.173856
   153  C    0.190581
   154  C    0.035414
   155  O   -0.277739
   156  C   -0.048207
   157  C    0.078559
   158  C    0.110564
   159  O   -0.428187
   160  O   -0.429777
   161  H    0.153456
   162  H   -0.006951
   163  H   -0.002279
   164  H    0.029710
   165  H    0.014442
   166  H    0.010365
   167  N   -0.164794
   168  C    0.138242
   169  H    0.036293
   170  H    0.023719
   171  H    0.005834
   172  H    0.124332
   173  Ca   1.351355
   174  O   -0.318390
   175  H    0.186207
   176  H    0.177310
 Sum of Mulliken charges =  -0.00000
 Mulliken charges with hydrogens summed into heavy atoms:
               1
     1  C    0.063056
     2  C    0.006406
     3  O   -0.255369
     7  N   -0.026874
     8  C    0.169143
     9  C    0.022186
    10  O   -0.306209
    11  C    0.090945
    12  C    0.041882
    13  O   -0.359330
    14  O   -0.417868
    19  N    0.004531
    20  C    0.052691
    21  C    0.069725
    22  O   -0.282041
    23  C    0.049552
    24  C    0.046372
    25  C    0.019839
    26  C    0.181155
    27  N    0.663110
    41  N    0.063590
    42  C    0.068762
    43  C    0.090532
    44  O   -0.285206
    45  C    0.152433
    46  C    0.126341
    47  O   -0.451554
    48  O   -0.441549
    53  N    0.007179
    54  C    0.315150
    55  C   -0.009000
    56  O   -0.284890
    60  N    0.061558
    61  C   -0.002120
    62  C    0.145356
    63  O   -0.281953
    64  C    0.183164
    65  C   -0.030313
    66  N    0.178342
    67  O   -0.310998
    74  N   -0.012886
    75  C    0.304495
    76  C    0.022235
    77  O   -0.283378
    81  N   -0.022326
    82  C    0.096283
    83  C    0.149214
    84  O   -0.332503
    85  C    0.254333
    86  C   -0.073767
    87  C   -0.034413
    88  C   -0.033509
    89  C   -0.034716
    90  C   -0.086938
    91  C    0.171891
    92  O   -0.050394
   102  N    0.038578
   103  C    0.093404
   104  C    0.079520
   105  O   -0.279958
   106  C   -0.052701
   107  C   -0.023934
   108  C    0.070357
   109  C    0.079985
   121  N    0.030356
   122  C    0.106981
   123  C    0.084095
   124  O   -0.295837
   125  C    0.205798
   126  O   -0.142360
   132  N    0.032983
   133  C    0.081083
   134  C    0.016980
   135  O   -0.265993
   136  C    0.140616
   142  N   -0.002634
   143  C    0.087276
   144  C    0.079057
   145  O   -0.271273
   146  C    0.130068
   152  N   -0.020400
   153  C    0.183630
   154  C    0.035414
   155  O   -0.277739
   156  C   -0.020776
   157  C    0.103366
   158  C    0.110564
   159  O   -0.428187
   160  O   -0.429777
   167  N   -0.040462
   168  C    0.204088
   173  Ca   1.351355
   174  O    0.045127
 DipInt: DoE/N= T F RetVal/Mat= T F Init=T NMatP=  1 IDeriv=0 Min/MaxMlt=  0  4
 Entering OneElI...
 OneElI was handed  1333951383 working-precision words.
 Multipole integrals L=0 to 4 MinM= 0 MaxM= 0.
 Requested accuracy = 0.1000D-12
 ShPair: Thresh= 1.00D-13 NBox=     0 BxSize= 0.00D+00 RnKept= 2.68D+01
         NSMCal=               327645 NSMKep=              143396
 PrmmSu-InSpLW:  IPartL=    0 NPrtUS=    1 NPrtUL=    1 DoSpLW=F IThBeg=    0 IThEnd=    0 NThAct=    1.
 PrsmSu:  NPrtUS=   1 ThrOK=F IAlg=1 NPAlg=1 LenDen=           0 ISkipM=0 DoSpLW=F IThBeg=    0 IThEnd=    0.
 Prism:   IPart=     0 DynPar=F LinDyn=F Incr=         512.
 PRISM was handed  1324520985 working-precision words and143396 shell-pairs
 IPart=  0 NShTot=      143396 NBatch=         331 AvBLen=       433.2
 PrsmSu-ThDecC:  IPartSL=    0    0 NPrtUSL=    1    1 IThBeg=    0 IThEnd=    0 CPU=   -1 GPU=   -1 NThAct=    1.
 PrSmSu:  NxtVal=            513.
 Electronic moments (au):
       -716.00000000         -0.41035485        -11.96632024         -3.46530696
     -61882.92598656     -40358.91359561     -12229.97063041       -172.56010794
          3.69045997         -3.12677788     218254.34385653    -115796.18128857
     -13026.64748185     -85006.88539938     146461.78690367      29374.98169172
     -11858.45625433      10033.91226233     -64942.56626123       7676.19234103
  -10885249.96862849   -7046488.88854952    -480398.11930528    -890612.03911490
    -141803.95048860     919172.69493821    -678794.23985382      -2161.63482820
      94869.25257424   -2415831.52432054    -780109.13803108    -586963.63765380
     232418.01318945      43067.97696171      14331.29887500
 Electronic spatial extent (au):  <R**2>=         114471.8102
 DipInt: DoE/N= F T RetVal/Mat= T F Init=T NMatP=  1 IDeriv=0 Min/MaxMlt=  0  4
 Nuclear    moments (au):
        716.00000000         -0.00000000          0.00000000          0.00000000
      61434.58881856      40130.35048079      11800.94039832          0.00000000
         -0.00000000          0.00000000    -220209.38557956     111680.51851716
      12556.48497637      87708.22305870    -147165.54381285     -29467.31996315
      11653.38294324      -9994.41434107      65603.60410096      -7927.36116458
   10669615.32733014    6969439.01050700     438845.45235509     869706.64009284
     140736.82817117    -960943.82974955     675258.16404496        981.01993020
     -94797.81030888    2370036.88369825     734152.13356655     559384.51750929
    -234198.95258864     -32257.77372206     -16246.26066043
 Total      moments (au):
         -0.00000000         -0.41035485        -11.96632024         -3.46530696
       -448.33716800       -228.56311482       -429.03023209       -172.56010794
          3.69045997         -3.12677788      -1955.04172304      -4115.66277141
       -470.16250548       2701.33765932       -703.75690918        -92.33827143
       -205.07331108         39.49792126        661.03783973       -251.16882355
    -215634.64129835     -77049.87804252     -41552.66695019     -20905.39902206
      -1067.12231744     -41771.13481133      -3536.07580886      -1180.61489799
         71.44226535     -45794.64062229     -45957.00446453     -27579.12014451
      -1780.93939919      10810.20323965      -1914.96178543
 Traceless Quadrup. (au):
        -79.69366303        140.08039015        -60.38672712       -172.56010794
          3.69045997         -3.12677788
 Charge=             -0.0000 electrons
 Dipole moment (field-independent basis, Debye):
    X=             -1.0430    Y=            -30.4154    Z=             -8.8079  Tot=             31.6822
 Quadrupole moment (field-independent basis, Debye-Ang):
   XX=           -603.0288   YY=           -307.4252   ZZ=           -577.0604
   XY=           -232.0993   XZ=              4.9638   YZ=             -4.2056
 Traceless Quadrupole moment (field-independent basis, Debye-Ang):
   XX=           -107.1907   YY=            188.4129   ZZ=            -81.2222
   XY=           -232.0993   XZ=              4.9638   YZ=             -4.2056
 Octapole moment (field-independent basis, Debye-Ang**2):
  XXX=          -1391.5234  YYY=          -2929.3702  ZZZ=           -334.6436  XYY=           1922.7081
  XXY=           -500.9071  XXZ=            -65.7228  XZZ=           -145.9633  YZZ=             28.1131
  YYZ=            470.5013  XYZ=           -178.7723
 Hexadecapole moment (field-independent basis, Debye-Ang**3):
 XXXX=         -81218.3459 YYYY=         -29020.6787 ZZZZ=         -15650.7269 XXXY=          -7873.9757
 XXXZ=           -401.9294 YYYX=         -15733.0124 YYYZ=          -1331.8557 ZZZX=           -444.6762
 ZZZY=             26.9086 XXYY=         -17248.4576 XXZZ=         -17309.6116 YYZZ=         -10387.6191
 XXYZ=           -670.7872 YYXZ=           4071.6409 ZZXY=           -721.2664
 N-N= 2.044128871803D+04 E-N=-5.336188332974D+04  KE= 5.290829819679D+03
 Leave Link  601 at Wed Sep 18 20:08:20 2019, MaxMem=  1342177280 cpu:              49.0 elap:               1.2
 FitSet:  NAtFit=   176 NAtPot=   176 NAtFrz=     0 MDM=   180 TotChg=   0.00000
 Merz-Kollman atomic radii used.
 Read replacement radii for each type of atom:
 Rad(20) =   1.700000000000D+00
 Atom Element Radius
    1     6    1.50
    2     6    1.50
    3     8    1.40
    4     1    1.20
    5     1    1.20
    6     1    1.20
    7     7    1.50
    8     6    1.50
    9     6    1.50
   10     8    1.40
   11     6    1.50
   12     6    1.50
   13     8    1.40
   14     8    1.40
   15     1    1.20
   16     1    1.20
   17     1    1.20
   18     1    1.20
   19     7    1.50
   20     6    1.50
   21     6    1.50
   22     8    1.40
   23     6    1.50
   24     6    1.50
   25     6    1.50
   26     6    1.50
   27     7    1.50
   28     1    1.20
   29     1    1.20
   30     1    1.20
   31     1    1.20
   32     1    1.20
   33     1    1.20
   34     1    1.20
   35     1    1.20
   36     1    1.20
   37     1    1.20
   38     1    1.20
   39     1    1.20
   40     1    1.20
   41     7    1.50
   42     6    1.50
   43     6    1.50
   44     8    1.40
   45     6    1.50
   46     6    1.50
   47     8    1.40
   48     8    1.40
   49     1    1.20
   50     1    1.20
   51     1    1.20
   52     1    1.20
   53     7    1.50
   54     6    1.50
   55     6    1.50
   56     8    1.40
   57     1    1.20
   58     1    1.20
   59     1    1.20
   60     7    1.50
   61     6    1.50
   62     6    1.50
   63     8    1.40
   64     6    1.50
   65     6    1.50
   66     7    1.50
   67     8    1.40
   68     1    1.20
   69     1    1.20
   70     1    1.20
   71     1    1.20
   72     1    1.20
   73     1    1.20
   74     7    1.50
   75     6    1.50
   76     6    1.50
   77     8    1.40
   78     1    1.20
   79     1    1.20
   80     1    1.20
   81     7    1.50
   82     6    1.50
   83     6    1.50
   84     8    1.40
   85     6    1.50
   86     6    1.50
   87     6    1.50
   88     6    1.50
   89     6    1.50
   90     6    1.50
   91     6    1.50
   92     8    1.40
   93     1    1.20
   94     1    1.20
   95     1    1.20
   96     1    1.20
   97     1    1.20
   98     1    1.20
   99     1    1.20
  100     1    1.20
  101     1    1.20
  102     7    1.50
  103     6    1.50
  104     6    1.50
  105     8    1.40
  106     6    1.50
  107     6    1.50
  108     6    1.50
  109     6    1.50
  110     1    1.20
  111     1    1.20
  112     1    1.20
  113     1    1.20
  114     1    1.20
  115     1    1.20
  116     1    1.20
  117     1    1.20
  118     1    1.20
  119     1    1.20
  120     1    1.20
  121     7    1.50
  122     6    1.50
  123     6    1.50
  124     8    1.40
  125     6    1.50
  126     8    1.40
  127     1    1.20
  128     1    1.20
  129     1    1.20
  130     1    1.20
  131     1    1.20
  132     7    1.50
  133     6    1.50
  134     6    1.50
  135     8    1.40
  136     6    1.50
  137     1    1.20
  138     1    1.20
  139     1    1.20
  140     1    1.20
  141     1    1.20
  142     7    1.50
  143     6    1.50
  144     6    1.50
  145     8    1.40
  146     6    1.50
  147     1    1.20
  148     1    1.20
  149     1    1.20
  150     1    1.20
  151     1    1.20
  152     7    1.50
  153     6    1.50
  154     6    1.50
  155     8    1.40
  156     6    1.50
  157     6    1.50
  158     6    1.50
  159     8    1.40
  160     8    1.40
  161     1    1.20
  162     1    1.20
  163     1    1.20
[...]
 **** Fit      -0.011905
 **** Fit      -0.012797
 **** Fit      -0.012945
 **** Fit      -0.007767
 **** Fit      -0.006698
 **** Fit      -0.005595
 **** Fit      -0.004672
 **** Fit      -0.004117
 **** Fit      -0.004557
 **** Fit      -0.005354
 **** Fit      -0.006410
 **** Fit      -0.015111
 **** Fit      -0.015147
 **** Fit      -0.007892
 **** Fit      -0.006828
 **** Fit      -0.005632
 **** Fit      -0.003896
 **** Fit      -0.004821
 **** Fit      -0.005907
 **** Fit      -0.018147
 **** Fit      -0.017849
 **** Fit      -0.007709
 **** Fit      -0.006519
 **** Fit      -0.003212
 **** Fit      -0.004301
 **** Fit      -0.005508
 **** Fit      -0.022045
 **** Fit      -0.021605
 **** Fit      -0.008532
 **** Fit      -0.007517
 **** Fit      -0.003806
 **** Fit      -0.005155
 **** Fit      -0.026660
 **** Fit      -0.024970
 **** Fit      -0.009025
 **** Fit      -0.008217
 **** Fit      -0.002554
 **** Fit      -0.004049
 **** Fit      -0.033966
 **** Fit      -0.031702
 **** Fit      -0.008711
 **** Fit      -0.007915
 **** Fit      -0.002719
 **** Fit      -0.004512
 **** Fit      -0.002035
 **** Fit      -0.004135
 **** Fit      -0.008004
 **** Fit       0.000958
 **** Fit      -0.001158
 **** Fit      -0.003698
 **** Fit       0.002307
 **** Fit      -0.000101
 **** Fit      -0.003119
 **** Fit      -0.006790
 **** Fit       0.003797
 **** Fit       0.001101
 **** Fit      -0.002398
 **** Fit      -0.006752
 **** Fit       0.007431
 **** Fit       0.005417
 **** Fit       0.002375
 **** Fit      -0.001726
 **** Fit      -0.006954
 **** Fit      -0.013449
 **** Fit      -0.009068
 **** Fit      -0.010808
 **** Fit      -0.008481
 **** Fit      -0.010168
 **** Fit      -0.012015
 **** Fit      -0.013480
 **** Fit      -0.013993
 **** Fit      -0.006759
 **** Fit      -0.008031
 **** Fit      -0.009660
 **** Fit      -0.011560
 **** Fit      -0.013540
 **** Fit      -0.015302
 **** Fit      -0.016501
 **** Fit      -0.016844
 **** Fit      -0.006990
 **** Fit      -0.008524
 **** Fit      -0.010379
 **** Fit      -0.012501
 **** Fit      -0.014764
 **** Fit      -0.016967
 **** Fit      -0.018848
 **** Fit      -0.020113
 **** Fit      -0.020515
 **** Fit      -0.006728
 **** Fit      -0.008416
 **** Fit      -0.010446
 **** Fit      -0.012793
 **** Fit      -0.015384
 **** Fit      -0.018090
 **** Fit      -0.020718
 **** Fit      -0.023004
 **** Fit      -0.024639
 **** Fit      -0.025335
 **** Fit      -0.024924
 **** Fit      -0.005041
 **** Fit      -0.006582
 **** Fit      -0.008446
 **** Fit      -0.010669
 **** Fit      -0.013243
 **** Fit      -0.016131
 **** Fit      -0.019257
 **** Fit      -0.022503
 **** Fit      -0.025681
 **** Fit      -0.028520
 **** Fit      -0.030675
 **** Fit      -0.031788
 **** Fit      -0.031603
 **** Fit      -0.006490
 **** Fit      -0.008686
 **** Fit      -0.011306
 **** Fit      -0.014351
 **** Fit      -0.017798
 **** Fit      -0.021602
 **** Fit      -0.025681
 **** Fit      -0.029891
 **** Fit      -0.033978
 **** Fit      -0.006508
 **** Fit      -0.009082
 **** Fit      -0.012150
 **** Fit      -0.015719
 **** Fit      -0.019781
 **** Fit      -0.024322
 **** Fit      -0.029319
 **** Fit      -0.034704
 **** Fit      -0.005298
 **** Fit      -0.008087
 **** Fit      -0.011464
 **** Fit      -0.015451
 **** Fit      -0.020055
 **** Fit      -0.025287
 **** Fit      -0.031185
 **** Fit      -0.006833
 **** Fit      -0.010662
 **** Fit      -0.015306
 **** Fit      -0.020780
 **** Fit      -0.027117
 **** Fit      -0.012047
 **** Fit      -0.017978
 **** Fit      -0.025095
 **** Fit      -0.021208
 **** Fit      -0.010254
 **** Fit      -0.011093
 **** Fit      -0.010026
 **** Fit      -0.011506
 **** Fit      -0.011988
 **** Fit      -0.011084
 **** Fit      -0.010002
 **** Fit      -0.008909
 **** Fit      -0.012670
 **** Fit      -0.012935
 **** Fit      -0.012626
 **** Fit      -0.012996
 **** Fit      -0.012175
 **** Fit      -0.011192
 **** Fit      -0.010118
 **** Fit      -0.009012
 **** Fit      -0.014717
 **** Fit      -0.014606
 **** Fit      -0.014180
 **** Fit      -0.013645
 **** Fit      -0.014143
 **** Fit      -0.013316
 **** Fit      -0.012321
 **** Fit      -0.011234
 **** Fit      -0.010118
 **** Fit      -0.008978
 **** Fit      -0.017151
 **** Fit      -0.016696
 **** Fit      -0.016028
 **** Fit      -0.015391
 **** Fit      -0.014802
 **** Fit      -0.015410
 **** Fit      -0.014517
 **** Fit      -0.013428
 **** Fit      -0.012239
 **** Fit      -0.011055
 **** Fit      -0.009903
 **** Fit      -0.008718
 **** Fit      -0.020431
 **** Fit      -0.019533
 **** Fit      -0.018422
 **** Fit      -0.017454
 **** Fit      -0.016720
 **** Fit      -0.016103
 **** Fit      -0.016717
 **** Fit      -0.015738
 **** Fit      -0.014530
 **** Fit      -0.013199
 **** Fit      -0.011896
 **** Fit      -0.010715
 **** Fit      -0.009613
 **** Fit      -0.023378
 **** Fit      -0.021572
 **** Fit      -0.020013
 **** Fit      -0.018880
 **** Fit      -0.018104
 **** Fit      -0.017462
 **** Fit      -0.017915
 **** Fit      -0.016765
 **** Fit      -0.015331
 **** Fit      -0.013723
 **** Fit      -0.012155
 **** Fit      -0.010856
 **** Fit      -0.009825
 **** Fit      -0.026833
 **** Fit      -0.024036
 **** Fit      -0.021890
 **** Fit      -0.020454
 **** Fit      -0.019529
 **** Fit      -0.018784
 **** Fit      -0.018814
 **** Fit      -0.017498
 **** Fit      -0.015864
 **** Fit      -0.030309
 **** Fit      -0.026428
 **** Fit      -0.023667
 **** Fit      -0.021890
 **** Fit      -0.020756
 **** Fit      -0.019844
 **** Fit      -0.019265
 **** Fit      -0.017768
 **** Fit      -0.029165
 **** Fit      -0.025520
 **** Fit      -0.023205
 **** Fit      -0.021711
 **** Fit      -0.020523
 **** Fit      -0.019289
 **** Fit      -0.027955
 **** Fit      -0.024627
 **** Fit      -0.022506
 **** Fit      -0.020883
 **** Fit      -0.019143
 **** Fit      -0.026230
 **** Fit      -0.023280
 **** Fit      -0.021129
 **** Fit      -0.004373
 **** Fit      -0.003639
 **** Fit      -0.003434
 **** Fit      -0.005509
 **** Fit      -0.004516
 **** Fit      -0.003556
 **** Fit      -0.002823
 **** Fit      -0.002479
 **** Fit      -0.002609
 **** Fit      -0.003188
 **** Fit      -0.005581
 **** Fit      -0.004527
 **** Fit      -0.003455
 **** Fit      -0.002506
 **** Fit      -0.001814
 **** Fit      -0.001486
 **** Fit      -0.001586
 **** Fit      -0.002114
 **** Fit      -0.006488
 **** Fit      -0.005499
 **** Fit      -0.004364
 **** Fit      -0.003190
 **** Fit      -0.002098
 **** Fit      -0.001208
 **** Fit      -0.000627
 **** Fit      -0.000432
 **** Fit      -0.000669
 **** Fit      -0.001333
 **** Fit      -0.002359
 **** Fit      -0.006472
 **** Fit      -0.005450
 **** Fit      -0.004264
 **** Fit      -0.003011
 **** Fit      -0.001798
 **** Fit      -0.000735
 **** Fit       0.000079
 **** Fit       0.000559
 **** Fit       0.000642
 **** Fit       0.000294
 **** Fit      -0.000482
 **** Fit      -0.001635
 **** Fit      -0.007069
 **** Fit      -0.006155
 **** Fit      -0.004972
 **** Fit      -0.003617
 **** Fit      -0.002204
 **** Fit      -0.000852
 **** Fit       0.000322
 **** Fit       0.001212
 **** Fit       0.001731
 **** Fit       0.001809
 **** Fit       0.001408
 **** Fit       0.000517
 **** Fit      -0.000822
 **** Fit      -0.006899
 **** Fit      -0.005820
 **** Fit      -0.004457
 **** Fit      -0.002924
 **** Fit      -0.001342
 **** Fit       0.000158
 **** Fit       0.001453
 **** Fit       0.002434
 **** Fit       0.003007
 **** Fit       0.003100
 **** Fit       0.002664
 **** Fit       0.001680
 **** Fit       0.000171
 **** Fit      -0.007518
 **** Fit      -0.006533
 **** Fit      -0.005157
 **** Fit      -0.003501
 **** Fit      -0.001697
 **** Fit       0.000105
 **** Fit       0.001757
 **** Fit       0.003121
 **** Fit       0.004081
 **** Fit       0.004539
 **** Fit       0.004421
 **** Fit       0.003674
 **** Fit       0.002285
 **** Fit      -0.007936
 **** Fit      -0.006883
 **** Fit      -0.005306
 **** Fit      -0.003330
 **** Fit      -0.001138
 **** Fit       0.001060
 **** Fit       0.003055
 **** Fit       0.004666
 **** Fit       0.005741
 **** Fit       0.006158
 **** Fit       0.005821
 **** Fit       0.004667
 **** Fit      -0.008290
 **** Fit      -0.007047
 **** Fit      -0.005034
 **** Fit      -0.002476
 **** Fit       0.000314
 **** Fit       0.003003
 **** Fit       0.005288
 **** Fit       0.006930
 **** Fit       0.007746
 **** Fit       0.007591
 **** Fit       0.006364
 **** Fit      -0.007260
 **** Fit      -0.004580
 **** Fit      -0.001227
 **** Fit       0.002263
 **** Fit       0.005381
 **** Fit       0.007725
 **** Fit       0.009019
 **** Fit       0.009078
 **** Fit       0.007773
 **** Fit      -0.001253
 **** Fit       0.003265
 **** Fit       0.006982
 **** Fit       0.009247
 **** Fit      -0.005463
 **** Fit      -0.012115
 **** Fit      -0.012549
 **** Fit       0.012172
 **** Fit       0.009544
 **** Fit       0.019120
 **** Fit       0.020860
 **** Fit       0.018433
 **** Fit       0.027339
 **** Fit       0.028583
 **** Fit       0.026477
 **** Fit       0.020305
 **** Fit       0.030913
 **** Fit       0.034031
 **** Fit       0.034978
 **** Fit       0.033163
 **** Fit       0.027997
 **** Fit       0.034256
 **** Fit       0.037931
 **** Fit       0.039823
 **** Fit       0.039393
 **** Fit       0.036107
 **** Fit       0.029410
 **** Fit       0.035733
 **** Fit       0.040106
 **** Fit       0.042844
 **** Fit       0.043533
 **** Fit       0.041740
 **** Fit       0.036965
 **** Fit       0.039316
 **** Fit       0.043498
 **** Fit       0.045738
 **** Fit       0.045757
 **** Fit       0.043175
 **** Fit       0.037485
 **** Fit       0.036316
 **** Fit       0.042149
 **** Fit       0.045914
 **** Fit       0.047562
 **** Fit       0.046893
 **** Fit       0.043564
 **** Fit       0.034600
 **** Fit       0.041561
 **** Fit       0.046095
 **** Fit       0.048327
 **** Fit       0.048172
 **** Fit       0.045369
 **** Fit       0.039481
 **** Fit       0.032669
 **** Fit       0.040543
 **** Fit       0.045756
 **** Fit       0.048552
 **** Fit       0.048950
 **** Fit       0.046788
 **** Fit       0.041743
 **** Fit       0.037223
 **** Fit       0.043781
 **** Fit       0.047777
 **** Fit       0.049344
 **** Fit       0.048444
 **** Fit       0.044896
 **** Fit       0.038406
 **** Fit       0.033842
 **** Fit       0.041387
 **** Fit       0.046404
 **** Fit       0.049045
 **** Fit       0.049344
 **** Fit       0.047236
 **** Fit       0.042587
 **** Fit       0.025289
 **** Fit       0.034168
 **** Fit       0.041535
 **** Fit       0.046510
 **** Fit       0.049123
 **** Fit       0.049379
 **** Fit       0.047248
 **** Fit       0.042707
 **** Fit       0.033984
 **** Fit       0.026316
 **** Fit       0.035193
 **** Fit       0.041965
 **** Fit       0.046665
 **** Fit       0.049140
 **** Fit       0.049333
 **** Fit       0.047239
 **** Fit       0.042960
 **** Fit       0.036826
 **** Fit       0.040173
 **** Fit       0.034353
 **** Fit       0.028282
 **** Fit       0.030115
 **** Fit       0.036843
 **** Fit       0.042655
 **** Fit       0.046853
 **** Fit       0.049074
 **** Fit       0.049165
 **** Fit       0.047135
 **** Fit       0.043184
 **** Fit       0.037804
 **** Fit       0.046116
 **** Fit       0.045275
 **** Fit       0.042264
 **** Fit       0.038186
 **** Fit       0.033883
 **** Fit       0.030305
 **** Fit       0.028513
 **** Fit       0.029241
 **** Fit       0.032409
 **** Fit       0.037098
 **** Fit       0.042034
 **** Fit       0.046099
 **** Fit       0.048551
 **** Fit       0.049009
 **** Fit       0.047392
 **** Fit       0.043909
 **** Fit       0.039083
 **** Fit       0.033635
 **** Fit       0.037454
 **** Fit       0.042583
 **** Fit       0.044297
 **** Fit       0.043398
 **** Fit       0.041069
 **** Fit       0.038479
 **** Fit       0.036762
 **** Fit       0.036802
 **** Fit       0.038791
 **** Fit       0.042063
 **** Fit       0.045459
 **** Fit       0.047872
 **** Fit       0.048569
 **** Fit       0.047260
 **** Fit       0.044085
 **** Fit       0.039517
 **** Fit       0.034076
 **** Fit       0.034987
 **** Fit       0.040617
 **** Fit       0.043417
 **** Fit       0.043624
 **** Fit       0.042558
 **** Fit       0.041753
 **** Fit       0.042297
 **** Fit       0.044229
 **** Fit       0.046522
 **** Fit       0.047814
 **** Fit       0.047165
 **** Fit       0.044372
 **** Fit       0.039855
 **** Fit       0.034265
 **** Fit       0.034966
 **** Fit       0.032648
 **** Fit       0.034890
 **** Fit       0.039615
 **** Fit       0.043069
 **** Fit       0.044168
 **** Fit       0.044399
 **** Fit       0.045306
 **** Fit       0.046609
 **** Fit       0.046633
 **** Fit       0.044227
 **** Fit       0.039773
 **** Fit       0.040064
 **** Fit       0.039900
 **** Fit       0.043115
 **** Fit       0.044907
 **** Fit       0.045614
 **** Fit       0.043849
 **** Fit       0.043423
 **** Fit       0.021213
 **** Fit       0.022962
 **** Fit       0.031779
 **** Fit       0.001160
 **** Fit       0.004345
 **** Fit       0.005263
 **** Fit       0.005845
 **** Fit       0.007503
 **** Fit       0.010013
 **** Fit       0.013239
 **** Fit       0.010837
 **** Fit       0.011283
 **** Fit       0.012517
 **** Fit       0.014472
 **** Fit       0.017026
 **** Fit       0.019992
 **** Fit       0.014542
 **** Fit       0.014898
 **** Fit       0.015227
 **** Fit       0.015990
 **** Fit       0.017361
 **** Fit       0.019319
 **** Fit       0.021701
 **** Fit       0.024156
 **** Fit       0.026109
 **** Fit       0.027084
 **** Fit       0.027450
 **** Fit       0.028608
 **** Fit       0.032417
 **** Fit       0.013607
 **** Fit       0.015944
 **** Fit       0.017364
 **** Fit       0.018173
 **** Fit       0.018857
 **** Fit       0.019827
 **** Fit       0.021274
 **** Fit       0.023167
 **** Fit       0.025277
 **** Fit       0.027221
 **** Fit       0.028732
 **** Fit       0.030178
 **** Fit       0.032717
 **** Fit       0.037744
 **** Fit       0.018939
 **** Fit       0.019379
 **** Fit       0.020382
 **** Fit       0.021263
 **** Fit       0.022167
 **** Fit       0.023396
 **** Fit       0.025064
 **** Fit       0.027030
 **** Fit       0.029027
 **** Fit       0.031061
 **** Fit       0.033802
 **** Fit       0.038170
 **** Fit       0.043956
 **** Fit       0.024864
 **** Fit       0.023982
 **** Fit       0.024440
 **** Fit       0.025529
 **** Fit       0.027242
 **** Fit       0.029449
 **** Fit       0.032046
 **** Fit       0.035411
 **** Fit       0.039211
 **** Fit       0.040331
 **** Fit       0.035833
 **** Fit       0.028925
 **** Fit       0.028837
 **** Fit       0.027702
 **** Fit       0.029220
 **** Fit       0.032157
 **** Fit       0.034971
 **** Fit       0.033290
 **** Fit       0.031171
 -----------------------------------------------------------------
 Leave Link  602 at Wed Sep 18 20:08:23 2019, MaxMem=  1342177280 cpu:             120.6 elap:               2.6

 Test job not archived.
 1\1\GINC-C506-091\SP\RB3LYP\SVP\C54H83Ca1N15O23\PENGZHI\18-Sep-2019\0\
 \#b3lyp/svp scf=(tight,noincore) Test #IOP(5/87=12) Density=Current Po
 p=(MK,readradii) iop(6/33=2) iop(6/42=6)\\Ng-31_loop3_51.0\\0,1\C,0,51
 .04,55.42,45.62\C,0,51.45,53.96,45.72\O,0,50.72,53.05,45.32\H,0,50.092
 ,55.567,46.137\H,0,51.805,56.045,46.081\H,0,50.928,55.696,44.571\N,0,5
 2.61,53.73,46.34\C,0,52.67,52.82,47.47\C,0,52.94,53.66,48.71\O,0,52.14
 ,53.49,49.63\C,0,53.59,51.63,47.25\C,0,55.06,51.82,46.88\O,0,55.76,50.
 86,46.51\O,0,55.61,52.92,47.13\H,0,53.23,54.53,46.32\H,0,51.68,52.4,47
 .59\H,0,53.14,50.97,46.51\H,0,53.6,51.18,48.24\N,0,53.95,54.53,48.73\C
 ,0,54.08,55.46,49.84\C,0,54.78,54.81,51.03\O,0,55.88,55.17,51.45\C,0,5
 4.8,56.75,49.45\C,0,54.51,57.95,50.35\C,0,53.09,58.52,50.38\C,0,52.31,
 58.53,49.06\N,0,52.79,59.63,48.21\H,0,54.7,54.47,48.05\H,0,53.08,55.78
 ,50.1\H,0,54.46,57.05,48.46\H,0,55.87,56.62,49.33\H,0,55.19,58.72,50.\
 H,0,54.78,57.67,51.37\H,0,53.14,59.48,50.89\H,0,52.55,57.9,51.09\H,0,5
 1.27,58.71,49.33\H,0,52.35,57.57,48.55\H,0,52.08,59.81,47.52\H,0,52.84
 ,60.42,48.84\H,0,53.65,59.42,47.72\N,0,54.09,53.82,51.6\C,0,54.68,52.7
 4,52.37\C,0,54.83,51.46,51.58\O,0,53.96,50.59,51.5\C,0,53.96,52.38,53.
 67\C,0,52.46,52.16,53.53\O,0,51.82,53.08,52.97\O,0,51.87,51.16,53.99\H
 ,0,53.12,53.68,51.34\H,0,55.63,53.09,52.78\H,0,54.09,53.2,54.38\H,0,54
 .4,51.48,54.09\N,0,55.97,51.49,50.88\C,0,56.6,50.39,50.19\C,0,57.37,49
 .56,51.2\O,0,58.51,49.97,51.43\H,0,56.51,52.33,51.01\H,0,57.31,50.78,4
 9.46\H,0,55.83,49.8,49.69\N,0,56.94,48.42,51.74\C,0,55.64,47.81,51.55\
 C,0,55.8,46.44,50.92\O,0,56.42,45.67,51.66\C,0,54.97,47.77,52.92\C,0,5
 3.49,47.41,52.82\N,0,52.5,48.31,52.85\O,0,53.08,46.27,52.62\H,0,57.46,
 48.06,52.53\H,0,54.96,48.45,50.97\H,0,55.06,48.76,53.37\H,0,55.49,47.0
 9,53.59\H,0,52.64,49.27,53.12\H,0,51.59,47.89,53.01\N,0,55.14,46.07,49
 .82\C,0,54.33,46.83,48.89\C,0,52.86,46.43,48.85\O,0,52.23,46.59,47.81\
 H,0,55.16,45.1,49.53\H,0,54.78,46.78,47.9\H,0,54.42,47.88,49.18\N,0,52
 .32,45.82,49.91\C,0,50.92,45.44,50.\C,0,50.15,46.6,50.61\O,0,50.09,46.
 82,51.82\C,0,50.7,44.08,50.65\C,0,51.01,42.93,49.72\C,0,50.14,41.83,49
 .87\C,0,52.1,42.88,48.85\C,0,50.48,40.63,49.25\C,0,52.46,41.68,48.24\C
 ,0,51.64,40.56,48.45\O,0,51.96,39.31,47.98\H,0,52.88,45.83,50.75\H,0,5
 0.6,45.26,48.97\H,0,49.69,43.98,51.04\H,0,51.42,43.88,51.45\H,0,49.21,
 41.95,50.4\H,0,52.72,43.75,48.66\H,0,49.92,39.71,49.35\H,0,53.37,41.63
 ,47.65\H,0,52.66,39.26,47.33\N,0,49.44,47.32,49.73\C,0,48.48,48.36,50.
 03\C,0,47.35,47.78,50.86\O,0,47.11,46.57,50.92\C,0,47.91,48.99,48.76\C
 ,0,48.94,49.88,48.06\C,0,47.4,47.93,47.79\C,0,50.34,49.48,47.61\H,0,49
 .72,47.2,48.77\H,0,48.98,49.12,50.63\H,0,47.07,49.64,49.\H,0,49.04,50.
 76,48.69\H,0,48.4,50.42,47.28\H,0,47.02,48.34,46.85\H,0,48.17,47.21,47
 .51\H,0,46.57,47.39,48.24\H,0,50.88,50.28,47.11\H,0,50.92,49.02,48.41\
 H,0,50.25,48.74,46.82\N,0,46.7,48.68,51.59\C,0,45.47,48.34,52.27\C,0,4
 4.32,48.04,51.32\O,0,44.27,48.57,50.21\C,0,45.68,47.35,53.41\O,0,44.69
 ,47.43,54.41\H,0,47.11,49.58,51.81\H,0,45.13,49.23,52.82\H,0,46.63,47.
 59,53.88\H,0,45.7,46.31,53.09\H,0,45.03,47.09,55.24\N,0,43.35,47.27,51
 .81\C,0,41.99,47.5,51.38\C,0,41.53,48.83,51.97\O,0,42.1,49.41,52.89\C,
 0,41.14,46.34,51.9\H,0,43.53,46.98,52.76\H,0,41.95,47.62,50.3\H,0,41.2
 5,45.41,51.34\H,0,41.55,46.14,52.89\H,0,40.09,46.63,52.\N,0,40.49,49.3
 3,51.3\C,0,40.14,50.73,51.27\C,0,41.23,51.64,50.74\O,0,40.95,52.75,50.
 31\C,0,39.57,51.22,52.6\H,0,40.02,48.74,50.63\H,0,39.31,50.73,50.57\H,
 0,40.38,51.35,53.32\H,0,39.24,52.25,52.42\H,0,38.82,50.53,52.99\N,0,42
 .49,51.23,50.59\C,0,43.39,52.02,49.77\C,0,43.23,51.84,48.27\O,0,42.91,
 52.81,47.57\C,0,44.82,51.87,50.29\C,0,45.12,52.06,51.77\C,0,46.59,51.8
 1,52.11\O,0,47.54,51.52,51.35\O,0,46.84,51.79,53.33\H,0,42.86,50.43,51
 .09\H,0,43.14,53.06,49.97\H,0,45.32,52.69,49.78\H,0,45.26,50.94,49.94\
 H,0,44.38,51.44,52.27\H,0,44.88,53.09,52.05\N,0,43.41,50.64,47.72\C,0,
 43.13,50.4,46.32\H,0,42.339,51.073,45.988\H,0,44.03,50.58,45.733\H,0,4
 2.808,49.367,46.185\H,0,43.71,49.89,48.32\Ca,0,49.51,51.81,53.14\O,0,4
 9.35,49.13,53.11\H,0,49.67,48.42,52.55\H,0,49.68,48.91,53.98\\Version=
 ES64L-G16RevA.03\State=1-A\HF=-5333.4401867\RMSD=2.537e-09\Dipole=-2.8
 680055,11.7767266,2.907373\Quadrupole=-144.3904679,202.269347,-57.8788
 791,106.1430024,-4.2574942,-27.7537351\PG=C01 [X(C54H83Ca1N15O23)]\\@


 The number of Unix installations has grown to 10,
  with more expected.
                  -- The Unix Programmer's Manual,
                     2nd Edition, June, 1972.
 Job cpu time:       0 days  9 hours 49 minutes 13.4 seconds.
 Elapsed time:       0 days  0 hours 12 minutes 25.1 seconds.
 File lengths (MBytes):  RWF=   1517 Int=      0 D2E=      0 Chk=    171 Scr=      1
 Normal termination of Gaussian 16 at Wed Sep 18 20:08:24 2019.
