 Entering Gaussian System, Link 0=g16
 Initial command:
 /home1/apps/gaussian/16rA.03/g16/l1.exe "/scratch/01990/pengzhi/4356764/Gau-187006.inp" -scrdir="/scratch/01990/pengzhi/4356764/"
 Entering Link 1 = /home1/apps/gaussian/16rA.03/g16/l1.exe PID=    187007.
  
 Copyright (c) 1988,1990,1992,1993,1995,1998,2003,2009,2016,
            Gaussian, Inc.  All Rights Reserved.
  
 This is part of the Gaussian(R) 16 program.  It is based on
 the Gaussian(R) 09 system (copyright 2009, Gaussian, Inc.),
 the Gaussian(R) 03 system (copyright 2003, Gaussian, Inc.),
 the Gaussian(R) 98 system (copyright 1998, Gaussian, Inc.),
 the Gaussian(R) 94 system (copyright 1995, Gaussian, Inc.),
 the Gaussian 92(TM) system (copyright 1992, Gaussian, Inc.),
 the Gaussian 90(TM) system (copyright 1990, Gaussian, Inc.),
 the Gaussian 88(TM) system (copyright 1988, Gaussian, Inc.),
 the Gaussian 86(TM) system (copyright 1986, Carnegie Mellon
 University), and the Gaussian 82(TM) system (copyright 1983,
 Carnegie Mellon University). Gaussian is a federally registered
 trademark of Gaussian, Inc.
  
 This software contains proprietary and confidential information,
 including trade secrets, belonging to Gaussian, Inc.
  
 This software is provided under written license and may be
 used, copied, transmitted, or stored only in accord with that
 written license.
  
 The following legend is applicable only to US Government
 contracts under FAR:
  
                    RESTRICTED RIGHTS LEGEND
  
 Use, reproduction and disclosure by the US Government is
 subject to restrictions as set forth in subparagraphs (a)
 and (c) of the Commercial Computer Software - Restricted
 Rights clause in FAR 52.227-19.
  
 Gaussian, Inc.
 340 Quinnipiac St., Bldg. 40, Wallingford CT 06492
  
  
 ---------------------------------------------------------------
 Warning -- This program may not be used in any manner that
 competes with the business of Gaussian, Inc. or will provide
 assistance to any competitor of Gaussian, Inc.  The licensee
 of this program is prohibited from giving any competitor of
 Gaussian, Inc. access to this program.  By using this program,
 the user acknowledges that Gaussian, Inc. is engaged in the
 business of creating and licensing software in the field of
 computational chemistry and represents and warrants to the
 licensee that it is not a competitor of Gaussian, Inc. and that
 it will not use this program in any manner prohibited above.
 ---------------------------------------------------------------
  

 Cite this work as:
 Gaussian 16, Revision A.03,
 M. J. Frisch, G. W. Trucks, H. B. Schlegel, G. E. Scuseria, 
 M. A. Robb, J. R. Cheeseman, G. Scalmani, V. Barone, 
 G. A. Petersson, H. Nakatsuji, X. Li, M. Caricato, A. V. Marenich, 
 J. Bloino, B. G. Janesko, R. Gomperts, B. Mennucci, H. P. Hratchian, 
 J. V. Ortiz, A. F. Izmaylov, J. L. Sonnenberg, D. Williams-Young, 
 F. Ding, F. Lipparini, F. Egidi, J. Goings, B. Peng, A. Petrone, 
 T. Henderson, D. Ranasinghe, V. G. Zakrzewski, J. Gao, N. Rega, 
 G. Zheng, W. Liang, M. Hada, M. Ehara, K. Toyota, R. Fukuda, 
 J. Hasegawa, M. Ishida, T. Nakajima, Y. Honda, O. Kitao, H. Nakai, 
 T. Vreven, K. Throssell, J. A. Montgomery, Jr., J. E. Peralta, 
 F. Ogliaro, M. J. Bearpark, J. J. Heyd, E. N. Brothers, K. N. Kudin, 
 V. N. Staroverov, T. A. Keith, R. Kobayashi, J. Normand, 
 K. Raghavachari, A. P. Rendell, J. C. Burant, S. S. Iyengar, 
 J. Tomasi, M. Cossi, J. M. Millam, M. Klene, C. Adamo, R. Cammi, 
 J. W. Ochterski, R. L. Martin, K. Morokuma, O. Farkas, 
 J. B. Foresman, and D. J. Fox, Gaussian, Inc., Wallingford CT, 2016.
 
 ******************************************
 Gaussian 16:  ES64L-G16RevA.03 25-Dec-2016
                18-Sep-2019 
 ******************************************
 %chk=Ng-31_loop3_42.0.chk
 %nprocshared=48
 Will use up to   48 processors via shared memory.
 %mem=10GB
 %nosave
 ----------------------------------------------------------------------
 #b3lyp/svp scf=(tight,noincore) Test #IOP(5/87=12) Density=Current Pop
 =(MK,readradii) iop(6/33=2) iop(6/42=6)
 ----------------------------------------------------------------------
 1/30=1,38=1,172=1/1;
 2/12=2,17=6,18=5,40=1/2;
 3/5=18,7=101,11=2,25=1,30=1,74=-5/1,2,3;
 4//1;
 5/5=4,32=2,38=5,87=12/2;
 6/7=2,8=2,9=2,10=2,15=8,20=101,22=-1,28=1,33=2,42=6/1,2;
 99/5=1,9=1/99;
 ----------------
 Ng-31_loop3_42.0
 ----------------
 Symbolic Z-matrix:
 Charge =  0 Multiplicity = 1
 C                    -3.229     68.84     24.77 
 C                    -1.799     68.32     24.85 
 O                    -1.589     67.12     25.02 
 H                    -3.872     68.233    25.407 
 H                    -3.259     69.876    25.107 
 H                    -3.58      68.782    23.74 
 N                    -0.849     69.24     24.7 
 C                     0.581     68.96     24.63 
 C                     1.201     68.61     25.97 
 O                     1.071     67.49     26.47 
 C                     1.311     70.01     23.8 
 C                     0.991     71.45     24.17 
 O                     1.581     71.97     25.15 
 O                     0.251     72.09     23.39 
 H                    -1.049     70.23     24.63 
 H                     0.661     68.14     23.92 
 H                     1.041     70.01     22.74 
 H                     2.351     69.71     23.98 
 N                     1.801     69.63     26.59 
 C                     2.751     69.37     27.65 
 C                     4.061     68.67     27.32 
 O                     4.961     69.11     26.62 
 C                     3.081     70.71     28.31 
 C                     3.801     70.57     29.65 
 C                     4.141     71.95     30.19 
 C                     5.011     71.92     31.44 
 N                     4.301     71.43     32.63 
 H                     1.771     70.59     26.28 
 H                     2.171     68.81     28.39 
 H                     2.181     71.32     28.44 
 H                     3.631     71.32     27.59 
 H                     4.701     69.96     29.56 
 H                     3.061     70.08     30.29 
 H                     3.201     72.46     30.41 
 H                     4.621     72.48     29.37 
 H                     5.291     72.95     31.63 
 H                     5.951     71.41     31.2 
 H                     4.871     71.49     33.46 
 H                     3.541     72.07     32.79 
 H                     3.931     70.5      32.47 
 N                     4.131     67.47     27.92 
 C                     5.281     66.61     27.81 
 C                     5.151     65.64     26.64 
 O                     6.011     64.77     26.53 
 C                     5.461     65.78     29.08 
 C                     4.341     64.86     29.54 
 O                     4.651     64.03     30.42 
 O                     3.161     65.       29.14 
 H                     3.321     67.17     28.45 
 H                     6.191     67.18     27.58 
 H                     5.631     66.42     29.94 
 H                     6.411     65.24     29.01 
 N                     4.311     66.02     25.67 
 C                     4.411     65.34     24.4 
 C                     3.331     65.72     23.4 
 O                     2.271     66.16     23.85 
 H                     3.761     66.86     25.73 
 H                     4.171     64.3      24.59 
 H                     5.461     65.41     24.08 
 N                     3.531     65.73     22.08 
 C                     4.561     65.02     21.35 
 C                     4.051     64.13     20.23 
 O                     3.351     64.57     19.32 
 C                     5.571     66.04     20.82 
 C                     6.701     65.34     20.08 
 N                     6.631     65.44     18.76 
 O                     7.561     64.71     20.68 
 H                     2.891     66.27     21.53 
 H                     5.161     64.43     22.04 
 H                     6.071     66.52     21.67 
 H                     5.071     66.79     20.21 
 H                     6.091     66.16     18.29 
 H                     7.341     64.99     18.2 
 N                     4.571     62.9      20.12 
 C                     5.211     62.07     21.12 
 C                     4.191     61.31     21.95 
 O                     3.501     61.88     22.78 
 H                     4.461     62.51     19.2 
 H                     5.761     62.67     21.85 
 H                     5.891     61.42     20.57 
 N                     4.231     59.97     21.87 
 C                     3.551     59.01     22.7 
 C                     4.561     58.02     23.28 
 O                     5.411     57.52     22.56 
 C                     2.521     58.31     21.82 
 C                     1.451     59.24     21.29 
 C                     0.171     59.27     21.86 
 C                     1.731     60.07     20.2 
 C                    -0.819     60.12     21.35 
 C                     0.721     60.9      19.69 
 C                    -0.559     60.97     20.26 
 O                    -1.439     61.93     19.86 
 H                     4.881     59.52     21.24 
 H                     3.001     59.52     23.49 
 H                     2.001     57.59     22.45 
 H                     2.961     57.71     21.03 
 H                    -0.029     58.66     22.73 
 H                     2.681     60.12     19.69 
 H                    -1.759     60.16     21.9 
 H                     0.951     61.63     18.93 
 H                    -1.139     62.4      19.09 
 N                     4.381     57.67     24.55 
 C                     5.061     56.53     25.15 
 C                     4.341     55.19     25.02 
 O                     5.001     54.17     25.21 
 C                     5.391     56.82     26.61 
 C                     4.171     56.69     27.5 
 C                     6.501     55.89     27.09 
 C                     4.421     57.27     28.89 
 H                     3.661     58.11     25.09 
 H                     6.071     56.5      24.74 
 H                     5.771     57.83     26.74 
 H                     3.751     55.7      27.66 
 H                     3.381     57.29     27.04 
 H                     6.131     54.87     27.12 
 H                     7.331     55.96     26.38 
 H                     6.961     56.32     27.98 
 H                     5.111     56.68     29.49 
 H                     4.671     58.32     28.71 
 H                     3.481     57.17     29.44 
 N                     3.031     55.19     24.76 
 C                     2.271     53.97     24.59 
 C                     1.341     53.68     25.75 
 O                     0.741     52.63     25.95 
 C                     1.441     53.97     23.31 
 O                     2.231     54.05     22.14 
 H                     2.611     56.08     24.55 
 H                     2.971     53.13     24.57 
 H                     0.701     54.78     23.32 
 H                     0.921     53.03     23.17 
 H                     1.701     53.81     21.38 
 N                     1.081     54.73     26.54 
 C                     0.101     54.9      27.59 
 C                    -0.199     56.35     27.95 
 O                     0.531     57.29     27.63 
 C                     0.631     54.19     28.84 
 H                     1.471     55.59     26.17 
 H                    -0.819     54.45     27.21 
 H                     0.651     53.11     28.71 
 H                     1.611     54.6      29.09 
 H                     0.071     54.21     29.78 
 N                    -1.339     56.53     28.62 
 C                    -1.879     57.71     29.26 
 C                    -2.139     58.91     28.36 
 O                    -2.669     59.91     28.82 
 C                    -1.209     58.12     30.57 
 H                    -1.889     55.71     28.82 
 H                    -2.889     57.42     29.56 
 H                    -1.249     57.23     31.21 
 H                    -0.169     58.38     30.35 
 H                    -1.719     58.98     31.01 
 N                    -1.679     59.04     27.11 
 C                    -1.919     60.2      26.28 
 C                    -3.359     60.33     25.8 
 O                    -3.869     61.45     25.76 
 C                    -0.929     60.18     25.13 
 C                     0.531     60.24     25.59 
 C                     0.971     61.49     26.35 
 O                     0.381     62.57     26.14 
 O                     1.881     61.43     27.2 
 H                    -1.089     58.3      26.75 
 H                    -1.769     61.13     26.83 
 H                    -1.089     61.05     24.49 
 H                    -1.019     59.27     24.55 
 H                     1.241     60.22     24.77 
 H                     0.801     59.33     26.11 
 N                    -4.009     59.22     25.44 
 C                    -5.339     59.17     24.86 
 H                    -5.998     59.846    25.404 
 H                    -5.292     59.473    23.814 
 H                    -5.727     58.154    24.927 
 H                    -3.469     58.37     25.49 
 Ca                    0.13      65.14     25.21 
 O                    -2.159     63.95     24.77 
 H                    -2.799     63.3      25.06 
 H                    -2.219     63.94     23.82 
 
 Stoichiometry    C54H83CaN15O23
 Framework group  C1[X(C54H83CaN15O23)]
 Deg. of freedom   522
 Full point group                 C1      NOp   1
 Largest Abelian subgroup         C1      NOp   1
 Largest concise Abelian subgroup C1      NOp   1
                         Standard orientation:                         
 ---------------------------------------------------------------------
 Center     Atomic      Atomic             Coordinates (Angstroms)
 Number     Number       Type             X           Y           Z
 ---------------------------------------------------------------------
      1          6           0        5.741544   -1.799046    5.621741
      2          6           0        5.372466   -1.241653    4.252509
      3          8           0        4.215063   -1.326757    3.844862
      4          1           0        5.123365   -2.670229    5.837523
      5          1           0        6.791791   -2.090138    5.625235
      6          1           0        5.572510   -1.037093    6.382214
      7          7           0        6.367855   -0.661054    3.586548
      8          6           0        6.225739    0.035849    2.312842
      9          6           0        6.039558   -0.891902    1.126624
     10          8           0        4.952658   -1.422452    0.884829
     11          6           0        7.277689    1.128564    2.158974
     12          6           0        8.702713    0.687225    2.454654
     13          8           0        9.350029    0.087535    1.560085
     14          8           0        9.206638    1.067314    3.535021
     15          1           0        7.325319   -0.665612    3.915550
     16          1           0        5.366923    0.687609    2.456175
     17          1           0        7.171956    1.954938    2.867794
     18          1           0        7.095943    1.426845    1.118783
     19          7           0        7.157153   -1.154013    0.443190
     20          6           0        7.071911   -1.681623   -0.901451
     21          6           0        6.481783   -0.815659   -2.004562
     22          8           0        6.954875    0.223182   -2.441132
     23          6           0        8.483421   -2.093186   -1.323775
     24          6           0        8.515486   -2.971363   -2.573326
     25          6           0        9.958717   -3.270289   -2.946590
     26          6           0       10.108007   -3.998325   -4.276242
     27          7           0        9.640602   -5.391098   -4.231336
     28          1           0        8.083690   -0.868592    0.723659
     29          1           0        6.514269   -2.615565   -0.781500
     30          1           0        9.009727   -2.598752   -0.507440
     31          1           0        9.089214   -1.189424   -1.419840
     32          1           0        7.992165   -2.501545   -3.407357
     33          1           0        8.004071   -3.886029   -2.258461
     34          1           0       10.388566   -3.876484   -2.146679
     35          1           0       10.470761   -2.310335   -2.945942
     36          1           0       11.171886   -4.019282   -4.483903
     37          1           0        9.676666   -3.374256   -5.067306
     38          1           0        9.818280   -5.876140   -5.097687
     39          1           0       10.212717   -5.860068   -3.549023
     40          1           0        8.669323   -5.435005   -3.944821
     41          7           0        5.342675   -1.347789   -2.478029
     42          6           0        4.594424   -0.753765   -3.555737
     43          6           0        3.531723    0.211610   -3.040549
     44          8           0        2.744962    0.675474   -3.861790
     45          6           0        3.883329   -1.827000   -4.378362
     46          6           0        2.894320   -2.760821   -3.698480
     47          8           0        2.166931   -3.427258   -4.464094
     48          8           0        2.887073   -2.928844   -2.456016
     49          1           0        5.004692   -2.191193   -2.029212
     50          1           0        5.232585   -0.127540   -4.193305
     51          1           0        4.599366   -2.504895   -4.832068
     52          1           0        3.435893   -1.351064   -5.257160
     53          7           0        3.753604    0.710796   -1.818877
     54          6           0        2.993887    1.875181   -1.428574
     55          6           0        3.189871    2.293648    0.019623
     56          8           0        3.555595    1.426541    0.815910
     57          1           0        4.537422    0.429830   -1.254617
     58          1           0        1.952391    1.574218   -1.425770
     59          1           0        3.142967    2.633209   -2.211497
     60          7           0        3.120984    3.563198    0.427051
     61          6           0        2.463475    4.660972   -0.251532
     62          6           0        1.446435    5.413222    0.588915
     63          8           0        1.746135    5.922874    1.666939
     64          6           0        3.535649    5.610341   -0.790553
     65          6           0        2.897174    6.762084   -1.552352
     66          7           0        2.890982    7.912707   -0.894075
     67          8           0        2.401566    6.596857   -2.658504
     68          1           0        3.552701    3.780264    1.304663
     69          1           0        1.988649    4.299727   -1.161609
     70          1           0        4.124696    5.085603   -1.552506
     71          1           0        4.185076    5.948527    0.014726
     72          1           0        3.517146    8.107169   -0.118831
     73          1           0        2.472624    8.721080   -1.331920
     74          7           0        0.268921    5.716573    0.026030
     75          6           0       -0.416983    5.090743   -1.085893
     76          6           0       -1.209744    3.874684   -0.639096
     77          8           0       -0.650183    2.836692   -0.323877
     78          1           0       -0.197598    6.480653    0.483349
     79          1           0        0.287116    4.698380   -1.824606
     80          1           0       -1.036017    5.872195   -1.525813
     81          7           0       -2.541490    3.933663   -0.802113
     82          6           0       -3.499203    2.865395   -0.681734
     83          6           0       -4.338755    2.777071   -1.956077
     84          8           0       -4.804872    3.790031   -2.453619
     85          6           0       -4.361045    3.174484    0.537688
     86          6           0       -3.583215    3.189876    1.835934
     87          6           0       -3.637074    2.107639    2.724789
     88          6           0       -2.813341    4.308341    2.170195
     89          6           0       -2.929251    2.139183    3.933379
     90          6           0       -2.127336    4.330470    3.394126
     91          6           0       -2.141502    3.249142    4.287842
     92          8           0       -1.305470    3.234160    5.363400
     93          1           0       -2.970988    4.777715   -1.155679
     94          1           0       -2.988366    1.924515   -0.480510
     95          1           0       -5.079756    2.362100    0.633540
     96          1           0       -4.972035    4.064034    0.423268
     97          1           0       -4.197171    1.226634    2.443502
     98          1           0       -2.708146    5.190918    1.557747
     99          1           0       -2.941165    1.227383    4.530186
    100          1           0       -1.436992    5.129332    3.614680
    101          1           0       -0.866977    4.067416    5.494578
    102          7           0       -4.609020    1.553444   -2.400481
    103          6           0       -5.628458    1.295984   -3.408678
    104          6           0       -7.038852    1.059136   -2.874269
    105          8           0       -7.971785    1.161867   -3.668739
    106          6           0       -5.199179    0.145591   -4.312512
    107          6           0       -5.382011   -1.199389   -3.637975
    108          6           0       -5.976799    0.192807   -5.624182
    109          6           0       -4.678069   -2.316477   -4.404512
    110          1           0       -4.203063    0.758238   -1.946118
    111          1           0       -5.589271    2.114253   -4.128399
    112          1           0       -4.149768    0.222608   -4.584917
    113          1           0       -6.393873   -1.553053   -3.455882
    114          1           0       -4.898823   -1.128602   -2.659599
    115          1           0       -7.023205   -0.022952   -5.432656
    116          1           0       -5.878514    1.200817   -6.039099
    117          1           0       -5.438325   -0.386738   -6.374364
    118          1           0       -5.150741   -2.556963   -5.354747
    119          1           0       -3.624918   -2.019744   -4.419409
    120          1           0       -4.828908   -3.231458   -3.824721
    121          7           0       -7.187390    0.704566   -1.595240
    122          6           0       -8.485633    0.488271   -0.993010
    123          6           0       -8.778498   -0.971717   -0.715041
    124          8           0       -9.864657   -1.443140   -0.397995
    125          6           0       -8.662988    1.260359    0.310725
    126          8           0       -8.593058    2.661787    0.136055
    127          1           0       -6.361294    0.724287   -1.020977
    128          1           0       -9.251678    0.800694   -1.708248
    129          1           0       -7.931402    0.938270    1.062283
    130          1           0       -9.657483    1.131144    0.720460
    131          1           0       -8.940187    3.098101    0.914021
    132          7           0       -7.703219   -1.770397   -0.705868
    133          6           0       -7.552753   -3.144027   -0.278903
    134          6           0       -6.116581   -3.567241    0.004646
    135          8           0       -5.135720   -2.932824   -0.388199
    136          6           0       -8.111761   -4.039846   -1.389092
    137          1           0       -6.838991   -1.245446   -0.784207
    138          1           0       -8.118351   -3.226836    0.651979
    139          1           0       -9.191205   -3.939235   -1.480618
    140          1           0       -7.589645   -3.814879   -2.320641
    141          1           0       -8.076954   -5.130396   -1.304892
    142          7           0       -6.000327   -4.672717    0.743096
    143          6           0       -4.834842   -5.459838    1.083221
    144          6           0       -3.736856   -4.744719    1.858224
    145          8           0       -2.762438   -5.370578    2.247212
    146          6           0       -4.264165   -6.321111   -0.041784
    147          1           0       -6.853323   -5.116514    1.043668
    148          1           0       -5.199784   -6.187067    1.812710
    149          1           0       -5.103509   -6.931233   -0.397527
    150          1           0       -3.920064   -5.652620   -0.836966
    151          1           0       -3.428195   -6.923315    0.321264
    152          7           0       -3.655809   -3.418512    2.018245
    153          6           0       -2.590320   -2.757901    2.739650
    154          6           0       -2.639091   -2.971145    4.247313
    155          8           0       -1.580943   -3.138456    4.854298
    156          6           0       -2.598415   -1.287011    2.366266
    157          6           0       -2.360623   -1.042616    0.872772
    158          6           0       -1.020116   -1.496310    0.297531
    159          8           0       -0.022236   -1.548440    1.045941
    160          8           0       -0.926509   -1.849617   -0.894363
    161          1           0       -4.358843   -2.849236    1.563307
    162          1           0       -1.611618   -3.161116    2.476096
    163          1           0       -1.798632   -0.766952    2.897290
    164          1           0       -3.553595   -0.829648    2.592209
    165          1           0       -2.371687    0.007894    0.602204
    166          1           0       -3.198212   -1.407052    0.292229
    167          7           0       -3.831516   -2.965849    4.849221
    168          6           0       -4.055527   -3.044524    6.281502
    169          1           0       -3.409070   -3.810614    6.708576
    170          1           0       -3.828293   -2.081749    6.739282
    171          1           0       -5.096977   -3.301325    6.473140
    172          1           0       -4.618032   -2.787900    4.243971
    173         20           0        2.433886   -0.771355    1.992728
    174          8           0        0.994541   -1.430723    4.076652
    175          1           0        0.308087   -1.991417    4.438044
    176          1           0        0.907795   -0.608796    4.548999
 ---------------------------------------------------------------------
 Rotational constants (GHZ):           0.0215633           0.0104582           0.0098072
 Standard basis: SVP (5D, 7F)
 There are  1809 symmetry adapted cartesian basis functions of A   symmetry.
 There are  1717 symmetry adapted basis functions of A   symmetry.
  1717 basis functions,  2922 primitive gaussians,  1809 cartesian basis functions
   358 alpha electrons      358 beta electrons
       nuclear repulsion energy     19893.2332161910 Hartrees.
 NAtoms=  176 NActive=  176 NUniq=  176 SFac= 1.00D+00 NAtFMM=   60 NAOKFM=T Big=T
 Integral buffers will be    131072 words long.
 Raffenetti 2 integral format.
 Two-electron integral symmetry is turned on.
 One-electron integrals computed using PRISM.
 NBasis=  1717 RedAO= T EigKep=  2.49D-04  NBF=  1717
 NBsUse=  1717 1.00D-06 EigRej= -1.00D+00 NBFU=  1717
 ExpMin= 1.98D-02 ExpMax= 3.51D+04 ExpMxC= 5.28D+03 IAcc=3 IRadAn=         5 AccDes= 0.00D+00
 Harris functional with IExCor=  402 and IRadAn=       5 diagonalized for initial guess.
 HarFok:  IExCor=  402 AccDes= 0.00D+00 IRadAn=         5 IDoV= 1 UseB2=F ITyADJ=14
 ICtDFT=  3500011 ScaDFX=  1.000000  1.000000  1.000000  1.000000
 FoFCou: FMM=F IPFlag=           0 FMFlag=      100000 FMFlg1=        2001
         NFxFlg=           0 DoJE=T BraDBF=F KetDBF=T FulRan=T
         wScrn=  0.000000 ICntrl=       500 IOpCl=  0 I1Cent=   200000004 NGrid=           0
         NMat0=    1 NMatS0=      1 NMatT0=    0 NMatD0=    1 NMtDS0=    0 NMtDT0=    0
 Petite list used in FoFCou.
 Requested convergence on RMS density matrix=1.00D-08 within 128 cycles.
 Requested convergence on MAX density matrix=1.00D-06.
 Requested convergence on             energy=1.00D-06.
 No special actions if energy rises.
 EnCoef did     3 forward-backward iterations
 EnCoef did     2 forward-backward iterations
 EnCoef did     4 forward-backward iterations
 EnCoef did     4 forward-backward iterations
 EnCoef did   100 forward-backward iterations
 EnCoef did   100 forward-backward iterations
 EnCoef did   100 forward-backward iterations
 Rare condition: small coef for last iteration:  0.000D+00
 EnCoef did   100 forward-backward iterations
 Rare condition: small coef for last iteration:  0.000D+00
 EnCoef did   100 forward-backward iterations
 Rare condition: small coef for last iteration:  0.000D+00
 EnCoef did   100 forward-backward iterations
 Rare condition: small coef for last iteration:  0.000D+00
 EnCoef did   100 forward-backward iterations
 Rare condition: small coef for last iteration:  0.000D+00
 Restarting incremental Fock formation.
 EnCoef did   100 forward-backward iterations
 Rare condition: small coef for last iteration:  0.000D+00
 EnCoef did   100 forward-backward iterations
 Rare condition: small coef for last iteration:  0.000D+00
 EnCoef did   100 forward-backward iterations
 Rare condition: small coef for last iteration:  0.000D+00
 EnCoef did   100 forward-backward iterations
 EnCoef did   100 forward-backward iterations
 EnCoef did   100 forward-backward iterations
 EnCoef did     2 forward-backward iterations
 EnCoef did   100 forward-backward iterations
 Restarting incremental Fock formation.
 SCF Done:  E(RB3LYP) =  -5333.39074744     A.U. after   41 cycles
            NFock= 41  Conv=0.31D-09     -V/T= 2.0081
 SCF density gives NOpUse=  1 NOpAll=  1.
 Hyperfine terms turned off by default for NAtoms > 100.

 **********************************************************************

            Population analysis using the SCF density.

 **********************************************************************

 Orbital symmetries:
 BldTbl:  Degeneracy threshold= 1.00D-02
       Occupied  (A) (A) (A) (A) (A) (A) (A) (A) (A) (A) (A) (A)
                 (A) (A) (A) (A) (A) (A) (A) (A) (A) (A) (A) (A)
                 (A) (A) (A) (A) (A) (A) (A) (A) (A) (A) (A) (A)
                 (A) (A) (A) (A) (A) (A) (A) (A) (A) (A) (A) (A)
                 (A) (A) (A) (A) (A) (A) (A) (A) (A) (A) (A) (A)
                 (A) (A) (A) (A) (A) (A) (A) (A) (A) (A) (A) (A)
                 (A) (A) (A) (A) (A) (A) (A) (A) (A) (A) (A) (A)
                 (A) (A) (A) (A) (A) (A) (A) (A) (A) (A) (A) (A)
                 (A) (A) (A) (A) (A) (A) (A) (A) (A) (A) (A) (A)
                 (A) (A) (A) (A) (A) (A) (A) (A) (A) (A) (A) (A)
                 (A) (A) (A) (A) (A) (A) (A) (A) (A) (A) (A) (A)
                 (A) (A) (A) (A) (A) (A) (A) (A) (A) (A) (A) (A)
                 (A) (A) (A) (A) (A) (A) (A) (A) (A) (A) (A) (A)
                 (A) (A) (A) (A) (A) (A) (A) (A) (A) (A) (A) (A)
                 (A) (A) (A) (A) (A) (A) (A) (A) (A) (A) (A) (A)
                 (A) (A) (A) (A) (A) (A) (A) (A) (A) (A) (A) (A)
                 (A) (A) (A) (A) (A) (A) (A) (A) (A) (A) (A) (A)
                 (A) (A) (A) (A) (A) (A) (A) (A) (A) (A) (A) (A)
                 (A) (A) (A) (A) (A) (A) (A) (A) (A) (A) (A) (A)
                 (A) (A) (A) (A) (A) (A) (A) (A) (A) (A) (A) (A)
                 (A) (A) (A) (A) (A) (A) (A) (A) (A) (A) (A) (A)
                 (A) (A) (A) (A) (A) (A) (A) (A) (A) (A) (A) (A)
                 (A) (A) (A) (A) (A) (A) (A) (A) (A) (A) (A) (A)
                 (A) (A) (A) (A) (A) (A) (A) (A) (A) (A) (A) (A)
                 (A) (A) (A) (A) (A) (A) (A) (A) (A) (A) (A) (A)
                 (A) (A) (A) (A) (A) (A) (A) (A) (A) (A) (A) (A)
                 (A) (A) (A) (A) (A) (A) (A) (A) (A) (A) (A) (A)
                 (A) (A) (A) (A) (A) (A) (A) (A) (A) (A) (A) (A)
                 (A) (A) (A) (A) (A) (A) (A) (A) (A) (A) (A) (A)
                 (A) (A) (A) (A) (A) (A) (A) (A) (A) (A)
       Virtual   (A) (A) (A) (A) (A) (A) (A) (A) (A) (A) (A) (A)
                 (A) (A) (A) (A) (A) (A) (A) (A) (A) (A) (A) (A)
                 (A) (A) (A) (A) (A) (A) (A) (A) (A) (A) (A) (A)
                 (A) (A) (A) (A) (A) (A) (A) (A) (A) (A) (A) (A)
                 (A) (A) (A) (A) (A) (A) (A) (A) (A) (A) (A) (A)
                 (A) (A) (A) (A) (A) (A) (A) (A) (A) (A) (A) (A)
                 (A) (A) (A) (A) (A) (A) (A) (A) (A) (A) (A) (A)
                 (A) (A) (A) (A) (A) (A) (A) (A) (A) (A) (A) (A)
                 (A) (A) (A) (A) (A) (A) (A) (A) (A) (A) (A) (A)
                 (A) (A) (A) (A) (A) (A) (A) (A) (A) (A) (A) (A)
                 (A) (A) (A) (A) (A) (A) (A) (A) (A) (A) (A) (A)
                 (A) (A) (A) (A) (A) (A) (A) (A) (A) (A) (A) (A)
                 (A) (A) (A) (A) (A) (A) (A) (A) (A) (A) (A) (A)
                 (A) (A) (A) (A) (A) (A) (A) (A) (A) (A) (A) (A)
                 (A) (A) (A) (A) (A) (A) (A) (A) (A) (A) (A) (A)
                 (A) (A) (A) (A) (A) (A) (A) (A) (A) (A) (A) (A)
                 (A) (A) (A) (A) (A) (A) (A) (A) (A) (A) (A) (A)
                 (A) (A) (A) (A) (A) (A) (A) (A) (A) (A) (A) (A)
                 (A) (A) (A) (A) (A) (A) (A) (A) (A) (A) (A) (A)
                 (A) (A) (A) (A) (A) (A) (A) (A) (A) (A) (A) (A)
                 (A) (A) (A) (A) (A) (A) (A) (A) (A) (A) (A) (A)
                 (A) (A) (A) (A) (A) (A) (A) (A) (A) (A) (A) (A)
                 (A) (A) (A) (A) (A) (A) (A) (A) (A) (A) (A) (A)
                 (A) (A) (A) (A) (A) (A) (A) (A) (A) (A) (A) (A)
                 (A) (A) (A) (A) (A) (A) (A) (A) (A) (A) (A) (A)
                 (A) (A) (A) (A) (A) (A) (A) (A) (A) (A) (A) (A)
                 (A) (A) (A) (A) (A) (A) (A) (A) (A) (A) (A) (A)
                 (A) (A) (A) (A) (A) (A) (A) (A) (A) (A) (A) (A)
                 (A) (A) (A) (A) (A) (A) (A) (A) (A) (A) (A) (A)
                 (A) (A) (A) (A) (A) (A) (A) (A) (A) (A) (A) (A)
                 (A) (A) (A) (A) (A) (A) (A) (A) (A) (A) (A) (A)
                 (A) (A) (A) (A) (A) (A) (A) (A) (A) (A) (A) (A)
                 (A) (A) (A) (A) (A) (A) (A) (A) (A) (A) (A) (A)
                 (A) (A) (A) (A) (A) (A) (A) (A) (A) (A) (A) (A)
                 (A) (A) (A) (A) (A) (A) (A) (A) (A) (A) (A) (A)
                 (A) (A) (A) (A) (A) (A) (A) (A) (A) (A) (A) (A)
                 (A) (A) (A) (A) (A) (A) (A) (A) (A) (A) (A) (A)
                 (A) (A) (A) (A) (A) (A) (A) (A) (A) (A) (A) (A)
                 (A) (A) (A) (A) (A) (A) (A) (A) (A) (A) (A) (A)
                 (A) (A) (A) (A) (A) (A) (A) (A) (A) (A) (A) (A)
                 (A) (A) (A) (A) (A) (A) (A) (A) (A) (A) (A) (A)
                 (A) (A) (A) (A) (A) (A) (A) (A) (A) (A) (A) (A)
                 (A) (A) (A) (A) (A) (A) (A) (A) (A) (A) (A) (A)
                 (A) (A) (A) (A) (A) (A) (A) (A) (A) (A) (A) (A)
                 (A) (A) (A) (A) (A) (A) (A) (A) (A) (A) (A) (A)
                 (A) (A) (A) (A) (A) (A) (A) (A) (A) (A) (A) (A)
                 (A) (A) (A) (A) (A) (A) (A) (A) (A) (A) (A) (A)
                 (A) (A) (A) (A) (A) (A) (A) (A) (A) (A) (A) (A)
                 (A) (A) (A) (A) (A) (A) (A) (A) (A) (A) (A) (A)
                 (A) (A) (A) (A) (A) (A) (A) (A) (A) (A) (A) (A)
                 (A) (A) (A) (A) (A) (A) (A) (A) (A) (A) (A) (A)
                 (A) (A) (A) (A) (A) (A) (A) (A) (A) (A) (A) (A)
                 (A) (A) (A) (A) (A) (A) (A) (A) (A) (A) (A) (A)
                 (A) (A) (A) (A) (A) (A) (A) (A) (A) (A) (A) (A)
                 (A) (A) (A) (A) (A) (A) (A) (A) (A) (A) (A) (A)
                 (A) (A) (A) (A) (A) (A) (A) (A) (A) (A) (A) (A)
                 (A) (A) (A) (A) (A) (A) (A) (A) (A) (A) (A) (A)
                 (A) (A) (A) (A) (A) (A) (A) (A) (A) (A) (A) (A)
                 (A) (A) (A) (A) (A) (A) (A) (A) (A) (A) (A) (A)
                 (A) (A) (A) (A) (A) (A) (A) (A) (A) (A) (A) (A)
                 (A) (A) (A) (A) (A) (A) (A) (A) (A) (A) (A) (A)
                 (A) (A) (A) (A) (A) (A) (A) (A) (A) (A) (A) (A)
                 (A) (A) (A) (A) (A) (A) (A) (A) (A) (A) (A) (A)
                 (A) (A) (A) (A) (A) (A) (A) (A) (A) (A) (A) (A)
                 (A) (A) (A) (A) (A) (A) (A) (A) (A) (A) (A) (A)
                 (A) (A) (A) (A) (A) (A) (A) (A) (A) (A) (A) (A)
                 (A) (A) (A) (A) (A) (A) (A) (A) (A) (A) (A) (A)
                 (A) (A) (A) (A) (A) (A) (A) (A) (A) (A) (A) (A)
                 (A) (A) (A) (A) (A) (A) (A) (A) (A) (A) (A) (A)
                 (A) (A) (A) (A) (A) (A) (A) (A) (A) (A) (A) (A)
                 (A) (A) (A) (A) (A) (A) (A) (A) (A) (A) (A) (A)
                 (A) (A) (A) (A) (A) (A) (A) (A) (A) (A) (A) (A)
                 (A) (A) (A) (A) (A) (A) (A) (A) (A) (A) (A) (A)
                 (A) (A) (A) (A) (A) (A) (A) (A) (A) (A) (A) (A)
                 (A) (A) (A) (A) (A) (A) (A) (A) (A) (A) (A) (A)
                 (A) (A) (A) (A) (A) (A) (A) (A) (A) (A) (A) (A)
                 (A) (A) (A) (A) (A) (A) (A) (A) (A) (A) (A) (A)
                 (A) (A) (A) (A) (A) (A) (A) (A) (A) (A) (A) (A)
                 (A) (A) (A) (A) (A) (A) (A) (A) (A) (A) (A) (A)
                 (A) (A) (A) (A) (A) (A) (A) (A) (A) (A) (A) (A)
                 (A) (A) (A) (A) (A) (A) (A) (A) (A) (A) (A) (A)
                 (A) (A) (A) (A) (A) (A) (A) (A) (A) (A) (A) (A)
                 (A) (A) (A) (A) (A) (A) (A) (A) (A) (A) (A) (A)
                 (A) (A) (A) (A) (A) (A) (A) (A) (A) (A) (A) (A)
                 (A) (A) (A) (A) (A) (A) (A) (A) (A) (A) (A) (A)
                 (A) (A) (A) (A) (A) (A) (A) (A) (A) (A) (A) (A)
                 (A) (A) (A) (A) (A) (A) (A) (A) (A) (A) (A) (A)
                 (A) (A) (A) (A) (A) (A) (A) (A) (A) (A) (A) (A)
                 (A) (A) (A) (A) (A) (A) (A) (A) (A) (A) (A) (A)
                 (A) (A) (A) (A) (A) (A) (A) (A) (A) (A) (A) (A)
                 (A) (A) (A) (A) (A) (A) (A) (A) (A) (A) (A) (A)
                 (A) (A) (A) (A) (A) (A) (A) (A) (A) (A) (A) (A)
                 (A) (A) (A) (A) (A) (A) (A) (A) (A) (A) (A) (A)
                 (A) (A) (A) (A) (A) (A) (A) (A) (A) (A) (A) (A)
                 (A) (A) (A) (A) (A) (A) (A) (A) (A) (A) (A) (A)
                 (A) (A) (A) (A) (A) (A) (A) (A) (A) (A) (A) (A)
                 (A) (A) (A) (A) (A) (A) (A) (A) (A) (A) (A) (A)
                 (A) (A) (A) (A) (A) (A) (A) (A) (A) (A) (A) (A)
                 (A) (A) (A) (A) (A) (A) (A) (A) (A) (A) (A) (A)
                 (A) (A) (A) (A) (A) (A) (A) (A) (A) (A) (A) (A)
                 (A) (A) (A) (A) (A) (A) (A) (A) (A) (A) (A) (A)
                 (A) (A) (A) (A) (A) (A) (A) (A) (A) (A) (A) (A)
                 (A) (A) (A) (A) (A) (A) (A) (A) (A) (A) (A) (A)
                 (A) (A) (A) (A) (A) (A) (A) (A) (A) (A) (A) (A)
                 (A) (A) (A) (A) (A) (A) (A) (A) (A) (A) (A) (A)
                 (A) (A) (A) (A) (A) (A) (A) (A) (A) (A) (A) (A)
                 (A) (A) (A) (A) (A) (A) (A) (A) (A) (A) (A) (A)
                 (A) (A) (A) (A) (A) (A) (A) (A) (A) (A) (A) (A)
                 (A) (A) (A) (A) (A) (A) (A) (A) (A) (A) (A) (A)
                 (A) (A) (A) (A) (A) (A) (A) (A) (A) (A) (A) (A)
                 (A) (A) (A) (A) (A) (A) (A) (A) (A) (A) (A) (A)
                 (A) (A) (A) (A) (A) (A) (A) (A) (A) (A) (A) (A)
                 (A) (A) (A) (A) (A) (A) (A) (A) (A) (A) (A) (A)
                 (A) (A) (A)
 The electronic state is 1-A.
 Alpha  occ. eigenvalues -- -145.45157 -19.17466 -19.16828 -19.14488 -19.13444
 Alpha  occ. eigenvalues --  -19.12917 -19.12337 -19.12029 -19.11811 -19.10977
 Alpha  occ. eigenvalues --  -19.10851 -19.10407 -19.09768 -19.09355 -19.09245
 Alpha  occ. eigenvalues --  -19.08265 -19.07553 -19.05814 -19.01876 -19.00744
 Alpha  occ. eigenvalues --  -19.00169 -18.98270 -18.96436 -18.95069 -15.50913
 Alpha  occ. eigenvalues --  -14.57335 -14.38938 -14.38110 -14.37933 -14.37137
 Alpha  occ. eigenvalues --  -14.36894 -14.36588 -14.36492 -14.36325 -14.35669
 Alpha  occ. eigenvalues --  -14.35636 -14.33868 -14.33805 -14.33088 -14.32396
 Alpha  occ. eigenvalues --  -12.64563 -12.64495 -12.64448 -10.33921 -10.32893
 Alpha  occ. eigenvalues --  -10.30970 -10.30953 -10.30864 -10.30011 -10.29534
 Alpha  occ. eigenvalues --  -10.29112 -10.28877 -10.28748 -10.28407 -10.27404
 Alpha  occ. eigenvalues --  -10.26910 -10.26553 -10.26471 -10.26377 -10.26180
 Alpha  occ. eigenvalues --  -10.25475 -10.25343 -10.24962 -10.24469 -10.24307
 Alpha  occ. eigenvalues --  -10.24237 -10.24082 -10.23436 -10.22914 -10.22847
 Alpha  occ. eigenvalues --  -10.22697 -10.22651 -10.22092 -10.21654 -10.20865
 Alpha  occ. eigenvalues --  -10.20471 -10.20270 -10.20257 -10.20207 -10.20184
 Alpha  occ. eigenvalues --  -10.20081 -10.20000 -10.19868 -10.19763 -10.19715
 Alpha  occ. eigenvalues --  -10.19324 -10.18636 -10.17990 -10.17522 -10.17476
 Alpha  occ. eigenvalues --  -10.15992 -10.15705 -10.15500 -10.14999 -10.14848
 Alpha  occ. eigenvalues --  -10.14230 -10.11391  -1.87255  -1.14975  -1.14505
 Alpha  occ. eigenvalues --   -1.14059  -1.12721  -1.07268  -1.06256  -1.05273
 Alpha  occ. eigenvalues --   -1.05266  -1.05119  -1.04303  -1.03828  -1.03647
 Alpha  occ. eigenvalues --   -1.03623  -1.03325  -1.02988  -1.02334  -1.02232
 Alpha  occ. eigenvalues --   -1.01736  -1.01355  -1.01282  -0.98923  -0.95896
 Alpha  occ. eigenvalues --   -0.95239  -0.94888  -0.94717  -0.94387  -0.94193
 Alpha  occ. eigenvalues --   -0.93526  -0.93332  -0.93114  -0.92208  -0.92079
 Alpha  occ. eigenvalues --   -0.91945  -0.91806  -0.90582  -0.90016  -0.89931
 Alpha  occ. eigenvalues --   -0.88805  -0.87996  -0.85870  -0.85334  -0.84116
 Alpha  occ. eigenvalues --   -0.81540  -0.81266  -0.80910  -0.80437  -0.80253
 Alpha  occ. eigenvalues --   -0.79691  -0.78502  -0.78137  -0.76960  -0.75918
 Alpha  occ. eigenvalues --   -0.75748  -0.75564  -0.75160  -0.74239  -0.73722
 Alpha  occ. eigenvalues --   -0.72749  -0.72326  -0.72300  -0.72066  -0.71863
 Alpha  occ. eigenvalues --   -0.70959  -0.70666  -0.68826  -0.68206  -0.67762
 Alpha  occ. eigenvalues --   -0.67594  -0.66581  -0.66195  -0.64347  -0.64211
 Alpha  occ. eigenvalues --   -0.64149  -0.63397  -0.63064  -0.62479  -0.62079
 Alpha  occ. eigenvalues --   -0.61746  -0.61326  -0.61115  -0.60959  -0.60639
 Alpha  occ. eigenvalues --   -0.60478  -0.60223  -0.59742  -0.59577  -0.59107
 Alpha  occ. eigenvalues --   -0.58683  -0.58559  -0.58125  -0.57616  -0.57364
 Alpha  occ. eigenvalues --   -0.57091  -0.56709  -0.56319  -0.56264  -0.56040
 Alpha  occ. eigenvalues --   -0.55672  -0.55498  -0.54866  -0.54137  -0.54024
 Alpha  occ. eigenvalues --   -0.53834  -0.53211  -0.52798  -0.52609  -0.51890
 Alpha  occ. eigenvalues --   -0.51686  -0.51284  -0.51207  -0.51140  -0.50760
 Alpha  occ. eigenvalues --   -0.50694  -0.50387  -0.49859  -0.49819  -0.49759
 Alpha  occ. eigenvalues --   -0.49400  -0.49328  -0.49242  -0.48655  -0.48381
 Alpha  occ. eigenvalues --   -0.48287  -0.48182  -0.47584  -0.47495  -0.47213
 Alpha  occ. eigenvalues --   -0.46643  -0.46549  -0.46370  -0.46332  -0.46185
 Alpha  occ. eigenvalues --   -0.46057  -0.45977  -0.45791  -0.45551  -0.45118
 Alpha  occ. eigenvalues --   -0.44848  -0.44715  -0.44314  -0.44216  -0.43895
 Alpha  occ. eigenvalues --   -0.43780  -0.43544  -0.43483  -0.43433  -0.43305
 Alpha  occ. eigenvalues --   -0.43246  -0.43087  -0.42836  -0.42768  -0.42703
 Alpha  occ. eigenvalues --   -0.42449  -0.42350  -0.42270  -0.42115  -0.41956
 Alpha  occ. eigenvalues --   -0.41942  -0.41804  -0.41561  -0.40998  -0.40991
 Alpha  occ. eigenvalues --   -0.40875  -0.40494  -0.40415  -0.40367  -0.40257
 Alpha  occ. eigenvalues --   -0.40175  -0.40150  -0.40022  -0.39952  -0.39779
 Alpha  occ. eigenvalues --   -0.39449  -0.39289  -0.39155  -0.39013  -0.38797
 Alpha  occ. eigenvalues --   -0.38748  -0.38537  -0.38425  -0.38240  -0.38078
 Alpha  occ. eigenvalues --   -0.37934  -0.37896  -0.37679  -0.37623  -0.37464
 Alpha  occ. eigenvalues --   -0.37298  -0.37095  -0.37005  -0.36802  -0.36687
 Alpha  occ. eigenvalues --   -0.36650  -0.36338  -0.36268  -0.35812  -0.35741
 Alpha  occ. eigenvalues --   -0.35099  -0.35008  -0.34674  -0.34507  -0.34404
 Alpha  occ. eigenvalues --   -0.34282  -0.34197  -0.34173  -0.33960  -0.33506
 Alpha  occ. eigenvalues --   -0.33264  -0.33205  -0.32099  -0.32020  -0.31834
 Alpha  occ. eigenvalues --   -0.31753  -0.31352  -0.31117  -0.31003  -0.30705
 Alpha  occ. eigenvalues --   -0.30322  -0.30093  -0.29793  -0.29533  -0.29483
 Alpha  occ. eigenvalues --   -0.29014  -0.28907  -0.28886  -0.28656  -0.28362
 Alpha  occ. eigenvalues --   -0.27958  -0.27781  -0.27674  -0.27592  -0.27485
 Alpha  occ. eigenvalues --   -0.27329  -0.26653  -0.26606  -0.26474  -0.26233
 Alpha  occ. eigenvalues --   -0.26084  -0.26066  -0.26029  -0.25595  -0.25433
 Alpha  occ. eigenvalues --   -0.25361  -0.24619  -0.24163  -0.23704  -0.23655
 Alpha  occ. eigenvalues --   -0.23338  -0.23190  -0.23160  -0.20389  -0.18705
 Alpha  occ. eigenvalues --   -0.18362  -0.17806  -0.17470  -0.16030  -0.14246
 Alpha  occ. eigenvalues --   -0.13535  -0.13124  -0.10846
 Alpha virt. eigenvalues --   -0.09490  -0.04210  -0.03690  -0.02666  -0.02493
 Alpha virt. eigenvalues --   -0.02231  -0.01477  -0.01222  -0.00620  -0.00593
 Alpha virt. eigenvalues --    0.00109   0.00124   0.00566   0.00629   0.00814
 Alpha virt. eigenvalues --    0.00886   0.01685   0.01888   0.02053   0.02466
 Alpha virt. eigenvalues --    0.02519   0.02760   0.03108   0.03200   0.03615
 Alpha virt. eigenvalues --    0.03745   0.03807   0.03976   0.04220   0.04552
 Alpha virt. eigenvalues --    0.04687   0.04907   0.05326   0.05697   0.05802
 Alpha virt. eigenvalues --    0.06241   0.06491   0.06531   0.06810   0.06867
 Alpha virt. eigenvalues --    0.07577   0.07713   0.08058   0.08300   0.08428
 Alpha virt. eigenvalues --    0.08789   0.08916   0.08978   0.09103   0.09339
 Alpha virt. eigenvalues --    0.09348   0.09567   0.09829   0.10003   0.10291
 Alpha virt. eigenvalues --    0.10770   0.10843   0.11218   0.11372   0.11723
 Alpha virt. eigenvalues --    0.11900   0.11995   0.12095   0.12276   0.12445
 Alpha virt. eigenvalues --    0.12619   0.12682   0.12835   0.12888   0.12962
 Alpha virt. eigenvalues --    0.13239   0.13355   0.13406   0.13761   0.13845
 Alpha virt. eigenvalues --    0.13940   0.14147   0.14328   0.14447   0.14683
 Alpha virt. eigenvalues --    0.14779   0.14848   0.14973   0.15131   0.15204
 Alpha virt. eigenvalues --    0.15618   0.15656   0.15732   0.15976   0.16040
 Alpha virt. eigenvalues --    0.16123   0.16211   0.16516   0.16825   0.17004
 Alpha virt. eigenvalues --    0.17148   0.17325   0.17557   0.17751   0.17874
 Alpha virt. eigenvalues --    0.18189   0.18254   0.18369   0.18567   0.18783
 Alpha virt. eigenvalues --    0.18926   0.18993   0.19243   0.19287   0.19549
 Alpha virt. eigenvalues --    0.19653   0.20032   0.20113   0.20395   0.20549
 Alpha virt. eigenvalues --    0.20635   0.20747   0.21106   0.21468   0.21503
 Alpha virt. eigenvalues --    0.21762   0.21917   0.22209   0.22424   0.22559
 Alpha virt. eigenvalues --    0.22717   0.23028   0.23056   0.23315   0.23512
 Alpha virt. eigenvalues --    0.23803   0.23917   0.24151   0.24292   0.24531
 Alpha virt. eigenvalues --    0.24690   0.24850   0.25018   0.25127   0.25259
 Alpha virt. eigenvalues --    0.25579   0.25780   0.25961   0.26137   0.26457
 Alpha virt. eigenvalues --    0.26724   0.27170   0.27335   0.27567   0.27689
 Alpha virt. eigenvalues --    0.28020   0.28315   0.28459   0.28747   0.29056
 Alpha virt. eigenvalues --    0.29273   0.29309   0.29493   0.29786   0.30107
 Alpha virt. eigenvalues --    0.30129   0.30478   0.30693   0.31038   0.31167
 Alpha virt. eigenvalues --    0.31219   0.31493   0.31802   0.32229   0.32394
 Alpha virt. eigenvalues --    0.32752   0.33069   0.33490   0.33632   0.33739
 Alpha virt. eigenvalues --    0.34024   0.34543   0.34718   0.35127   0.35744
 Alpha virt. eigenvalues --    0.35935   0.36324   0.36633   0.37024   0.37274
 Alpha virt. eigenvalues --    0.37488   0.38257   0.38423   0.38856   0.39470
 Alpha virt. eigenvalues --    0.39540   0.39600   0.39996   0.40077   0.40386
 Alpha virt. eigenvalues --    0.40633   0.40727   0.41083   0.41309   0.41526
 Alpha virt. eigenvalues --    0.41897   0.42050   0.42100   0.42172   0.42679
 Alpha virt. eigenvalues --    0.42691   0.42776   0.42920   0.43174   0.43327
 Alpha virt. eigenvalues --    0.43598   0.43896   0.44013   0.44049   0.44299
 Alpha virt. eigenvalues --    0.44400   0.44538   0.44779   0.44896   0.45316
 Alpha virt. eigenvalues --    0.45565   0.45853   0.45970   0.46163   0.46214
 Alpha virt. eigenvalues --    0.46665   0.46732   0.46917   0.47010   0.47181
 Alpha virt. eigenvalues --    0.47474   0.47659   0.47680   0.47974   0.48052
 Alpha virt. eigenvalues --    0.48356   0.48477   0.48587   0.48700   0.49044
 Alpha virt. eigenvalues --    0.49223   0.49445   0.49566   0.49669   0.49825
 Alpha virt. eigenvalues --    0.50190   0.50272   0.50485   0.50626   0.50687
 Alpha virt. eigenvalues --    0.50876   0.51040   0.51398   0.51598   0.51901
 Alpha virt. eigenvalues --    0.52408   0.52540   0.52814   0.53041   0.53133
 Alpha virt. eigenvalues --    0.53185   0.53475   0.53550   0.53799   0.53941
 Alpha virt. eigenvalues --    0.54332   0.54563   0.55109   0.55175   0.55284
 Alpha virt. eigenvalues --    0.55555   0.55811   0.55903   0.56135   0.56450
 Alpha virt. eigenvalues --    0.56542   0.56938   0.57152   0.57195   0.57445
 Alpha virt. eigenvalues --    0.57620   0.57708   0.57795   0.58105   0.58399
 Alpha virt. eigenvalues --    0.58720   0.58813   0.58965   0.59117   0.59159
 Alpha virt. eigenvalues --    0.59364   0.59611   0.59709   0.59778   0.59883
 Alpha virt. eigenvalues --    0.60041   0.60315   0.60408   0.60583   0.60814
 Alpha virt. eigenvalues --    0.60929   0.61002   0.61158   0.61266   0.61369
 Alpha virt. eigenvalues --    0.61529   0.61650   0.61835   0.62086   0.62115
 Alpha virt. eigenvalues --    0.62253   0.62452   0.62493   0.62684   0.62822
 Alpha virt. eigenvalues --    0.62912   0.62998   0.63114   0.63218   0.63404
 Alpha virt. eigenvalues --    0.63450   0.63533   0.63656   0.63726   0.63954
 Alpha virt. eigenvalues --    0.64078   0.64103   0.64349   0.64554   0.64583
 Alpha virt. eigenvalues --    0.64730   0.64835   0.65005   0.65065   0.65089
 Alpha virt. eigenvalues --    0.65211   0.65249   0.65272   0.65431   0.65471
 Alpha virt. eigenvalues --    0.65594   0.65850   0.66025   0.66064   0.66146
 Alpha virt. eigenvalues --    0.66188   0.66560   0.66649   0.66794   0.66931
 Alpha virt. eigenvalues --    0.67041   0.67161   0.67322   0.67398   0.67568
 Alpha virt. eigenvalues --    0.67628   0.67663   0.67758   0.67861   0.67968
 Alpha virt. eigenvalues --    0.68147   0.68191   0.68352   0.68433   0.68557
 Alpha virt. eigenvalues --    0.68672   0.68787   0.68842   0.68996   0.69089
 Alpha virt. eigenvalues --    0.69245   0.69481   0.69493   0.69626   0.69683
 Alpha virt. eigenvalues --    0.69800   0.69950   0.70113   0.70180   0.70306
 Alpha virt. eigenvalues --    0.70410   0.70480   0.70677   0.70767   0.70981
 Alpha virt. eigenvalues --    0.71125   0.71220   0.71259   0.71302   0.71427
 Alpha virt. eigenvalues --    0.71501   0.71777   0.72059   0.72230   0.72465
 Alpha virt. eigenvalues --    0.72494   0.72834   0.72941   0.73055   0.73187
 Alpha virt. eigenvalues --    0.73476   0.73774   0.73848   0.74040   0.74214
 Alpha virt. eigenvalues --    0.74320   0.74357   0.74569   0.74620   0.74934
 Alpha virt. eigenvalues --    0.75009   0.75131   0.75190   0.75261   0.75539
 Alpha virt. eigenvalues --    0.75678   0.75888   0.76317   0.76494   0.76886
 Alpha virt. eigenvalues --    0.76997   0.77126   0.77271   0.77590   0.77728
 Alpha virt. eigenvalues --    0.77965   0.77985   0.78225   0.78497   0.78582
 Alpha virt. eigenvalues --    0.78626   0.78947   0.79395   0.79986   0.80187
 Alpha virt. eigenvalues --    0.80437   0.80518   0.80842   0.80914   0.81330
 Alpha virt. eigenvalues --    0.81554   0.81679   0.81953   0.82267   0.82336
 Alpha virt. eigenvalues --    0.82971   0.83206   0.83441   0.83762   0.83995
 Alpha virt. eigenvalues --    0.84218   0.84952   0.85060   0.85395   0.85562
 Alpha virt. eigenvalues --    0.85656   0.86048   0.86136   0.86497   0.86665
 Alpha virt. eigenvalues --    0.87197   0.87333   0.87694   0.87781   0.87866
 Alpha virt. eigenvalues --    0.88371   0.88848   0.88963   0.89100   0.89276
 Alpha virt. eigenvalues --    0.89531   0.89707   0.89890   0.90369   0.90564
 Alpha virt. eigenvalues --    0.90699   0.91223   0.91338   0.91747   0.92061
 Alpha virt. eigenvalues --    0.92123   0.92453   0.93065   0.93139   0.93910
 Alpha virt. eigenvalues --    0.94055   0.94503   0.94774   0.95025   0.95078
 Alpha virt. eigenvalues --    0.95323   0.95548   0.95973   0.96297   0.96557
 Alpha virt. eigenvalues --    0.97171   0.97238   0.97451   0.97507   0.97780
 Alpha virt. eigenvalues --    0.98017   0.98076   0.98640   0.98760   0.98855
 Alpha virt. eigenvalues --    0.99150   0.99760   1.00060   1.00552   1.00900
 Alpha virt. eigenvalues --    1.01118   1.01252   1.01964   1.02092   1.02392
 Alpha virt. eigenvalues --    1.02713   1.02809   1.03222   1.03291   1.03806
 Alpha virt. eigenvalues --    1.04309   1.04354   1.04583   1.04854   1.05020
 Alpha virt. eigenvalues --    1.05493   1.05705   1.05987   1.06580   1.06649
 Alpha virt. eigenvalues --    1.06785   1.07174   1.07380   1.07736   1.07762
 Alpha virt. eigenvalues --    1.08130   1.08279   1.08798   1.08890   1.09050
 Alpha virt. eigenvalues --    1.09504   1.09549   1.09760   1.10094   1.10564
 Alpha virt. eigenvalues --    1.10977   1.11136   1.11477   1.11682   1.11800
 Alpha virt. eigenvalues --    1.12135   1.12416   1.12530   1.12841   1.13190
 Alpha virt. eigenvalues --    1.13434   1.13560   1.13896   1.14087   1.14197
 Alpha virt. eigenvalues --    1.14781   1.15057   1.15446   1.15579   1.15873
 Alpha virt. eigenvalues --    1.16025   1.16407   1.16604   1.16803   1.16863
 Alpha virt. eigenvalues --    1.17310   1.17499   1.17764   1.18124   1.18487
 Alpha virt. eigenvalues --    1.18612   1.19180   1.19536   1.19613   1.19933
 Alpha virt. eigenvalues --    1.20115   1.20370   1.20600   1.20846   1.21065
 Alpha virt. eigenvalues --    1.21270   1.21596   1.21732   1.21990   1.22193
 Alpha virt. eigenvalues --    1.22399   1.22595   1.22746   1.22926   1.23429
 Alpha virt. eigenvalues --    1.23772   1.23890   1.24043   1.24372   1.24658
 Alpha virt. eigenvalues --    1.25102   1.25710   1.25744   1.25887   1.26093
 Alpha virt. eigenvalues --    1.26335   1.26384   1.26681   1.26996   1.27240
 Alpha virt. eigenvalues --    1.27476   1.27860   1.28119   1.28154   1.28323
 Alpha virt. eigenvalues --    1.28757   1.29104   1.29307   1.29458   1.29851
 Alpha virt. eigenvalues --    1.30148   1.30213   1.30461   1.30607   1.30805
 Alpha virt. eigenvalues --    1.30957   1.31152   1.31552   1.32081   1.32301
 Alpha virt. eigenvalues --    1.32641   1.33037   1.33429   1.33709   1.34023
 Alpha virt. eigenvalues --    1.34393   1.34879   1.35172   1.35535   1.35839
 Alpha virt. eigenvalues --    1.36122   1.36446   1.36569   1.36890   1.37464
 Alpha virt. eigenvalues --    1.37528   1.37845   1.38258   1.38449   1.38573
 Alpha virt. eigenvalues --    1.38739   1.38925   1.39546   1.39633   1.39682
 Alpha virt. eigenvalues --    1.39926   1.40147   1.40569   1.40985   1.41569
 Alpha virt. eigenvalues --    1.41847   1.42527   1.42572   1.43041   1.43186
 Alpha virt. eigenvalues --    1.43551   1.43842   1.44102   1.44239   1.44435
 Alpha virt. eigenvalues --    1.44945   1.45325   1.45659   1.46040   1.46090
 Alpha virt. eigenvalues --    1.46461   1.46919   1.47088   1.47427   1.47715
 Alpha virt. eigenvalues --    1.47951   1.48020   1.48310   1.48610   1.48772
 Alpha virt. eigenvalues --    1.48962   1.49016   1.49327   1.49609   1.50334
 Alpha virt. eigenvalues --    1.50488   1.50787   1.51119   1.51297   1.51381
 Alpha virt. eigenvalues --    1.51689   1.52401   1.53022   1.53075   1.53366
 Alpha virt. eigenvalues --    1.53464   1.53813   1.54292   1.55026   1.55199
 Alpha virt. eigenvalues --    1.55382   1.55671   1.56535   1.56703   1.57180
 Alpha virt. eigenvalues --    1.57617   1.57823   1.57956   1.58307   1.58415
 Alpha virt. eigenvalues --    1.58813   1.59151   1.59245   1.59673   1.59903
 Alpha virt. eigenvalues --    1.60392   1.60784   1.61124   1.61439   1.62165
 Alpha virt. eigenvalues --    1.62294   1.62593   1.62938   1.63202   1.63662
 Alpha virt. eigenvalues --    1.64204   1.64845   1.65140   1.66056   1.66078
 Alpha virt. eigenvalues --    1.66250   1.66590   1.66756   1.67046   1.67515
 Alpha virt. eigenvalues --    1.67594   1.67671   1.68234   1.68408   1.68844
 Alpha virt. eigenvalues --    1.69280   1.69685   1.69822   1.69977   1.70484
 Alpha virt. eigenvalues --    1.70674   1.70768   1.71016   1.71147   1.71489
 Alpha virt. eigenvalues --    1.71629   1.71657   1.71868   1.72031   1.72820
 Alpha virt. eigenvalues --    1.73098   1.73292   1.73516   1.73721   1.73836
 Alpha virt. eigenvalues --    1.73918   1.74109   1.74607   1.74889   1.75189
 Alpha virt. eigenvalues --    1.75254   1.75277   1.75680   1.75838   1.75942
 Alpha virt. eigenvalues --    1.76112   1.76154   1.76241   1.76456   1.76496
 Alpha virt. eigenvalues --    1.76716   1.76737   1.76860   1.77057   1.77204
 Alpha virt. eigenvalues --    1.77389   1.77481   1.77660   1.77703   1.77870
 Alpha virt. eigenvalues --    1.78086   1.78118   1.78677   1.78959   1.79007
 Alpha virt. eigenvalues --    1.79139   1.79314   1.79679   1.79843   1.80001
 Alpha virt. eigenvalues --    1.80059   1.80208   1.80334   1.80439   1.80478
 Alpha virt. eigenvalues --    1.80752   1.80861   1.81110   1.81219   1.81439
 Alpha virt. eigenvalues --    1.81603   1.81619   1.82171   1.82343   1.82505
 Alpha virt. eigenvalues --    1.82618   1.82923   1.82939   1.83116   1.83394
 Alpha virt. eigenvalues --    1.83540   1.83688   1.83763   1.84060   1.84188
 Alpha virt. eigenvalues --    1.84252   1.84523   1.84677   1.84717   1.84802
 Alpha virt. eigenvalues --    1.85366   1.85573   1.85722   1.85946   1.86098
 Alpha virt. eigenvalues --    1.86302   1.86515   1.86635   1.87003   1.87221
 Alpha virt. eigenvalues --    1.87455   1.87562   1.87910   1.88021   1.88229
 Alpha virt. eigenvalues --    1.88738   1.88824   1.89074   1.89174   1.89404
 Alpha virt. eigenvalues --    1.89593   1.89722   1.89856   1.90070   1.90128
 Alpha virt. eigenvalues --    1.90269   1.90474   1.90598   1.90734   1.90893
 Alpha virt. eigenvalues --    1.91109   1.91302   1.91687   1.91840   1.92068
 Alpha virt. eigenvalues --    1.92302   1.92381   1.92661   1.92775   1.92861
 Alpha virt. eigenvalues --    1.93146   1.93170   1.93301   1.93615   1.93778
 Alpha virt. eigenvalues --    1.94186   1.94249   1.94451   1.94592   1.94891
 Alpha virt. eigenvalues --    1.95056   1.95071   1.95534   1.95724   1.95805
 Alpha virt. eigenvalues --    1.95966   1.96341   1.96450   1.96710   1.96843
 Alpha virt. eigenvalues --    1.96914   1.97406   1.97532   1.97636   1.97965
 Alpha virt. eigenvalues --    1.98054   1.98501   1.98605   1.98962   1.99013
 Alpha virt. eigenvalues --    1.99407   1.99788   2.00032   2.00161   2.00236
 Alpha virt. eigenvalues --    2.00363   2.00624   2.00920   2.01237   2.01460
 Alpha virt. eigenvalues --    2.01630   2.01937   2.02064   2.02527   2.02816
 Alpha virt. eigenvalues --    2.03246   2.03334   2.03907   2.04152   2.04311
 Alpha virt. eigenvalues --    2.04403   2.04572   2.04746   2.05000   2.05295
 Alpha virt. eigenvalues --    2.05663   2.05760   2.06005   2.06381   2.06641
 Alpha virt. eigenvalues --    2.06853   2.07284   2.07766   2.07901   2.08171
 Alpha virt. eigenvalues --    2.08447   2.08865   2.09189   2.09346   2.09864
 Alpha virt. eigenvalues --    2.10192   2.10459   2.10729   2.11217   2.11326
 Alpha virt. eigenvalues --    2.11570   2.11624   2.11986   2.12085   2.12582
 Alpha virt. eigenvalues --    2.12666   2.12950   2.13084   2.13342   2.14025
 Alpha virt. eigenvalues --    2.14278   2.14768   2.14948   2.15325   2.15517
 Alpha virt. eigenvalues --    2.15720   2.16159   2.16552   2.16818   2.17376
 Alpha virt. eigenvalues --    2.17415   2.17589   2.17646   2.17811   2.18503
 Alpha virt. eigenvalues --    2.18668   2.19027   2.19088   2.19446   2.20068
 Alpha virt. eigenvalues --    2.20323   2.20617   2.21261   2.21438   2.21742
 Alpha virt. eigenvalues --    2.21784   2.22147   2.22321   2.22943   2.23166
 Alpha virt. eigenvalues --    2.23473   2.23555   2.24030   2.24154   2.24499
 Alpha virt. eigenvalues --    2.25163   2.25462   2.26014   2.26183   2.26507
 Alpha virt. eigenvalues --    2.26878   2.27335   2.27523   2.27609   2.27757
 Alpha virt. eigenvalues --    2.28165   2.28855   2.29159   2.29312   2.29643
 Alpha virt. eigenvalues --    2.30159   2.30216   2.30412   2.30797   2.30859
 Alpha virt. eigenvalues --    2.31079   2.31507   2.32022   2.32353   2.32664
 Alpha virt. eigenvalues --    2.33169   2.33304   2.33421   2.33797   2.34079
 Alpha virt. eigenvalues --    2.34328   2.34828   2.34989   2.35456   2.35683
 Alpha virt. eigenvalues --    2.35763   2.36241   2.36647   2.36801   2.37081
 Alpha virt. eigenvalues --    2.37368   2.37821   2.38453   2.38569   2.38842
 Alpha virt. eigenvalues --    2.39183   2.39300   2.40377   2.40868   2.41238
 Alpha virt. eigenvalues --    2.41394   2.41846   2.41961   2.42171   2.42308
 Alpha virt. eigenvalues --    2.43068   2.43295   2.43471   2.43721   2.44010
 Alpha virt. eigenvalues --    2.44053   2.44334   2.45350   2.45635   2.46319
 Alpha virt. eigenvalues --    2.46434   2.46653   2.46846   2.47035   2.47169
 Alpha virt. eigenvalues --    2.47374   2.47565   2.47956   2.47990   2.48996
 Alpha virt. eigenvalues --    2.49257   2.50069   2.50297   2.51470   2.51560
 Alpha virt. eigenvalues --    2.51626   2.52055   2.52169   2.52563   2.53250
 Alpha virt. eigenvalues --    2.53672   2.53867   2.54101   2.54262   2.54493
 Alpha virt. eigenvalues --    2.54746   2.55076   2.55515   2.55737   2.56421
 Alpha virt. eigenvalues --    2.56589   2.56686   2.56696   2.57405   2.57565
 Alpha virt. eigenvalues --    2.57809   2.57941   2.58245   2.58407   2.59354
 Alpha virt. eigenvalues --    2.59558   2.59690   2.59949   2.60118   2.60369
 Alpha virt. eigenvalues --    2.60564   2.60683   2.61366   2.61417   2.61738
 Alpha virt. eigenvalues --    2.62126   2.62346   2.62466   2.62952   2.63337
 Alpha virt. eigenvalues --    2.63490   2.64309   2.64560   2.64931   2.65031
 Alpha virt. eigenvalues --    2.65082   2.65863   2.66327   2.66556   2.66569
 Alpha virt. eigenvalues --    2.67182   2.67211   2.67636   2.67907   2.68563
 Alpha virt. eigenvalues --    2.68611   2.69195   2.69566   2.69810   2.70139
 Alpha virt. eigenvalues --    2.70253   2.70805   2.70916   2.71524   2.71672
 Alpha virt. eigenvalues --    2.72508   2.72860   2.72919   2.73328   2.73355
 Alpha virt. eigenvalues --    2.73961   2.74212   2.74533   2.74931   2.75085
 Alpha virt. eigenvalues --    2.75160   2.75797   2.76007   2.76269   2.76363
 Alpha virt. eigenvalues --    2.76565   2.76742   2.76899   2.77339   2.77533
 Alpha virt. eigenvalues --    2.77903   2.78065   2.78270   2.78530   2.78583
 Alpha virt. eigenvalues --    2.78698   2.78933   2.79121   2.79246   2.79664
 Alpha virt. eigenvalues --    2.79972   2.80141   2.80459   2.80568   2.80966
 Alpha virt. eigenvalues --    2.81295   2.81510   2.81724   2.81775   2.82177
 Alpha virt. eigenvalues --    2.82525   2.82877   2.83302   2.83852   2.83958
 Alpha virt. eigenvalues --    2.84496   2.84804   2.85239   2.86013   2.86115
 Alpha virt. eigenvalues --    2.86574   2.86638   2.86949   2.87524   2.87729
 Alpha virt. eigenvalues --    2.87909   2.88126   2.88141   2.88428   2.88625
 Alpha virt. eigenvalues --    2.88791   2.89087   2.89332   2.89903   2.89962
 Alpha virt. eigenvalues --    2.90023   2.90368   2.91063   2.91206   2.91516
 Alpha virt. eigenvalues --    2.91699   2.92062   2.92235   2.92443   2.92630
 Alpha virt. eigenvalues --    2.93313   2.93442   2.93525   2.94283   2.94332
 Alpha virt. eigenvalues --    2.94615   2.94954   2.95163   2.95711   2.95784
 Alpha virt. eigenvalues --    2.95946   2.96208   2.96556   2.97157   2.97205
 Alpha virt. eigenvalues --    2.97485   2.97855   2.98255   2.98535   2.98729
 Alpha virt. eigenvalues --    2.98912   2.99597   2.99992   3.00336   3.00461
 Alpha virt. eigenvalues --    3.00724   3.01128   3.01361   3.01655   3.02006
 Alpha virt. eigenvalues --    3.02207   3.02972   3.03526   3.03836   3.04281
 Alpha virt. eigenvalues --    3.04360   3.04722   3.04855   3.05524   3.05541
 Alpha virt. eigenvalues --    3.06853   3.07257   3.07473   3.08676   3.08944
 Alpha virt. eigenvalues --    3.09062   3.09390   3.10152   3.10870   3.11148
 Alpha virt. eigenvalues --    3.11339   3.11996   3.12334   3.12625   3.13452
 Alpha virt. eigenvalues --    3.13510   3.13575   3.14157   3.14507   3.15009
 Alpha virt. eigenvalues --    3.15235   3.15532   3.15805   3.16073   3.16418
 Alpha virt. eigenvalues --    3.16881   3.16998   3.17238   3.17589   3.17848
 Alpha virt. eigenvalues --    3.18398   3.18558   3.18936   3.19142   3.19227
 Alpha virt. eigenvalues --    3.19506   3.19636   3.20088   3.20303   3.20981
 Alpha virt. eigenvalues --    3.21450   3.21769   3.22780   3.23566   3.23814
 Alpha virt. eigenvalues --    3.24655   3.26827   3.27098   3.27791   3.28187
 Alpha virt. eigenvalues --    3.28728   3.29424   3.30986   3.31152   3.31337
 Alpha virt. eigenvalues --    3.31978   3.33263   3.33451   3.35030   3.35452
 Alpha virt. eigenvalues --    3.36122   3.37180   3.37525   3.38031   3.38646
 Alpha virt. eigenvalues --    3.40160   3.41766   3.46856   3.48470   3.48655
 Alpha virt. eigenvalues --    3.49800   3.51463   3.52055   3.52729   3.53306
 Alpha virt. eigenvalues --    3.54242   3.55078   3.55596   3.55942   3.56576
 Alpha virt. eigenvalues --    3.58410   3.59242   3.59874   3.60730   3.61090
 Alpha virt. eigenvalues --    3.63681   3.64745   3.65424   3.66544   3.66663
 Alpha virt. eigenvalues --    3.68583   3.68661   3.68849   3.69080   3.69162
 Alpha virt. eigenvalues --    3.69593   3.69805   3.70033   3.71322   3.71985
 Alpha virt. eigenvalues --    3.72083   3.72347   3.76376   3.76981   3.77045
 Alpha virt. eigenvalues --    3.77520   3.80033   3.80406   3.81436
          Condensed to atoms (all electrons):
 Mulliken charges:
               1
     1  C    0.050449
     2  C    0.078513
     3  O   -0.397824
     4  H    0.039435
     5  H    0.028261
     6  H    0.050021
     7  N   -0.109619
     8  C    0.013482
     9  C    0.175723
    10  O   -0.352312
    11  C    0.085009
    12  C    0.041645
    13  O   -0.396096
    14  O   -0.365711
    15  H    0.138834
    16  H   -0.008215
    17  H   -0.008878
    18  H   -0.001610
    19  N   -0.111514
    20  C    0.142262
    21  C    0.022992
    22  O   -0.269829
    23  C   -0.033249
    24  C   -0.007369
    25  C   -0.041572
    26  C    0.054517
    27  N    0.106176
    28  H    0.122981
    29  H   -0.004782
    30  H    0.006406
    31  H    0.041681
    32  H    0.041190
    33  H   -0.008836
    34  H    0.012679
    35  H    0.059755
    36  H    0.051727
    37  H    0.088603
    38  H    0.165410
    39  H    0.155789
    40  H    0.185174
    41  N   -0.149587
    42  C    0.122573
    43  C    0.109759
    44  O   -0.278149
    45  C    0.057170
    46  C    0.059989
    47  O   -0.364054
    48  O   -0.384416
    49  H    0.113271
    50  H    0.014853
    51  H   -0.050205
    52  H    0.006894
    53  N   -0.164357
    54  C    0.186367
    55  C    0.058045
    56  O   -0.373384
    57  H    0.136144
    58  H    0.062339
    59  H    0.044489
    60  N   -0.078194
    61  C    0.030892
    62  C    0.108603
    63  O   -0.272780
    64  C    0.104584
    65  C   -0.025576
    66  N   -0.043550
    67  O   -0.246266
    68  H    0.130349
    69  H    0.035156
    70  H    0.040857
    71  H   -0.002452
    72  H    0.132345
    73  H    0.122821
    74  N   -0.142163
    75  C    0.185316
    76  C    0.065294
    77  O   -0.269031
    78  H    0.125076
    79  H    0.074264
    80  H    0.010364
    81  N   -0.146460
    82  C    0.095582
    83  C    0.104093
    84  O   -0.268569
    85  C    0.160030
    86  C   -0.035081
    87  C    0.025179
    88  C    0.025894
    89  C   -0.047943
    90  C   -0.055160
    91  C    0.184231
    92  O   -0.194265
    93  H    0.118724
    94  H    0.024114
    95  H   -0.037443
    96  H    0.010730
    97  H   -0.037877
    98  H   -0.056580
    99  H   -0.024985
   100  H   -0.042329
   101  H    0.173662
   102  N   -0.135462
   103  C    0.155023
   104  C    0.099097
   105  O   -0.259946
   106  C   -0.127287
   107  C   -0.043833
   108  C    0.088973
   109  C    0.038865
   110  H    0.137181
   111  H    0.027554
   112  H    0.004890
   113  H    0.005364
   114  H   -0.005884
   115  H    0.032979
   116  H   -0.016009
   117  H    0.005198
   118  H    0.007508
   119  H    0.043901
   120  H   -0.000735
   121  N   -0.148666
   122  C    0.119652
   123  C    0.046328
   124  O   -0.268656
   125  C    0.228894
   126  O   -0.305526
   127  H    0.116251
   128  H    0.046175
   129  H   -0.032290
   130  H    0.010768
   131  H    0.166383
   132  N   -0.134297
   133  C    0.102095
   134  C    0.069121
   135  O   -0.268068
   136  C    0.040154
   137  H    0.103486
   138  H    0.006638
   139  H    0.041573
   140  H    0.033240
   141  H   -0.000702
   142  N   -0.119605
   143  C    0.062347
   144  C    0.062119
   145  O   -0.275587
   146  C    0.060365
   147  H    0.122537
   148  H    0.013770
   149  H   -0.000818
   150  H    0.056058
   151  H    0.051333
   152  N   -0.122292
   153  C    0.138165
   154  C    0.060570
   155  O   -0.300097
   156  C    0.067412
   157  C    0.012147
   158  C    0.076896
   159  O   -0.473545
   160  O   -0.306010
   161  H    0.111719
   162  H    0.034270
   163  H   -0.028047
   164  H   -0.058800
   165  H   -0.001279
   166  H   -0.020356
   167  N   -0.147608
   168  C    0.135587
   169  H    0.044448
   170  H    0.022580
   171  H    0.013555
   172  H    0.100759
   173  Ca   1.418488
   174  O   -0.311419
   175  H    0.192318
   176  H    0.167596
 Sum of Mulliken charges =  -0.00000
 Mulliken charges with hydrogens summed into heavy atoms:
               1
     1  C    0.168166
     2  C    0.078513
     3  O   -0.397824
     7  N    0.029216
     8  C    0.005267
     9  C    0.175723
    10  O   -0.352312
    11  C    0.074520
    12  C    0.041645
    13  O   -0.396096
    14  O   -0.365711
    19  N    0.011466
    20  C    0.137481
    21  C    0.022992
    22  O   -0.269829
    23  C    0.014838
    24  C    0.024985
    25  C    0.030862
    26  C    0.194847
    27  N    0.612548
    41  N   -0.036316
    42  C    0.137425
    43  C    0.109759
    44  O   -0.278149
    45  C    0.013859
    46  C    0.059989
    47  O   -0.364054
    48  O   -0.384416
    53  N   -0.028213
    54  C    0.293195
    55  C    0.058045
    56  O   -0.373384
    60  N    0.052155
    61  C    0.066048
    62  C    0.108603
    63  O   -0.272780
    64  C    0.142989
    65  C   -0.025576
    66  N    0.211616
    67  O   -0.246266
    74  N   -0.017087
    75  C    0.269944
    76  C    0.065294
    77  O   -0.269031
    81  N   -0.027736
    82  C    0.119696
    83  C    0.104093
    84  O   -0.268569
    85  C    0.133317
    86  C   -0.035081
    87  C   -0.012698
    88  C   -0.030687
    89  C   -0.072928
    90  C   -0.097489
    91  C    0.184231
    92  O   -0.020603
   102  N    0.001719
   103  C    0.182577
   104  C    0.099097
   105  O   -0.259946
   106  C   -0.122397
   107  C   -0.044354
   108  C    0.111141
   109  C    0.089538
   121  N   -0.032415
   122  C    0.165827
   123  C    0.046328
   124  O   -0.268656
   125  C    0.207372
   126  O   -0.139143
   132  N   -0.030811
   133  C    0.108734
   134  C    0.069121
   135  O   -0.268068
   136  C    0.114265
   142  N    0.002932
   143  C    0.076117
   144  C    0.062119
   145  O   -0.275587
   146  C    0.166938
   152  N   -0.010573
   153  C    0.172435
   154  C    0.060570
   155  O   -0.300097
   156  C   -0.019435
   157  C   -0.009488
   158  C    0.076896
   159  O   -0.473545
   160  O   -0.306010
   167  N   -0.046849
   168  C    0.216170
   173  Ca   1.418488
   174  O    0.048495
 DipInt: DoE/N= T F RetVal/Mat= T F Init=T NMatP=  1 IDeriv=0 Min/MaxMlt=  0  4
 Entering OneElI...
 OneElI was handed  1333951383 working-precision words.
 Multipole integrals L=0 to 4 MinM= 0 MaxM= 0.
 Requested accuracy = 0.1000D-12
 ShPair: Thresh= 1.00D-13 NBox=     0 BxSize= 0.00D+00 RnKept= 2.55D+01
         NSMCal=               327645 NSMKep=              135606
 PrmmSu-InSpLW:  IPartL=    0 NPrtUS=    1 NPrtUL=    1 DoSpLW=F IThBeg=    0 IThEnd=    0 NThAct=    1.
 PrsmSu:  NPrtUS=   1 ThrOK=F IAlg=1 NPAlg=1 LenDen=           0 ISkipM=0 DoSpLW=F IThBeg=    0 IThEnd=    0.
 Prism:   IPart=     0 DynPar=F LinDyn=F Incr=         512.
 PRISM was handed  1324862433 working-precision words and135606 shell-pairs
 IPart=  0 NShTot=      135606 NBatch=         313 AvBLen=       433.2
 PrsmSu-ThDecC:  IPartSL=    0    0 NPrtUSL=    1    1 IThBeg=    0 IThEnd=    0 CPU=   -1 GPU=   -1 NThAct=    1.
 PrSmSu:  NxtVal=            513.
 Electronic moments (au):
       -716.00000000          4.91240942         -2.21363065          1.66243980
     -73734.71632346     -25954.55823189     -20081.55866842       -114.34689401
       -160.74661988         47.93959040     -88377.67435412     -55077.04062967
     -17647.22561127       3075.67851641     128275.38047000      87998.84553390
     -16130.98761960      30012.51315101       5974.12267166     -42833.81459408
  -15059178.87613913   -2429479.62332250   -1359816.88777539    1118841.18394861
     -80222.54934547    -476034.82397322      63545.09335767      17588.92942181
      -2916.88684998   -1962901.26120694   -1965795.56543846    -550224.78206489
    -525868.91972779     430789.06777623     238683.73163801
 Electronic spatial extent (au):  <R**2>=         119770.8332
 DipInt: DoE/N= F T RetVal/Mat= T F Init=T NMatP=  1 IDeriv=0 Min/MaxMlt=  0  4
 Nuclear    moments (au):
        716.00000000          0.00000000          0.00000000          0.00000000
      73432.24549455      25645.09618199      19673.82156916         -0.00000000
          0.00000000         -0.00000000      91075.97298751      55063.68222739
      17828.42374898      -1671.09299759    -131670.40375476     -90144.87999657
      16830.80349992     -30517.38930530      -6361.67449984      43772.84839353
   14823345.95087391    2363048.97367040    1293770.71324112   -1172621.05135688
      14523.51704855     467161.48388772     -56481.22987211     -26720.59264343
       6185.54936177    1938844.36204349    1924337.16433890     526463.06022173
     546412.47185884    -443239.02833433    -247994.10344770
 Total      moments (au):
         -0.00000000          4.91240942         -2.21363065          1.66243980
       -302.47082891       -309.46204990       -407.73709926       -114.34689401
       -160.74661988         47.93959040       2698.29863338        -13.35840228
        181.19813772       1404.58551881      -3395.02328476      -2146.03446267
        699.81588033       -504.87615429       -387.55182819        939.03379944
    -235832.92526522     -66430.64965210     -66046.17453427     -53779.86740828
     -65699.03229691      -8873.34008550       7063.86348556      -9131.66322163
       3268.66251180     -24056.89916345     -41458.40109956     -23761.72184316
      20543.55213105     -12449.96055810      -9310.37180969
 Traceless Quadrup. (au):
         37.41916378         30.42794279        -67.84710657       -114.34689401
       -160.74661988         47.93959040
 Charge=             -0.0000 electrons
 Dipole moment (field-independent basis, Debye):
    X=             12.4861    Y=             -5.6265    Z=              4.2255  Tot=             14.3323
 Quadrupole moment (field-independent basis, Debye-Ang):
   XX=           -406.8336   YY=           -416.2371   ZZ=           -548.4204
   XY=           -153.8005   XZ=           -216.2097   YZ=             64.4804
 Traceless Quadrupole moment (field-independent basis, Debye-Ang):
   XX=             50.3301   YY=             40.9266   ZZ=            -91.2567
   XY=           -153.8005   XZ=           -216.2097   YZ=             64.4804
 Octapole moment (field-independent basis, Debye-Ang**2):
  XXX=           1920.5450  YYY=             -9.5080  ZZZ=            128.9699  XYY=            999.7299
  XXY=          -2416.4468  XXZ=          -1527.4647  XZZ=            498.1020  YZZ=           -359.3514
  YYZ=           -275.8445  XYZ=            668.3681
 Hexadecapole moment (field-independent basis, Debye-Ang**3):
 XXXX=         -88825.9882 YYYY=         -25020.9681 ZZZZ=         -24876.1563 XXXY=         -20256.0769
 XXXZ=         -24745.4059 YYYX=          -3342.1254 YYYZ=           2660.5897 ZZZX=          -3439.4222
 ZZZY=           1231.1350 XXYY=          -9060.9818 XXZZ=         -15615.2219 YYZZ=          -8949.8039
 XXYZ=           7737.6868 YYXZ=          -4689.2521 ZZXY=          -3506.7325
 N-N= 1.989323321619D+04 E-N=-5.226477099328D+04  KE= 5.290285320648D+03
 Leave Link  601 at Wed Sep 18 19:36:07 2019, MaxMem=  1342177280 cpu:              56.6 elap:               1.4
 FitSet:  NAtFit=   176 NAtPot=   176 NAtFrz=     0 MDM=   180 TotChg=   0.00000
 Merz-Kollman atomic radii used.
 Read replacement radii for each type of atom:
 Rad(20) =   1.700000000000D+00
 Atom Element Radius
    1     6    1.50
    2     6    1.50
    3     8    1.40
    4     1    1.20
    5     1    1.20
    6     1    1.20
    7     7    1.50
    8     6    1.50
    9     6    1.50
   10     8    1.40
   11     6    1.50
   12     6    1.50
   13     8    1.40
   14     8    1.40
   15     1    1.20
   16     1    1.20
   17     1    1.20
   18     1    1.20
   19     7    1.50
   20     6    1.50
   21     6    1.50
   22     8    1.40
   23     6    1.50
   24     6    1.50
   25     6    1.50
   26     6    1.50
   27     7    1.50
   28     1    1.20
   29     1    1.20
   30     1    1.20
   31     1    1.20
   32     1    1.20
   33     1    1.20
   34     1    1.20
   35     1    1.20
   36     1    1.20
   37     1    1.20
   38     1    1.20
   39     1    1.20
   40     1    1.20
   41     7    1.50
   42     6    1.50
   43     6    1.50
   44     8    1.40
   45     6    1.50
   46     6    1.50
   47     8    1.40
   48     8    1.40
   49     1    1.20
   50     1    1.20
   51     1    1.20
   52     1    1.20
   53     7    1.50
   54     6    1.50
   55     6    1.50
   56     8    1.40
   57     1    1.20
   58     1    1.20
   59     1    1.20
   60     7    1.50
   61     6    1.50
   62     6    1.50
   63     8    1.40
   64     6    1.50
   65     6    1.50
   66     7    1.50
   67     8    1.40
   68     1    1.20
   69     1    1.20
   70     1    1.20
   71     1    1.20
   72     1    1.20
   73     1    1.20
   74     7    1.50
   75     6    1.50
   76     6    1.50
   77     8    1.40
   78     1    1.20
   79     1    1.20
   80     1    1.20
   81     7    1.50
   82     6    1.50
   83     6    1.50
   84     8    1.40
   85     6    1.50
   86     6    1.50
   87     6    1.50
   88     6    1.50
   89     6    1.50
   90     6    1.50
   91     6    1.50
   92     8    1.40
   93     1    1.20
   94     1    1.20
   95     1    1.20
   96     1    1.20
   97     1    1.20
   98     1    1.20
   99     1    1.20
  100     1    1.20
  101     1    1.20
  102     7    1.50
  103     6    1.50
  104     6    1.50
  105     8    1.40
[...]
 **** Fit       0.004825
 **** Fit       0.002634
 **** Fit       0.003638
 **** Fit       0.006422
 **** Fit       0.004830
 **** Fit       0.003478
 **** Fit       0.002639
 **** Fit       0.000409
 **** Fit       0.001245
 **** Fit       0.006404
 **** Fit       0.004824
 **** Fit       0.003340
 **** Fit       0.002013
 **** Fit       0.000959
 **** Fit       0.000358
 **** Fit      -0.002368
 **** Fit      -0.001589
 **** Fit       0.006857
 **** Fit       0.005175
 **** Fit       0.003567
 **** Fit       0.002025
 **** Fit       0.000569
 **** Fit      -0.000736
 **** Fit      -0.001777
 **** Fit      -0.002384
 **** Fit      -0.005971
 **** Fit      -0.005223
 **** Fit      -0.003565
 **** Fit       0.006071
 **** Fit       0.004271
 **** Fit       0.002536
 **** Fit       0.000839
 **** Fit      -0.000822
 **** Fit      -0.002421
 **** Fit      -0.003889
 **** Fit      -0.005101
 **** Fit      -0.005870
 **** Fit      -0.010811
 **** Fit      -0.010174
 **** Fit      -0.008432
 **** Fit       0.005090
 **** Fit       0.003164
 **** Fit       0.001287
 **** Fit      -0.000574
 **** Fit      -0.002436
 **** Fit      -0.004300
 **** Fit      -0.006140
 **** Fit      -0.007885
 **** Fit      -0.009400
 **** Fit      -0.010468
 **** Fit       0.005317
 **** Fit       0.003066
 **** Fit       0.000884
 **** Fit      -0.001281
 **** Fit      -0.003464
 **** Fit      -0.005690
 **** Fit      -0.007978
 **** Fit      -0.010324
 **** Fit      -0.012671
 **** Fit      -0.014868
 **** Fit      -0.016631
 **** Fit       0.003011
 **** Fit       0.000487
 **** Fit      -0.002009
 **** Fit      -0.004521
 **** Fit      -0.007091
 **** Fit      -0.009769
 **** Fit      -0.012607
 **** Fit      -0.015649
 **** Fit      -0.018882
 **** Fit       0.000960
 **** Fit      -0.001989
 **** Fit      -0.004932
 **** Fit      -0.007915
 **** Fit      -0.011000
 **** Fit      -0.014278
 **** Fit      -0.017875
 **** Fit      -0.021934
 **** Fit      -0.003177
 **** Fit      -0.006802
 **** Fit      -0.010467
 **** Fit      -0.014249
 **** Fit      -0.018296
 **** Fit      -0.022857
 **** Fit      -0.007649
 **** Fit      -0.012193
 **** Fit      -0.016821
 **** Fit      -0.021712
 **** Fit      -0.019130
 **** Fit      -0.024826
 **** Fit       0.008851
 **** Fit       0.007693
 **** Fit       0.008454
 **** Fit       0.009453
 **** Fit       0.006407
 **** Fit       0.007162
 **** Fit       0.008213
 **** Fit       0.009204
 **** Fit       0.010022
 **** Fit       0.010643
 **** Fit       0.004915
 **** Fit       0.005829
 **** Fit       0.006973
 **** Fit       0.008065
 **** Fit       0.009023
 **** Fit       0.009849
 **** Fit       0.010558
 **** Fit       0.011171
 **** Fit       0.011712
 **** Fit       0.003106
 **** Fit       0.004356
 **** Fit       0.005763
 **** Fit       0.007041
 **** Fit       0.008124
 **** Fit       0.009056
 **** Fit       0.009881
 **** Fit       0.010619
 **** Fit       0.011285
 **** Fit       0.011903
 **** Fit       0.012508
 **** Fit       0.000821
 **** Fit       0.002628
 **** Fit       0.004488
 **** Fit       0.006067
 **** Fit       0.007316
 **** Fit       0.008338
 **** Fit       0.009241
 **** Fit       0.010076
 **** Fit       0.010853
 **** Fit       0.011573
 **** Fit       0.012254
 **** Fit       0.012930
 **** Fit       0.000443
 **** Fit       0.002961
 **** Fit       0.004980
 **** Fit       0.006461
 **** Fit       0.007571
 **** Fit       0.008508
 **** Fit       0.009389
 **** Fit       0.010242
 **** Fit       0.011062
 **** Fit       0.011843
 **** Fit       0.012593
 **** Fit       0.013335
 **** Fit       0.014115
 **** Fit      -0.002217
 **** Fit       0.001431
 **** Fit       0.004141
 **** Fit       0.005951
 **** Fit       0.007175
 **** Fit       0.008151
 **** Fit       0.009076
 **** Fit       0.010000
 **** Fit       0.010913
 **** Fit       0.011806
 **** Fit       0.012681
 **** Fit       0.013549
 **** Fit       0.014435
 **** Fit      -0.000502
 **** Fit       0.003223
 **** Fit       0.005539
 **** Fit       0.006967
 **** Fit       0.008017
 **** Fit       0.008980
 **** Fit       0.009928
 **** Fit       0.010858
 **** Fit       0.011787
 **** Fit       0.012739
 **** Fit       0.013720
 **** Fit       0.014732
 **** Fit       0.015797
 **** Fit       0.002395
 **** Fit       0.005450
 **** Fit       0.007262
 **** Fit       0.008563
 **** Fit       0.009686
 **** Fit       0.010650
 **** Fit       0.011476
 **** Fit       0.012301
 **** Fit       0.013235
 **** Fit       0.014299
 **** Fit       0.015465
 **** Fit       0.016721
 **** Fit       0.006031
 **** Fit       0.013750
 **** Fit       0.014683
 **** Fit       0.015935
 **** Fit       0.017411
 **** Fit       0.015780
 **** Fit       0.017002
 **** Fit       0.013190
 **** Fit       0.012973
 **** Fit       0.012441
 **** Fit       0.011698
 **** Fit       0.013853
 **** Fit       0.013847
 **** Fit       0.013638
 **** Fit       0.013183
 **** Fit       0.012497
 **** Fit       0.011662
 **** Fit       0.014585
 **** Fit       0.014641
 **** Fit       0.014535
 **** Fit       0.014225
 **** Fit       0.013693
 **** Fit       0.012949
 **** Fit       0.012037
 **** Fit       0.011057
 **** Fit       0.015320
 **** Fit       0.015477
 **** Fit       0.015518
 **** Fit       0.015400
 **** Fit       0.015093
 **** Fit       0.014581
 **** Fit       0.013855
 **** Fit       0.012930
 **** Fit       0.011851
 **** Fit       0.010709
 **** Fit       0.016161
 **** Fit       0.016372
 **** Fit       0.016502
 **** Fit       0.016509
 **** Fit       0.016369
 **** Fit       0.016062
 **** Fit       0.015570
 **** Fit       0.014880
 **** Fit       0.013986
 **** Fit       0.012902
 **** Fit       0.011669
 **** Fit       0.010369
 **** Fit       0.017377
 **** Fit       0.017578
 **** Fit       0.017676
 **** Fit       0.017645
 **** Fit       0.017472
 **** Fit       0.017139
 **** Fit       0.016625
 **** Fit       0.015910
 **** Fit       0.014976
 **** Fit       0.013820
 **** Fit       0.012462
 **** Fit       0.010954
 **** Fit       0.009399
 **** Fit       0.018885
 **** Fit       0.019031
 **** Fit       0.019061
 **** Fit       0.018969
 **** Fit       0.018746
 **** Fit       0.018380
 **** Fit       0.017845
 **** Fit       0.017115
 **** Fit       0.016161
 **** Fit       0.014965
 **** Fit       0.013526
 **** Fit       0.011870
 **** Fit       0.010060
 **** Fit       0.020668
 **** Fit       0.020788
 **** Fit       0.020785
 **** Fit       0.020664
 **** Fit       0.020429
 **** Fit       0.020073
 **** Fit       0.019576
 **** Fit       0.018903
 **** Fit       0.018015
 **** Fit       0.016874
 **** Fit       0.015455
 **** Fit       0.013748
 **** Fit       0.011775
 **** Fit       0.009597
 **** Fit       0.023107
 **** Fit       0.023049
 **** Fit       0.022856
 **** Fit       0.022551
 **** Fit       0.022143
 **** Fit       0.021614
 **** Fit       0.020928
 **** Fit       0.020028
 **** Fit       0.018855
 **** Fit       0.017355
 **** Fit       0.015489
 **** Fit       0.013247
 **** Fit       0.010655
 **** Fit       0.026034
 **** Fit       0.025626
 **** Fit       0.025111
 **** Fit       0.024511
 **** Fit       0.023807
 **** Fit       0.022942
 **** Fit       0.021835
 **** Fit       0.020392
 **** Fit       0.018526
 **** Fit       0.016170
 **** Fit       0.013287
 **** Fit       0.030132
 **** Fit       0.029342
 **** Fit       0.028469
 **** Fit       0.027552
 **** Fit       0.026566
 **** Fit       0.025432
 **** Fit       0.024030
 **** Fit       0.022226
 **** Fit       0.019887
 **** Fit       0.016898
 **** Fit       0.031585
 **** Fit       0.030014
 **** Fit       0.028314
 **** Fit       0.026277
 **** Fit       0.023668
 **** Fit       0.029507
 **** Fit       0.030586
 **** Fit       0.031357
 **** Fit       0.027924
 **** Fit       0.029473
 **** Fit       0.030643
 **** Fit       0.031469
 **** Fit       0.032006
 **** Fit       0.032275
 **** Fit       0.032235
 **** Fit       0.031771
 **** Fit       0.030713
 **** Fit       0.028782
 **** Fit       0.030320
 **** Fit       0.031475
 **** Fit       0.032274
 **** Fit       0.032792
 **** Fit       0.033089
 **** Fit       0.033174
 **** Fit       0.032980
 **** Fit       0.032374
 **** Fit       0.031177
 **** Fit       0.029178
 **** Fit       0.031112
 **** Fit       0.032384
 **** Fit       0.033273
 **** Fit       0.033844
 **** Fit       0.034195
 **** Fit       0.034380
 **** Fit       0.034370
 **** Fit       0.034058
 **** Fit       0.033284
 **** Fit       0.031849
 **** Fit       0.029519
 **** Fit       0.033871
 **** Fit       0.034763
 **** Fit       0.035325
 **** Fit       0.035664
 **** Fit       0.035835
 **** Fit       0.035785
 **** Fit       0.035389
 **** Fit       0.035385
 **** Fit       0.036348
 **** Fit       0.036967
 **** Fit       0.037313
 **** Fit       0.037385
 **** Fit       0.040133
 **** Fit       0.046275
 **** Fit       0.040619
 **** Fit       0.045300
 **** Fit       0.049448
 **** Fit       0.036830
 **** Fit       0.041071
 **** Fit       0.044726
 **** Fit       0.047659
 **** Fit       0.049862
 **** Fit       0.036788
 **** Fit       0.040327
 **** Fit       0.043269
 **** Fit       0.045388
 **** Fit       0.046577
 **** Fit       0.046805
 **** Fit       0.035295
 **** Fit       0.038519
 **** Fit       0.041018
 **** Fit       0.042586
 **** Fit       0.043179
 **** Fit       0.042729
 **** Fit       0.041219
 **** Fit       0.038862
 **** Fit      -0.010347
 **** Fit       0.038842
 **** Fit       0.039489
 **** Fit       0.039105
 **** Fit       0.037596
 **** Fit       0.034935
 **** Fit       0.031339
 **** Fit       0.027126
 **** Fit       0.022460
 **** Fit      -0.013719
 **** Fit      -0.010355
 **** Fit      -0.008289
 **** Fit       0.033974
 **** Fit       0.031409
 **** Fit       0.027672
 **** Fit       0.023076
 **** Fit       0.017940
 **** Fit       0.012413
 **** Fit      -0.023374
 **** Fit      -0.017667
 **** Fit      -0.012985
 **** Fit      -0.009580
 **** Fit      -0.007590
 **** Fit      -0.007055
 **** Fit       0.026811
 **** Fit       0.022513
 **** Fit       0.017298
 **** Fit       0.011675
 **** Fit       0.005845
 **** Fit      -0.033556
 **** Fit      -0.026046
 **** Fit      -0.019633
 **** Fit      -0.014547
 **** Fit      -0.010903
 **** Fit      -0.008756
 **** Fit      -0.008124
 **** Fit      -0.008955
 **** Fit       0.017191
 **** Fit      -0.007211
 **** Fit      -0.037981
 **** Fit      -0.029693
 **** Fit      -0.022882
 **** Fit      -0.017597
 **** Fit      -0.013857
 **** Fit      -0.011687
 **** Fit      -0.011138
 **** Fit      -0.039510
 **** Fit      -0.031284
 **** Fit      -0.024872
 **** Fit      -0.020193
 **** Fit      -0.017240
 **** Fit      -0.016109
 **** Fit      -0.042100
 **** Fit      -0.034565
 **** Fit      -0.028944
 **** Fit      -0.025148
 **** Fit      -0.023284
 **** Fit      -0.058333
 **** Fit      -0.048942
 **** Fit      -0.041815
 **** Fit      -0.036630
 **** Fit      -0.033355
 **** Fit      -0.066715
 **** Fit      -0.058209
 **** Fit      -0.051762
 **** Fit      -0.047036
 **** Fit       0.009682
 **** Fit       0.009052
 **** Fit       0.009523
 **** Fit       0.005196
 **** Fit       0.005222
 **** Fit       0.007807
 **** Fit      -0.000213
 **** Fit       0.001034
 **** Fit       0.003608
 **** Fit       0.006003
 **** Fit       0.011403
 **** Fit      -0.004277
 **** Fit      -0.002806
 **** Fit      -0.000911
 **** Fit       0.001887
 **** Fit       0.003480
 **** Fit       0.008852
 **** Fit      -0.007713
 **** Fit      -0.006256
 **** Fit      -0.004816
 **** Fit      -0.003022
 **** Fit      -0.000430
 **** Fit       0.012382
 **** Fit      -0.011005
 **** Fit      -0.009504
 **** Fit      -0.008348
 **** Fit      -0.007270
 **** Fit      -0.006014
 **** Fit      -0.014280
 **** Fit      -0.012530
 **** Fit      -0.011444
 **** Fit      -0.010816
 **** Fit      -0.017199
 **** Fit      -0.015126
 **** Fit      -0.013961
 **** Fit      -0.013566
 **** Fit      -0.017668
 **** Fit      -0.016038
 **** Fit      -0.015424
 **** Fit      -0.021360
 **** Fit      -0.018432
 **** Fit      -0.016693
 **** Fit      -0.016296
 **** Fit      -0.026091
 **** Fit      -0.021579
 **** Fit      -0.018306
 **** Fit      -0.016182
 **** Fit      -0.027098
 **** Fit      -0.021916
 **** Fit      -0.017644
 **** Fit      -0.014320
 **** Fit      -0.029281
 **** Fit      -0.022916
 **** Fit      -0.016946
 **** Fit      -0.038860
 **** Fit      -0.031753
 **** Fit      -0.024059
 **** Fit      -0.039543
 **** Fit      -0.030545
 **** Fit       0.000078
 **** Fit       0.004230
 **** Fit      -0.003736
 **** Fit       0.008605
 **** Fit      -0.007167
 **** Fit      -0.010220
 **** Fit      -0.013728
 **** Fit      -0.017772
 **** Fit      -0.013413
 **** Fit      -0.021538
 **** Fit      -0.016823
 **** Fit      -0.021487
 **** Fit      -0.026747
 **** Fit      -0.026861
 **** Fit      -0.029172
 **** Fit       0.016934
 **** Fit       0.017025
 **** Fit       0.019372
 **** Fit       0.018815
 **** Fit       0.016474
 **** Fit       0.014252
 **** Fit       0.014317
 **** Fit       0.016739
 **** Fit       0.020016
 **** Fit       0.021698
 **** Fit       0.021399
 **** Fit       0.019848
 **** Fit       0.017952
 **** Fit       0.015657
 **** Fit       0.013057
 **** Fit       0.013240
 **** Fit       0.016032
 **** Fit       0.019968
 **** Fit       0.022808
 **** Fit       0.024046
 **** Fit       0.023599
 **** Fit       0.021879
 **** Fit       0.019837
 **** Fit       0.018233
 **** Fit       0.016737
 **** Fit       0.014538
 **** Fit       0.011573
 **** Fit       0.014745
 **** Fit       0.019631
 **** Fit       0.023493
 **** Fit       0.025858
 **** Fit       0.026555
 **** Fit       0.025574
 **** Fit       0.023162
 **** Fit       0.020169
 **** Fit       0.017911
 **** Fit       0.016904
 **** Fit       0.016226
 **** Fit       0.014617
 **** Fit       0.011480
 **** Fit       0.018859
 **** Fit       0.024059
 **** Fit       0.027547
 **** Fit       0.029228
 **** Fit       0.029118
 **** Fit       0.027206
 **** Fit       0.023602
 **** Fit       0.015157
 **** Fit       0.015270
 **** Fit       0.013638
 **** Fit       0.024277
 **** Fit       0.029232
 **** Fit       0.032002
 **** Fit       0.032820
 **** Fit       0.031823
 **** Fit       0.028955
 **** Fit       0.014357
 **** Fit       0.014846
 **** Fit       0.012951
 **** Fit       0.032262
 **** Fit       0.036006
 **** Fit       0.037199
 **** Fit       0.036329
 **** Fit       0.033530
 **** Fit       0.028588
 **** Fit       0.012654
 **** Fit       0.041941
 **** Fit       0.043270
 **** Fit       0.042220
 **** Fit       0.039298
 **** Fit       0.034536
 **** Fit       0.050069
 **** Fit       0.046017
 **** Fit       0.040509
 **** Fit       0.044941
 **** Fit       0.036402
 **** Fit       0.037017
 **** Fit       0.025217
 -----------------------------------------------------------------
 Leave Link  602 at Wed Sep 18 19:36:10 2019, MaxMem=  1342177280 cpu:             123.5 elap:               2.6

 Test job not archived.
 1\1\GINC-C506-103\SP\RB3LYP\SVP\C54H83Ca1N15O23\PENGZHI\18-Sep-2019\0\
 \#b3lyp/svp scf=(tight,noincore) Test #IOP(5/87=12) Density=Current Po
 p=(MK,readradii) iop(6/33=2) iop(6/42=6)\\Ng-31_loop3_42.0\\0,1\C,0,-3
 .229,68.84,24.77\C,0,-1.799,68.32,24.85\O,0,-1.589,67.12,25.02\H,0,-3.
 872,68.233,25.407\H,0,-3.259,69.876,25.107\H,0,-3.58,68.782,23.74\N,0,
 -0.849,69.24,24.7\C,0,0.581,68.96,24.63\C,0,1.201,68.61,25.97\O,0,1.07
 1,67.49,26.47\C,0,1.311,70.01,23.8\C,0,0.991,71.45,24.17\O,0,1.581,71.
 97,25.15\O,0,0.251,72.09,23.39\H,0,-1.049,70.23,24.63\H,0,0.661,68.14,
 23.92\H,0,1.041,70.01,22.74\H,0,2.351,69.71,23.98\N,0,1.801,69.63,26.5
 9\C,0,2.751,69.37,27.65\C,0,4.061,68.67,27.32\O,0,4.961,69.11,26.62\C,
 0,3.081,70.71,28.31\C,0,3.801,70.57,29.65\C,0,4.141,71.95,30.19\C,0,5.
 011,71.92,31.44\N,0,4.301,71.43,32.63\H,0,1.771,70.59,26.28\H,0,2.171,
 68.81,28.39\H,0,2.181,71.32,28.44\H,0,3.631,71.32,27.59\H,0,4.701,69.9
 6,29.56\H,0,3.061,70.08,30.29\H,0,3.201,72.46,30.41\H,0,4.621,72.48,29
 .37\H,0,5.291,72.95,31.63\H,0,5.951,71.41,31.2\H,0,4.871,71.49,33.46\H
 ,0,3.541,72.07,32.79\H,0,3.931,70.5,32.47\N,0,4.131,67.47,27.92\C,0,5.
 281,66.61,27.81\C,0,5.151,65.64,26.64\O,0,6.011,64.77,26.53\C,0,5.461,
 65.78,29.08\C,0,4.341,64.86,29.54\O,0,4.651,64.03,30.42\O,0,3.161,65.,
 29.14\H,0,3.321,67.17,28.45\H,0,6.191,67.18,27.58\H,0,5.631,66.42,29.9
 4\H,0,6.411,65.24,29.01\N,0,4.311,66.02,25.67\C,0,4.411,65.34,24.4\C,0
 ,3.331,65.72,23.4\O,0,2.271,66.16,23.85\H,0,3.761,66.86,25.73\H,0,4.17
 1,64.3,24.59\H,0,5.461,65.41,24.08\N,0,3.531,65.73,22.08\C,0,4.561,65.
 02,21.35\C,0,4.051,64.13,20.23\O,0,3.351,64.57,19.32\C,0,5.571,66.04,2
 0.82\C,0,6.701,65.34,20.08\N,0,6.631,65.44,18.76\O,0,7.561,64.71,20.68
 \H,0,2.891,66.27,21.53\H,0,5.161,64.43,22.04\H,0,6.071,66.52,21.67\H,0
 ,5.071,66.79,20.21\H,0,6.091,66.16,18.29\H,0,7.341,64.99,18.2\N,0,4.57
 1,62.9,20.12\C,0,5.211,62.07,21.12\C,0,4.191,61.31,21.95\O,0,3.501,61.
 88,22.78\H,0,4.461,62.51,19.2\H,0,5.761,62.67,21.85\H,0,5.891,61.42,20
 .57\N,0,4.231,59.97,21.87\C,0,3.551,59.01,22.7\C,0,4.561,58.02,23.28\O
 ,0,5.411,57.52,22.56\C,0,2.521,58.31,21.82\C,0,1.451,59.24,21.29\C,0,0
 .171,59.27,21.86\C,0,1.731,60.07,20.2\C,0,-0.819,60.12,21.35\C,0,0.721
 ,60.9,19.69\C,0,-0.559,60.97,20.26\O,0,-1.439,61.93,19.86\H,0,4.881,59
 .52,21.24\H,0,3.001,59.52,23.49\H,0,2.001,57.59,22.45\H,0,2.961,57.71,
 21.03\H,0,-0.029,58.66,22.73\H,0,2.681,60.12,19.69\H,0,-1.759,60.16,21
 .9\H,0,0.951,61.63,18.93\H,0,-1.139,62.4,19.09\N,0,4.381,57.67,24.55\C
 ,0,5.061,56.53,25.15\C,0,4.341,55.19,25.02\O,0,5.001,54.17,25.21\C,0,5
 .391,56.82,26.61\C,0,4.171,56.69,27.5\C,0,6.501,55.89,27.09\C,0,4.421,
 57.27,28.89\H,0,3.661,58.11,25.09\H,0,6.071,56.5,24.74\H,0,5.771,57.83
 ,26.74\H,0,3.751,55.7,27.66\H,0,3.381,57.29,27.04\H,0,6.131,54.87,27.1
 2\H,0,7.331,55.96,26.38\H,0,6.961,56.32,27.98\H,0,5.111,56.68,29.49\H,
 0,4.671,58.32,28.71\H,0,3.481,57.17,29.44\N,0,3.031,55.19,24.76\C,0,2.
 271,53.97,24.59\C,0,1.341,53.68,25.75\O,0,0.741,52.63,25.95\C,0,1.441,
 53.97,23.31\O,0,2.231,54.05,22.14\H,0,2.611,56.08,24.55\H,0,2.971,53.1
 3,24.57\H,0,0.701,54.78,23.32\H,0,0.921,53.03,23.17\H,0,1.701,53.81,21
 .38\N,0,1.081,54.73,26.54\C,0,0.101,54.9,27.59\C,0,-0.199,56.35,27.95\
 O,0,0.531,57.29,27.63\C,0,0.631,54.19,28.84\H,0,1.471,55.59,26.17\H,0,
 -0.819,54.45,27.21\H,0,0.651,53.11,28.71\H,0,1.611,54.6,29.09\H,0,0.07
 1,54.21,29.78\N,0,-1.339,56.53,28.62\C,0,-1.879,57.71,29.26\C,0,-2.139
 ,58.91,28.36\O,0,-2.669,59.91,28.82\C,0,-1.209,58.12,30.57\H,0,-1.889,
 55.71,28.82\H,0,-2.889,57.42,29.56\H,0,-1.249,57.23,31.21\H,0,-0.169,5
 8.38,30.35\H,0,-1.719,58.98,31.01\N,0,-1.679,59.04,27.11\C,0,-1.919,60
 .2,26.28\C,0,-3.359,60.33,25.8\O,0,-3.869,61.45,25.76\C,0,-0.929,60.18
 ,25.13\C,0,0.531,60.24,25.59\C,0,0.971,61.49,26.35\O,0,0.381,62.57,26.
 14\O,0,1.881,61.43,27.2\H,0,-1.089,58.3,26.75\H,0,-1.769,61.13,26.83\H
 ,0,-1.089,61.05,24.49\H,0,-1.019,59.27,24.55\H,0,1.241,60.22,24.77\H,0
 ,0.801,59.33,26.11\N,0,-4.009,59.22,25.44\C,0,-5.339,59.17,24.86\H,0,-
 5.998,59.846,25.404\H,0,-5.292,59.473,23.814\H,0,-5.727,58.154,24.927\
 H,0,-3.469,58.37,25.49\Ca,0,0.13,65.14,25.21\O,0,-2.159,63.95,24.77\H,
 0,-2.799,63.3,25.06\H,0,-2.219,63.94,23.82\\Version=ES64L-G16RevA.03\S
 tate=1-A\HF=-5333.3907474\RMSD=3.069e-10\Dipole=-1.9847485,5.0264806,1
 .6096271\Quadrupole=-67.2082347,-7.8043345,75.0125692,101.6558352,13.9
 112141,170.4339558\PG=C01 [X(C54H83Ca1N15O23)]\\@


 TOM, TOM, THE BURGLAR'S SON
 STOLE A MACHINE AND AWAY HE RUN
 THE JOB WAS NEAT, BUT TOM GOT BEAT
 BY THE TIME HE GOT HOME IT WAS OBSOLETE.
 Job cpu time:       0 days 13 hours 42 minutes 38.8 seconds.
 Elapsed time:       0 days  0 hours 17 minutes 21.8 seconds.
 File lengths (MBytes):  RWF=   1517 Int=      0 D2E=      0 Chk=    171 Scr=      1
 Normal termination of Gaussian 16 at Wed Sep 18 19:36:11 2019.
