 Entering Gaussian System, Link 0=g16
 Initial command:
 /home1/apps/gaussian/16rA.03/g16/l1.exe "/scratch/01990/pengzhi/4356756/Gau-164492.inp" -scrdir="/scratch/01990/pengzhi/4356756/"
 Entering Link 1 = /home1/apps/gaussian/16rA.03/g16/l1.exe PID=    164493.
  
 Copyright (c) 1988,1990,1992,1993,1995,1998,2003,2009,2016,
            Gaussian, Inc.  All Rights Reserved.
  
 This is part of the Gaussian(R) 16 program.  It is based on
 the Gaussian(R) 09 system (copyright 2009, Gaussian, Inc.),
 the Gaussian(R) 03 system (copyright 2003, Gaussian, Inc.),
 the Gaussian(R) 98 system (copyright 1998, Gaussian, Inc.),
 the Gaussian(R) 94 system (copyright 1995, Gaussian, Inc.),
 the Gaussian 92(TM) system (copyright 1992, Gaussian, Inc.),
 the Gaussian 90(TM) system (copyright 1990, Gaussian, Inc.),
 the Gaussian 88(TM) system (copyright 1988, Gaussian, Inc.),
 the Gaussian 86(TM) system (copyright 1986, Carnegie Mellon
 University), and the Gaussian 82(TM) system (copyright 1983,
 Carnegie Mellon University). Gaussian is a federally registered
 trademark of Gaussian, Inc.
  
 This software contains proprietary and confidential information,
 including trade secrets, belonging to Gaussian, Inc.
  
 This software is provided under written license and may be
 used, copied, transmitted, or stored only in accord with that
 written license.
  
 The following legend is applicable only to US Government
 contracts under FAR:
  
                    RESTRICTED RIGHTS LEGEND
  
 Use, reproduction and disclosure by the US Government is
 subject to restrictions as set forth in subparagraphs (a)
 and (c) of the Commercial Computer Software - Restricted
 Rights clause in FAR 52.227-19.
  
 Gaussian, Inc.
 340 Quinnipiac St., Bldg. 40, Wallingford CT 06492
  
  
 ---------------------------------------------------------------
 Warning -- This program may not be used in any manner that
 competes with the business of Gaussian, Inc. or will provide
 assistance to any competitor of Gaussian, Inc.  The licensee
 of this program is prohibited from giving any competitor of
 Gaussian, Inc. access to this program.  By using this program,
 the user acknowledges that Gaussian, Inc. is engaged in the
 business of creating and licensing software in the field of
 computational chemistry and represents and warrants to the
 licensee that it is not a competitor of Gaussian, Inc. and that
 it will not use this program in any manner prohibited above.
 ---------------------------------------------------------------
  

 Cite this work as:
 Gaussian 16, Revision A.03,
 M. J. Frisch, G. W. Trucks, H. B. Schlegel, G. E. Scuseria, 
 M. A. Robb, J. R. Cheeseman, G. Scalmani, V. Barone, 
 G. A. Petersson, H. Nakatsuji, X. Li, M. Caricato, A. V. Marenich, 
 J. Bloino, B. G. Janesko, R. Gomperts, B. Mennucci, H. P. Hratchian, 
 J. V. Ortiz, A. F. Izmaylov, J. L. Sonnenberg, D. Williams-Young, 
 F. Ding, F. Lipparini, F. Egidi, J. Goings, B. Peng, A. Petrone, 
 T. Henderson, D. Ranasinghe, V. G. Zakrzewski, J. Gao, N. Rega, 
 G. Zheng, W. Liang, M. Hada, M. Ehara, K. Toyota, R. Fukuda, 
 J. Hasegawa, M. Ishida, T. Nakajima, Y. Honda, O. Kitao, H. Nakai, 
 T. Vreven, K. Throssell, J. A. Montgomery, Jr., J. E. Peralta, 
 F. Ogliaro, M. J. Bearpark, J. J. Heyd, E. N. Brothers, K. N. Kudin, 
 V. N. Staroverov, T. A. Keith, R. Kobayashi, J. Normand, 
 K. Raghavachari, A. P. Rendell, J. C. Burant, S. S. Iyengar, 
 J. Tomasi, M. Cossi, J. M. Millam, M. Klene, C. Adamo, R. Cammi, 
 J. W. Ochterski, R. L. Martin, K. Morokuma, O. Farkas, 
 J. B. Foresman, and D. J. Fox, Gaussian, Inc., Wallingford CT, 2016.
 
 ******************************************
 Gaussian 16:  ES64L-G16RevA.03 25-Dec-2016
                18-Sep-2019 
 ******************************************
 %chk=Ng-31_loop3_37.0.chk
 %nprocshared=48
 Will use up to   48 processors via shared memory.
 %mem=10GB
 %nosave
 ----------------------------------------------------------------------
 #b3lyp/svp scf=(tight,noincore) Test #IOP(5/87=12) Density=Current Pop
 =(MK,readradii) iop(6/33=2) iop(6/42=6)
 ----------------------------------------------------------------------
 1/30=1,38=1,172=1/1;
 2/12=2,17=6,18=5,40=1/2;
 3/5=18,7=101,11=2,25=1,30=1,74=-5/1,2,3;
 4//1;
 5/5=4,32=2,38=5,87=12/2;
 6/7=2,8=2,9=2,10=2,15=8,20=101,22=-1,28=1,33=2,42=6/1,2;
 99/5=1,9=1/99;
 ----------------
 Ng-31_loop3_37.0
 ----------------
 Symbolic Z-matrix:
 Charge =  0 Multiplicity = 1
 C                     63.89     65.76     32.79 
 C                     64.31     65.36     34.2 
 O                     63.44     64.86     34.9 
 H                     63.038    66.437    32.844 
 H                     64.72     66.26     32.291 
 H                     63.611    64.869    32.227 
 N                     65.59     65.49     34.55 
 C                     66.31     64.96     35.7 
 C                     65.72     65.3      37.06 
 O                     65.83     64.49     37.97 
 C                     67.77     65.39     35.66 
 C                     68.15     66.84     35.37 
 O                     68.21     67.1      34.15 
 O                     68.18     67.67     36.3 
 H                     66.23     65.74     33.81 
 H                     66.35     63.88     35.7 
 H                     68.3      64.73     34.97 
 H                     68.16     65.09     36.63 
 N                     65.01     66.41     37.28 
 C                     64.21     66.62     38.47 
 C                     64.84     66.29     39.82 
 O                     65.96     66.73     40.06 
 C                     63.75     68.07     38.43 
 C                     62.63     68.35     39.43 
 C                     62.18     69.75     39.03 
 C                     60.9      70.04     39.82 
 N                     60.35     71.37     39.51 
 H                     65.1      67.25     36.73 
 H                     63.36     65.95     38.39 
 H                     63.4      68.21     37.41 
 H                     64.57     68.78     38.58 
 H                     62.97     68.33     40.46 
 H                     61.87     67.6      39.22 
 H                     61.92     69.9      37.99 
 H                     62.89     70.48     39.43 
 H                     61.05     69.91     40.89 
 H                     60.2      69.27     39.51 
 H                     59.53     71.61     40.06 
 H                     61.05     72.1      39.46 
 H                     59.99     71.33     38.57 
 N                     64.16     65.44     40.61 
 C                     64.61     64.76     41.8 
 C                     64.86     63.27     41.66 
 O                     64.65     62.49     42.59 
 C                     63.67     65.1      42.96 
 C                     62.17     64.92     42.74 
 O                     61.39     65.16     43.68 
 O                     61.68     64.53     41.66 
 H                     63.19     65.28     40.39 
 H                     65.57     65.14     42.16 
 H                     63.86     66.15     43.19 
 H                     64.04     64.54     43.81 
 N                     65.35     62.8      40.51 
 C                     65.89     61.47     40.27 
 C                     67.41     61.36     40.37 
 O                     68.11     62.36     40.52 
 H                     65.43     63.48     39.77 
 H                     65.56     61.22     39.26 
 H                     65.49     60.78     41.01 
 N                     67.92     60.15     40.17 
 C                     67.37     58.93     39.62 
 C                     68.38     58.16     38.77 
 O                     69.42     57.83     39.34 
 C                     66.81     58.15     40.81 
 C                     66.76     56.64     40.61 
 N                     66.52     55.92     41.71 
 O                     66.75     56.09     39.51 
 H                     68.93     60.17     40.22 
 H                     66.57     59.17     38.93 
 H                     65.78     58.48     40.9 
 H                     67.37     58.34     41.72 
 H                     66.3      56.4      42.56 
 H                     66.45     54.91     41.67 
 N                     68.21     57.8      37.5 
 C                     67.3      58.24     36.47 
 C                     65.86     57.74     36.37 
 O                     65.1      58.24     35.55 
 H                     69.       57.25     37.19 
 H                     67.88     58.06     35.56 
 H                     67.23     59.33     36.5 
 N                     65.5      56.8      37.25 
 C                     64.15     56.29     37.23 
 C                     63.36     57.       38.33 
 O                     63.86     57.34     39.4 
 C                     64.15     54.77     37.34 
 C                     64.55     54.04     36.08 
 C                     63.62     53.58     35.14 
 C                     65.9      53.91     35.75 
 C                     63.96     52.96     33.93 
 C                     66.31     53.27     34.57 
 C                     65.34     52.81     33.67 
 O                     65.8      52.28     32.49 
 H                     66.12     56.48     37.98 
 H                     63.7      56.55     36.27 
 H                     63.18     54.41     37.68 
 H                     64.96     54.58     38.05 
 H                     62.61     53.55     35.54 
 H                     66.67     54.34     36.37 
 H                     63.21     52.54     33.28 
 H                     67.34     53.28     34.24 
 H                     66.75     52.35     32.62 
 N                     62.08     57.25     38.06 
 C                     61.24     58.21     38.74 
 C                     60.36     57.53     39.78 
 O                     59.93     56.42     39.52 
 C                     60.51     59.18     37.81 
 C                     61.56     60.14     37.25 
 C                     59.77     58.5      36.66 
 C                     61.14     61.16     36.2 
 H                     61.64     56.87     37.23 
 H                     61.9      58.85     39.34 
 H                     59.72     59.7      38.35 
 H                     62.37     59.5      36.93 
 H                     62.03     60.65     38.09 
 H                     59.2      59.28     36.15 
 H                     60.49     58.19     35.9 
 H                     59.13     57.7      37.02 
 H                     61.28     60.73     35.21 
 H                     60.08     61.39     36.36 
 H                     61.84     61.99     36.29 
 N                     60.09     58.18     40.92 
 C                     59.18     57.89     42. 
 C                     57.73     57.64     41.6 
 O                     57.42     57.3      40.46 
 C                     59.77     56.73     42.8 
 O                     60.94     57.05     43.51 
 H                     60.47     59.12     40.92 
 H                     59.23     58.79     42.61 
 H                     60.01     55.91     42.13 
 H                     59.02     56.27     43.45 
 H                     61.69     57.26     42.95 
 N                     56.77     57.93     42.48 
 C                     55.34     57.92     42.23 
 C                     54.76     59.32     42.1 
 O                     55.36     60.26     42.61 
 C                     54.57     57.09     43.26 
 H                     57.08     58.1      43.42 
 H                     55.22     57.42     41.27 
 H                     53.53     57.4      43.13 
 H                     54.77     56.02     43.18 
 H                     54.91     57.46     44.22 
 N                     53.56     59.36     41.53 
 C                     52.84     60.57     41.18 
 C                     53.68     61.37     40.19 
 O                     53.19     62.45     39.85 
 C                     52.22     61.17     42.44 
 H                     53.24     58.53     41.05 
 H                     52.02     60.21     40.57 
 H                     51.63     62.06     42.23 
 H                     51.65     60.39     42.95 
 H                     53.01     61.52     43.1 
 N                     54.82     60.87     39.71 
 C                     55.61     61.57     38.72 
 C                     55.14     61.5      37.28 
 O                     55.11     62.53     36.62 
 C                     57.06     61.18     39. 
 C                     58.09     62.28     38.79 
 C                     58.08     63.44     39.77 
 O                     59.07     64.2      39.78 
 O                     57.2      63.49     40.66 
 H                     54.97     59.9      39.94 
 H                     55.49     62.64     38.91 
 H                     57.42     60.27     38.52 
 H                     57.08     60.84     40.04 
 H                     57.98     62.87     37.88 
 H                     59.08     61.83     38.77 
 N                     54.72     60.32     36.8 
 C                     54.11     60.07     35.51 
 H                     53.215    60.683    35.407 
 H                     54.816    60.323    34.719 
 H                     53.839    59.017    35.433 
 H                     54.87     59.5      37.38 
 Ca                    59.03     64.77     42.3 
 O                     57.61     64.05     44.34 
 H                     57.55     64.54     45.16 
 H                     57.1      63.25     44.5 
 
 Stoichiometry    C54H83CaN15O23
 Framework group  C1[X(C54H83CaN15O23)]
 Deg. of freedom   522
 Full point group                 C1      NOp   1
 Largest Abelian subgroup         C1      NOp   1
 Largest concise Abelian subgroup C1      NOp   1
                         Standard orientation:                         
 ---------------------------------------------------------------------
 Center     Atomic      Atomic             Coordinates (Angstroms)
 Number     Number       Type             X           Y           Z
 ---------------------------------------------------------------------
      1          6           0       -3.380642    4.459496    5.724551
      2          6           0       -3.357794    4.203252    4.221781
      3          8           0       -2.361587    3.642536    3.785813
      4          1           0       -2.494795    5.026524    6.008987
      5          1           0       -4.274010    5.027641    5.983403
      6          1           0       -3.388748    3.507458    6.255822
      7          7           0       -4.435579    4.513903    3.500895
      8          6           0       -4.792135    4.150407    2.136146
      9          6           0       -3.762326    4.497356    1.071994
     10          8           0       -3.650517    3.765377    0.098339
     11          6           0       -6.136174    4.756523    1.756300
     12          6           0       -6.444652    6.221946    2.053583
     13          8           0       -6.871235    6.411419    3.211912
     14          8           0       -6.089255    7.105114    1.248345
     15          1           0       -5.253061    4.795796    4.022391
     16          1           0       -4.936342    3.086001    2.016802
     17          1           0       -6.923754    4.126656    2.175330
     18          1           0       -6.217982    4.568316    0.688178
     19          7           0       -2.913482    5.521192    1.197790
     20          6           0       -1.754095    5.702602    0.347430
     21          6           0       -1.941363    5.538253   -1.157967
     22          8           0       -2.873722    6.129025   -1.693966
     23          6           0       -1.191237    7.078319    0.673455
     24          6           0        0.214458    7.277219    0.110195
     25          6           0        0.646182    8.582402    0.767926
     26          6           0        2.135255    8.758176    0.454292
     27          7           0        2.683345    9.987094    1.051669
     28          1           0       -3.093688    6.330195    1.771585
     29          1           0       -1.046528    4.927791    0.624589
     30          1           0       -1.179069    7.110008    1.760353
     31          1           0       -1.843924    7.893313    0.343631
     32          1           0        0.226784    7.363721   -0.971131
     33          1           0        0.787287    6.426417    0.473790
     34          1           0        0.568180    8.634025    1.846328
     35          1           0        0.180057    9.418897    0.238772
     36          1           0        2.328445    8.714442   -0.615785
     37          1           0        2.617224    7.888895    0.891391
     38          1           0        3.656877   10.156104    0.814663
     39          1           0        2.080637   10.794491    0.950415
     40          1           0        2.713111    9.844245    2.048418
     41          7           0       -1.129239    4.660326   -1.773352
     42          6           0       -1.233619    4.116970   -3.105594
     43          6           0       -1.661263    2.664212   -3.199495
     44          8           0       -1.238965    1.923110   -4.088219
     45          6           0        0.060569    4.407720   -3.870671
     46          6           0        1.382559    4.028057   -3.208101
     47          8           0        2.444986    4.226208   -3.825828
     48          8           0        1.454665    3.513699   -2.072832
     49          1           0       -0.303873    4.366828   -1.275828
     50          1           0       -1.982448    4.635722   -3.710368
     51          1           0        0.060060    5.485450   -4.043867
     52          1           0       -0.067012    3.952132   -4.844921
     53          7           0       -2.541697    2.189011   -2.314894
     54          6           0       -3.258812    0.924809   -2.389982
     55          6           0       -4.667166    1.012392   -2.974249
     56          8           0       -5.178345    2.099519   -3.237595
     57          1           0       -2.789926    2.826573   -1.574423
     58          1           0       -3.300702    0.573443   -1.357370
     59          1           0       -2.710530    0.237278   -3.030597
     60          7           0       -5.331239   -0.134268   -3.065779
     61          6           0       -5.112652   -1.445208   -2.493892
     62          6           0       -6.414555   -2.133797   -2.085977
     63          8           0       -7.240580   -2.295075   -2.984349
     64          6           0       -4.276741   -2.214045   -3.517729
     65          6           0       -4.443599   -3.727882   -3.462432
     66          7           0       -3.932006   -4.402809   -4.496234
     67          8           0       -4.845332   -4.341809   -2.475364
     68          1           0       -6.263203    0.015091   -3.429284
     69          1           0       -4.560219   -1.350423   -1.566782
     70          1           0       -3.246005   -2.010676   -3.245474
     71          1           0       -4.489588   -1.899481   -4.534364
     72          1           0       -3.401914   -3.902463   -5.181768
     73          1           0       -3.978800   -5.414150   -4.536240
     74          7           0       -6.702170   -2.590139   -0.869248
     75          6           0       -6.136821   -2.332126    0.433215
     76          6           0       -4.863924   -3.013714    0.931984
     77          8           0       -4.365638   -2.664513    1.994890
     78          1           0       -7.600209   -3.055016   -0.879959
     79          1           0       -6.995444   -2.494050    1.091582
     80          1           0       -5.953672   -1.259718    0.534685
     81          7           0       -4.332524   -3.935124    0.121910
     82          6           0       -3.119327   -4.610394    0.515818
     83          6           0       -1.949204   -3.938202   -0.203328
     84          8           0       -2.038896   -3.472720   -1.337252
     85          6           0       -3.233638   -6.108690    0.261765
     86          6           0       -4.090749   -6.859418    1.252859
     87          6           0       -3.566202   -7.489519    2.387726
     88          6           0       -5.480651   -6.839532    1.126059
     89          6           0       -4.339792   -8.135744    3.361406
     90          6           0       -6.312334   -7.494940    2.047386
     91          6           0       -5.737180   -8.127574    3.157103
     92          8           0       -6.605046   -8.667800    4.073545
     93          1           0       -4.710539   -4.129187   -0.794138
     94          1           0       -2.981777   -4.468690    1.589456
     95          1           0       -2.246332   -6.565576    0.210946
     96          1           0       -3.784056   -6.151475   -0.682433
     97          1           0       -2.489235   -7.620935    2.325495
     98          1           0       -5.961453   -6.278971    0.340693
     99          1           0       -3.886550   -8.685755    4.169775
    100          1           0       -7.387380   -7.376493    2.035267
    101          1           0       -7.449676   -8.471494    3.658379
    102          7           0       -0.807967   -3.867627    0.479604
    103          6           0        0.297606   -2.980134    0.197355
    104          6           0        1.395762   -3.699300   -0.574173
    105          8           0        1.606397   -4.868348   -0.302958
    106          6           0        0.778364   -2.168590    1.401086
    107          6           0       -0.296366   -1.121182    1.693648
    108          6           0        1.034329   -3.005740    2.652550
    109          6           0       -0.141237   -0.228739    2.917895
    110          1           0       -0.700807   -4.350353    1.364133
    111          1           0       -0.065479   -2.226642   -0.513714
    112          1           0        1.748060   -1.719187    1.191738
    113          1           0       -1.225346   -1.673291    1.677179
    114          1           0       -0.415675   -0.505355    0.803074
    115          1           0        1.482074   -2.336311    3.390649
    116          1           0        0.079836   -3.269578    3.112367
    117          1           0        1.674255   -3.855756    2.435372
    118          1           0       -0.636554   -0.698254    3.765725
    119          1           0        0.930563   -0.123814    3.123649
    120          1           0       -0.688658    0.686342    2.694381
    121          7           0        2.083750   -3.018936   -1.500875
    122          6           0        3.261591   -3.353205   -2.262160
    123          6           0        4.471240   -3.807059   -1.452365
    124          8           0        4.359479   -4.253082   -0.312246
    125          6           0        2.851614   -4.378460   -3.317845
    126          8           0        2.012854   -3.871168   -4.325087
    127          1           0        1.819027   -2.040569   -1.527725
    128          1           0        3.501266   -2.418020   -2.764738
    129          1           0        2.327551   -5.201831   -2.842116
    130          1           0        3.722658   -4.887637   -3.740481
    131          1           0        1.146338   -3.603972   -4.012108
    132          7           0        5.688470   -3.585648   -1.951793
    133          6           0        6.951651   -3.790069   -1.266165
    134          6           0        7.593268   -2.484455   -0.822315
    135          8           0        7.287035   -1.446985   -1.399876
    136          6           0        7.928278   -4.644610   -2.077743
    137          1           0        5.718571   -3.320334   -2.919937
    138          1           0        6.703755   -4.359596   -0.371634
    139          1           0        8.895075   -4.475909   -1.596658
    140          1           0        7.608583   -5.684031   -2.171010
    141          1           0        7.956381   -4.176262   -3.054453
    142          7           0        8.541195   -2.630368    0.097817
    143          6           0        9.224394   -1.544035    0.774663
    144          6           0        8.191931   -0.707960    1.523462
    145          8           0        8.649173    0.279064    2.105539
    146          6           0       10.275641   -0.949579   -0.159950
    147          1           0        8.604606   -3.522002    0.569695
    148          1           0        9.762386   -2.040924    1.573266
    149          1           0       10.850383   -0.155170    0.312158
    150          1           0       10.900352   -1.761745   -0.538793
    151          1           0        9.781106   -0.463255   -0.997281
    152          7           0        6.914411   -1.090023    1.567855
    153          6           0        5.919118   -0.359228    2.322528
    154          6           0        5.887195   -0.576495    3.822920
    155          8           0        5.802942    0.398814    4.557136
    156          6           0        4.607382   -0.546527    1.562747
    157          6           0        3.678831    0.658662    1.545088
    158          6           0        4.120644    1.866681    0.737877
    159          8           0        3.267544    2.743808    0.491565
    160          8           0        5.242175    1.861079    0.180080
    161          1           0        6.752194   -2.017503    1.207623
    162          1           0        6.199239    0.697016    2.286756
    163          1           0        4.023187   -1.432235    1.812426
    164          1           0        4.892414   -0.816338    0.541199
    165          1           0        3.545312    1.172797    2.497001
    166          1           0        2.696592    0.335792    1.207506
    167          7           0        6.010142   -1.827219    4.291720
    168          6           0        6.140824   -2.230969    5.676858
    169          1           0        7.009873   -1.742412    6.116710
    170          1           0        5.245003   -1.940997    6.225991
    171          1           0        6.266874   -3.312344    5.730869
    172          1           0        5.976274   -2.584511    3.615953
    173         20           0        4.178968    3.459146   -1.818088
    174          8           0        6.105604    2.694638   -3.367281
    175          1           0        6.476430    3.223063   -4.073932
    176          1           0        6.558348    1.848522   -3.436650
 ---------------------------------------------------------------------
 Rotational constants (GHZ):           0.0148866           0.0131049           0.0090377
 Standard basis: SVP (5D, 7F)
 There are  1809 symmetry adapted cartesian basis functions of A   symmetry.
 There are  1717 symmetry adapted basis functions of A   symmetry.
  1717 basis functions,  2922 primitive gaussians,  1809 cartesian basis functions
   358 alpha electrons      358 beta electrons
       nuclear repulsion energy     19449.0554389281 Hartrees.
 NAtoms=  176 NActive=  176 NUniq=  176 SFac= 1.00D+00 NAtFMM=   60 NAOKFM=T Big=T
 Integral buffers will be    131072 words long.
 Raffenetti 2 integral format.
 Two-electron integral symmetry is turned on.
 One-electron integrals computed using PRISM.
 NBasis=  1717 RedAO= T EigKep=  2.93D-04  NBF=  1717
 NBsUse=  1717 1.00D-06 EigRej= -1.00D+00 NBFU=  1717
 ExpMin= 1.98D-02 ExpMax= 3.51D+04 ExpMxC= 5.28D+03 IAcc=3 IRadAn=         5 AccDes= 0.00D+00
 Harris functional with IExCor=  402 and IRadAn=       5 diagonalized for initial guess.
 HarFok:  IExCor=  402 AccDes= 0.00D+00 IRadAn=         5 IDoV= 1 UseB2=F ITyADJ=14
 ICtDFT=  3500011 ScaDFX=  1.000000  1.000000  1.000000  1.000000
 FoFCou: FMM=F IPFlag=           0 FMFlag=      100000 FMFlg1=        2001
         NFxFlg=           0 DoJE=T BraDBF=F KetDBF=T FulRan=T
         wScrn=  0.000000 ICntrl=       500 IOpCl=  0 I1Cent=   200000004 NGrid=           0
         NMat0=    1 NMatS0=      1 NMatT0=    0 NMatD0=    1 NMtDS0=    0 NMtDT0=    0
 Petite list used in FoFCou.
 Requested convergence on RMS density matrix=1.00D-08 within 128 cycles.
 Requested convergence on MAX density matrix=1.00D-06.
 Requested convergence on             energy=1.00D-06.
 No special actions if energy rises.
 EnCoef did     2 forward-backward iterations
 EnCoef did     3 forward-backward iterations
 EnCoef did     3 forward-backward iterations
 EnCoef did     2 forward-backward iterations
 EnCoef did     9 forward-backward iterations
 EnCoef did    16 forward-backward iterations
 Restarting incremental Fock formation.
 Rare condition: small coef for last iteration:  0.000D+00
 EnCoef did   100 forward-backward iterations
 SCF Done:  E(RB3LYP) =  -5333.36682427     A.U. after   33 cycles
            NFock= 33  Conv=0.93D-09     -V/T= 2.0081
 SCF density gives NOpUse=  1 NOpAll=  1.
 Hyperfine terms turned off by default for NAtoms > 100.

 **********************************************************************

            Population analysis using the SCF density.

 **********************************************************************

 Orbital symmetries:
 BldTbl:  Degeneracy threshold= 1.00D-02
       Occupied  (A) (A) (A) (A) (A) (A) (A) (A) (A) (A) (A) (A)
                 (A) (A) (A) (A) (A) (A) (A) (A) (A) (A) (A) (A)
                 (A) (A) (A) (A) (A) (A) (A) (A) (A) (A) (A) (A)
                 (A) (A) (A) (A) (A) (A) (A) (A) (A) (A) (A) (A)
                 (A) (A) (A) (A) (A) (A) (A) (A) (A) (A) (A) (A)
                 (A) (A) (A) (A) (A) (A) (A) (A) (A) (A) (A) (A)
                 (A) (A) (A) (A) (A) (A) (A) (A) (A) (A) (A) (A)
                 (A) (A) (A) (A) (A) (A) (A) (A) (A) (A) (A) (A)
                 (A) (A) (A) (A) (A) (A) (A) (A) (A) (A) (A) (A)
                 (A) (A) (A) (A) (A) (A) (A) (A) (A) (A) (A) (A)
                 (A) (A) (A) (A) (A) (A) (A) (A) (A) (A) (A) (A)
                 (A) (A) (A) (A) (A) (A) (A) (A) (A) (A) (A) (A)
                 (A) (A) (A) (A) (A) (A) (A) (A) (A) (A) (A) (A)
                 (A) (A) (A) (A) (A) (A) (A) (A) (A) (A) (A) (A)
                 (A) (A) (A) (A) (A) (A) (A) (A) (A) (A) (A) (A)
                 (A) (A) (A) (A) (A) (A) (A) (A) (A) (A) (A) (A)
                 (A) (A) (A) (A) (A) (A) (A) (A) (A) (A) (A) (A)
                 (A) (A) (A) (A) (A) (A) (A) (A) (A) (A) (A) (A)
                 (A) (A) (A) (A) (A) (A) (A) (A) (A) (A) (A) (A)
                 (A) (A) (A) (A) (A) (A) (A) (A) (A) (A) (A) (A)
                 (A) (A) (A) (A) (A) (A) (A) (A) (A) (A) (A) (A)
                 (A) (A) (A) (A) (A) (A) (A) (A) (A) (A) (A) (A)
                 (A) (A) (A) (A) (A) (A) (A) (A) (A) (A) (A) (A)
                 (A) (A) (A) (A) (A) (A) (A) (A) (A) (A) (A) (A)
                 (A) (A) (A) (A) (A) (A) (A) (A) (A) (A) (A) (A)
                 (A) (A) (A) (A) (A) (A) (A) (A) (A) (A) (A) (A)
                 (A) (A) (A) (A) (A) (A) (A) (A) (A) (A) (A) (A)
                 (A) (A) (A) (A) (A) (A) (A) (A) (A) (A) (A) (A)
                 (A) (A) (A) (A) (A) (A) (A) (A) (A) (A) (A) (A)
                 (A) (A) (A) (A) (A) (A) (A) (A) (A) (A)
       Virtual   (A) (A) (A) (A) (A) (A) (A) (A) (A) (A) (A) (A)
                 (A) (A) (A) (A) (A) (A) (A) (A) (A) (A) (A) (A)
                 (A) (A) (A) (A) (A) (A) (A) (A) (A) (A) (A) (A)
                 (A) (A) (A) (A) (A) (A) (A) (A) (A) (A) (A) (A)
                 (A) (A) (A) (A) (A) (A) (A) (A) (A) (A) (A) (A)
                 (A) (A) (A) (A) (A) (A) (A) (A) (A) (A) (A) (A)
                 (A) (A) (A) (A) (A) (A) (A) (A) (A) (A) (A) (A)
                 (A) (A) (A) (A) (A) (A) (A) (A) (A) (A) (A) (A)
                 (A) (A) (A) (A) (A) (A) (A) (A) (A) (A) (A) (A)
                 (A) (A) (A) (A) (A) (A) (A) (A) (A) (A) (A) (A)
                 (A) (A) (A) (A) (A) (A) (A) (A) (A) (A) (A) (A)
                 (A) (A) (A) (A) (A) (A) (A) (A) (A) (A) (A) (A)
                 (A) (A) (A) (A) (A) (A) (A) (A) (A) (A) (A) (A)
                 (A) (A) (A) (A) (A) (A) (A) (A) (A) (A) (A) (A)
                 (A) (A) (A) (A) (A) (A) (A) (A) (A) (A) (A) (A)
                 (A) (A) (A) (A) (A) (A) (A) (A) (A) (A) (A) (A)
                 (A) (A) (A) (A) (A) (A) (A) (A) (A) (A) (A) (A)
                 (A) (A) (A) (A) (A) (A) (A) (A) (A) (A) (A) (A)
                 (A) (A) (A) (A) (A) (A) (A) (A) (A) (A) (A) (A)
                 (A) (A) (A) (A) (A) (A) (A) (A) (A) (A) (A) (A)
                 (A) (A) (A) (A) (A) (A) (A) (A) (A) (A) (A) (A)
                 (A) (A) (A) (A) (A) (A) (A) (A) (A) (A) (A) (A)
                 (A) (A) (A) (A) (A) (A) (A) (A) (A) (A) (A) (A)
                 (A) (A) (A) (A) (A) (A) (A) (A) (A) (A) (A) (A)
                 (A) (A) (A) (A) (A) (A) (A) (A) (A) (A) (A) (A)
                 (A) (A) (A) (A) (A) (A) (A) (A) (A) (A) (A) (A)
                 (A) (A) (A) (A) (A) (A) (A) (A) (A) (A) (A) (A)
                 (A) (A) (A) (A) (A) (A) (A) (A) (A) (A) (A) (A)
                 (A) (A) (A) (A) (A) (A) (A) (A) (A) (A) (A) (A)
                 (A) (A) (A) (A) (A) (A) (A) (A) (A) (A) (A) (A)
                 (A) (A) (A) (A) (A) (A) (A) (A) (A) (A) (A) (A)
                 (A) (A) (A) (A) (A) (A) (A) (A) (A) (A) (A) (A)
                 (A) (A) (A) (A) (A) (A) (A) (A) (A) (A) (A) (A)
                 (A) (A) (A) (A) (A) (A) (A) (A) (A) (A) (A) (A)
                 (A) (A) (A) (A) (A) (A) (A) (A) (A) (A) (A) (A)
                 (A) (A) (A) (A) (A) (A) (A) (A) (A) (A) (A) (A)
                 (A) (A) (A) (A) (A) (A) (A) (A) (A) (A) (A) (A)
                 (A) (A) (A) (A) (A) (A) (A) (A) (A) (A) (A) (A)
                 (A) (A) (A) (A) (A) (A) (A) (A) (A) (A) (A) (A)
                 (A) (A) (A) (A) (A) (A) (A) (A) (A) (A) (A) (A)
                 (A) (A) (A) (A) (A) (A) (A) (A) (A) (A) (A) (A)
                 (A) (A) (A) (A) (A) (A) (A) (A) (A) (A) (A) (A)
                 (A) (A) (A) (A) (A) (A) (A) (A) (A) (A) (A) (A)
                 (A) (A) (A) (A) (A) (A) (A) (A) (A) (A) (A) (A)
                 (A) (A) (A) (A) (A) (A) (A) (A) (A) (A) (A) (A)
                 (A) (A) (A) (A) (A) (A) (A) (A) (A) (A) (A) (A)
                 (A) (A) (A) (A) (A) (A) (A) (A) (A) (A) (A) (A)
                 (A) (A) (A) (A) (A) (A) (A) (A) (A) (A) (A) (A)
                 (A) (A) (A) (A) (A) (A) (A) (A) (A) (A) (A) (A)
                 (A) (A) (A) (A) (A) (A) (A) (A) (A) (A) (A) (A)
                 (A) (A) (A) (A) (A) (A) (A) (A) (A) (A) (A) (A)
                 (A) (A) (A) (A) (A) (A) (A) (A) (A) (A) (A) (A)
                 (A) (A) (A) (A) (A) (A) (A) (A) (A) (A) (A) (A)
                 (A) (A) (A) (A) (A) (A) (A) (A) (A) (A) (A) (A)
                 (A) (A) (A) (A) (A) (A) (A) (A) (A) (A) (A) (A)
                 (A) (A) (A) (A) (A) (A) (A) (A) (A) (A) (A) (A)
                 (A) (A) (A) (A) (A) (A) (A) (A) (A) (A) (A) (A)
                 (A) (A) (A) (A) (A) (A) (A) (A) (A) (A) (A) (A)
                 (A) (A) (A) (A) (A) (A) (A) (A) (A) (A) (A) (A)
                 (A) (A) (A) (A) (A) (A) (A) (A) (A) (A) (A) (A)
                 (A) (A) (A) (A) (A) (A) (A) (A) (A) (A) (A) (A)
                 (A) (A) (A) (A) (A) (A) (A) (A) (A) (A) (A) (A)
                 (A) (A) (A) (A) (A) (A) (A) (A) (A) (A) (A) (A)
                 (A) (A) (A) (A) (A) (A) (A) (A) (A) (A) (A) (A)
                 (A) (A) (A) (A) (A) (A) (A) (A) (A) (A) (A) (A)
                 (A) (A) (A) (A) (A) (A) (A) (A) (A) (A) (A) (A)
                 (A) (A) (A) (A) (A) (A) (A) (A) (A) (A) (A) (A)
                 (A) (A) (A) (A) (A) (A) (A) (A) (A) (A) (A) (A)
                 (A) (A) (A) (A) (A) (A) (A) (A) (A) (A) (A) (A)
                 (A) (A) (A) (A) (A) (A) (A) (A) (A) (A) (A) (A)
                 (A) (A) (A) (A) (A) (A) (A) (A) (A) (A) (A) (A)
                 (A) (A) (A) (A) (A) (A) (A) (A) (A) (A) (A) (A)
                 (A) (A) (A) (A) (A) (A) (A) (A) (A) (A) (A) (A)
                 (A) (A) (A) (A) (A) (A) (A) (A) (A) (A) (A) (A)
                 (A) (A) (A) (A) (A) (A) (A) (A) (A) (A) (A) (A)
                 (A) (A) (A) (A) (A) (A) (A) (A) (A) (A) (A) (A)
                 (A) (A) (A) (A) (A) (A) (A) (A) (A) (A) (A) (A)
                 (A) (A) (A) (A) (A) (A) (A) (A) (A) (A) (A) (A)
                 (A) (A) (A) (A) (A) (A) (A) (A) (A) (A) (A) (A)
                 (A) (A) (A) (A) (A) (A) (A) (A) (A) (A) (A) (A)
                 (A) (A) (A) (A) (A) (A) (A) (A) (A) (A) (A) (A)
                 (A) (A) (A) (A) (A) (A) (A) (A) (A) (A) (A) (A)
                 (A) (A) (A) (A) (A) (A) (A) (A) (A) (A) (A) (A)
                 (A) (A) (A) (A) (A) (A) (A) (A) (A) (A) (A) (A)
                 (A) (A) (A) (A) (A) (A) (A) (A) (A) (A) (A) (A)
                 (A) (A) (A) (A) (A) (A) (A) (A) (A) (A) (A) (A)
                 (A) (A) (A) (A) (A) (A) (A) (A) (A) (A) (A) (A)
                 (A) (A) (A) (A) (A) (A) (A) (A) (A) (A) (A) (A)
                 (A) (A) (A) (A) (A) (A) (A) (A) (A) (A) (A) (A)
                 (A) (A) (A) (A) (A) (A) (A) (A) (A) (A) (A) (A)
                 (A) (A) (A) (A) (A) (A) (A) (A) (A) (A) (A) (A)
                 (A) (A) (A) (A) (A) (A) (A) (A) (A) (A) (A) (A)
                 (A) (A) (A) (A) (A) (A) (A) (A) (A) (A) (A) (A)
                 (A) (A) (A) (A) (A) (A) (A) (A) (A) (A) (A) (A)
                 (A) (A) (A) (A) (A) (A) (A) (A) (A) (A) (A) (A)
                 (A) (A) (A) (A) (A) (A) (A) (A) (A) (A) (A) (A)
                 (A) (A) (A) (A) (A) (A) (A) (A) (A) (A) (A) (A)
                 (A) (A) (A) (A) (A) (A) (A) (A) (A) (A) (A) (A)
                 (A) (A) (A) (A) (A) (A) (A) (A) (A) (A) (A) (A)
                 (A) (A) (A) (A) (A) (A) (A) (A) (A) (A) (A) (A)
                 (A) (A) (A) (A) (A) (A) (A) (A) (A) (A) (A) (A)
                 (A) (A) (A) (A) (A) (A) (A) (A) (A) (A) (A) (A)
                 (A) (A) (A) (A) (A) (A) (A) (A) (A) (A) (A) (A)
                 (A) (A) (A) (A) (A) (A) (A) (A) (A) (A) (A) (A)
                 (A) (A) (A) (A) (A) (A) (A) (A) (A) (A) (A) (A)
                 (A) (A) (A) (A) (A) (A) (A) (A) (A) (A) (A) (A)
                 (A) (A) (A) (A) (A) (A) (A) (A) (A) (A) (A) (A)
                 (A) (A) (A) (A) (A) (A) (A) (A) (A) (A) (A) (A)
                 (A) (A) (A) (A) (A) (A) (A) (A) (A) (A) (A) (A)
                 (A) (A) (A) (A) (A) (A) (A) (A) (A) (A) (A) (A)
                 (A) (A) (A) (A) (A) (A) (A) (A) (A) (A) (A) (A)
                 (A) (A) (A) (A) (A) (A) (A) (A) (A) (A) (A) (A)
                 (A) (A) (A) (A) (A) (A) (A) (A) (A) (A) (A) (A)
                 (A) (A) (A)
 The electronic state is 1-A.
 Alpha  occ. eigenvalues -- -145.47025 -19.24589 -19.15309 -19.13597 -19.12832
 Alpha  occ. eigenvalues --  -19.10783 -19.10301 -19.09532 -19.09212 -19.08750
 Alpha  occ. eigenvalues --  -19.08737 -19.08596 -19.08351 -19.08323 -19.08261
 Alpha  occ. eigenvalues --  -19.08102 -19.07707 -19.06015 -19.05815 -19.05641
 Alpha  occ. eigenvalues --  -19.05556 -19.04258 -18.96559 -18.96486 -15.52983
 Alpha  occ. eigenvalues --  -14.57532 -14.39045 -14.37577 -14.36402 -14.36400
 Alpha  occ. eigenvalues --  -14.35576 -14.35406 -14.34864 -14.34853 -14.32843
 Alpha  occ. eigenvalues --  -14.32478 -14.32287 -14.31444 -14.30681 -14.30236
 Alpha  occ. eigenvalues --  -12.66631 -12.66511 -12.66489 -10.34121 -10.31141
 Alpha  occ. eigenvalues --  -10.30049 -10.29174 -10.28813 -10.27567 -10.27549
 Alpha  occ. eigenvalues --  -10.27514 -10.27416 -10.27298 -10.27188 -10.27127
 Alpha  occ. eigenvalues --  -10.26637 -10.25874 -10.25794 -10.25440 -10.25233
 Alpha  occ. eigenvalues --  -10.24895 -10.24476 -10.24382 -10.24128 -10.24055
 Alpha  occ. eigenvalues --  -10.23549 -10.23443 -10.23266 -10.22609 -10.22409
 Alpha  occ. eigenvalues --  -10.22389 -10.22330 -10.22140 -10.21572 -10.20986
 Alpha  occ. eigenvalues --  -10.20754 -10.20388 -10.20240 -10.19993 -10.19317
 Alpha  occ. eigenvalues --  -10.18978 -10.18919 -10.18445 -10.18390 -10.18275
 Alpha  occ. eigenvalues --  -10.18262 -10.18209 -10.18205 -10.17994 -10.17872
 Alpha  occ. eigenvalues --  -10.17236 -10.17176 -10.15995 -10.15974 -10.15413
 Alpha  occ. eigenvalues --  -10.15265 -10.10413  -1.89654  -1.17563  -1.16741
 Alpha  occ. eigenvalues --   -1.16490  -1.12979  -1.10214  -1.06162  -1.04383
 Alpha  occ. eigenvalues --   -1.04330  -1.03657  -1.03380  -1.03266  -1.02786
 Alpha  occ. eigenvalues --   -1.02639  -1.01988  -1.01766  -1.01622  -1.01445
 Alpha  occ. eigenvalues --   -1.00569  -0.99740  -0.99281  -0.98530  -0.98048
 Alpha  occ. eigenvalues --   -0.97308  -0.96519  -0.93966  -0.93200  -0.93075
 Alpha  occ. eigenvalues --   -0.92958  -0.92518  -0.91647  -0.91499  -0.91301
 Alpha  occ. eigenvalues --   -0.90813  -0.90511  -0.90319  -0.89908  -0.89425
 Alpha  occ. eigenvalues --   -0.89307  -0.88288  -0.87082  -0.86892  -0.84015
 Alpha  occ. eigenvalues --   -0.82228  -0.81429  -0.81053  -0.81018  -0.79418
 Alpha  occ. eigenvalues --   -0.78440  -0.77641  -0.77336  -0.76985  -0.76245
 Alpha  occ. eigenvalues --   -0.74673  -0.73571  -0.73378  -0.73332  -0.73112
 Alpha  occ. eigenvalues --   -0.72400  -0.71790  -0.71040  -0.70806  -0.70639
 Alpha  occ. eigenvalues --   -0.70314  -0.69620  -0.69065  -0.68273  -0.67875
 Alpha  occ. eigenvalues --   -0.67668  -0.66778  -0.66323  -0.65054  -0.64324
 Alpha  occ. eigenvalues --   -0.63554  -0.63404  -0.63142  -0.62619  -0.62228
 Alpha  occ. eigenvalues --   -0.61662  -0.61488  -0.60936  -0.60526  -0.59732
 Alpha  occ. eigenvalues --   -0.59642  -0.58949  -0.58915  -0.58846  -0.58364
 Alpha  occ. eigenvalues --   -0.57846  -0.57474  -0.57357  -0.57034  -0.56896
 Alpha  occ. eigenvalues --   -0.56668  -0.55989  -0.55622  -0.55482  -0.54415
 Alpha  occ. eigenvalues --   -0.54235  -0.54137  -0.53306  -0.53156  -0.53076
 Alpha  occ. eigenvalues --   -0.52494  -0.52106  -0.51835  -0.51764  -0.51520
 Alpha  occ. eigenvalues --   -0.51123  -0.50856  -0.50489  -0.50297  -0.50173
 Alpha  occ. eigenvalues --   -0.49693  -0.49427  -0.49129  -0.49022  -0.48631
 Alpha  occ. eigenvalues --   -0.48402  -0.48130  -0.48115  -0.47518  -0.47471
 Alpha  occ. eigenvalues --   -0.47031  -0.46838  -0.46602  -0.46504  -0.46187
 Alpha  occ. eigenvalues --   -0.46041  -0.45750  -0.45635  -0.45492  -0.45317
 Alpha  occ. eigenvalues --   -0.45230  -0.45059  -0.44973  -0.44777  -0.44208
 Alpha  occ. eigenvalues --   -0.44147  -0.43988  -0.43848  -0.43643  -0.43543
 Alpha  occ. eigenvalues --   -0.43464  -0.43342  -0.43239  -0.43011  -0.42971
 Alpha  occ. eigenvalues --   -0.42840  -0.42771  -0.42735  -0.42485  -0.42344
 Alpha  occ. eigenvalues --   -0.42248  -0.42071  -0.42015  -0.41915  -0.41849
 Alpha  occ. eigenvalues --   -0.41704  -0.41524  -0.41187  -0.41157  -0.40968
 Alpha  occ. eigenvalues --   -0.40797  -0.40681  -0.40632  -0.40167  -0.40083
 Alpha  occ. eigenvalues --   -0.39966  -0.39895  -0.39712  -0.39599  -0.39353
 Alpha  occ. eigenvalues --   -0.39267  -0.39122  -0.39044  -0.39013  -0.38879
 Alpha  occ. eigenvalues --   -0.38852  -0.38745  -0.38366  -0.38309  -0.38212
 Alpha  occ. eigenvalues --   -0.37807  -0.37720  -0.37383  -0.37331  -0.37328
 Alpha  occ. eigenvalues --   -0.37184  -0.36849  -0.36587  -0.36465  -0.36258
 Alpha  occ. eigenvalues --   -0.35884  -0.35654  -0.35572  -0.35540  -0.35348
 Alpha  occ. eigenvalues --   -0.35195  -0.34965  -0.34828  -0.34614  -0.34499
 Alpha  occ. eigenvalues --   -0.34407  -0.34171  -0.34099  -0.33661  -0.33468
 Alpha  occ. eigenvalues --   -0.33401  -0.33246  -0.33108  -0.32709  -0.32658
 Alpha  occ. eigenvalues --   -0.32119  -0.31877  -0.31659  -0.31436  -0.31030
 Alpha  occ. eigenvalues --   -0.30714  -0.30418  -0.29205  -0.29002  -0.28156
 Alpha  occ. eigenvalues --   -0.27994  -0.27708  -0.27536  -0.27374  -0.27340
 Alpha  occ. eigenvalues --   -0.26882  -0.26626  -0.26446  -0.26297  -0.26169
 Alpha  occ. eigenvalues --   -0.25895  -0.25830  -0.25498  -0.25490  -0.25010
 Alpha  occ. eigenvalues --   -0.24886  -0.24768  -0.24440  -0.24391  -0.24100
 Alpha  occ. eigenvalues --   -0.23826  -0.23810  -0.23756  -0.23377  -0.23256
 Alpha  occ. eigenvalues --   -0.23229  -0.22762  -0.22321  -0.22144  -0.21349
 Alpha  occ. eigenvalues --   -0.21337  -0.20930  -0.20808  -0.20515  -0.19854
 Alpha  occ. eigenvalues --   -0.14134  -0.13198  -0.11633
 Alpha virt. eigenvalues --   -0.10568  -0.09339  -0.04743  -0.04127  -0.03476
 Alpha virt. eigenvalues --   -0.01569  -0.01491  -0.01086  -0.00992  -0.00230
 Alpha virt. eigenvalues --    0.00543   0.00723   0.01064   0.01859   0.01898
 Alpha virt. eigenvalues --    0.02006   0.02574   0.02677   0.02786   0.02843
 Alpha virt. eigenvalues --    0.03031   0.03242   0.03529   0.03709   0.04053
 Alpha virt. eigenvalues --    0.04771   0.04951   0.05062   0.05349   0.05407
 Alpha virt. eigenvalues --    0.05486   0.05597   0.05763   0.05870   0.06065
 Alpha virt. eigenvalues --    0.06223   0.06289   0.06316   0.06465   0.06586
 Alpha virt. eigenvalues --    0.06754   0.06823   0.07105   0.07309   0.07402
 Alpha virt. eigenvalues --    0.07699   0.08146   0.08615   0.08841   0.09054
 Alpha virt. eigenvalues --    0.09258   0.09325   0.09647   0.09831   0.09987
 Alpha virt. eigenvalues --    0.10410   0.10589   0.10700   0.10819   0.10928
 Alpha virt. eigenvalues --    0.11115   0.11268   0.11426   0.11511   0.11685
 Alpha virt. eigenvalues --    0.12108   0.12237   0.12327   0.12591   0.12801
 Alpha virt. eigenvalues --    0.12972   0.13102   0.13301   0.13523   0.13642
 Alpha virt. eigenvalues --    0.13780   0.13840   0.14097   0.14198   0.14281
 Alpha virt. eigenvalues --    0.14405   0.14523   0.14596   0.14712   0.15020
 Alpha virt. eigenvalues --    0.15250   0.15359   0.15559   0.15656   0.16137
 Alpha virt. eigenvalues --    0.16255   0.16519   0.16638   0.16721   0.16931
 Alpha virt. eigenvalues --    0.17148   0.17207   0.17320   0.17615   0.17624
 Alpha virt. eigenvalues --    0.17710   0.17855   0.18097   0.18294   0.18604
 Alpha virt. eigenvalues --    0.18856   0.19072   0.19281   0.19460   0.20090
 Alpha virt. eigenvalues --    0.20117   0.20340   0.20453   0.20517   0.20765
 Alpha virt. eigenvalues --    0.20928   0.20979   0.21233   0.21403   0.21573
 Alpha virt. eigenvalues --    0.21748   0.22083   0.22375   0.22478   0.22521
 Alpha virt. eigenvalues --    0.23097   0.23312   0.23438   0.23618   0.23730
 Alpha virt. eigenvalues --    0.23995   0.24274   0.24631   0.24808   0.25014
 Alpha virt. eigenvalues --    0.25187   0.25466   0.25508   0.25806   0.26029
 Alpha virt. eigenvalues --    0.26135   0.26538   0.26826   0.27098   0.27408
 Alpha virt. eigenvalues --    0.27731   0.27973   0.28178   0.28583   0.28711
 Alpha virt. eigenvalues --    0.28967   0.29051   0.29259   0.29343   0.29425
 Alpha virt. eigenvalues --    0.29528   0.29775   0.30248   0.30651   0.30871
 Alpha virt. eigenvalues --    0.31124   0.31291   0.31397   0.31537   0.32085
 Alpha virt. eigenvalues --    0.32358   0.32631   0.32880   0.33100   0.33251
 Alpha virt. eigenvalues --    0.33463   0.33790   0.34042   0.34640   0.34883
 Alpha virt. eigenvalues --    0.35221   0.35420   0.35570   0.35891   0.36381
 Alpha virt. eigenvalues --    0.36626   0.37182   0.37224   0.37578   0.37705
 Alpha virt. eigenvalues --    0.38188   0.38278   0.38444   0.38668   0.38746
 Alpha virt. eigenvalues --    0.39937   0.40017   0.40119   0.40215   0.40366
 Alpha virt. eigenvalues --    0.41237   0.41353   0.41517   0.41618   0.41767
 Alpha virt. eigenvalues --    0.42100   0.42279   0.42691   0.42824   0.42923
 Alpha virt. eigenvalues --    0.43131   0.43401   0.43542   0.43716   0.43732
 Alpha virt. eigenvalues --    0.43937   0.44281   0.44323   0.44590   0.44784
 Alpha virt. eigenvalues --    0.44918   0.45251   0.45501   0.45746   0.46055
 Alpha virt. eigenvalues --    0.46247   0.46357   0.46684   0.46787   0.46923
 Alpha virt. eigenvalues --    0.47304   0.47480   0.47580   0.47805   0.47864
 Alpha virt. eigenvalues --    0.48207   0.48332   0.48422   0.48502   0.48618
 Alpha virt. eigenvalues --    0.48686   0.49155   0.49308   0.49382   0.49526
 Alpha virt. eigenvalues --    0.49619   0.49685   0.50238   0.50401   0.50548
 Alpha virt. eigenvalues --    0.50629   0.50977   0.51221   0.51366   0.51633
 Alpha virt. eigenvalues --    0.51844   0.52282   0.52483   0.52607   0.52762
 Alpha virt. eigenvalues --    0.53050   0.53154   0.53361   0.53533   0.53872
 Alpha virt. eigenvalues --    0.54168   0.54259   0.54272   0.54438   0.54562
 Alpha virt. eigenvalues --    0.54765   0.54962   0.55105   0.55299   0.55454
 Alpha virt. eigenvalues --    0.55495   0.55621   0.55775   0.55926   0.56010
 Alpha virt. eigenvalues --    0.56333   0.56381   0.56695   0.56943   0.56991
 Alpha virt. eigenvalues --    0.57137   0.57437   0.57565   0.57968   0.58044
 Alpha virt. eigenvalues --    0.58132   0.58313   0.58449   0.58513   0.58820
 Alpha virt. eigenvalues --    0.58942   0.59066   0.59295   0.59595   0.59771
 Alpha virt. eigenvalues --    0.60022   0.60135   0.60220   0.60300   0.60516
 Alpha virt. eigenvalues --    0.60592   0.60713   0.60889   0.61079   0.61217
 Alpha virt. eigenvalues --    0.61428   0.61529   0.61695   0.61943   0.61980
 Alpha virt. eigenvalues --    0.62089   0.62217   0.62449   0.62540   0.62855
 Alpha virt. eigenvalues --    0.62967   0.62996   0.63195   0.63233   0.63390
 Alpha virt. eigenvalues --    0.63668   0.63712   0.63743   0.63862   0.64207
 Alpha virt. eigenvalues --    0.64257   0.64370   0.64453   0.64480   0.64646
 Alpha virt. eigenvalues --    0.64737   0.64860   0.64929   0.65074   0.65173
 Alpha virt. eigenvalues --    0.65219   0.65248   0.65521   0.65601   0.65634
 Alpha virt. eigenvalues --    0.65856   0.65892   0.66071   0.66102   0.66180
 Alpha virt. eigenvalues --    0.66387   0.66468   0.66558   0.66628   0.66776
 Alpha virt. eigenvalues --    0.66854   0.66943   0.67061   0.67107   0.67275
 Alpha virt. eigenvalues --    0.67460   0.67582   0.67655   0.67789   0.67853
 Alpha virt. eigenvalues --    0.68052   0.68079   0.68160   0.68321   0.68419
 Alpha virt. eigenvalues --    0.68540   0.68623   0.68734   0.68810   0.68846
 Alpha virt. eigenvalues --    0.68989   0.69058   0.69179   0.69348   0.69428
 Alpha virt. eigenvalues --    0.69551   0.69760   0.69766   0.69812   0.70030
 Alpha virt. eigenvalues --    0.70223   0.70377   0.70539   0.70581   0.70622
 Alpha virt. eigenvalues --    0.70704   0.70793   0.70919   0.71155   0.71345
 Alpha virt. eigenvalues --    0.71444   0.71524   0.71751   0.71957   0.72196
 Alpha virt. eigenvalues --    0.72296   0.72380   0.72494   0.72588   0.72698
 Alpha virt. eigenvalues --    0.72779   0.72892   0.72961   0.73308   0.73548
 Alpha virt. eigenvalues --    0.73751   0.73898   0.74213   0.74370   0.74604
 Alpha virt. eigenvalues --    0.74673   0.75135   0.75211   0.75433   0.75496
 Alpha virt. eigenvalues --    0.75685   0.75793   0.75939   0.76184   0.76338
 Alpha virt. eigenvalues --    0.76618   0.76823   0.77176   0.77438   0.77562
 Alpha virt. eigenvalues --    0.77646   0.77738   0.77994   0.78240   0.78333
 Alpha virt. eigenvalues --    0.78536   0.78852   0.79137   0.79293   0.79656
 Alpha virt. eigenvalues --    0.79929   0.80002   0.80236   0.80626   0.80885
 Alpha virt. eigenvalues --    0.81112   0.81298   0.81462   0.81521   0.82180
 Alpha virt. eigenvalues --    0.82387   0.82522   0.82771   0.82895   0.83137
 Alpha virt. eigenvalues --    0.83426   0.83541   0.83597   0.83942   0.84074
 Alpha virt. eigenvalues --    0.84263   0.84778   0.84996   0.85278   0.85461
 Alpha virt. eigenvalues --    0.85680   0.85838   0.86273   0.86753   0.86913
 Alpha virt. eigenvalues --    0.87013   0.87551   0.88220   0.88526   0.88716
 Alpha virt. eigenvalues --    0.89243   0.89343   0.89679   0.89815   0.90208
 Alpha virt. eigenvalues --    0.90515   0.90631   0.91078   0.91441   0.91571
 Alpha virt. eigenvalues --    0.91855   0.92131   0.92636   0.92789   0.93111
 Alpha virt. eigenvalues --    0.93457   0.93777   0.93874   0.94332   0.94654
 Alpha virt. eigenvalues --    0.94878   0.95131   0.95621   0.95761   0.96232
 Alpha virt. eigenvalues --    0.96456   0.96747   0.96900   0.97149   0.97589
 Alpha virt. eigenvalues --    0.97660   0.97880   0.98534   0.98675   0.98814
 Alpha virt. eigenvalues --    0.99044   0.99408   0.99441   0.99642   1.00195
 Alpha virt. eigenvalues --    1.00391   1.00469   1.01089   1.01427   1.01640
 Alpha virt. eigenvalues --    1.01916   1.02235   1.02405   1.02467   1.03147
 Alpha virt. eigenvalues --    1.03472   1.03543   1.04226   1.04661   1.04955
 Alpha virt. eigenvalues --    1.05061   1.05643   1.06038   1.06244   1.06524
 Alpha virt. eigenvalues --    1.06553   1.06718   1.06945   1.07485   1.07722
 Alpha virt. eigenvalues --    1.07955   1.08348   1.08472   1.08897   1.09174
 Alpha virt. eigenvalues --    1.09431   1.09775   1.10185   1.10278   1.10594
 Alpha virt. eigenvalues --    1.10686   1.10914   1.11467   1.11836   1.12067
 Alpha virt. eigenvalues --    1.12193   1.12588   1.12809   1.13055   1.13294
 Alpha virt. eigenvalues --    1.13442   1.13827   1.14007   1.14196   1.14666
 Alpha virt. eigenvalues --    1.14907   1.15044   1.15409   1.15435   1.15664
 Alpha virt. eigenvalues --    1.15764   1.16218   1.16381   1.16957   1.17226
 Alpha virt. eigenvalues --    1.17448   1.17852   1.18278   1.18555   1.18628
 Alpha virt. eigenvalues --    1.18715   1.18871   1.19051   1.19491   1.19908
 Alpha virt. eigenvalues --    1.19989   1.20240   1.20616   1.20830   1.21011
 Alpha virt. eigenvalues --    1.21082   1.21501   1.21714   1.21965   1.22141
 Alpha virt. eigenvalues --    1.22550   1.22751   1.22864   1.23094   1.23421
 Alpha virt. eigenvalues --    1.23666   1.23788   1.23994   1.24109   1.24189
 Alpha virt. eigenvalues --    1.24429   1.24464   1.24889   1.25011   1.25342
 Alpha virt. eigenvalues --    1.25665   1.25853   1.26082   1.26392   1.26716
 Alpha virt. eigenvalues --    1.26857   1.27094   1.27407   1.27584   1.27655
 Alpha virt. eigenvalues --    1.28243   1.28450   1.28859   1.29057   1.29446
 Alpha virt. eigenvalues --    1.29974   1.30268   1.30820   1.31418   1.31649
 Alpha virt. eigenvalues --    1.31682   1.32171   1.32404   1.32520   1.32800
 Alpha virt. eigenvalues --    1.33083   1.33568   1.33886   1.34661   1.34939
 Alpha virt. eigenvalues --    1.35428   1.35788   1.36021   1.36435   1.36480
 Alpha virt. eigenvalues --    1.36674   1.36691   1.37405   1.37487   1.37828
 Alpha virt. eigenvalues --    1.38559   1.38721   1.38742   1.39245   1.39300
 Alpha virt. eigenvalues --    1.39614   1.39993   1.40125   1.40211   1.40746
 Alpha virt. eigenvalues --    1.41225   1.41698   1.41762   1.41823   1.42132
 Alpha virt. eigenvalues --    1.42278   1.42629   1.42962   1.43362   1.43553
 Alpha virt. eigenvalues --    1.43897   1.44203   1.44621   1.45009   1.45261
 Alpha virt. eigenvalues --    1.45923   1.45988   1.46329   1.46624   1.47108
 Alpha virt. eigenvalues --    1.47296   1.47638   1.47712   1.48110   1.48203
 Alpha virt. eigenvalues --    1.48482   1.48754   1.49035   1.49253   1.49478
 Alpha virt. eigenvalues --    1.49695   1.49735   1.50320   1.51056   1.51212
 Alpha virt. eigenvalues --    1.51340   1.51524   1.51886   1.52273   1.52342
 Alpha virt. eigenvalues --    1.52475   1.52851   1.53206   1.53432   1.53631
 Alpha virt. eigenvalues --    1.53969   1.54209   1.54493   1.54792   1.54951
 Alpha virt. eigenvalues --    1.55495   1.55549   1.56303   1.56947   1.57003
 Alpha virt. eigenvalues --    1.57025   1.58154   1.58910   1.58982   1.59170
 Alpha virt. eigenvalues --    1.59402   1.59482   1.59793   1.60008   1.60237
 Alpha virt. eigenvalues --    1.60366   1.60888   1.61330   1.61611   1.61784
 Alpha virt. eigenvalues --    1.62318   1.62456   1.62818   1.62995   1.63073
 Alpha virt. eigenvalues --    1.63208   1.63554   1.63772   1.64512   1.65183
 Alpha virt. eigenvalues --    1.65350   1.65799   1.65979   1.66135   1.66358
 Alpha virt. eigenvalues --    1.66878   1.67452   1.67922   1.68650   1.68714
 Alpha virt. eigenvalues --    1.68836   1.69076   1.69395   1.69573   1.69653
 Alpha virt. eigenvalues --    1.70038   1.70275   1.70477   1.70752   1.70866
 Alpha virt. eigenvalues --    1.71264   1.71382   1.71753   1.72263   1.72490
 Alpha virt. eigenvalues --    1.72580   1.72759   1.72956   1.73048   1.73085
 Alpha virt. eigenvalues --    1.73376   1.73834   1.73971   1.74211   1.74346
 Alpha virt. eigenvalues --    1.74591   1.74754   1.75094   1.75246   1.75395
 Alpha virt. eigenvalues --    1.75434   1.75593   1.75760   1.76068   1.76258
 Alpha virt. eigenvalues --    1.76561   1.76727   1.76975   1.77226   1.77502
 Alpha virt. eigenvalues --    1.77611   1.77678   1.77768   1.77893   1.77982
 Alpha virt. eigenvalues --    1.78166   1.78375   1.78422   1.78498   1.78707
 Alpha virt. eigenvalues --    1.78909   1.79130   1.79491   1.79767   1.79899
 Alpha virt. eigenvalues --    1.80123   1.80233   1.80311   1.80676   1.80747
 Alpha virt. eigenvalues --    1.81132   1.81401   1.81528   1.81628   1.81730
 Alpha virt. eigenvalues --    1.81897   1.82009   1.82073   1.82322   1.82403
 Alpha virt. eigenvalues --    1.82661   1.82743   1.83054   1.83253   1.83387
 Alpha virt. eigenvalues --    1.83464   1.83479   1.83933   1.84009   1.84146
 Alpha virt. eigenvalues --    1.84463   1.84634   1.84909   1.85090   1.85649
 Alpha virt. eigenvalues --    1.85829   1.85882   1.86142   1.86466   1.86589
 Alpha virt. eigenvalues --    1.86669   1.86890   1.86981   1.87190   1.87362
 Alpha virt. eigenvalues --    1.87528   1.87707   1.87858   1.88015   1.88259
 Alpha virt. eigenvalues --    1.88348   1.88614   1.88761   1.88867   1.89017
 Alpha virt. eigenvalues --    1.89083   1.89544   1.89654   1.89844   1.90090
 Alpha virt. eigenvalues --    1.90181   1.90312   1.90667   1.90896   1.90998
 Alpha virt. eigenvalues --    1.91297   1.91619   1.91810   1.92223   1.92527
 Alpha virt. eigenvalues --    1.92799   1.92958   1.93065   1.93440   1.93596
 Alpha virt. eigenvalues --    1.93733   1.94123   1.94268   1.94757   1.94859
 Alpha virt. eigenvalues --    1.95023   1.95240   1.95317   1.95789   1.95863
 Alpha virt. eigenvalues --    1.96256   1.96370   1.96614   1.96744   1.96838
 Alpha virt. eigenvalues --    1.97026   1.97417   1.97484   1.97765   1.97936
 Alpha virt. eigenvalues --    1.98146   1.98364   1.98803   1.99091   1.99509
 Alpha virt. eigenvalues --    1.99646   1.99765   2.00086   2.00190   2.00479
 Alpha virt. eigenvalues --    2.00618   2.00777   2.01326   2.01400   2.01587
 Alpha virt. eigenvalues --    2.01960   2.02040   2.02182   2.02281   2.02860
 Alpha virt. eigenvalues --    2.02875   2.03575   2.03801   2.03986   2.04137
 Alpha virt. eigenvalues --    2.04356   2.04556   2.04681   2.04793   2.05309
 Alpha virt. eigenvalues --    2.05512   2.05730   2.05878   2.06054   2.06434
 Alpha virt. eigenvalues --    2.06529   2.06752   2.06987   2.07239   2.07668
 Alpha virt. eigenvalues --    2.08318   2.08456   2.08511   2.08965   2.09390
 Alpha virt. eigenvalues --    2.09502   2.10163   2.10214   2.10392   2.10589
 Alpha virt. eigenvalues --    2.10818   2.10948   2.11143   2.11173   2.11581
 Alpha virt. eigenvalues --    2.11722   2.11906   2.12133   2.12274   2.12634
 Alpha virt. eigenvalues --    2.12777   2.12912   2.13440   2.13667   2.13788
 Alpha virt. eigenvalues --    2.14336   2.14388   2.14605   2.14758   2.15224
 Alpha virt. eigenvalues --    2.15404   2.15933   2.15985   2.16032   2.16448
 Alpha virt. eigenvalues --    2.16523   2.16927   2.17244   2.17549   2.17718
 Alpha virt. eigenvalues --    2.18670   2.18846   2.18867   2.19161   2.19422
 Alpha virt. eigenvalues --    2.20061   2.20380   2.20563   2.20745   2.21032
 Alpha virt. eigenvalues --    2.21497   2.22490   2.22670   2.23288   2.23427
 Alpha virt. eigenvalues --    2.23714   2.23925   2.24503   2.24570   2.25235
 Alpha virt. eigenvalues --    2.25418   2.25720   2.26054   2.26333   2.26419
 Alpha virt. eigenvalues --    2.26868   2.27025   2.27139   2.27724   2.28069
 Alpha virt. eigenvalues --    2.28098   2.28579   2.28688   2.29436   2.29487
 Alpha virt. eigenvalues --    2.29928   2.30264   2.30691   2.30883   2.30940
 Alpha virt. eigenvalues --    2.32009   2.32082   2.32150   2.32874   2.33167
 Alpha virt. eigenvalues --    2.33284   2.33555   2.34165   2.34321   2.34438
 Alpha virt. eigenvalues --    2.34699   2.34814   2.35084   2.35268   2.35869
 Alpha virt. eigenvalues --    2.36246   2.36470   2.36977   2.37297   2.37539
 Alpha virt. eigenvalues --    2.37780   2.38141   2.38667   2.39048   2.39171
 Alpha virt. eigenvalues --    2.39727   2.39791   2.39850   2.39955   2.40362
 Alpha virt. eigenvalues --    2.40700   2.41146   2.41714   2.41737   2.42213
 Alpha virt. eigenvalues --    2.42346   2.43140   2.43358   2.43559   2.44077
 Alpha virt. eigenvalues --    2.44438   2.44651   2.45183   2.45690   2.45760
 Alpha virt. eigenvalues --    2.46090   2.46191   2.46647   2.46887   2.47099
 Alpha virt. eigenvalues --    2.47587   2.47960   2.48401   2.48854   2.49514
 Alpha virt. eigenvalues --    2.49781   2.49990   2.50211   2.50712   2.51225
 Alpha virt. eigenvalues --    2.51292   2.51579   2.52296   2.52835   2.52989
 Alpha virt. eigenvalues --    2.53171   2.54496   2.54742   2.54871   2.55069
 Alpha virt. eigenvalues --    2.55797   2.56155   2.56637   2.57328   2.57557
 Alpha virt. eigenvalues --    2.57655   2.58078   2.58162   2.58211   2.58593
 Alpha virt. eigenvalues --    2.58859   2.58886   2.59386   2.59913   2.60114
 Alpha virt. eigenvalues --    2.60244   2.60516   2.60590   2.60828   2.61547
 Alpha virt. eigenvalues --    2.61726   2.62047   2.62141   2.62345   2.62691
 Alpha virt. eigenvalues --    2.63447   2.63521   2.63803   2.64044   2.64669
 Alpha virt. eigenvalues --    2.64755   2.64940   2.65722   2.66217   2.66490
 Alpha virt. eigenvalues --    2.66599   2.66768   2.66979   2.67121   2.67213
 Alpha virt. eigenvalues --    2.67274   2.67632   2.68227   2.68845   2.68920
 Alpha virt. eigenvalues --    2.69195   2.69671   2.69825   2.70018   2.70500
 Alpha virt. eigenvalues --    2.70592   2.71289   2.71384   2.71503   2.71759
 Alpha virt. eigenvalues --    2.72217   2.72433   2.72545   2.72693   2.73046
 Alpha virt. eigenvalues --    2.73427   2.73681   2.74053   2.74580   2.74947
 Alpha virt. eigenvalues --    2.75019   2.75141   2.75182   2.75737   2.75776
 Alpha virt. eigenvalues --    2.75817   2.76183   2.76709   2.77035   2.77147
 Alpha virt. eigenvalues --    2.77658   2.77889   2.78075   2.78503   2.78816
 Alpha virt. eigenvalues --    2.78978   2.79047   2.79202   2.79474   2.79959
 Alpha virt. eigenvalues --    2.80226   2.80609   2.81471   2.81784   2.81914
 Alpha virt. eigenvalues --    2.81984   2.82245   2.82400   2.82583   2.82872
 Alpha virt. eigenvalues --    2.82994   2.83617   2.83832   2.83986   2.84106
 Alpha virt. eigenvalues --    2.84352   2.84617   2.85117   2.85700   2.86121
 Alpha virt. eigenvalues --    2.86475   2.86744   2.87565   2.87815   2.87974
 Alpha virt. eigenvalues --    2.88461   2.88823   2.88948   2.89635   2.89731
 Alpha virt. eigenvalues --    2.89803   2.89977   2.90279   2.90464   2.90560
 Alpha virt. eigenvalues --    2.90837   2.90852   2.91910   2.92523   2.92602
 Alpha virt. eigenvalues --    2.92685   2.92980   2.93182   2.93518   2.93831
 Alpha virt. eigenvalues --    2.93883   2.94292   2.94874   2.94899   2.95002
 Alpha virt. eigenvalues --    2.95313   2.95551   2.95614   2.95768   2.96018
 Alpha virt. eigenvalues --    2.96536   2.96579   2.96713   2.96924   2.97085
 Alpha virt. eigenvalues --    2.97682   2.97837   2.98291   2.98438   2.98626
 Alpha virt. eigenvalues --    2.98851   2.99305   2.99484   2.99580   3.00006
 Alpha virt. eigenvalues --    3.00103   3.00344   3.00540   3.01242   3.01472
 Alpha virt. eigenvalues --    3.02080   3.03463   3.03812   3.04124   3.04468
 Alpha virt. eigenvalues --    3.05127   3.05671   3.06079   3.06216   3.06291
 Alpha virt. eigenvalues --    3.06696   3.06911   3.07128   3.07449   3.08182
 Alpha virt. eigenvalues --    3.08315   3.08533   3.08692   3.09611   3.10396
 Alpha virt. eigenvalues --    3.11011   3.11355   3.11899   3.13309   3.13908
 Alpha virt. eigenvalues --    3.14058   3.14169   3.14231   3.14603   3.14713
 Alpha virt. eigenvalues --    3.14816   3.15416   3.15587   3.16058   3.17274
 Alpha virt. eigenvalues --    3.17475   3.17528   3.17992   3.18190   3.18968
 Alpha virt. eigenvalues --    3.19281   3.19657   3.19803   3.20051   3.20208
 Alpha virt. eigenvalues --    3.20517   3.20985   3.21305   3.21383   3.22279
 Alpha virt. eigenvalues --    3.22743   3.22757   3.23697   3.24226   3.24388
 Alpha virt. eigenvalues --    3.24765   3.25120   3.25470   3.26979   3.27074
 Alpha virt. eigenvalues --    3.28246   3.28500   3.28529   3.29583   3.32009
 Alpha virt. eigenvalues --    3.32222   3.32488   3.32772   3.33421   3.35423
 Alpha virt. eigenvalues --    3.35813   3.36557   3.38455   3.39338   3.40780
 Alpha virt. eigenvalues --    3.41386   3.43025   3.44087   3.44899   3.46177
 Alpha virt. eigenvalues --    3.50341   3.50575   3.51817   3.53368   3.54403
 Alpha virt. eigenvalues --    3.54574   3.54794   3.56723   3.57390   3.57520
 Alpha virt. eigenvalues --    3.59183   3.59725   3.60833   3.62150   3.62953
 Alpha virt. eigenvalues --    3.63420   3.63594   3.65298   3.65812   3.67211
 Alpha virt. eigenvalues --    3.67598   3.68356   3.68782   3.69377   3.69708
 Alpha virt. eigenvalues --    3.70052   3.70357   3.71326   3.71555   3.71637
 Alpha virt. eigenvalues --    3.71836   3.72360   3.72812   3.74077   3.74589
 Alpha virt. eigenvalues --    3.75624   3.77844   3.82514   3.83235
          Condensed to atoms (all electrons):
 Mulliken charges:
               1
     1  C    0.058510
     2  C   -0.012805
     3  O   -0.307128
     4  H    0.013378
     5  H    0.003862
     6  H    0.035040
     7  N   -0.092963
     8  C    0.134064
     9  C    0.108096
    10  O   -0.295378
    11  C    0.044484
    12  C    0.063331
    13  O   -0.381907
    14  O   -0.353907
    15  H    0.120820
    16  H   -0.011220
    17  H   -0.022104
    18  H   -0.004382
    19  N   -0.089417
    20  C    0.159632
    21  C    0.048000
    22  O   -0.250094
    23  C   -0.034340
    24  C    0.000855
    25  C   -0.024389
    26  C    0.022180
    27  N    0.131959
    28  H    0.125023
    29  H   -0.013167
    30  H    0.005675
    31  H    0.040245
    32  H    0.036418
    33  H    0.026662
    34  H    0.020923
    35  H    0.032495
    36  H    0.059671
    37  H    0.055424
    38  H    0.141425
    39  H    0.156606
    40  H    0.141436
    41  N   -0.165305
    42  C    0.133880
    43  C    0.053376
    44  O   -0.302279
    45  C    0.076632
    46  C    0.104280
    47  O   -0.436546
    48  O   -0.409165
    49  H    0.122446
    50  H    0.040333
    51  H   -0.002134
    52  H    0.030789
    53  N   -0.126551
    54  C    0.178885
    55  C    0.006369
    56  O   -0.239591
    57  H    0.134005
    58  H    0.038678
    59  H    0.014159
    60  N   -0.121359
    61  C    0.086620
    62  C    0.043342
    63  O   -0.289320
    64  C    0.105864
    65  C    0.069782
    66  N   -0.032352
    67  O   -0.308368
    68  H    0.127440
    69  H   -0.006770
    70  H    0.057487
    71  H    0.020591
    72  H    0.116642
    73  H    0.129654
    74  N   -0.098833
    75  C    0.146771
    76  C    0.061224
    77  O   -0.279427
    78  H    0.128852
    79  H    0.033473
    80  H    0.045200
    81  N   -0.156754
    82  C    0.098466
    83  C    0.108931
    84  O   -0.291151
    85  C    0.163788
    86  C   -0.026554
    87  C   -0.010017
    88  C   -0.021447
    89  C   -0.000046
    90  C   -0.027673
    91  C    0.138756
    92  O   -0.188105
    93  H    0.154726
    94  H    0.005280
    95  H   -0.004929
    96  H    0.001301
    97  H   -0.028856
    98  H   -0.034972
    99  H   -0.025885
   100  H   -0.041596
   101  H    0.162633
   102  N   -0.108633
   103  C    0.101662
   104  C    0.084739
   105  O   -0.258266
   106  C   -0.078460
   107  C   -0.018808
   108  C    0.044459
   109  C    0.066728
   110  H    0.119847
   111  H   -0.014913
   112  H   -0.030174
   113  H   -0.000442
   114  H   -0.010946
   115  H    0.005571
   116  H    0.006451
   117  H    0.030162
   118  H    0.009133
   119  H    0.010087
   120  H    0.045851
   121  N   -0.135858
   122  C    0.080518
   123  C    0.064808
   124  O   -0.259639
   125  C    0.257885
   126  O   -0.323508
   127  H    0.123537
   128  H    0.000585
   129  H    0.017397
   130  H   -0.012108
   131  H    0.172442
   132  N   -0.111922
   133  C    0.063038
   134  C    0.049575
   135  O   -0.263226
   136  C    0.077940
   137  H    0.107823
   138  H    0.007209
   139  H    0.004111
   140  H    0.045890
   141  H    0.002186
   142  N   -0.173720
   143  C    0.081160
   144  C    0.053519
   145  O   -0.282991
   146  C    0.087402
   147  H    0.126283
   148  H    0.017898
   149  H    0.031813
   150  H    0.009255
   151  H    0.016167
   152  N   -0.107613
   153  C    0.115660
   154  C    0.060258
   155  O   -0.255689
   156  C    0.076287
   157  C    0.042011
   158  C    0.062518
   159  O   -0.421284
   160  O   -0.414004
   161  H    0.111001
   162  H    0.032358
   163  H   -0.008596
   164  H   -0.007323
   165  H    0.036737
   166  H    0.025076
   167  N   -0.168606
   168  C    0.135410
   169  H    0.033115
   170  H    0.035274
   171  H    0.011744
   172  H    0.105765
   173  Ca   1.312820
   174  O   -0.326683
   175  H    0.198042
   176  H    0.218522
 Sum of Mulliken charges =  -0.00000
 Mulliken charges with hydrogens summed into heavy atoms:
               1
     1  C    0.110791
     2  C   -0.012805
     3  O   -0.307128
     7  N    0.027857
     8  C    0.122844
     9  C    0.108096
    10  O   -0.295378
    11  C    0.017998
    12  C    0.063331
    13  O   -0.381907
    14  O   -0.353907
    19  N    0.035607
    20  C    0.146465
    21  C    0.048000
    22  O   -0.250094
    23  C    0.011580
    24  C    0.063935
    25  C    0.029029
    26  C    0.137275
    27  N    0.571426
    41  N   -0.042859
    42  C    0.174213
    43  C    0.053376
    44  O   -0.302279
    45  C    0.105288
    46  C    0.104280
    47  O   -0.436546
    48  O   -0.409165
    53  N    0.007454
    54  C    0.231722
    55  C    0.006369
    56  O   -0.239591
    60  N    0.006081
    61  C    0.079850
    62  C    0.043342
    63  O   -0.289320
    64  C    0.183942
    65  C    0.069782
    66  N    0.213945
    67  O   -0.308368
    74  N    0.030019
    75  C    0.225443
    76  C    0.061224
    77  O   -0.279427
    81  N   -0.002029
    82  C    0.103746
    83  C    0.108931
    84  O   -0.291151
    85  C    0.160160
    86  C   -0.026554
    87  C   -0.038873
    88  C   -0.056419
    89  C   -0.025930
    90  C   -0.069269
    91  C    0.138756
    92  O   -0.025471
   102  N    0.011214
   103  C    0.086749
   104  C    0.084739
   105  O   -0.258266
   106  C   -0.108634
   107  C   -0.030196
   108  C    0.086644
   109  C    0.131799
   121  N   -0.012321
   122  C    0.081103
   123  C    0.064808
   124  O   -0.259639
   125  C    0.263174
   126  O   -0.151067
   132  N   -0.004100
   133  C    0.070247
   134  C    0.049575
   135  O   -0.263226
   136  C    0.130127
   142  N   -0.047437
   143  C    0.099058
   144  C    0.053519
   145  O   -0.282991
   146  C    0.144636
   152  N    0.003388
   153  C    0.148018
   154  C    0.060258
   155  O   -0.255689
   156  C    0.060368
   157  C    0.103824
   158  C    0.062518
   159  O   -0.421284
   160  O   -0.414004
   167  N   -0.062841
   168  C    0.215543
   173  Ca   1.312820
   174  O    0.089881
 DipInt: DoE/N= T F RetVal/Mat= T F Init=T NMatP=  1 IDeriv=0 Min/MaxMlt=  0  4
 Entering OneElI...
 OneElI was handed  1333951383 working-precision words.
 Multipole integrals L=0 to 4 MinM= 0 MaxM= 0.
 Requested accuracy = 0.1000D-12
 ShPair: Thresh= 1.00D-13 NBox=     0 BxSize= 0.00D+00 RnKept= 3.31D+01
         NSMCal=               327645 NSMKep=              132519
 PrmmSu-InSpLW:  IPartL=    0 NPrtUS=    1 NPrtUL=    1 DoSpLW=F IThBeg=    0 IThEnd=    0 NThAct=    1.
 PrsmSu:  NPrtUS=   1 ThrOK=F IAlg=1 NPAlg=1 LenDen=           0 ISkipM=0 DoSpLW=F IThBeg=    0 IThEnd=    0.
 Prism:   IPart=     0 DynPar=F LinDyn=F Incr=         512.
 PRISM was handed  1325003021 working-precision words and132519 shell-pairs
 IPart=  0 NShTot=      132519 NBatch=         305 AvBLen=       434.5
 PrsmSu-ThDecC:  IPartSL=    0    0 NPrtUSL=    1    1 IThBeg=    0 IThEnd=    0 CPU=   -1 GPU=   -1 NThAct=    1.
 PrSmSu:  NxtVal=            513.
 Electronic moments (au):
       -716.00000000         16.55421343          3.14309465         -2.73180551
     -57927.38217184     -49435.69955504     -16445.07436238        174.94269074
        -24.31091013          4.82280721    -165752.20557278     -76085.61400340
     -13980.01677191     148999.63816143     106145.72241731     -38588.34469682
      12503.25709110       3640.42941738     -55609.26508953       4660.46539880
   -9181759.30530987   -7620640.35967763    -896321.81695511     541834.51391543
    -132792.75595935   -1108394.09434913     251532.03134615    -103958.24202287
     -15446.87902427   -3215207.99448348   -1262412.27664979   -1000879.59840592
     -34793.56651358     871350.73395325       1425.81378880
 Electronic spatial extent (au):  <R**2>=         123808.1561
 DipInt: DoE/N= F T RetVal/Mat= T F Init=T NMatP=  1 IDeriv=0 Min/MaxMlt=  0  4
 Nuclear    moments (au):
        716.00000000         -0.00000000         -0.00000000         -0.00000000
      57494.38959098      49187.31794985      16011.44837277          0.00000000
         -0.00000000          0.00000000     167910.53001832      80088.03565566
      13749.59221337    -145741.96915547    -107694.95973534      37873.66739748
     -12049.62918313      -3878.38046054      55676.46455101      -4623.10544473
    8984439.68067360    7522746.14635094     839788.61558797    -526613.79279740
     125027.92789995    1154007.48877157    -242457.92849895     104122.21007778
      16677.05475409    3149972.37960165    1217933.07186185     962418.45326795
      26206.00241631    -863985.69384249        250.47581097
 Total      moments (au):
         -0.00000000         16.55421343          3.14309465         -2.73180551
       -432.99258087       -248.38160519       -433.62598961        174.94269074
        -24.31091013          4.82280721       2158.32444553       4002.42165226
       -230.42455854       3257.66900596      -1549.23731803       -714.67729934
        453.62790796       -237.95104315         67.19946147         37.35995407
    -197319.62463627     -97894.21332669     -56533.20136714      15220.72111803
      -7764.82805941      45613.39442245       9074.10284719        163.96805490
       1230.17572982     -65235.61488184     -44479.20478795     -38461.14513796
      -8587.56409727       7365.04011076       1676.28959977
 Traceless Quadrup. (au):
        -61.32585564        123.28512003        -61.95926439        174.94269074
        -24.31091013          4.82280721
 Charge=             -0.0000 electrons
 Dipole moment (field-independent basis, Debye):
    X=             42.0766    Y=              7.9889    Z=             -6.9436  Tot=             43.3875
 Quadrupole moment (field-independent basis, Debye-Ang):
   XX=           -582.3899   YY=           -334.0818   ZZ=           -583.2418
   XY=            235.3039   XZ=            -32.6990   YZ=              6.4868
 Traceless Quadrupole moment (field-independent basis, Debye-Ang):
   XX=            -82.4854   YY=            165.8227   ZZ=            -83.3373
   XY=            235.3039   XZ=            -32.6990   YZ=              6.4868
 Octapole moment (field-independent basis, Debye-Ang**2):
  XXX=           1536.2122  YYY=           2848.7695  ZZZ=           -164.0073  XYY=           2318.6833
  XXY=          -1102.6874  XXZ=           -508.6798  XZZ=            322.8749  YZZ=           -169.3644
  YYZ=             47.8300  XYZ=             26.5914
 Hexadecapole moment (field-independent basis, Debye-Ang**3):
 XXXX=         -74320.0324 YYYY=         -36871.6549 ZZZZ=         -21293.1145 XXXY=           5732.8534
 XXXZ=          -2924.6066 YYYX=          17180.1916 YYYZ=           3417.7422 ZZZX=             61.7582
 ZZZY=            463.3432 XXYY=         -24570.8607 XXZZ=         -16753.0014 YYZZ=         -14486.3115
 XXYZ=          -3234.4884 YYXZ=           2774.0273 ZZXY=            631.3710
 N-N= 1.944905543893D+04 E-N=-5.137907753653D+04  KE= 5.290661772159D+03
 Leave Link  601 at Wed Sep 18 17:40:46 2019, MaxMem=  1342177280 cpu:              43.6 elap:               1.1
 FitSet:  NAtFit=   176 NAtPot=   176 NAtFrz=     0 MDM=   180 TotChg=   0.00000
 Merz-Kollman atomic radii used.
 Read replacement radii for each type of atom:
 Rad(20) =   1.700000000000D+00
 Atom Element Radius
    1     6    1.50
    2     6    1.50
    3     8    1.40
    4     1    1.20
    5     1    1.20
    6     1    1.20
    7     7    1.50
    8     6    1.50
    9     6    1.50
   10     8    1.40
   11     6    1.50
   12     6    1.50
   13     8    1.40
   14     8    1.40
   15     1    1.20
   16     1    1.20
   17     1    1.20
   18     1    1.20
   19     7    1.50
   20     6    1.50
   21     6    1.50
   22     8    1.40
   23     6    1.50
   24     6    1.50
   25     6    1.50
   26     6    1.50
   27     7    1.50
   28     1    1.20
   29     1    1.20
   30     1    1.20
   31     1    1.20
   32     1    1.20
   33     1    1.20
   34     1    1.20
   35     1    1.20
   36     1    1.20
   37     1    1.20
   38     1    1.20
   39     1    1.20
   40     1    1.20
   41     7    1.50
   42     6    1.50
   43     6    1.50
   44     8    1.40
   45     6    1.50
   46     6    1.50
   47     8    1.40
   48     8    1.40
   49     1    1.20
   50     1    1.20
   51     1    1.20
   52     1    1.20
   53     7    1.50
   54     6    1.50
   55     6    1.50
   56     8    1.40
   57     1    1.20
   58     1    1.20
   59     1    1.20
   60     7    1.50
   61     6    1.50
   62     6    1.50
   63     8    1.40
   64     6    1.50
   65     6    1.50
   66     7    1.50
   67     8    1.40
   68     1    1.20
   69     1    1.20
   70     1    1.20
   71     1    1.20
   72     1    1.20
   73     1    1.20
   74     7    1.50
   75     6    1.50
   76     6    1.50
   77     8    1.40
   78     1    1.20
   79     1    1.20
   80     1    1.20
   81     7    1.50
   82     6    1.50
   83     6    1.50
   84     8    1.40
   85     6    1.50
   86     6    1.50
   87     6    1.50
   88     6    1.50
   89     6    1.50
   90     6    1.50
   91     6    1.50
   92     8    1.40
   93     1    1.20
   94     1    1.20
   95     1    1.20
   96     1    1.20
   97     1    1.20
   98     1    1.20
   99     1    1.20
  100     1    1.20
  101     1    1.20
  102     7    1.50
  103     6    1.50
  104     6    1.50
  105     8    1.40
  106     6    1.50
  107     6    1.50
  108     6    1.50
  109     6    1.50
  110     1    1.20
  111     1    1.20
  112     1    1.20
  113     1    1.20
  114     1    1.20
  115     1    1.20
  116     1    1.20
  117     1    1.20
  118     1    1.20
  119     1    1.20
  120     1    1.20
  121     7    1.50
  122     6    1.50
  123     6    1.50
  124     8    1.40
  125     6    1.50
  126     8    1.40
  127     1    1.20
  128     1    1.20
  129     1    1.20
  130     1    1.20
  131     1    1.20
  132     7    1.50
  133     6    1.50
  134     6    1.50
  135     8    1.40
  136     6    1.50
  137     1    1.20
  138     1    1.20
  139     1    1.20
  140     1    1.20
  141     1    1.20
  142     7    1.50
  143     6    1.50
  144     6    1.50
  145     8    1.40
  146     6    1.50
  147     1    1.20
  148     1    1.20
  149     1    1.20
  150     1    1.20
  151     1    1.20
  152     7    1.50
  153     6    1.50
  154     6    1.50
  155     8    1.40
  156     6    1.50
[...]
 **** Fit       0.016803
 **** Fit       0.018149
 **** Fit       0.019395
 **** Fit       0.020477
 **** Fit       0.021336
 **** Fit       0.021916
 **** Fit       0.022157
 **** Fit       0.022002
 **** Fit       0.021389
 **** Fit       0.013688
 **** Fit       0.014865
 **** Fit       0.016221
 **** Fit       0.017711
 **** Fit       0.019261
 **** Fit       0.020781
 **** Fit       0.022185
 **** Fit       0.023387
 **** Fit       0.024308
 **** Fit       0.024860
 **** Fit       0.024950
 **** Fit       0.024471
 **** Fit       0.016697
 **** Fit       0.017814
 **** Fit       0.019210
 **** Fit       0.020817
 **** Fit       0.022524
 **** Fit       0.024212
 **** Fit       0.025764
 **** Fit       0.027066
 **** Fit       0.027998
 **** Fit       0.028424
 **** Fit       0.028178
 **** Fit       0.022520
 **** Fit       0.024096
 **** Fit       0.025964
 **** Fit       0.027926
 **** Fit       0.029783
 **** Fit       0.031340
 **** Fit       0.032376
 **** Fit       0.017414
 **** Fit       0.020580
 **** Fit       0.023905
 **** Fit       0.011278
 **** Fit       0.013653
 **** Fit       0.016566
 **** Fit       0.019955
 **** Fit       0.023629
 **** Fit       0.027341
 **** Fit       0.030846
 **** Fit       0.033923
 **** Fit       0.036381
 **** Fit       0.038034
 **** Fit       0.038668
 **** Fit       0.008683
 **** Fit       0.010428
 **** Fit       0.013155
 **** Fit       0.016810
 **** Fit       0.021129
 **** Fit       0.025764
 **** Fit       0.030379
 **** Fit       0.034697
 **** Fit       0.038485
 **** Fit       0.041513
 **** Fit       0.043490
 **** Fit       0.044040
 **** Fit       0.006421
 **** Fit       0.008091
 **** Fit       0.011474
 **** Fit       0.016295
 **** Fit       0.022035
 **** Fit       0.028149
 **** Fit       0.034189
 **** Fit       0.039831
 **** Fit       0.044805
 **** Fit       0.048748
 **** Fit       0.010146
 **** Fit       0.016745
 **** Fit       0.024443
 **** Fit       0.032456
 **** Fit       0.040239
 **** Fit       0.047455
 **** Fit       0.024076
 **** Fit       0.034936
 **** Fit       0.045438
 **** Fit       0.033510
 **** Fit       0.042719
 **** Fit       0.048982
 **** Fit       0.052186
 **** Fit       0.051882
 **** Fit       0.038434
 **** Fit       0.048648
 **** Fit       0.056639
 **** Fit       0.062557
 **** Fit       0.066298
 **** Fit       0.067493
 **** Fit       0.065527
 **** Fit       0.059631
 **** Fit       0.043743
 **** Fit       0.054048
 **** Fit       0.062557
 **** Fit       0.069496
 **** Fit       0.074912
 **** Fit       0.078654
 **** Fit       0.080355
 **** Fit       0.037125
 **** Fit       0.048679
 **** Fit       0.058499
 **** Fit       0.066879
 **** Fit       0.074030
 **** Fit       0.080064
 **** Fit       0.084958
 **** Fit       0.088528
 **** Fit       0.090416
 **** Fit       0.031145
 **** Fit       0.042988
 **** Fit       0.053323
 **** Fit       0.062335
 **** Fit       0.070200
 **** Fit       0.077075
 **** Fit       0.083075
 **** Fit       0.088241
 **** Fit       0.092506
 **** Fit       0.095662
 **** Fit       0.097361
 **** Fit       0.038915
 **** Fit       0.049354
 **** Fit       0.058689
 **** Fit       0.066959
 **** Fit       0.074249
 **** Fit       0.080666
 **** Fit       0.086306
 **** Fit       0.091222
 **** Fit       0.095384
 **** Fit       0.098641
 **** Fit       0.100704
 **** Fit       0.101169
 **** Fit       0.035954
 **** Fit       0.045723
 **** Fit       0.054909
 **** Fit       0.063300
 **** Fit       0.070802
 **** Fit       0.077427
 **** Fit       0.083241
 **** Fit       0.088325
 **** Fit       0.092733
 **** Fit       0.096462
 **** Fit       0.099416
 **** Fit       0.101387
 **** Fit       0.102057
 **** Fit       0.101028
 **** Fit       0.059944
 **** Fit       0.067656
 **** Fit       0.074508
 **** Fit       0.080474
 **** Fit       0.085614
 **** Fit       0.090009
 **** Fit       0.093716
 **** Fit       0.096740
 **** Fit       0.099006
 **** Fit       0.100349
 **** Fit       0.100513
 **** Fit       0.099169
 **** Fit       0.095917
 **** Fit       0.008121
 **** Fit       0.020222
 **** Fit       0.071491
 **** Fit       0.077703
 **** Fit       0.082935
 **** Fit       0.087287
 **** Fit       0.090859
 **** Fit       0.093719
 **** Fit       0.095876
 **** Fit       0.097269
 **** Fit       0.097766
 **** Fit       0.097160
 **** Fit       0.095187
 **** Fit       0.091537
 **** Fit       0.085855
 **** Fit       0.077850
 **** Fit       0.067582
 **** Fit       0.015853
 **** Fit       0.026956
 **** Fit       0.034155
 **** Fit       0.037375
 **** Fit       0.036999
 **** Fit       0.033582
 **** Fit       0.081577
 **** Fit       0.085888
 **** Fit       0.089222
 **** Fit       0.091724
 **** Fit       0.093461
 **** Fit       0.094420
 **** Fit       0.094513
 **** Fit       0.093580
 **** Fit       0.091403
 **** Fit       0.087726
 **** Fit       0.082273
 **** Fit       0.074823
 **** Fit       0.065372
 **** Fit       0.012400
 **** Fit       0.025074
 **** Fit       0.034191
 **** Fit       0.039613
 **** Fit       0.041618
 **** Fit       0.040762
 **** Fit       0.037824
 **** Fit       0.033987
 **** Fit       0.088550
 **** Fit       0.090472
 **** Fit       0.091607
 **** Fit       0.091980
 **** Fit       0.091528
 **** Fit       0.090110
 **** Fit       0.087530
 **** Fit       0.083548
 **** Fit       0.077909
 **** Fit       0.070399
 **** Fit       0.021038
 **** Fit       0.031550
 **** Fit       0.038868
 **** Fit       0.043143
 **** Fit       0.044821
 **** Fit       0.044665
 **** Fit       0.043904
 **** Fit       0.091085
 **** Fit       0.090418
 **** Fit       0.089045
 **** Fit       0.086776
 **** Fit       0.083366
 **** Fit       0.078533
 **** Fit       0.071977
 **** Fit       0.063423
 **** Fit       0.011467
 **** Fit       0.023796
 **** Fit       0.033454
 **** Fit       0.040401
 **** Fit       0.044902
 **** Fit       0.047550
 **** Fit       0.049423
 **** Fit       0.090469
 **** Fit       0.087663
 **** Fit       0.084274
 **** Fit       0.079911
 **** Fit       0.074181
 **** Fit       0.066680
 **** Fit       0.014629
 **** Fit       0.025737
 **** Fit       0.034613
 **** Fit       0.041304
 **** Fit       0.046196
 **** Fit       0.050094
 **** Fit       0.086728
 **** Fit       0.081285
 **** Fit       0.075083
 **** Fit       0.067415
 **** Fit       0.057616
 **** Fit       0.020519
 **** Fit       0.030383
 **** Fit       0.038239
 **** Fit       0.044409
 **** Fit       0.079054
 **** Fit       0.070645
 **** Fit       0.060837
 **** Fit       0.014705
 **** Fit       0.025457
 **** Fit       0.034296
 **** Fit       0.041418
 **** Fit       0.066758
 **** Fit       0.019827
 **** Fit       0.029640
 **** Fit       0.061014
 **** Fit       0.021227
 **** Fit       0.030904
 **** Fit       0.023055
 **** Fit       0.018987
 **** Fit       0.027505
 **** Fit       0.025386
 **** Fit       0.031357
 **** Fit       0.038612
 **** Fit       0.047762
 **** Fit       0.014670
 **** Fit       0.020080
 **** Fit       0.031459
 **** Fit       0.035683
 **** Fit       0.040968
 **** Fit       0.047686
 **** Fit       0.056260
 **** Fit       0.024197
 **** Fit       0.027850
 **** Fit       0.037333
 **** Fit       0.040216
 **** Fit       0.043999
 **** Fit       0.048896
 **** Fit       0.055119
 **** Fit       0.062944
 **** Fit       0.072799
 **** Fit       0.035046
 **** Fit       0.042993
 **** Fit       0.044966
 **** Fit       0.047757
 **** Fit       0.051484
 **** Fit       0.056241
 **** Fit       0.062145
 **** Fit       0.069378
 **** Fit       0.078245
 **** Fit       0.041637
 **** Fit       0.048398
 **** Fit       0.049832
 **** Fit       0.052082
 **** Fit       0.055196
 **** Fit       0.059192
 **** Fit       0.064090
 **** Fit       0.069947
 **** Fit       0.076896
 **** Fit       0.085179
 **** Fit       0.053506
 **** Fit       0.054620
 **** Fit       0.056522
 **** Fit       0.059201
 **** Fit       0.049146
 **** Fit       0.058269
 **** Fit       0.059304
 **** Fit       0.049146
 **** Fit       0.048282
 **** Fit       0.062612
 **** Fit       0.044775
 **** Fit       0.046053
 **** Fit       0.037237
 **** Fit       0.039921
 **** Fit       0.042680
 **** Fit       0.045693
 **** Fit       0.028336
 **** Fit       0.032765
 **** Fit       0.036635
 **** Fit       0.040445
 **** Fit       0.044426
 **** Fit       0.023680
 **** Fit       0.028732
 **** Fit       0.033269
 **** Fit       0.037666
 **** Fit       0.042177
 **** Fit       0.023591
 **** Fit       0.027400
 **** Fit       0.031599
 **** Fit       0.035979
 **** Fit       0.040580
 **** Fit       0.045406
 **** Fit       0.030502
 **** Fit       0.029534
 **** Fit       0.031241
 **** Fit       0.034456
 **** Fit       0.038526
 **** Fit       0.043153
 **** Fit       0.048096
 **** Fit       0.053026
 **** Fit       0.036932
 **** Fit       0.037738
 **** Fit       0.040789
 **** Fit       0.045186
 **** Fit       0.050246
 **** Fit       0.055331
 **** Fit       0.059925
 **** Fit       0.044623
 **** Fit       0.048280
 **** Fit       0.053477
 **** Fit       0.061011
 **** Fit       0.063727
 **** Fit       0.067276
 **** Fit       0.071641
 **** Fit       0.076871
 **** Fit       0.083088
 **** Fit       0.090518
 **** Fit       0.060610
 **** Fit       0.060886
 **** Fit       0.062066
 **** Fit       0.063980
 **** Fit       0.066517
 **** Fit       0.069606
 **** Fit       0.073200
 **** Fit       0.077264
 **** Fit       0.081760
 **** Fit       0.086639
 **** Fit       0.062066
 **** Fit       0.062129
 **** Fit       0.062925
 **** Fit       0.064303
 **** Fit       0.066153
 **** Fit       0.068379
 **** Fit       0.070893
 **** Fit       0.073592
 **** Fit       0.076340
 **** Fit       0.078937
 **** Fit       0.081072
 **** Fit       0.062938
 **** Fit       0.062968
 **** Fit       0.062942
 **** Fit       0.063530
 **** Fit       0.064594
 **** Fit       0.066012
 **** Fit       0.067671
 **** Fit       0.069443
 **** Fit       0.071169
 **** Fit       0.072629
 **** Fit       0.073510
 **** Fit       0.073352
 **** Fit       0.071493
 **** Fit       0.065563
 **** Fit       0.063773
 **** Fit       0.063375
 **** Fit       0.063324
 **** Fit       0.063773
 **** Fit       0.064590
 **** Fit       0.065644
 **** Fit       0.066791
 **** Fit       0.067858
 **** Fit       0.068623
 **** Fit       0.068780
 **** Fit       0.067912
 **** Fit       0.065462
 **** Fit       0.060762
 **** Fit       0.053229
 **** Fit       0.065525
 **** Fit       0.064063
 **** Fit       0.063335
 **** Fit       0.063287
 **** Fit       0.063605
 **** Fit       0.064166
 **** Fit       0.064830
 **** Fit       0.065428
 **** Fit       0.065753
 **** Fit       0.065537
 **** Fit       0.064436
 **** Fit       0.062031
 **** Fit       0.057876
 **** Fit       0.051678
 **** Fit       0.043703
 **** Fit       0.066485
 **** Fit       0.064905
 **** Fit       0.063851
 **** Fit       0.062877
 **** Fit       0.062853
 **** Fit       0.063072
 **** Fit       0.063391
 **** Fit       0.063624
 **** Fit       0.063537
 **** Fit       0.062834
 **** Fit       0.061166
 **** Fit       0.058162
 **** Fit       0.053564
 **** Fit       0.047506
 **** Fit       0.040894
 **** Fit       0.035471
 **** Fit       0.065628
 **** Fit       0.064848
 **** Fit       0.063935
 **** Fit       0.063235
 **** Fit       0.062018
 **** Fit       0.062008
 **** Fit       0.062069
 **** Fit       0.062029
 **** Fit       0.061646
 **** Fit       0.060615
 **** Fit       0.058608
 **** Fit       0.055364
 **** Fit       0.050892
 **** Fit       0.045767
 **** Fit       0.041226
 **** Fit       0.038646
 **** Fit       0.038599
 **** Fit       0.060507
 **** Fit       0.062086
 **** Fit       0.062555
 **** Fit       0.062438
 **** Fit       0.062179
 **** Fit       0.060757
 **** Fit       0.060726
 **** Fit       0.060507
 **** Fit       0.059847
 **** Fit       0.058411
 **** Fit       0.055902
 **** Fit       0.052300
 **** Fit       0.048177
 **** Fit       0.044759
 **** Fit       0.043283
 **** Fit       0.044130
 **** Fit       0.046831
 **** Fit       0.050580
 **** Fit       0.054446
 **** Fit       0.057564
 **** Fit       0.059496
 **** Fit       0.060391
 **** Fit       0.060689
 **** Fit       0.059082
 **** Fit       0.058906
 **** Fit       0.057963
 **** Fit       0.055879
 **** Fit       0.052646
 **** Fit       0.049284
 **** Fit       0.047598
 **** Fit       0.048559
 **** Fit       0.051498
 **** Fit       0.054875
 **** Fit       0.057373
 **** Fit       0.058655
 **** Fit       0.056969
 **** Fit       0.056125
 **** Fit       0.053364
 **** Fit       0.051279
 **** Fit       0.052809
 **** Fit       0.055703
 **** Fit       0.054384
 **** Fit       0.008419
 **** Fit       0.017575
 **** Fit       0.030535
 **** Fit       0.025927
 **** Fit       0.037105
 **** Fit       0.033425
 **** Fit       0.042854
 **** Fit       0.045753
 **** Fit       0.039620
 **** Fit       0.035314
 **** Fit       0.039617
 **** Fit       0.047849
 **** Fit       0.050725
 **** Fit       0.045689
 **** Fit       0.038681
 **** Fit       0.036690
 **** Fit       0.041390
 **** Fit       0.044902
 **** Fit       0.052210
 **** Fit       0.055236
 **** Fit       0.045495
 **** Fit       0.041464
 **** Fit       0.038369
 **** Fit       0.042736
 **** Fit       0.046323
 **** Fit       0.049361
 **** Fit       0.056035
 **** Fit       0.059441
 **** Fit       0.046783
 **** Fit       0.045158
 **** Fit       0.043130
 **** Fit       0.040596
 **** Fit       0.040632
 **** Fit       0.043947
 **** Fit       0.047199
 **** Fit       0.050208
 **** Fit       0.053069
 **** Fit       0.059369
 **** Fit       0.063301
 **** Fit       0.046137
 **** Fit       0.046026
 **** Fit       0.045509
 **** Fit       0.044620
 **** Fit       0.043738
 **** Fit       0.043460
 **** Fit       0.044180
 **** Fit       0.045847
 **** Fit       0.048126
 **** Fit       0.050680
 **** Fit       0.053348
 **** Fit       0.056171
 **** Fit       0.062211
 **** Fit       0.046220
 **** Fit       0.047014
 **** Fit       0.047450
 **** Fit       0.047625
 **** Fit       0.047841
 **** Fit       0.048450
 **** Fit       0.049636
 **** Fit       0.051360
 **** Fit       0.053487
 **** Fit       0.055939
 **** Fit       0.058773
 **** Fit       0.064509
 **** Fit       0.046025
 **** Fit       0.047535
 **** Fit       0.048752
 **** Fit       0.049711
 **** Fit       0.050608
 **** Fit       0.051720
 **** Fit       0.053232
 **** Fit       0.055198
 **** Fit       0.057636
 **** Fit       0.060649
 **** Fit       0.066165
 **** Fit       0.048161
 **** Fit       0.049792
 **** Fit       0.051268
 **** Fit       0.052699
 **** Fit       0.054300
 **** Fit       0.056268
 **** Fit       0.058755
 **** Fit       0.061943
 **** Fit       0.050641
 **** Fit       0.052406
 **** Fit       0.054280
 **** Fit       0.056402
 **** Fit       0.059020
 **** Fit       0.062429
 **** Fit       0.055495
 **** Fit       0.058211
 **** Fit       0.061876
 -----------------------------------------------------------------
 Leave Link  602 at Wed Sep 18 17:40:49 2019, MaxMem=  1342177280 cpu:             128.7 elap:               2.7

 Test job not archived.
 1\1\GINC-C503-134\SP\RB3LYP\SVP\C54H83Ca1N15O23\PENGZHI\18-Sep-2019\0\
 \#b3lyp/svp scf=(tight,noincore) Test #IOP(5/87=12) Density=Current Po
 p=(MK,readradii) iop(6/33=2) iop(6/42=6)\\Ng-31_loop3_37.0\\0,1\C,0,63
 .89,65.76,32.79\C,0,64.31,65.36,34.2\O,0,63.44,64.86,34.9\H,0,63.038,6
 6.437,32.844\H,0,64.72,66.26,32.291\H,0,63.611,64.869,32.227\N,0,65.59
 ,65.49,34.55\C,0,66.31,64.96,35.7\C,0,65.72,65.3,37.06\O,0,65.83,64.49
 ,37.97\C,0,67.77,65.39,35.66\C,0,68.15,66.84,35.37\O,0,68.21,67.1,34.1
 5\O,0,68.18,67.67,36.3\H,0,66.23,65.74,33.81\H,0,66.35,63.88,35.7\H,0,
 68.3,64.73,34.97\H,0,68.16,65.09,36.63\N,0,65.01,66.41,37.28\C,0,64.21
 ,66.62,38.47\C,0,64.84,66.29,39.82\O,0,65.96,66.73,40.06\C,0,63.75,68.
 07,38.43\C,0,62.63,68.35,39.43\C,0,62.18,69.75,39.03\C,0,60.9,70.04,39
 .82\N,0,60.35,71.37,39.51\H,0,65.1,67.25,36.73\H,0,63.36,65.95,38.39\H
 ,0,63.4,68.21,37.41\H,0,64.57,68.78,38.58\H,0,62.97,68.33,40.46\H,0,61
 .87,67.6,39.22\H,0,61.92,69.9,37.99\H,0,62.89,70.48,39.43\H,0,61.05,69
 .91,40.89\H,0,60.2,69.27,39.51\H,0,59.53,71.61,40.06\H,0,61.05,72.1,39
 .46\H,0,59.99,71.33,38.57\N,0,64.16,65.44,40.61\C,0,64.61,64.76,41.8\C
 ,0,64.86,63.27,41.66\O,0,64.65,62.49,42.59\C,0,63.67,65.1,42.96\C,0,62
 .17,64.92,42.74\O,0,61.39,65.16,43.68\O,0,61.68,64.53,41.66\H,0,63.19,
 65.28,40.39\H,0,65.57,65.14,42.16\H,0,63.86,66.15,43.19\H,0,64.04,64.5
 4,43.81\N,0,65.35,62.8,40.51\C,0,65.89,61.47,40.27\C,0,67.41,61.36,40.
 37\O,0,68.11,62.36,40.52\H,0,65.43,63.48,39.77\H,0,65.56,61.22,39.26\H
 ,0,65.49,60.78,41.01\N,0,67.92,60.15,40.17\C,0,67.37,58.93,39.62\C,0,6
 8.38,58.16,38.77\O,0,69.42,57.83,39.34\C,0,66.81,58.15,40.81\C,0,66.76
 ,56.64,40.61\N,0,66.52,55.92,41.71\O,0,66.75,56.09,39.51\H,0,68.93,60.
 17,40.22\H,0,66.57,59.17,38.93\H,0,65.78,58.48,40.9\H,0,67.37,58.34,41
 .72\H,0,66.3,56.4,42.56\H,0,66.45,54.91,41.67\N,0,68.21,57.8,37.5\C,0,
 67.3,58.24,36.47\C,0,65.86,57.74,36.37\O,0,65.1,58.24,35.55\H,0,69.,57
 .25,37.19\H,0,67.88,58.06,35.56\H,0,67.23,59.33,36.5\N,0,65.5,56.8,37.
 25\C,0,64.15,56.29,37.23\C,0,63.36,57.,38.33\O,0,63.86,57.34,39.4\C,0,
 64.15,54.77,37.34\C,0,64.55,54.04,36.08\C,0,63.62,53.58,35.14\C,0,65.9
 ,53.91,35.75\C,0,63.96,52.96,33.93\C,0,66.31,53.27,34.57\C,0,65.34,52.
 81,33.67\O,0,65.8,52.28,32.49\H,0,66.12,56.48,37.98\H,0,63.7,56.55,36.
 27\H,0,63.18,54.41,37.68\H,0,64.96,54.58,38.05\H,0,62.61,53.55,35.54\H
 ,0,66.67,54.34,36.37\H,0,63.21,52.54,33.28\H,0,67.34,53.28,34.24\H,0,6
 6.75,52.35,32.62\N,0,62.08,57.25,38.06\C,0,61.24,58.21,38.74\C,0,60.36
 ,57.53,39.78\O,0,59.93,56.42,39.52\C,0,60.51,59.18,37.81\C,0,61.56,60.
 14,37.25\C,0,59.77,58.5,36.66\C,0,61.14,61.16,36.2\H,0,61.64,56.87,37.
 23\H,0,61.9,58.85,39.34\H,0,59.72,59.7,38.35\H,0,62.37,59.5,36.93\H,0,
 62.03,60.65,38.09\H,0,59.2,59.28,36.15\H,0,60.49,58.19,35.9\H,0,59.13,
 57.7,37.02\H,0,61.28,60.73,35.21\H,0,60.08,61.39,36.36\H,0,61.84,61.99
 ,36.29\N,0,60.09,58.18,40.92\C,0,59.18,57.89,42.\C,0,57.73,57.64,41.6\
 O,0,57.42,57.3,40.46\C,0,59.77,56.73,42.8\O,0,60.94,57.05,43.51\H,0,60
 .47,59.12,40.92\H,0,59.23,58.79,42.61\H,0,60.01,55.91,42.13\H,0,59.02,
 56.27,43.45\H,0,61.69,57.26,42.95\N,0,56.77,57.93,42.48\C,0,55.34,57.9
 2,42.23\C,0,54.76,59.32,42.1\O,0,55.36,60.26,42.61\C,0,54.57,57.09,43.
 26\H,0,57.08,58.1,43.42\H,0,55.22,57.42,41.27\H,0,53.53,57.4,43.13\H,0
 ,54.77,56.02,43.18\H,0,54.91,57.46,44.22\N,0,53.56,59.36,41.53\C,0,52.
 84,60.57,41.18\C,0,53.68,61.37,40.19\O,0,53.19,62.45,39.85\C,0,52.22,6
 1.17,42.44\H,0,53.24,58.53,41.05\H,0,52.02,60.21,40.57\H,0,51.63,62.06
 ,42.23\H,0,51.65,60.39,42.95\H,0,53.01,61.52,43.1\N,0,54.82,60.87,39.7
 1\C,0,55.61,61.57,38.72\C,0,55.14,61.5,37.28\O,0,55.11,62.53,36.62\C,0
 ,57.06,61.18,39.\C,0,58.09,62.28,38.79\C,0,58.08,63.44,39.77\O,0,59.07
 ,64.2,39.78\O,0,57.2,63.49,40.66\H,0,54.97,59.9,39.94\H,0,55.49,62.64,
 38.91\H,0,57.42,60.27,38.52\H,0,57.08,60.84,40.04\H,0,57.98,62.87,37.8
 8\H,0,59.08,61.83,38.77\N,0,54.72,60.32,36.8\C,0,54.11,60.07,35.51\H,0
 ,53.215,60.683,35.407\H,0,54.816,60.323,34.719\H,0,53.839,59.017,35.43
 3\H,0,54.87,59.5,37.38\Ca,0,59.03,64.77,42.3\O,0,57.61,64.05,44.34\H,0
 ,57.55,64.54,45.16\H,0,57.1,63.25,44.5\\Version=ES64L-G16RevA.03\State
 =1-A\HF=-5333.3668243\RMSD=9.289e-10\Dipole=-14.3189529,4.4759133,8.14
 35604\Quadrupole=-114.5029001,154.3368762,-39.833976,-136.3236261,-21.
 6012762,65.6447184\PG=C01 [X(C54H83Ca1N15O23)]\\@


 TO ERR IS HUMAN - AND TO BLAME IT ON A COMPUTER IS EVEN MORE SO.
 Job cpu time:       0 days 10 hours 25 minutes 32.0 seconds.
 Elapsed time:       0 days  0 hours 13 minutes 12.5 seconds.
 File lengths (MBytes):  RWF=   1517 Int=      0 D2E=      0 Chk=    171 Scr=      1
 Normal termination of Gaussian 16 at Wed Sep 18 17:40:51 2019.
