 Entering Gaussian System, Link 0=g16
 Initial command:
 /home1/apps/gaussian/16rA.03/g16/l1.exe "/scratch/04905/jaebeomh/4356887/Gau-79892.inp" -scrdir="/scratch/04905/jaebeomh/4356887/"
 Entering Link 1 = /home1/apps/gaussian/16rA.03/g16/l1.exe PID=     79893.
  
 Copyright (c) 1988,1990,1992,1993,1995,1998,2003,2009,2016,
            Gaussian, Inc.  All Rights Reserved.
  
 This is part of the Gaussian(R) 16 program.  It is based on
 the Gaussian(R) 09 system (copyright 2009, Gaussian, Inc.),
 the Gaussian(R) 03 system (copyright 2003, Gaussian, Inc.),
 the Gaussian(R) 98 system (copyright 1998, Gaussian, Inc.),
 the Gaussian(R) 94 system (copyright 1995, Gaussian, Inc.),
 the Gaussian 92(TM) system (copyright 1992, Gaussian, Inc.),
 the Gaussian 90(TM) system (copyright 1990, Gaussian, Inc.),
 the Gaussian 88(TM) system (copyright 1988, Gaussian, Inc.),
 the Gaussian 86(TM) system (copyright 1986, Carnegie Mellon
 University), and the Gaussian 82(TM) system (copyright 1983,
 Carnegie Mellon University). Gaussian is a federally registered
 trademark of Gaussian, Inc.
  
 This software contains proprietary and confidential information,
 including trade secrets, belonging to Gaussian, Inc.
  
 This software is provided under written license and may be
 used, copied, transmitted, or stored only in accord with that
 written license.
  
 The following legend is applicable only to US Government
 contracts under FAR:
  
                    RESTRICTED RIGHTS LEGEND
  
 Use, reproduction and disclosure by the US Government is
 subject to restrictions as set forth in subparagraphs (a)
 and (c) of the Commercial Computer Software - Restricted
 Rights clause in FAR 52.227-19.
  
 Gaussian, Inc.
 340 Quinnipiac St., Bldg. 40, Wallingford CT 06492
  
  
 ---------------------------------------------------------------
 Warning -- This program may not be used in any manner that
 competes with the business of Gaussian, Inc. or will provide
 assistance to any competitor of Gaussian, Inc.  The licensee
 of this program is prohibited from giving any competitor of
 Gaussian, Inc. access to this program.  By using this program,
 the user acknowledges that Gaussian, Inc. is engaged in the
 business of creating and licensing software in the field of
 computational chemistry and represents and warrants to the
 licensee that it is not a competitor of Gaussian, Inc. and that
 it will not use this program in any manner prohibited above.
 ---------------------------------------------------------------
  

 Cite this work as:
 Gaussian 16, Revision A.03,
 M. J. Frisch, G. W. Trucks, H. B. Schlegel, G. E. Scuseria, 
 M. A. Robb, J. R. Cheeseman, G. Scalmani, V. Barone, 
 G. A. Petersson, H. Nakatsuji, X. Li, M. Caricato, A. V. Marenich, 
 J. Bloino, B. G. Janesko, R. Gomperts, B. Mennucci, H. P. Hratchian, 
 J. V. Ortiz, A. F. Izmaylov, J. L. Sonnenberg, D. Williams-Young, 
 F. Ding, F. Lipparini, F. Egidi, J. Goings, B. Peng, A. Petrone, 
 T. Henderson, D. Ranasinghe, V. G. Zakrzewski, J. Gao, N. Rega, 
 G. Zheng, W. Liang, M. Hada, M. Ehara, K. Toyota, R. Fukuda, 
 J. Hasegawa, M. Ishida, T. Nakajima, Y. Honda, O. Kitao, H. Nakai, 
 T. Vreven, K. Throssell, J. A. Montgomery, Jr., J. E. Peralta, 
 F. Ogliaro, M. J. Bearpark, J. J. Heyd, E. N. Brothers, K. N. Kudin, 
 V. N. Staroverov, T. A. Keith, R. Kobayashi, J. Normand, 
 K. Raghavachari, A. P. Rendell, J. C. Burant, S. S. Iyengar, 
 J. Tomasi, M. Cossi, J. M. Millam, M. Klene, C. Adamo, R. Cammi, 
 J. W. Ochterski, R. L. Martin, K. Morokuma, O. Farkas, 
 J. B. Foresman, and D. J. Fox, Gaussian, Inc., Wallingford CT, 2016.
 
 ******************************************
 Gaussian 16:  ES64L-G16RevA.03 25-Dec-2016
                18-Sep-2019 
 ******************************************
 %chk=CaMKII_loop3_37.0.chk
 %nprocshared=48
 Will use up to   48 processors via shared memory.
 %mem=10GB
 %nosave
 ----------------------------------------------------------------------
 #b3lyp/svp scf=(tight,noincore) Test #IOP(5/87=12) Density=Current Pop
 =(MK,readradii) iop(6/33=2) iop(6/42=6)
 ----------------------------------------------------------------------
 1/30=1,38=1,172=1/1;
 2/12=2,17=6,18=5,40=1/2;
 3/5=18,7=101,11=2,25=1,30=1,74=-5/1,2,3;
 4//1;
 5/5=4,32=2,38=5,87=12/2;
 6/7=2,8=2,9=2,10=2,15=8,20=101,22=-1,28=1,33=2,42=6/1,2;
 99/5=1,9=1/99;
 -----------------
 CaMKII_loop3_37.0
 -----------------
 Symbolic Z-matrix:
 Charge =  0 Multiplicity = 1
 C                     65.74     46.68     24.61 
 C                     64.6      45.71     24.9 
 O                     64.83     44.56     25.27 
 H                     66.613    46.123    24.27 
 H                     65.433    47.381    23.834 
 H                     65.991    47.229    25.518 
 N                     63.36     46.18     25. 
 C                     62.12     45.5      25.31 
 C                     61.85     44.43     24.27 
 O                     61.64     44.7      23.09 
 C                     60.95     46.47     25.52 
 C                     59.63     45.81     25.89 
 O                     59.66     44.63     26.28 
 O                     58.57     46.47     25.81 
 H                     63.22     47.1      24.61 
 H                     62.2      45.01     26.28 
 H                     60.73     46.96     24.57 
 H                     61.25     47.26     26.2 
 N                     61.93     43.16     24.69 
 C                     62.05     41.92     23.95 
 C                     60.68     41.33     23.65 
 O                     60.56     40.37     22.9 
 C                     62.93     40.92     24.7 
 C                     63.66     39.94     23.79 
 C                     64.79     39.22     24.53 
 C                     65.48     38.29     23.54 
 N                     66.34     37.32     24.24 
 H                     62.09     43.08     25.68 
 H                     62.54     42.22     23.02 
 H                     62.34     40.4      25.45 
 H                     63.66     41.48     25.28 
 H                     64.18     40.5      23.01 
 H                     62.96     39.24     23.35 
 H                     64.38     38.59     25.32 
 H                     65.59     39.81     24.98 
 H                     66.04     38.97     22.88 
 H                     64.69     37.79     22.99 
 H                     66.31     36.43     23.76 
 H                     67.31     37.61     24.28 
 H                     66.05     37.07     25.17 
 N                     59.58     41.8      24.25 
 C                     58.23     41.32     24.1 
 C                     57.22     42.45     23.92 
 O                     56.02     42.26     23.76 
 C                     57.76     40.37     25.2 
 C                     57.72     40.87     26.64 
 O                     57.35     40.09     27.54 
 O                     58.05     42.06     26.87 
 H                     59.66     42.54     24.94 
 H                     58.11     40.84     23.13 
 H                     58.49     39.56     25.16 
 H                     56.81     39.91     24.96 
 N                     57.66     43.7      24.1 
 C                     56.94     44.93     23.85 
 C                     55.9      45.36     24.87 
 O                     54.94     46.1      24.63 
 H                     58.55     43.86     24.56 
 H                     56.48     44.8      22.87 
 H                     57.59     45.8      23.8 
 N                     56.12     44.83     26.08 
 C                     55.25     45.14     27.2 
 C                     55.37     46.54     27.78 
 O                     54.57     46.95     28.62 
 C                     55.42     43.95     28.15 
 C                     56.49     44.14     29.21 
 N                     56.26     43.86     30.5 
 O                     57.58     44.64     28.94 
 H                     56.98     44.34     26.24 
 H                     54.25     45.08     26.77 
 H                     55.38     42.97     27.69 
 H                     54.48     44.07     28.69 
 H                     55.46     43.27     30.66 
 H                     56.88     44.24     31.2 
 N                     56.34     47.34     27.34 
 C                     56.64     48.67     27.82 
 C                     57.57     48.73     29.03 
 O                     57.56     49.72     29.75 
 H                     57.01     47.01     26.66 
 H                     55.71     49.18     28.05 
 H                     57.08     49.22     26.99 
 N                     58.26     47.61     29.31 
 C                     59.23     47.5      30.37 
 C                     60.47     46.68     30.04 
 O                     60.43     45.69     29.31 
 C                     58.56     46.96     31.62 
 C                     57.39     47.79     32.11 
 C                     57.56     48.68     33.17 
 C                     56.11     47.61     31.59 
 C                     56.44     49.32     33.74 
 C                     54.98     48.25     32.12 
 C                     55.15     49.11     33.22 
 O                     54.09     49.72     33.84 
 H                     58.21     46.91     28.58 
 H                     59.51     48.55     30.53 
 H                     59.22     47.02     32.49 
 H                     58.28     45.91     31.55 
 H                     58.52     48.89     33.62 
 H                     55.94     46.87     30.81 
 H                     56.61     49.8      34.69 
 H                     54.03     47.95     31.69 
 H                     53.3      49.54     33.33 
 N                     61.57     47.02     30.71 
 C                     62.83     46.31     30.66 
 C                     63.16     45.71     32.02 
 O                     62.95     46.29     33.09 
 C                     63.93     47.17     30.05 
 C                     63.61     47.96     28.78 
 C                     65.25     46.4      29.96 
 C                     64.39     49.24     28.54 
 H                     61.58     47.81     31.33 
 H                     62.67     45.42     30.06 
 H                     64.09     47.96     30.79 
 H                     62.55     48.2      28.8 
 H                     63.81     47.34     27.91 
 H                     65.56     46.17     30.98 
 H                     65.19     45.49     29.37 
 H                     65.95     47.13     29.55 
 H                     64.22     49.92     29.38 
 H                     65.47     49.1      28.44 
 H                     63.92     49.65     27.65 
 N                     63.87     44.58     32. 
 C                     64.24     43.67     33.06 
 C                     65.64     43.11     32.86 
 O                     66.12     43.17     31.73 
 C                     63.29     42.47     33.12 
 O                     63.38     41.79     31.89 
 H                     64.05     44.31     31.04 
 H                     64.24     44.1      34.07 
 H                     62.31     42.94     33.22 
 H                     63.47     41.83     33.98 
 H                     63.08     42.37     31.2 
 N                     66.25     42.49     33.88 
 C                     67.55     41.85     33.81 
 C                     67.82     40.99     32.59 
 O                     68.83     41.21     31.91 
 C                     67.86     41.19     35.15 
 H                     65.87     42.64     34.8 
 H                     68.26     42.67     33.71 
 H                     68.84     40.77     35.37 
 H                     67.64     41.81     36.02 
 H                     67.24     40.3      35.21 
 N                     67.03     39.95     32.3 
 C                     67.29     39.14     31.13 
 C                     67.34     39.92     29.82 
 O                     68.12     39.49     28.98 
 C                     66.2      38.08     31.13 
 H                     66.23     39.74     32.88 
 H                     68.17     38.51     31.28 
 H                     66.42     37.49     30.24 
 H                     66.16     37.56     32.08 
 H                     65.25     38.54     30.87 
 N                     66.49     40.93     29.61 
 C                     66.45     41.71     28.39 
 C                     67.71     42.56     28.3 
 O                     68.29     42.72     27.22 
 C                     65.2      42.57     28.29 
 C                     63.95     41.69     28.24 
 C                     62.73     42.59     28.35 
 O                     61.99     42.83     27.38 
 O                     62.41     42.91     29.52 
 H                     65.74     41.03     30.28 
 H                     66.39     41.06     27.52 
 H                     65.28     43.29     27.48 
 H                     65.15     43.2      29.17 
 H                     63.93     41.09     29.15 
 H                     63.97     41.14     27.3 
 N                     68.09     43.19     29.41 
 C                     69.28     44.02     29.41 
 H                     70.087    43.497    28.897 
 H                     69.07     44.957    28.895 
 H                     69.578    44.228    30.437 
 H                     67.54     43.17     30.25 
 Ca                    59.76     43.16     28.54 
 O                     59.89     43.27     31.23 
 H                     59.75     43.77     32.04 
 H                     60.13     42.39     31.53 
 
 Stoichiometry    C54H83CaN15O23
 Framework group  C1[X(C54H83CaN15O23)]
 Deg. of freedom   522
 Full point group                 C1      NOp   1
 Largest Abelian subgroup         C1      NOp   1
 Largest concise Abelian subgroup C1      NOp   1
                         Standard orientation:                         
 ---------------------------------------------------------------------
 Center     Atomic      Atomic             Coordinates (Angstroms)
 Number     Number       Type             X           Y           Z
 ---------------------------------------------------------------------
      1          6           0        2.215485    1.778553    5.652418
      2          6           0        1.658153    2.070510    4.263626
      3          8           0        2.409221    2.210817    3.300033
      4          1           0        3.206257    2.222896    5.746795
      5          1           0        1.554308    2.204437    6.406933
      6          1           0        2.286254    0.700176    5.797197
      7          7           0        0.355042    1.920731    4.044612
      8          6           0       -0.417848    2.080844    2.830897
      9          6           0       -0.287916    3.504895    2.326319
     10          8           0       -0.711935    4.467323    2.961409
     11          6           0       -1.869104    1.608268    2.987190
     12          6           0       -2.716170    1.715307    1.727856
     13          8           0       -2.128034    1.873782    0.644167
     14          8           0       -3.960942    1.623485    1.815661
     15          1           0       -0.215952    1.887457    4.875852
     16          1           0       -0.033102    1.416377    2.057687
     17          1           0       -2.376607    2.271001    3.690202
     18          1           0       -1.884083    0.623805    3.442281
     19          7           0        0.387616    3.669726    1.180812
     20          6           0        0.970174    4.854128    0.582966
     21          6           0       -0.019059    5.535695   -0.350781
     22          8           0        0.224641    6.635551   -0.829767
     23          6           0        2.271760    4.514791   -0.143411
     24          6           0        3.265794    5.668321   -0.195057
     25          6           0        4.665132    5.187922   -0.587449
     26          6           0        5.593425    6.395956   -0.582461
     27          7           0        6.858932    6.090650   -1.272228
     28          1           0        0.664042    2.800724    0.755930
     29          1           0        1.181449    5.499309    1.439765
     30          1           0        2.050925    4.137287   -1.138259
     31          1           0        2.731854    3.669674    0.363531
     32          1           0        3.403558    6.063412    0.813568
     33          1           0        2.908357    6.445387   -0.859893
     34          1           0        4.657380    4.801494   -1.607112
     35          1           0        5.161386    4.437983    0.030550
     36          1           0        5.725611    6.627212    0.485550
     37          1           0        5.056277    7.195206   -1.081732
     38          1           0        7.178666    6.908424   -1.774638
     39          1           0        7.598773    5.817510   -0.636122
     40          1           0        6.803719    5.400763   -2.001960
     41          7           0       -1.147715    4.922714   -0.726668
     42          6           0       -2.152934    5.420256   -1.630763
     43          6           0       -3.571263    5.208688   -1.108286
     44          8           0       -4.572264    5.572375   -1.714446
     45          6           0       -2.041597    4.902053   -3.063407
     46          6           0       -2.155526    3.402779   -3.317173
     47          8           0       -2.050264    2.978297   -4.485092
     48          8           0       -2.365676    2.644107   -2.338320
     49          1           0       -1.335583    3.976322   -0.411791
     50          1           0       -2.143701    6.509099   -1.636775
     51          1           0       -1.036361    5.204142   -3.361474
     52          1           0       -2.708207    5.425274   -3.736884
     53          7           0       -3.714944    4.456070   -0.012193
     54          6           0       -4.926123    4.230367    0.746691
     55          6           0       -5.941843    3.252250    0.182334
     56          8           0       -7.148852    3.257332    0.446727
     57          1           0       -2.947052    3.872888    0.303308
     58          1           0       -5.375855    5.215906    0.870601
     59          1           0       -4.737248    3.823614    1.737034
     60          7           0       -5.390775    2.374358   -0.665623
     61          6           0       -6.191927    1.339152   -1.293239
     62          6           0       -6.647409    0.200887   -0.394523
     63          8           0       -7.458317   -0.635317   -0.790616
     64          6           0       -5.418942    0.985106   -2.567855
     65          6           0       -4.444297   -0.168283   -2.411777
     66          7           0       -4.396969   -1.173987   -3.295927
     67          8           0       -3.721363   -0.268966   -1.422722
     68          1           0       -4.391550    2.344153   -0.742681
     69          1           0       -7.099142    1.864923   -1.591612
     70          1           0       -5.066268    1.825098   -3.154058
     71          1           0       -6.255979    0.558778   -3.122122
     72          1           0       -4.832577   -0.969454   -4.180298
     73          1           0       -3.943235   -2.035816   -3.031018
     74          7           0       -6.181172    0.136220    0.851648
     75          6           0       -6.455205   -0.903103    1.818092
     76          6           0       -5.532815   -2.118204    1.745125
     77          8           0       -5.908620   -3.189225    2.203694
     78          1           0       -5.505624    0.809742    1.183616
     79          1           0       -7.486887   -1.222181    1.709819
     80          1           0       -6.389267   -0.449751    2.805576
     81          7           0       -4.394105   -1.963466    1.046344
     82          6           0       -3.375692   -2.975499    0.922953
     83          6           0       -1.940430   -2.468615    0.967576
     84          8           0       -1.610171   -1.382886    0.491423
     85          6           0       -3.609242   -3.782175   -0.341059
     86          6           0       -4.970653   -4.444518   -0.416966
     87          6           0       -5.107978   -5.797022   -0.106364
     88          6           0       -6.083157   -3.754053   -0.893193
     89          6           0       -6.332731   -6.454439   -0.344444
     90          6           0       -7.320798   -4.374552   -1.118197
     91          6           0       -7.440858   -5.749838   -0.848618
     92          8           0       -8.593891   -6.445899   -1.105747
     93          1           0       -4.201199   -1.002080    0.793514
     94          1           0       -3.575347   -3.605232    1.800492
     95          1           0       -2.961235   -4.662138   -0.384094
     96          1           0       -3.400640   -3.232911   -1.257899
     97          1           0       -4.300852   -6.400973    0.283497
     98          1           0       -5.984431   -2.716810   -1.208282
     99          1           0       -6.299400   -7.531167   -0.307747
    100          1           0       -8.077163   -3.750690   -1.583070
    101          1           0       -9.268792   -5.820892   -1.371216
    102          7           0       -1.044265   -3.341674    1.424911
    103          6           0        0.387936   -3.135049    1.442419
    104          6           0        1.082935   -4.129452    0.522289
    105          8           0        0.745312   -5.312918    0.418276
    106          6           0        0.926531   -3.088676    2.867012
    107          6           0        0.165238   -2.258117    3.901422
    108          6           0        2.434792   -2.827242    2.881216
    109          6           0        0.269466   -2.687408    5.353746
    110          1           0       -1.323610   -4.239042    1.778884
    111          1           0        0.579905   -2.194987    0.935336
    112          1           0        0.792772   -4.110638    3.234438
    113          1           0       -0.883572   -2.257598    3.615768
    114          1           0        0.531552   -1.235010    3.882302
    115          1           0        2.914292   -3.675457    2.391306
    116          1           0        2.725717   -1.899001    2.397965
    117          1           0        2.694434   -2.857298    3.940783
    118          1           0       -0.099674   -3.713117    5.446251
    119          1           0        1.283852   -2.661980    5.761637
    120          1           0       -0.419399   -2.014867    5.857983
    121          7           0        2.214069   -3.704461   -0.044561
    122          6           0        3.052185   -4.301094   -1.059544
    123          6           0        4.527782   -4.041412   -0.797287
    124          8           0        4.816560   -3.112397   -0.045996
    125          6           0        2.743152   -3.725876   -2.445084
    126          8           0        3.002235   -2.342237   -2.402408
    127          1           0        2.398597   -2.750037    0.241665
    128          1           0        2.962150   -5.390223   -1.162943
    129          1           0        1.671711   -3.905643   -2.549950
    130          1           0        3.272502   -4.238614   -3.244139
    131          1           0        2.409437   -1.941692   -1.777385
    132          7           0        5.447327   -4.755459   -1.461723
    133          6           0        6.882177   -4.565857   -1.362955
    134          6           0        7.382364   -3.134027   -1.386959
    135          8           0        8.117267   -2.737730   -0.473851
    136          6           0        7.583942   -5.514106   -2.330244
    137          1           0        5.133763   -5.599121   -1.912514
    138          1           0        7.141688   -4.913187   -0.363697
    139          1           0        8.665053   -5.642091   -2.325854
    140          1           0        7.199807   -6.534907   -2.319905
    141          1           0        7.431651   -5.111100   -3.327487
    142          7           0        7.110235   -2.333564   -2.423783
    143          6           0        7.584337   -0.966923   -2.434750
    144          6           0        7.153180   -0.138948   -1.228284
    145          8           0        7.955126    0.708218   -0.856676
    146          6           0        7.082587   -0.382494   -3.745624
    147          1           0        6.548079   -2.668998   -3.193175
    148          1           0        8.662395   -0.929910   -2.608592
    149          1           0        7.451446    0.643206   -3.723674
    150          1           0        7.371707   -1.002257   -4.586341
    151          1           0        6.006514   -0.239515   -3.687968
    152          7           0        5.927583   -0.290218   -0.716689
    153          6           0        5.425181    0.467668    0.410964
    154          6           0        6.162470    0.034978    1.670879
    155          8           0        6.501032    0.864478    2.522761
    156          6           0        3.920541    0.329094    0.581131
    157          6           0        3.191531    0.898789   -0.636815
    158          6           0        1.716784    0.551682   -0.513771
    159          8           0        0.854680    1.400460   -0.226626
    160          8           0        1.406244   -0.595994   -0.913902
    161          1           0        5.281626   -0.846040   -1.260013
    162          1           0        5.573112    1.533746    0.254139
    163          1           0        3.592400    0.732519    1.535317
    164          1           0        3.684448   -0.724583    0.669591
    165          1           0        3.529927    0.347103   -1.514101
    166          1           0        3.359495    1.974953   -0.649429
    167          7           0        6.332390   -1.273940    1.847687
    168          6           0        7.025113   -1.770372    3.021864
    169          1           0        7.924818   -1.178449    3.189507
    170          1           0        6.371789   -1.691166    3.890304
    171          1           0        7.300623   -2.813003    2.867554
    172          1           0        5.934691   -1.952899    1.223708
    173         20           0       -1.163166    0.477697   -1.453087
    174          8           0       -0.828608   -1.990051   -2.484297
    175          1           0       -1.094276   -2.914503   -2.506860
    176          1           0       -0.195175   -1.905150   -3.200924
 ---------------------------------------------------------------------
 Rotational constants (GHZ):           0.0236839           0.0148995           0.0114595
 Standard basis: SVP (5D, 7F)
 There are  1809 symmetry adapted cartesian basis functions of A   symmetry.
 There are  1717 symmetry adapted basis functions of A   symmetry.
  1717 basis functions,  2922 primitive gaussians,  1809 cartesian basis functions
   358 alpha electrons      358 beta electrons
       nuclear repulsion energy     21638.3619612331 Hartrees.
 NAtoms=  176 NActive=  176 NUniq=  176 SFac= 1.00D+00 NAtFMM=   60 NAOKFM=T Big=T
 Integral buffers will be    131072 words long.
 Raffenetti 2 integral format.
 Two-electron integral symmetry is turned on.
 One-electron integrals computed using PRISM.
 NBasis=  1717 RedAO= T EigKep=  2.61D-04  NBF=  1717
 NBsUse=  1717 1.00D-06 EigRej= -1.00D+00 NBFU=  1717
 ExpMin= 1.98D-02 ExpMax= 3.51D+04 ExpMxC= 5.28D+03 IAcc=3 IRadAn=         5 AccDes= 0.00D+00
 Harris functional with IExCor=  402 and IRadAn=       5 diagonalized for initial guess.
 HarFok:  IExCor=  402 AccDes= 0.00D+00 IRadAn=         5 IDoV= 1 UseB2=F ITyADJ=14
 ICtDFT=  3500011 ScaDFX=  1.000000  1.000000  1.000000  1.000000
 FoFCou: FMM=F IPFlag=           0 FMFlag=      100000 FMFlg1=        2001
         NFxFlg=           0 DoJE=T BraDBF=F KetDBF=T FulRan=T
         wScrn=  0.000000 ICntrl=       500 IOpCl=  0 I1Cent=   200000004 NGrid=           0
         NMat0=    1 NMatS0=      1 NMatT0=    0 NMatD0=    1 NMtDS0=    0 NMtDT0=    0
 Petite list used in FoFCou.
 Requested convergence on RMS density matrix=1.00D-08 within 128 cycles.
 Requested convergence on MAX density matrix=1.00D-06.
 Requested convergence on             energy=1.00D-06.
 No special actions if energy rises.
 EnCoef did     4 forward-backward iterations
 EnCoef did     7 forward-backward iterations
 SCF Done:  E(RB3LYP) =  -5333.57156680     A.U. after   20 cycles
            NFock= 20  Conv=0.31D-08     -V/T= 2.0082
 SCF density gives NOpUse=  1 NOpAll=  1.
 Hyperfine terms turned off by default for NAtoms > 100.

 **********************************************************************

            Population analysis using the SCF density.

 **********************************************************************

 Orbital symmetries:
 BldTbl:  Degeneracy threshold= 1.00D-02
       Occupied  (A) (A) (A) (A) (A) (A) (A) (A) (A) (A) (A) (A)
                 (A) (A) (A) (A) (A) (A) (A) (A) (A) (A) (A) (A)
                 (A) (A) (A) (A) (A) (A) (A) (A) (A) (A) (A) (A)
                 (A) (A) (A) (A) (A) (A) (A) (A) (A) (A) (A) (A)
                 (A) (A) (A) (A) (A) (A) (A) (A) (A) (A) (A) (A)
                 (A) (A) (A) (A) (A) (A) (A) (A) (A) (A) (A) (A)
                 (A) (A) (A) (A) (A) (A) (A) (A) (A) (A) (A) (A)
                 (A) (A) (A) (A) (A) (A) (A) (A) (A) (A) (A) (A)
                 (A) (A) (A) (A) (A) (A) (A) (A) (A) (A) (A) (A)
                 (A) (A) (A) (A) (A) (A) (A) (A) (A) (A) (A) (A)
                 (A) (A) (A) (A) (A) (A) (A) (A) (A) (A) (A) (A)
                 (A) (A) (A) (A) (A) (A) (A) (A) (A) (A) (A) (A)
                 (A) (A) (A) (A) (A) (A) (A) (A) (A) (A) (A) (A)
                 (A) (A) (A) (A) (A) (A) (A) (A) (A) (A) (A) (A)
                 (A) (A) (A) (A) (A) (A) (A) (A) (A) (A) (A) (A)
                 (A) (A) (A) (A) (A) (A) (A) (A) (A) (A) (A) (A)
                 (A) (A) (A) (A) (A) (A) (A) (A) (A) (A) (A) (A)
                 (A) (A) (A) (A) (A) (A) (A) (A) (A) (A) (A) (A)
                 (A) (A) (A) (A) (A) (A) (A) (A) (A) (A) (A) (A)
                 (A) (A) (A) (A) (A) (A) (A) (A) (A) (A) (A) (A)
                 (A) (A) (A) (A) (A) (A) (A) (A) (A) (A) (A) (A)
                 (A) (A) (A) (A) (A) (A) (A) (A) (A) (A) (A) (A)
                 (A) (A) (A) (A) (A) (A) (A) (A) (A) (A) (A) (A)
                 (A) (A) (A) (A) (A) (A) (A) (A) (A) (A) (A) (A)
                 (A) (A) (A) (A) (A) (A) (A) (A) (A) (A) (A) (A)
                 (A) (A) (A) (A) (A) (A) (A) (A) (A) (A) (A) (A)
                 (A) (A) (A) (A) (A) (A) (A) (A) (A) (A) (A) (A)
                 (A) (A) (A) (A) (A) (A) (A) (A) (A) (A) (A) (A)
                 (A) (A) (A) (A) (A) (A) (A) (A) (A) (A) (A) (A)
                 (A) (A) (A) (A) (A) (A) (A) (A) (A) (A)
       Virtual   (A) (A) (A) (A) (A) (A) (A) (A) (A) (A) (A) (A)
                 (A) (A) (A) (A) (A) (A) (A) (A) (A) (A) (A) (A)
                 (A) (A) (A) (A) (A) (A) (A) (A) (A) (A) (A) (A)
                 (A) (A) (A) (A) (A) (A) (A) (A) (A) (A) (A) (A)
                 (A) (A) (A) (A) (A) (A) (A) (A) (A) (A) (A) (A)
                 (A) (A) (A) (A) (A) (A) (A) (A) (A) (A) (A) (A)
                 (A) (A) (A) (A) (A) (A) (A) (A) (A) (A) (A) (A)
                 (A) (A) (A) (A) (A) (A) (A) (A) (A) (A) (A) (A)
                 (A) (A) (A) (A) (A) (A) (A) (A) (A) (A) (A) (A)
                 (A) (A) (A) (A) (A) (A) (A) (A) (A) (A) (A) (A)
                 (A) (A) (A) (A) (A) (A) (A) (A) (A) (A) (A) (A)
                 (A) (A) (A) (A) (A) (A) (A) (A) (A) (A) (A) (A)
                 (A) (A) (A) (A) (A) (A) (A) (A) (A) (A) (A) (A)
                 (A) (A) (A) (A) (A) (A) (A) (A) (A) (A) (A) (A)
                 (A) (A) (A) (A) (A) (A) (A) (A) (A) (A) (A) (A)
                 (A) (A) (A) (A) (A) (A) (A) (A) (A) (A) (A) (A)
                 (A) (A) (A) (A) (A) (A) (A) (A) (A) (A) (A) (A)
                 (A) (A) (A) (A) (A) (A) (A) (A) (A) (A) (A) (A)
                 (A) (A) (A) (A) (A) (A) (A) (A) (A) (A) (A) (A)
                 (A) (A) (A) (A) (A) (A) (A) (A) (A) (A) (A) (A)
                 (A) (A) (A) (A) (A) (A) (A) (A) (A) (A) (A) (A)
                 (A) (A) (A) (A) (A) (A) (A) (A) (A) (A) (A) (A)
                 (A) (A) (A) (A) (A) (A) (A) (A) (A) (A) (A) (A)
                 (A) (A) (A) (A) (A) (A) (A) (A) (A) (A) (A) (A)
                 (A) (A) (A) (A) (A) (A) (A) (A) (A) (A) (A) (A)
                 (A) (A) (A) (A) (A) (A) (A) (A) (A) (A) (A) (A)
                 (A) (A) (A) (A) (A) (A) (A) (A) (A) (A) (A) (A)
                 (A) (A) (A) (A) (A) (A) (A) (A) (A) (A) (A) (A)
                 (A) (A) (A) (A) (A) (A) (A) (A) (A) (A) (A) (A)
                 (A) (A) (A) (A) (A) (A) (A) (A) (A) (A) (A) (A)
                 (A) (A) (A) (A) (A) (A) (A) (A) (A) (A) (A) (A)
                 (A) (A) (A) (A) (A) (A) (A) (A) (A) (A) (A) (A)
                 (A) (A) (A) (A) (A) (A) (A) (A) (A) (A) (A) (A)
                 (A) (A) (A) (A) (A) (A) (A) (A) (A) (A) (A) (A)
                 (A) (A) (A) (A) (A) (A) (A) (A) (A) (A) (A) (A)
                 (A) (A) (A) (A) (A) (A) (A) (A) (A) (A) (A) (A)
                 (A) (A) (A) (A) (A) (A) (A) (A) (A) (A) (A) (A)
                 (A) (A) (A) (A) (A) (A) (A) (A) (A) (A) (A) (A)
                 (A) (A) (A) (A) (A) (A) (A) (A) (A) (A) (A) (A)
                 (A) (A) (A) (A) (A) (A) (A) (A) (A) (A) (A) (A)
                 (A) (A) (A) (A) (A) (A) (A) (A) (A) (A) (A) (A)
                 (A) (A) (A) (A) (A) (A) (A) (A) (A) (A) (A) (A)
                 (A) (A) (A) (A) (A) (A) (A) (A) (A) (A) (A) (A)
                 (A) (A) (A) (A) (A) (A) (A) (A) (A) (A) (A) (A)
                 (A) (A) (A) (A) (A) (A) (A) (A) (A) (A) (A) (A)
                 (A) (A) (A) (A) (A) (A) (A) (A) (A) (A) (A) (A)
                 (A) (A) (A) (A) (A) (A) (A) (A) (A) (A) (A) (A)
                 (A) (A) (A) (A) (A) (A) (A) (A) (A) (A) (A) (A)
                 (A) (A) (A) (A) (A) (A) (A) (A) (A) (A) (A) (A)
                 (A) (A) (A) (A) (A) (A) (A) (A) (A) (A) (A) (A)
                 (A) (A) (A) (A) (A) (A) (A) (A) (A) (A) (A) (A)
                 (A) (A) (A) (A) (A) (A) (A) (A) (A) (A) (A) (A)
                 (A) (A) (A) (A) (A) (A) (A) (A) (A) (A) (A) (A)
                 (A) (A) (A) (A) (A) (A) (A) (A) (A) (A) (A) (A)
                 (A) (A) (A) (A) (A) (A) (A) (A) (A) (A) (A) (A)
                 (A) (A) (A) (A) (A) (A) (A) (A) (A) (A) (A) (A)
                 (A) (A) (A) (A) (A) (A) (A) (A) (A) (A) (A) (A)
                 (A) (A) (A) (A) (A) (A) (A) (A) (A) (A) (A) (A)
                 (A) (A) (A) (A) (A) (A) (A) (A) (A) (A) (A) (A)
                 (A) (A) (A) (A) (A) (A) (A) (A) (A) (A) (A) (A)
                 (A) (A) (A) (A) (A) (A) (A) (A) (A) (A) (A) (A)
                 (A) (A) (A) (A) (A) (A) (A) (A) (A) (A) (A) (A)
                 (A) (A) (A) (A) (A) (A) (A) (A) (A) (A) (A) (A)
                 (A) (A) (A) (A) (A) (A) (A) (A) (A) (A) (A) (A)
                 (A) (A) (A) (A) (A) (A) (A) (A) (A) (A) (A) (A)
                 (A) (A) (A) (A) (A) (A) (A) (A) (A) (A) (A) (A)
                 (A) (A) (A) (A) (A) (A) (A) (A) (A) (A) (A) (A)
                 (A) (A) (A) (A) (A) (A) (A) (A) (A) (A) (A) (A)
                 (A) (A) (A) (A) (A) (A) (A) (A) (A) (A) (A) (A)
                 (A) (A) (A) (A) (A) (A) (A) (A) (A) (A) (A) (A)
                 (A) (A) (A) (A) (A) (A) (A) (A) (A) (A) (A) (A)
                 (A) (A) (A) (A) (A) (A) (A) (A) (A) (A) (A) (A)
                 (A) (A) (A) (A) (A) (A) (A) (A) (A) (A) (A) (A)
                 (A) (A) (A) (A) (A) (A) (A) (A) (A) (A) (A) (A)
                 (A) (A) (A) (A) (A) (A) (A) (A) (A) (A) (A) (A)
                 (A) (A) (A) (A) (A) (A) (A) (A) (A) (A) (A) (A)
                 (A) (A) (A) (A) (A) (A) (A) (A) (A) (A) (A) (A)
                 (A) (A) (A) (A) (A) (A) (A) (A) (A) (A) (A) (A)
                 (A) (A) (A) (A) (A) (A) (A) (A) (A) (A) (A) (A)
                 (A) (A) (A) (A) (A) (A) (A) (A) (A) (A) (A) (A)
                 (A) (A) (A) (A) (A) (A) (A) (A) (A) (A) (A) (A)
                 (A) (A) (A) (A) (A) (A) (A) (A) (A) (A) (A) (A)
                 (A) (A) (A) (A) (A) (A) (A) (A) (A) (A) (A) (A)
                 (A) (A) (A) (A) (A) (A) (A) (A) (A) (A) (A) (A)
                 (A) (A) (A) (A) (A) (A) (A) (A) (A) (A) (A) (A)
                 (A) (A) (A) (A) (A) (A) (A) (A) (A) (A) (A) (A)
                 (A) (A) (A) (A) (A) (A) (A) (A) (A) (A) (A) (A)
                 (A) (A) (A) (A) (A) (A) (A) (A) (A) (A) (A) (A)
                 (A) (A) (A) (A) (A) (A) (A) (A) (A) (A) (A) (A)
                 (A) (A) (A) (A) (A) (A) (A) (A) (A) (A) (A) (A)
                 (A) (A) (A) (A) (A) (A) (A) (A) (A) (A) (A) (A)
                 (A) (A) (A) (A) (A) (A) (A) (A) (A) (A) (A) (A)
                 (A) (A) (A) (A) (A) (A) (A) (A) (A) (A) (A) (A)
                 (A) (A) (A) (A) (A) (A) (A) (A) (A) (A) (A) (A)
                 (A) (A) (A) (A) (A) (A) (A) (A) (A) (A) (A) (A)
                 (A) (A) (A) (A) (A) (A) (A) (A) (A) (A) (A) (A)
                 (A) (A) (A) (A) (A) (A) (A) (A) (A) (A) (A) (A)
                 (A) (A) (A) (A) (A) (A) (A) (A) (A) (A) (A) (A)
                 (A) (A) (A) (A) (A) (A) (A) (A) (A) (A) (A) (A)
                 (A) (A) (A) (A) (A) (A) (A) (A) (A) (A) (A) (A)
                 (A) (A) (A) (A) (A) (A) (A) (A) (A) (A) (A) (A)
                 (A) (A) (A) (A) (A) (A) (A) (A) (A) (A) (A) (A)
                 (A) (A) (A) (A) (A) (A) (A) (A) (A) (A) (A) (A)
                 (A) (A) (A) (A) (A) (A) (A) (A) (A) (A) (A) (A)
                 (A) (A) (A) (A) (A) (A) (A) (A) (A) (A) (A) (A)
                 (A) (A) (A) (A) (A) (A) (A) (A) (A) (A) (A) (A)
                 (A) (A) (A) (A) (A) (A) (A) (A) (A) (A) (A) (A)
                 (A) (A) (A) (A) (A) (A) (A) (A) (A) (A) (A) (A)
                 (A) (A) (A) (A) (A) (A) (A) (A) (A) (A) (A) (A)
                 (A) (A) (A) (A) (A) (A) (A) (A) (A) (A) (A) (A)
                 (A) (A) (A) (A) (A) (A) (A) (A) (A) (A) (A) (A)
                 (A) (A) (A) (A) (A) (A) (A) (A) (A) (A) (A) (A)
                 (A) (A) (A) (A) (A) (A) (A) (A) (A) (A) (A) (A)
                 (A) (A) (A)
 The electronic state is 1-A.
 Alpha  occ. eigenvalues -- -145.40197 -19.20719 -19.15351 -19.14602 -19.14164
 Alpha  occ. eigenvalues --  -19.12192 -19.11917 -19.11443 -19.11232 -19.11191
 Alpha  occ. eigenvalues --  -19.11018 -19.10412 -19.07694 -19.07347 -19.06394
 Alpha  occ. eigenvalues --  -19.06339 -19.05889 -19.05484 -19.04947 -19.04047
 Alpha  occ. eigenvalues --  -19.03739 -19.03670 -19.03505 -19.01419 -15.45886
 Alpha  occ. eigenvalues --  -14.58733 -14.40764 -14.38537 -14.37895 -14.37441
 Alpha  occ. eigenvalues --  -14.36442 -14.36440 -14.34076 -14.33124 -14.32468
 Alpha  occ. eigenvalues --  -14.31688 -14.30387 -14.30134 -14.29105 -14.28661
 Alpha  occ. eigenvalues --  -12.59516 -12.59473 -12.59440 -10.34415 -10.33047
 Alpha  occ. eigenvalues --  -10.31066 -10.30619 -10.30295 -10.29995 -10.29884
 Alpha  occ. eigenvalues --  -10.29416 -10.27570 -10.27436 -10.27360 -10.27084
 Alpha  occ. eigenvalues --  -10.26771 -10.26199 -10.25379 -10.25322 -10.25043
 Alpha  occ. eigenvalues --  -10.24521 -10.24263 -10.24250 -10.24161 -10.23437
 Alpha  occ. eigenvalues --  -10.23288 -10.23150 -10.23015 -10.22856 -10.22611
 Alpha  occ. eigenvalues --  -10.22065 -10.22002 -10.21987 -10.21868 -10.20408
 Alpha  occ. eigenvalues --  -10.20373 -10.20369 -10.20324 -10.20032 -10.19915
 Alpha  occ. eigenvalues --  -10.19686 -10.19255 -10.18825 -10.18706 -10.18702
 Alpha  occ. eigenvalues --  -10.18627 -10.18513 -10.18416 -10.18326 -10.17177
 Alpha  occ. eigenvalues --  -10.16941 -10.16576 -10.16476 -10.16338 -10.16315
 Alpha  occ. eigenvalues --  -10.16008 -10.13797  -1.82587  -1.13888  -1.10204
 Alpha  occ. eigenvalues --   -1.10117  -1.09693  -1.07903  -1.06433  -1.06097
 Alpha  occ. eigenvalues --   -1.05197  -1.05035  -1.04491  -1.04229  -1.03816
 Alpha  occ. eigenvalues --   -1.03437  -1.02697  -1.01107  -1.00103  -1.00057
 Alpha  occ. eigenvalues --   -0.99587  -0.99311  -0.98536  -0.98427  -0.97410
 Alpha  occ. eigenvalues --   -0.97339  -0.96903  -0.96180  -0.95825  -0.95013
 Alpha  occ. eigenvalues --   -0.94410  -0.94300  -0.93304  -0.90952  -0.90353
 Alpha  occ. eigenvalues --   -0.90176  -0.89544  -0.89289  -0.89273  -0.88883
 Alpha  occ. eigenvalues --   -0.88032  -0.87501  -0.87020  -0.86467  -0.84958
 Alpha  occ. eigenvalues --   -0.83532  -0.82819  -0.82490  -0.81121  -0.80795
 Alpha  occ. eigenvalues --   -0.79949  -0.78991  -0.77919  -0.76612  -0.75781
 Alpha  occ. eigenvalues --   -0.75425  -0.74939  -0.73692  -0.73337  -0.73177
 Alpha  occ. eigenvalues --   -0.72707  -0.71877  -0.71706  -0.71313  -0.71134
 Alpha  occ. eigenvalues --   -0.70727  -0.69474  -0.68786  -0.68376  -0.67799
 Alpha  occ. eigenvalues --   -0.67280  -0.67168  -0.65523  -0.64900  -0.64251
 Alpha  occ. eigenvalues --   -0.64032  -0.63619  -0.63376  -0.62915  -0.62045
 Alpha  occ. eigenvalues --   -0.61970  -0.61572  -0.60693  -0.60342  -0.59888
 Alpha  occ. eigenvalues --   -0.59859  -0.59731  -0.58954  -0.58665  -0.58187
 Alpha  occ. eigenvalues --   -0.57952  -0.57143  -0.57055  -0.56713  -0.56423
 Alpha  occ. eigenvalues --   -0.56086  -0.55948  -0.55798  -0.55752  -0.55284
 Alpha  occ. eigenvalues --   -0.54960  -0.54593  -0.54314  -0.53962  -0.53740
 Alpha  occ. eigenvalues --   -0.53034  -0.52841  -0.52595  -0.52292  -0.51681
 Alpha  occ. eigenvalues --   -0.51352  -0.51186  -0.50891  -0.50254  -0.50008
 Alpha  occ. eigenvalues --   -0.49893  -0.49717  -0.49533  -0.49314  -0.49027
 Alpha  occ. eigenvalues --   -0.48613  -0.48385  -0.48203  -0.47778  -0.47715
 Alpha  occ. eigenvalues --   -0.47512  -0.47413  -0.47267  -0.47052  -0.46813
 Alpha  occ. eigenvalues --   -0.46758  -0.46540  -0.46522  -0.46199  -0.46125
 Alpha  occ. eigenvalues --   -0.45709  -0.45694  -0.45507  -0.45297  -0.45171
 Alpha  occ. eigenvalues --   -0.44916  -0.44797  -0.44429  -0.44355  -0.44220
 Alpha  occ. eigenvalues --   -0.44025  -0.43892  -0.43869  -0.43562  -0.43295
 Alpha  occ. eigenvalues --   -0.43194  -0.43048  -0.42918  -0.42702  -0.42622
 Alpha  occ. eigenvalues --   -0.42232  -0.42007  -0.41969  -0.41592  -0.41538
 Alpha  occ. eigenvalues --   -0.41396  -0.41374  -0.41151  -0.41061  -0.40878
 Alpha  occ. eigenvalues --   -0.40854  -0.40534  -0.40275  -0.40120  -0.40035
 Alpha  occ. eigenvalues --   -0.40000  -0.39820  -0.39699  -0.39638  -0.39551
 Alpha  occ. eigenvalues --   -0.39347  -0.39238  -0.39125  -0.39041  -0.38850
 Alpha  occ. eigenvalues --   -0.38802  -0.38714  -0.38567  -0.38499  -0.38205
 Alpha  occ. eigenvalues --   -0.38064  -0.38022  -0.37891  -0.37750  -0.37582
 Alpha  occ. eigenvalues --   -0.37503  -0.37363  -0.37289  -0.37087  -0.36824
 Alpha  occ. eigenvalues --   -0.36742  -0.36295  -0.36136  -0.35760  -0.35647
 Alpha  occ. eigenvalues --   -0.35440  -0.35326  -0.35155  -0.35067  -0.34995
 Alpha  occ. eigenvalues --   -0.34883  -0.34350  -0.34220  -0.34077  -0.33757
 Alpha  occ. eigenvalues --   -0.33593  -0.33561  -0.33451  -0.33049  -0.32667
 Alpha  occ. eigenvalues --   -0.32572  -0.32290  -0.32036  -0.31856  -0.31748
 Alpha  occ. eigenvalues --   -0.31152  -0.31117  -0.31063  -0.30516  -0.29965
 Alpha  occ. eigenvalues --   -0.29839  -0.29485  -0.29275  -0.29010  -0.28848
 Alpha  occ. eigenvalues --   -0.28660  -0.28036  -0.27857  -0.27709  -0.27505
 Alpha  occ. eigenvalues --   -0.27173  -0.26732  -0.26594  -0.25883  -0.25480
 Alpha  occ. eigenvalues --   -0.24445  -0.24329  -0.23901  -0.23704  -0.23626
 Alpha  occ. eigenvalues --   -0.23483  -0.23369  -0.23057  -0.22828  -0.22513
 Alpha  occ. eigenvalues --   -0.22186  -0.21732  -0.21295  -0.21038  -0.20836
 Alpha  occ. eigenvalues --   -0.20597  -0.20387  -0.20074  -0.19874  -0.19350
 Alpha  occ. eigenvalues --   -0.18861  -0.17921  -0.17545
 Alpha virt. eigenvalues --   -0.10517  -0.05106  -0.04765  -0.04479  -0.02736
 Alpha virt. eigenvalues --   -0.01569  -0.01086  -0.00950  -0.00633  -0.00139
 Alpha virt. eigenvalues --    0.00162   0.00545   0.00790   0.00834   0.01674
 Alpha virt. eigenvalues --    0.02036   0.02202   0.02701   0.02891   0.03530
 Alpha virt. eigenvalues --    0.03574   0.03814   0.04141   0.04302   0.04460
 Alpha virt. eigenvalues --    0.04825   0.04968   0.05277   0.05595   0.05651
 Alpha virt. eigenvalues --    0.05801   0.05866   0.06078   0.06326   0.06486
 Alpha virt. eigenvalues --    0.06744   0.07031   0.07331   0.07473   0.07664
 Alpha virt. eigenvalues --    0.07725   0.08179   0.08368   0.08488   0.08577
 Alpha virt. eigenvalues --    0.08618   0.08832   0.09067   0.09147   0.09469
 Alpha virt. eigenvalues --    0.09635   0.09809   0.09902   0.09970   0.10325
 Alpha virt. eigenvalues --    0.10395   0.10886   0.10972   0.11274   0.11440
 Alpha virt. eigenvalues --    0.11514   0.11561   0.11944   0.12220   0.12432
 Alpha virt. eigenvalues --    0.12496   0.12683   0.12910   0.13067   0.13242
 Alpha virt. eigenvalues --    0.13326   0.13386   0.13803   0.13980   0.14101
 Alpha virt. eigenvalues --    0.14273   0.14383   0.14616   0.14750   0.14826
 Alpha virt. eigenvalues --    0.15049   0.15281   0.15388   0.15631   0.15845
 Alpha virt. eigenvalues --    0.16067   0.16202   0.16354   0.16578   0.16931
 Alpha virt. eigenvalues --    0.17029   0.17154   0.17245   0.17376   0.17456
 Alpha virt. eigenvalues --    0.17713   0.17897   0.17947   0.18076   0.18423
 Alpha virt. eigenvalues --    0.18513   0.18713   0.18880   0.19187   0.19336
 Alpha virt. eigenvalues --    0.19442   0.19567   0.19688   0.19728   0.19890
 Alpha virt. eigenvalues --    0.20086   0.20513   0.20736   0.20771   0.21001
 Alpha virt. eigenvalues --    0.21404   0.21506   0.21922   0.22211   0.22414
 Alpha virt. eigenvalues --    0.22422   0.22611   0.22913   0.23237   0.23294
 Alpha virt. eigenvalues --    0.23583   0.23751   0.24018   0.24244   0.24529
 Alpha virt. eigenvalues --    0.24713   0.24791   0.25167   0.25417   0.25572
 Alpha virt. eigenvalues --    0.25942   0.26123   0.26310   0.26328   0.26590
 Alpha virt. eigenvalues --    0.26981   0.27055   0.27106   0.27618   0.27713
 Alpha virt. eigenvalues --    0.27989   0.28554   0.28661   0.28955   0.29213
 Alpha virt. eigenvalues --    0.29399   0.29614   0.29912   0.30042   0.30225
 Alpha virt. eigenvalues --    0.30450   0.30720   0.30973   0.31251   0.31290
 Alpha virt. eigenvalues --    0.31598   0.32055   0.32410   0.32630   0.32744
 Alpha virt. eigenvalues --    0.33026   0.33180   0.33436   0.33762   0.33835
 Alpha virt. eigenvalues --    0.34183   0.34431   0.34794   0.34931   0.35574
 Alpha virt. eigenvalues --    0.35802   0.36118   0.36437   0.36472   0.36834
 Alpha virt. eigenvalues --    0.37057   0.37080   0.37356   0.37612   0.37788
 Alpha virt. eigenvalues --    0.38255   0.38603   0.38680   0.39073   0.39347
 Alpha virt. eigenvalues --    0.39534   0.39793   0.40061   0.40380   0.40571
 Alpha virt. eigenvalues --    0.40599   0.40877   0.41417   0.41669   0.41940
 Alpha virt. eigenvalues --    0.42230   0.42449   0.42853   0.43261   0.43362
 Alpha virt. eigenvalues --    0.43472   0.43741   0.44026   0.44156   0.44335
 Alpha virt. eigenvalues --    0.44786   0.44901   0.45023   0.45200   0.45509
 Alpha virt. eigenvalues --    0.45608   0.45755   0.45842   0.46030   0.46183
 Alpha virt. eigenvalues --    0.46316   0.46655   0.46816   0.46935   0.47212
 Alpha virt. eigenvalues --    0.47371   0.47486   0.47606   0.47735   0.48115
 Alpha virt. eigenvalues --    0.48222   0.48536   0.48620   0.48840   0.48941
 Alpha virt. eigenvalues --    0.49211   0.49433   0.49506   0.49807   0.50047
 Alpha virt. eigenvalues --    0.50188   0.50424   0.50584   0.50670   0.50834
 Alpha virt. eigenvalues --    0.50933   0.51195   0.51404   0.51538   0.51616
 Alpha virt. eigenvalues --    0.51863   0.51988   0.52459   0.52616   0.52683
 Alpha virt. eigenvalues --    0.52998   0.53234   0.53277   0.53702   0.53886
 Alpha virt. eigenvalues --    0.53937   0.54027   0.54211   0.54749   0.54916
 Alpha virt. eigenvalues --    0.55030   0.55138   0.55275   0.55352   0.55440
 Alpha virt. eigenvalues --    0.55574   0.55769   0.56149   0.56520   0.56654
 Alpha virt. eigenvalues --    0.56780   0.56924   0.57321   0.57344   0.57504
 Alpha virt. eigenvalues --    0.57723   0.57950   0.58110   0.58250   0.58354
 Alpha virt. eigenvalues --    0.58472   0.58648   0.58702   0.58965   0.59108
 Alpha virt. eigenvalues --    0.59149   0.59461   0.59544   0.59710   0.59740
 Alpha virt. eigenvalues --    0.59889   0.60199   0.60318   0.60542   0.60638
 Alpha virt. eigenvalues --    0.60703   0.60791   0.60950   0.60981   0.61046
 Alpha virt. eigenvalues --    0.61277   0.61530   0.61650   0.61939   0.61961
 Alpha virt. eigenvalues --    0.62147   0.62340   0.62484   0.62687   0.62772
 Alpha virt. eigenvalues --    0.62790   0.63019   0.63070   0.63182   0.63295
 Alpha virt. eigenvalues --    0.63463   0.63510   0.63636   0.63795   0.63927
 Alpha virt. eigenvalues --    0.63992   0.64064   0.64210   0.64327   0.64396
 Alpha virt. eigenvalues --    0.64584   0.64609   0.64739   0.64786   0.65076
 Alpha virt. eigenvalues --    0.65091   0.65192   0.65362   0.65480   0.65620
 Alpha virt. eigenvalues --    0.65858   0.65951   0.66029   0.66090   0.66281
 Alpha virt. eigenvalues --    0.66496   0.66566   0.66596   0.66735   0.66859
 Alpha virt. eigenvalues --    0.67067   0.67102   0.67362   0.67499   0.67721
 Alpha virt. eigenvalues --    0.67844   0.67879   0.67920   0.68053   0.68073
 Alpha virt. eigenvalues --    0.68312   0.68478   0.68576   0.68633   0.68910
 Alpha virt. eigenvalues --    0.68924   0.69153   0.69241   0.69423   0.69455
 Alpha virt. eigenvalues --    0.69726   0.69751   0.70001   0.70122   0.70161
 Alpha virt. eigenvalues --    0.70295   0.70334   0.70457   0.70700   0.70746
 Alpha virt. eigenvalues --    0.70841   0.71012   0.71295   0.71421   0.71519
 Alpha virt. eigenvalues --    0.71537   0.71699   0.71856   0.71965   0.72266
 Alpha virt. eigenvalues --    0.72303   0.72612   0.72755   0.72931   0.73011
 Alpha virt. eigenvalues --    0.73292   0.73318   0.73418   0.73574   0.73888
 Alpha virt. eigenvalues --    0.73984   0.74057   0.74200   0.74595   0.74747
 Alpha virt. eigenvalues --    0.75056   0.75166   0.75539   0.75721   0.75843
 Alpha virt. eigenvalues --    0.76166   0.76479   0.76615   0.76758   0.76879
 Alpha virt. eigenvalues --    0.76899   0.77192   0.77439   0.77588   0.77806
 Alpha virt. eigenvalues --    0.78354   0.78550   0.78601   0.79061   0.79281
 Alpha virt. eigenvalues --    0.79382   0.79589   0.79776   0.80106   0.80140
 Alpha virt. eigenvalues --    0.80443   0.80963   0.81144   0.81306   0.81649
 Alpha virt. eigenvalues --    0.81770   0.81947   0.82097   0.82489   0.82651
 Alpha virt. eigenvalues --    0.83031   0.83329   0.83578   0.83714   0.84118
 Alpha virt. eigenvalues --    0.84175   0.84373   0.84515   0.84945   0.85238
 Alpha virt. eigenvalues --    0.85692   0.85827   0.86007   0.86208   0.86850
 Alpha virt. eigenvalues --    0.87088   0.87484   0.87729   0.87963   0.88094
 Alpha virt. eigenvalues --    0.88494   0.88711   0.89047   0.89474   0.89843
 Alpha virt. eigenvalues --    0.90280   0.90407   0.90892   0.91204   0.91283
 Alpha virt. eigenvalues --    0.91989   0.92105   0.92113   0.92429   0.92944
 Alpha virt. eigenvalues --    0.92969   0.93305   0.93683   0.94041   0.94095
 Alpha virt. eigenvalues --    0.94617   0.94823   0.95016   0.95358   0.95777
 Alpha virt. eigenvalues --    0.96128   0.96346   0.96782   0.97023   0.97130
 Alpha virt. eigenvalues --    0.97285   0.97501   0.97964   0.98090   0.98650
 Alpha virt. eigenvalues --    0.98968   0.99048   0.99278   0.99647   0.99841
 Alpha virt. eigenvalues --    1.00045   1.00547   1.00710   1.00885   1.01101
 Alpha virt. eigenvalues --    1.01319   1.01708   1.01893   1.01941   1.02213
 Alpha virt. eigenvalues --    1.02531   1.02592   1.03038   1.03439   1.03924
 Alpha virt. eigenvalues --    1.04265   1.04726   1.05234   1.05408   1.05603
 Alpha virt. eigenvalues --    1.05930   1.06126   1.06449   1.07076   1.07182
 Alpha virt. eigenvalues --    1.07485   1.07621   1.08236   1.08519   1.08689
 Alpha virt. eigenvalues --    1.08854   1.09375   1.09459   1.09674   1.10051
 Alpha virt. eigenvalues --    1.10284   1.10484   1.10838   1.11045   1.11497
 Alpha virt. eigenvalues --    1.11527   1.11679   1.11911   1.12364   1.13003
 Alpha virt. eigenvalues --    1.13427   1.13656   1.13895   1.14330   1.14799
 Alpha virt. eigenvalues --    1.14989   1.15144   1.15452   1.15806   1.15871
 Alpha virt. eigenvalues --    1.16245   1.16602   1.16783   1.17065   1.17397
 Alpha virt. eigenvalues --    1.17667   1.17731   1.18283   1.18516   1.18742
 Alpha virt. eigenvalues --    1.19064   1.19280   1.19511   1.19637   1.20098
 Alpha virt. eigenvalues --    1.20268   1.20712   1.20866   1.20988   1.21248
 Alpha virt. eigenvalues --    1.21472   1.21679   1.21995   1.22247   1.22389
 Alpha virt. eigenvalues --    1.22704   1.23011   1.23057   1.23125   1.23350
 Alpha virt. eigenvalues --    1.23894   1.23985   1.24119   1.24599   1.24735
 Alpha virt. eigenvalues --    1.25090   1.25446   1.25582   1.26050   1.26132
 Alpha virt. eigenvalues --    1.26235   1.26699   1.26974   1.27115   1.27298
 Alpha virt. eigenvalues --    1.27426   1.27794   1.27965   1.28170   1.28443
 Alpha virt. eigenvalues --    1.28617   1.28974   1.29152   1.29313   1.29511
 Alpha virt. eigenvalues --    1.29783   1.29965   1.30264   1.30491   1.31092
 Alpha virt. eigenvalues --    1.31427   1.31784   1.32083   1.32250   1.32651
 Alpha virt. eigenvalues --    1.32866   1.33302   1.33402   1.33615   1.33772
 Alpha virt. eigenvalues --    1.33958   1.34166   1.34317   1.34770   1.34895
 Alpha virt. eigenvalues --    1.35371   1.35425   1.35851   1.36272   1.36776
 Alpha virt. eigenvalues --    1.37391   1.37642   1.37903   1.38078   1.38151
 Alpha virt. eigenvalues --    1.38481   1.38706   1.38777   1.39018   1.39690
 Alpha virt. eigenvalues --    1.40007   1.40323   1.40462   1.40555   1.41061
 Alpha virt. eigenvalues --    1.41216   1.41402   1.41596   1.41798   1.42003
 Alpha virt. eigenvalues --    1.42243   1.42466   1.42687   1.42852   1.43197
 Alpha virt. eigenvalues --    1.43560   1.44153   1.44511   1.44803   1.45040
 Alpha virt. eigenvalues --    1.45251   1.45746   1.45942   1.46140   1.46364
 Alpha virt. eigenvalues --    1.46608   1.46925   1.47207   1.47484   1.48055
 Alpha virt. eigenvalues --    1.48432   1.48843   1.49042   1.49354   1.49837
 Alpha virt. eigenvalues --    1.50009   1.50361   1.50501   1.50952   1.51259
 Alpha virt. eigenvalues --    1.51385   1.51505   1.51767   1.51933   1.52156
 Alpha virt. eigenvalues --    1.52203   1.52553   1.52666   1.53036   1.53223
 Alpha virt. eigenvalues --    1.53569   1.53956   1.54247   1.54460   1.54648
 Alpha virt. eigenvalues --    1.55410   1.55583   1.56218   1.56490   1.56760
 Alpha virt. eigenvalues --    1.56852   1.57185   1.57325   1.57725   1.58290
 Alpha virt. eigenvalues --    1.58615   1.59258   1.59449   1.60124   1.60689
 Alpha virt. eigenvalues --    1.61050   1.61555   1.61976   1.62049   1.62273
 Alpha virt. eigenvalues --    1.62385   1.62852   1.63045   1.63434   1.64146
 Alpha virt. eigenvalues --    1.64174   1.64516   1.64819   1.65148   1.65238
 Alpha virt. eigenvalues --    1.65456   1.65841   1.65961   1.66372   1.66478
 Alpha virt. eigenvalues --    1.66776   1.66940   1.67475   1.67793   1.68004
 Alpha virt. eigenvalues --    1.68424   1.68780   1.69118   1.69225   1.69671
 Alpha virt. eigenvalues --    1.69814   1.70083   1.70367   1.70823   1.71036
 Alpha virt. eigenvalues --    1.71317   1.71394   1.71664   1.71994   1.72119
 Alpha virt. eigenvalues --    1.72509   1.72829   1.72915   1.73097   1.73230
 Alpha virt. eigenvalues --    1.73491   1.73650   1.73843   1.74052   1.74173
 Alpha virt. eigenvalues --    1.74280   1.74329   1.74776   1.75023   1.75194
 Alpha virt. eigenvalues --    1.75308   1.75561   1.75659   1.75831   1.75978
 Alpha virt. eigenvalues --    1.76245   1.76440   1.76639   1.76751   1.77015
 Alpha virt. eigenvalues --    1.77234   1.77273   1.77450   1.77597   1.77645
 Alpha virt. eigenvalues --    1.77776   1.78037   1.78208   1.78313   1.78399
 Alpha virt. eigenvalues --    1.78808   1.78945   1.79177   1.79315   1.79372
 Alpha virt. eigenvalues --    1.79484   1.79724   1.79785   1.79987   1.80077
 Alpha virt. eigenvalues --    1.80188   1.80255   1.80370   1.80536   1.80678
 Alpha virt. eigenvalues --    1.80873   1.81106   1.81341   1.81680   1.81781
 Alpha virt. eigenvalues --    1.81899   1.82156   1.82371   1.82502   1.82638
 Alpha virt. eigenvalues --    1.82908   1.82999   1.83098   1.83400   1.83594
 Alpha virt. eigenvalues --    1.83654   1.83872   1.84126   1.84177   1.84575
 Alpha virt. eigenvalues --    1.84678   1.84848   1.85076   1.85523   1.85706
 Alpha virt. eigenvalues --    1.86095   1.86200   1.86480   1.86589   1.86791
 Alpha virt. eigenvalues --    1.87017   1.87333   1.87452   1.87588   1.87738
 Alpha virt. eigenvalues --    1.88058   1.88129   1.88567   1.88873   1.89004
 Alpha virt. eigenvalues --    1.89331   1.89518   1.89618   1.89876   1.89997
 Alpha virt. eigenvalues --    1.90251   1.90424   1.90629   1.90873   1.91001
 Alpha virt. eigenvalues --    1.91097   1.91296   1.91432   1.91636   1.91703
 Alpha virt. eigenvalues --    1.91952   1.92203   1.92299   1.92475   1.92694
 Alpha virt. eigenvalues --    1.93216   1.93459   1.93631   1.93868   1.94259
 Alpha virt. eigenvalues --    1.94311   1.94552   1.94783   1.94919   1.95030
 Alpha virt. eigenvalues --    1.95486   1.95672   1.95823   1.95968   1.96139
 Alpha virt. eigenvalues --    1.96343   1.96642   1.96888   1.96982   1.97144
 Alpha virt. eigenvalues --    1.97324   1.97676   1.97715   1.98175   1.98536
 Alpha virt. eigenvalues --    1.98726   1.98883   1.99138   1.99202   1.99288
 Alpha virt. eigenvalues --    1.99412   1.99632   1.99992   2.00275   2.00491
 Alpha virt. eigenvalues --    2.00808   2.01108   2.01256   2.01504   2.01667
 Alpha virt. eigenvalues --    2.01893   2.02139   2.02498   2.02610   2.02997
 Alpha virt. eigenvalues --    2.03277   2.03510   2.03683   2.04012   2.04363
 Alpha virt. eigenvalues --    2.04530   2.04857   2.04969   2.05075   2.05174
 Alpha virt. eigenvalues --    2.05644   2.05936   2.06009   2.06550   2.06762
 Alpha virt. eigenvalues --    2.06908   2.07441   2.07560   2.07864   2.08129
 Alpha virt. eigenvalues --    2.08138   2.08551   2.08779   2.08888   2.09203
 Alpha virt. eigenvalues --    2.09386   2.09794   2.10305   2.10503   2.10676
 Alpha virt. eigenvalues --    2.11021   2.11427   2.11648   2.11851   2.12255
 Alpha virt. eigenvalues --    2.12410   2.12778   2.13138   2.13468   2.13693
 Alpha virt. eigenvalues --    2.14025   2.14261   2.14397   2.14551   2.15440
 Alpha virt. eigenvalues --    2.15675   2.15919   2.16163   2.16575   2.16668
 Alpha virt. eigenvalues --    2.16798   2.16912   2.17078   2.17444   2.17827
 Alpha virt. eigenvalues --    2.18220   2.18507   2.18683   2.19080   2.19341
 Alpha virt. eigenvalues --    2.19658   2.19848   2.20064   2.20287   2.20512
 Alpha virt. eigenvalues --    2.20823   2.21013   2.21682   2.21801   2.22420
 Alpha virt. eigenvalues --    2.22516   2.22707   2.23262   2.23715   2.23792
 Alpha virt. eigenvalues --    2.24004   2.24257   2.24727   2.25200   2.25610
 Alpha virt. eigenvalues --    2.25973   2.26341   2.26560   2.27198   2.27300
 Alpha virt. eigenvalues --    2.27672   2.27962   2.28339   2.28722   2.29099
 Alpha virt. eigenvalues --    2.29474   2.29922   2.30370   2.30950   2.31401
 Alpha virt. eigenvalues --    2.31782   2.31837   2.31957   2.32329   2.32788
 Alpha virt. eigenvalues --    2.33040   2.33246   2.33697   2.33931   2.34280
 Alpha virt. eigenvalues --    2.34520   2.34875   2.35019   2.35466   2.35556
 Alpha virt. eigenvalues --    2.35733   2.35853   2.36562   2.36690   2.36881
 Alpha virt. eigenvalues --    2.37423   2.37858   2.38086   2.38935   2.39104
 Alpha virt. eigenvalues --    2.39679   2.39833   2.40105   2.40254   2.40410
 Alpha virt. eigenvalues --    2.40470   2.40998   2.41431   2.41599   2.42103
 Alpha virt. eigenvalues --    2.42369   2.42588   2.42861   2.43178   2.43555
 Alpha virt. eigenvalues --    2.43775   2.44044   2.44334   2.44728   2.45172
 Alpha virt. eigenvalues --    2.45639   2.45875   2.46200   2.46300   2.46585
 Alpha virt. eigenvalues --    2.47202   2.47456   2.47893   2.48461   2.48581
 Alpha virt. eigenvalues --    2.48747   2.48954   2.49211   2.49638   2.49846
 Alpha virt. eigenvalues --    2.50035   2.50646   2.51305   2.51464   2.51824
 Alpha virt. eigenvalues --    2.52378   2.52623   2.52749   2.52919   2.53874
 Alpha virt. eigenvalues --    2.54158   2.54304   2.54655   2.55169   2.55544
 Alpha virt. eigenvalues --    2.55810   2.56003   2.56408   2.56463   2.56659
 Alpha virt. eigenvalues --    2.57318   2.57539   2.57705   2.57923   2.58406
 Alpha virt. eigenvalues --    2.58766   2.58901   2.59261   2.59607   2.59975
 Alpha virt. eigenvalues --    2.60100   2.60425   2.60517   2.60936   2.61188
 Alpha virt. eigenvalues --    2.61601   2.61876   2.62359   2.62684   2.62771
 Alpha virt. eigenvalues --    2.62876   2.63080   2.63419   2.63587   2.63719
 Alpha virt. eigenvalues --    2.64240   2.64587   2.65091   2.65523   2.65862
 Alpha virt. eigenvalues --    2.66067   2.66286   2.66735   2.67137   2.67469
 Alpha virt. eigenvalues --    2.67621   2.67760   2.68587   2.68807   2.69055
 Alpha virt. eigenvalues --    2.69464   2.69789   2.69938   2.70342   2.70758
 Alpha virt. eigenvalues --    2.71186   2.71416   2.71865   2.72146   2.72472
 Alpha virt. eigenvalues --    2.72659   2.72847   2.73075   2.73142   2.73420
 Alpha virt. eigenvalues --    2.73552   2.73963   2.74204   2.74447   2.74603
 Alpha virt. eigenvalues --    2.74736   2.75012   2.75348   2.75473   2.75880
 Alpha virt. eigenvalues --    2.76065   2.76221   2.76518   2.76736   2.76889
 Alpha virt. eigenvalues --    2.77220   2.77534   2.77814   2.77859   2.77961
 Alpha virt. eigenvalues --    2.78172   2.79032   2.79218   2.79688   2.79755
 Alpha virt. eigenvalues --    2.80538   2.80642   2.80700   2.81031   2.81264
 Alpha virt. eigenvalues --    2.81551   2.81713   2.81924   2.82240   2.82410
 Alpha virt. eigenvalues --    2.82545   2.83205   2.83537   2.83700   2.84136
 Alpha virt. eigenvalues --    2.84260   2.84372   2.84512   2.84689   2.85717
 Alpha virt. eigenvalues --    2.85883   2.86069   2.86356   2.86895   2.87286
 Alpha virt. eigenvalues --    2.87416   2.87609   2.87967   2.88728   2.88854
 Alpha virt. eigenvalues --    2.89069   2.89239   2.90090   2.90591   2.90740
 Alpha virt. eigenvalues --    2.90829   2.91057   2.91417   2.91593   2.92161
 Alpha virt. eigenvalues --    2.92248   2.92372   2.92572   2.92761   2.92819
 Alpha virt. eigenvalues --    2.93268   2.93642   2.94030   2.94461   2.94759
 Alpha virt. eigenvalues --    2.94829   2.95162   2.95198   2.95786   2.96264
 Alpha virt. eigenvalues --    2.96657   2.97178   2.97391   2.97843   2.98054
 Alpha virt. eigenvalues --    2.98418   2.99335   2.99623   3.00052   3.00506
 Alpha virt. eigenvalues --    3.00715   3.00910   3.01365   3.01971   3.02418
 Alpha virt. eigenvalues --    3.02504   3.02713   3.03017   3.03152   3.03296
 Alpha virt. eigenvalues --    3.04091   3.04135   3.04378   3.04512   3.04533
 Alpha virt. eigenvalues --    3.05089   3.05511   3.06118   3.06388   3.06572
 Alpha virt. eigenvalues --    3.06678   3.07056   3.07456   3.07587   3.09023
 Alpha virt. eigenvalues --    3.09617   3.09992   3.10453   3.10717   3.10919
 Alpha virt. eigenvalues --    3.11194   3.11222   3.11368   3.12102   3.13656
 Alpha virt. eigenvalues --    3.14002   3.14466   3.14796   3.15083   3.15418
 Alpha virt. eigenvalues --    3.15612   3.15748   3.15851   3.16423   3.17398
 Alpha virt. eigenvalues --    3.17952   3.18315   3.18399   3.18691   3.18916
 Alpha virt. eigenvalues --    3.19380   3.19438   3.19571   3.20273   3.20616
 Alpha virt. eigenvalues --    3.21115   3.22116   3.22248   3.22928   3.23553
 Alpha virt. eigenvalues --    3.23629   3.23677   3.24026   3.24716   3.25074
 Alpha virt. eigenvalues --    3.25290   3.25365   3.25893   3.26956   3.27595
 Alpha virt. eigenvalues --    3.28246   3.28710   3.29465   3.30532   3.30865
 Alpha virt. eigenvalues --    3.31423   3.33448   3.34016   3.34418   3.34726
 Alpha virt. eigenvalues --    3.35171   3.35219   3.35785   3.37747   3.40503
 Alpha virt. eigenvalues --    3.41757   3.43025   3.45192   3.45983   3.50106
 Alpha virt. eigenvalues --    3.50867   3.52394   3.53304   3.53540   3.55360
 Alpha virt. eigenvalues --    3.55806   3.57919   3.58682   3.59607   3.60371
 Alpha virt. eigenvalues --    3.61771   3.62351   3.63569   3.63919   3.64299
 Alpha virt. eigenvalues --    3.64837   3.65069   3.65962   3.67575   3.68108
 Alpha virt. eigenvalues --    3.68498   3.69148   3.70227   3.70414   3.70702
 Alpha virt. eigenvalues --    3.71044   3.71238   3.71333   3.71627   3.72493
 Alpha virt. eigenvalues --    3.72969   3.73299   3.73903   3.74075   3.76334
 Alpha virt. eigenvalues --    3.77845   3.79347   3.83573   3.84299
          Condensed to atoms (all electrons):
 Mulliken charges:
               1
     1  C    0.055385
     2  C    0.024052
     3  O   -0.299198
     4  H    0.034279
     5  H    0.012517
     6  H    0.039118
     7  N   -0.108483
     8  C    0.114281
     9  C    0.045290
    10  O   -0.285984
    11  C    0.055443
    12  C    0.166297
    13  O   -0.451362
    14  O   -0.385692
    15  H    0.108536
    16  H   -0.003136
    17  H    0.008625
    18  H    0.001145
    19  N   -0.148696
    20  C    0.145778
    21  C    0.063353
    22  O   -0.303254
    23  C    0.032623
    24  C    0.028985
    25  C   -0.072569
    26  C    0.013974
    27  N    0.096336
    28  H    0.145155
    29  H    0.008250
    30  H    0.005058
    31  H    0.043136
    32  H    0.010279
    33  H    0.032290
    34  H    0.007189
    35  H    0.053856
    36  H    0.091800
    37  H    0.072063
    38  H    0.185979
    39  H    0.204277
    40  H    0.182476
    41  N   -0.143092
    42  C    0.140738
    43  C    0.044522
    44  O   -0.276953
    45  C    0.071162
    46  C    0.094986
    47  O   -0.367326
    48  O   -0.470245
    49  H    0.143918
    50  H    0.010595
    51  H   -0.008524
    52  H    0.021602
    53  N   -0.178373
    54  C    0.215028
    55  C    0.045804
    56  O   -0.300550
    57  H    0.142514
    58  H    0.006035
    59  H    0.037017
    60  N   -0.173777
    61  C    0.137449
    62  C    0.064860
    63  O   -0.303050
    64  C    0.083846
    65  C    0.055482
    66  N   -0.031989
    67  O   -0.359623
    68  H    0.143717
    69  H    0.028806
    70  H    0.084177
    71  H   -0.002197
    72  H    0.135067
    73  H    0.121711
    74  N   -0.156691
    75  C    0.231236
    76  C    0.027497
    77  O   -0.282232
    78  H    0.155542
    79  H    0.027535
    80  H    0.027289
    81  N   -0.170772
    82  C    0.143107
    83  C    0.141113
    84  O   -0.329929
    85  C    0.165571
    86  C   -0.008211
    87  C   -0.020908
    88  C    0.001004
    89  C   -0.019020
    90  C   -0.050452
    91  C    0.190665
    92  O   -0.204152
    93  H    0.154214
    94  H   -0.004230
    95  H   -0.026669
    96  H   -0.061199
    97  H   -0.044590
    98  H   -0.028177
    99  H   -0.033158
   100  H   -0.027392
   101  H    0.170598
   102  N   -0.128686
   103  C    0.131069
   104  C    0.039413
   105  O   -0.285430
   106  C   -0.071583
   107  C    0.014359
   108  C    0.051735
   109  C    0.021477
   110  H    0.128488
   111  H    0.019275
   112  H   -0.028986
   113  H    0.000070
   114  H    0.003733
   115  H    0.017092
   116  H    0.018110
   117  H    0.003976
   118  H    0.004643
   119  H    0.018964
   120  H    0.018882
   121  N   -0.130068
   122  C    0.053194
   123  C    0.106590
   124  O   -0.282666
   125  C    0.269739
   126  O   -0.341212
   127  H    0.157635
   128  H    0.014706
   129  H   -0.021980
   130  H   -0.005035
   131  H    0.158156
   132  N   -0.119247
   133  C    0.129240
   134  C    0.061306
   135  O   -0.258495
   136  C    0.025920
   137  H    0.119119
   138  H    0.018013
   139  H    0.042011
   140  H    0.024886
   141  H   -0.004148
   142  N   -0.134435
   143  C    0.095130
   144  C    0.077228
   145  O   -0.279998
   146  C    0.031443
   147  H    0.112434
   148  H    0.014014
   149  H    0.009830
   150  H    0.030159
   151  H    0.002362
   152  N   -0.141683
   153  C    0.164820
   154  C    0.066523
   155  O   -0.288793
   156  C   -0.076826
   157  C    0.128603
   158  C    0.159351
   159  O   -0.412174
   160  O   -0.431062
   161  H    0.124190
   162  H   -0.041731
   163  H    0.056876
   164  H    0.004118
   165  H   -0.008630
   166  H   -0.035128
   167  N   -0.162873
   168  C    0.152547
   169  H    0.028726
   170  H    0.011150
   171  H    0.006921
   172  H    0.131285
   173  Ca   1.311099
   174  O   -0.287644
   175  H    0.193159
   176  H    0.184366
 Sum of Mulliken charges =  -0.00000
 Mulliken charges with hydrogens summed into heavy atoms:
               1
     1  C    0.141299
     2  C    0.024052
     3  O   -0.299198
     7  N    0.000053
     8  C    0.111145
     9  C    0.045290
    10  O   -0.285984
    11  C    0.065213
    12  C    0.166297
    13  O   -0.451362
    14  O   -0.385692
    19  N   -0.003541
    20  C    0.154028
    21  C    0.063353
    22  O   -0.303254
    23  C    0.080818
    24  C    0.071555
    25  C   -0.011525
    26  C    0.177837
    27  N    0.669068
    41  N    0.000826
    42  C    0.151332
    43  C    0.044522
    44  O   -0.276953
    45  C    0.084240
    46  C    0.094986
    47  O   -0.367326
    48  O   -0.470245
    53  N   -0.035859
    54  C    0.258080
    55  C    0.045804
    56  O   -0.300550
    60  N   -0.030061
    61  C    0.166255
    62  C    0.064860
    63  O   -0.303050
    64  C    0.165827
    65  C    0.055482
    66  N    0.224789
    67  O   -0.359623
    74  N   -0.001149
    75  C    0.286060
    76  C    0.027497
    77  O   -0.282232
    81  N   -0.016558
    82  C    0.138877
    83  C    0.141113
    84  O   -0.329929
    85  C    0.077703
    86  C   -0.008211
    87  C   -0.065498
    88  C   -0.027172
    89  C   -0.052178
    90  C   -0.077845
    91  C    0.190665
    92  O   -0.033555
   102  N   -0.000198
   103  C    0.150345
   104  C    0.039413
   105  O   -0.285430
   106  C   -0.100569
   107  C    0.018162
   108  C    0.090913
   109  C    0.063966
   121  N    0.027568
   122  C    0.067901
   123  C    0.106590
   124  O   -0.282666
   125  C    0.242725
   126  O   -0.183055
   132  N   -0.000128
   133  C    0.147253
   134  C    0.061306
   135  O   -0.258495
   136  C    0.088670
   142  N   -0.022000
   143  C    0.109144
   144  C    0.077228
   145  O   -0.279998
   146  C    0.073794
   152  N   -0.017493
   153  C    0.123089
   154  C    0.066523
   155  O   -0.288793
   156  C   -0.015833
   157  C    0.084845
   158  C    0.159351
   159  O   -0.412174
   160  O   -0.431062
   167  N   -0.031588
   168  C    0.199345
   173  Ca   1.311099
   174  O    0.089881
 DipInt: DoE/N= T F RetVal/Mat= T F Init=T NMatP=  1 IDeriv=0 Min/MaxMlt=  0  4
 Entering OneElI...
 OneElI was handed  1333951383 working-precision words.
 Multipole integrals L=0 to 4 MinM= 0 MaxM= 0.
 Requested accuracy = 0.1000D-12
 ShPair: Thresh= 1.00D-13 NBox=     0 BxSize= 0.00D+00 RnKept= 2.55D+01
         NSMCal=               327645 NSMKep=              160347
 PrmmSu-InSpLW:  IPartL=    0 NPrtUS=    1 NPrtUL=    1 DoSpLW=F IThBeg=    0 IThEnd=    0 NThAct=    1.
 PrsmSu:  NPrtUS=   1 ThrOK=F IAlg=1 NPAlg=1 LenDen=           0 ISkipM=0 DoSpLW=F IThBeg=    0 IThEnd=    0.
 Prism:   IPart=     0 DynPar=F LinDyn=F Incr=         512.
 PRISM was handed  1323885757 working-precision words and160347 shell-pairs
 IPart=  0 NShTot=      160347 NBatch=         367 AvBLen=       436.9
 PrsmSu-ThDecC:  IPartSL=    0    0 NPrtUSL=    1    1 IThBeg=    0 IThEnd=    0 CPU=   -1 GPU=   -1 NThAct=    1.
 PrSmSu:  NxtVal=            513.
 Electronic moments (au):
       -716.00000000         15.29737191         -1.09773473         -4.69117014
     -54365.63920726     -30602.34587054     -11457.92368322        110.37784845
        -49.48145576         13.42427431     -48326.16681267     -21432.45711059
     -22458.61975677      17919.08499125      97086.02003240      49776.16392459
     -14307.38389682      -3431.27535732      22052.24191609     -13787.59172552
   -8138146.08903679   -2759711.48256567    -574993.30299228    -311801.90254093
     276897.67159621    -518901.40224977      41664.72895428     -80832.93070467
      18683.38019367   -2458590.92109783    -623896.91816186    -325691.05692984
    -195389.65816019      36939.39172080      82551.27751779
 Electronic spatial extent (au):  <R**2>=          96425.9088
 DipInt: DoE/N= F T RetVal/Mat= T F Init=T NMatP=  1 IDeriv=0 Min/MaxMlt=  0  4
 Nuclear    moments (au):
        716.00000000          0.00000000          0.00000000          0.00000000
      53949.38602454      30234.29814177      11062.57676955         -0.00000000
          0.00000000          0.00000000      50376.83215353      22003.87946225
      22563.00185597     -15472.65135967     -96119.29862094     -50787.94747701
      14541.77581193       3170.68708276     -22425.21442904      13427.25344178
    7946382.69773237    2659413.13096111     535945.33586121     331312.08899387
    -283746.27005453     532896.61793883     -42116.98527673      79930.13836647
     -16639.74344384    2426172.91518327     588965.13982088     301456.79261169
     194787.93355542     -42623.67746645     -82034.53776561
 Total      moments (au):
         -0.00000000         15.29737191         -1.09773473         -4.69117014
       -416.25318272       -368.04772877       -395.34691367        110.37784845
        -49.48145576         13.42427431       2050.66534086        571.42235165
        104.38209920       2446.43363157        966.72141146      -1011.78355242
        234.39191511       -260.58827457       -372.97251296       -360.33828374
    -191763.39130442    -100298.35160456     -39047.96713107      19510.18645294
      -6848.59845832      13995.21568906       -452.25632246       -902.79233819
       2043.63674983     -32418.00591457     -34931.77834099     -24234.26431815
       -601.72460477      -5684.28574565        516.73975218
 Traceless Quadrup. (au):
        -23.03724100         25.16821295         -2.13097195        110.37784845
        -49.48145576         13.42427431
 Charge=             -0.0000 electrons
 Dipole moment (field-independent basis, Debye):
    X=             38.8820    Y=             -2.7902    Z=            -11.9238  Tot=             40.7649
 Quadrupole moment (field-independent basis, Debye-Ang):
   XX=           -559.8748   YY=           -495.0368   ZZ=           -531.7551
   XY=            148.4620   XZ=            -66.5543   YZ=             18.0561
 Traceless Quadrupole moment (field-independent basis, Debye-Ang):
   XX=            -30.9859   YY=             33.8521   ZZ=             -2.8662
   XY=            148.4620   XZ=            -66.5543   YZ=             18.0561
 Octapole moment (field-independent basis, Debye-Ang**2):
  XXX=           1459.5846  YYY=            406.7164  ZZZ=             74.2952  XYY=           1741.2772
  XXY=            688.0751  XXZ=           -720.1486  XZZ=            166.8311  YZZ=           -185.4767
  YYZ=           -265.4675  XYZ=           -256.4749
 Hexadecapole moment (field-independent basis, Debye-Ang**3):
 XXXX=         -72227.2885 YYYY=         -37777.1687 ZZZZ=         -14707.3368 XXXY=           7348.4718
 XXXZ=          -2579.5106 YYYX=           5271.2693 YYYZ=           -170.3414 ZZZX=           -340.0349
 ZZZY=            769.7316 XXYY=         -12210.1755 XXZZ=         -13156.9828 YYZZ=          -9127.7860
 XXYZ=           -226.6383 YYXZ=          -2140.9746 ZZXY=            194.6290
 N-N= 2.163836196123D+04 E-N=-5.575675928087D+04  KE= 5.290387077970D+03
 Leave Link  601 at Wed Sep 18 16:10:51 2019, MaxMem=  1342177280 cpu:              49.2 elap:               1.2
 FitSet:  NAtFit=   176 NAtPot=   176 NAtFrz=     0 MDM=   180 TotChg=   0.00000
 Merz-Kollman atomic radii used.
 Read replacement radii for each type of atom:
 Rad(20) =   1.700000000000D+00
 Atom Element Radius
    1     6    1.50
    2     6    1.50
    3     8    1.40
    4     1    1.20
    5     1    1.20
    6     1    1.20
    7     7    1.50
    8     6    1.50
    9     6    1.50
   10     8    1.40
   11     6    1.50
   12     6    1.50
   13     8    1.40
   14     8    1.40
   15     1    1.20
   16     1    1.20
   17     1    1.20
   18     1    1.20
   19     7    1.50
   20     6    1.50
   21     6    1.50
   22     8    1.40
   23     6    1.50
   24     6    1.50
   25     6    1.50
   26     6    1.50
   27     7    1.50
   28     1    1.20
   29     1    1.20
   30     1    1.20
   31     1    1.20
   32     1    1.20
   33     1    1.20
   34     1    1.20
   35     1    1.20
   36     1    1.20
   37     1    1.20
   38     1    1.20
   39     1    1.20
   40     1    1.20
   41     7    1.50
   42     6    1.50
   43     6    1.50
   44     8    1.40
   45     6    1.50
   46     6    1.50
   47     8    1.40
   48     8    1.40
   49     1    1.20
   50     1    1.20
   51     1    1.20
   52     1    1.20
   53     7    1.50
   54     6    1.50
   55     6    1.50
   56     8    1.40
   57     1    1.20
   58     1    1.20
   59     1    1.20
   60     7    1.50
   61     6    1.50
   62     6    1.50
   63     8    1.40
   64     6    1.50
   65     6    1.50
   66     7    1.50
   67     8    1.40
   68     1    1.20
   69     1    1.20
   70     1    1.20
   71     1    1.20
   72     1    1.20
   73     1    1.20
   74     7    1.50
   75     6    1.50
   76     6    1.50
   77     8    1.40
   78     1    1.20
   79     1    1.20
   80     1    1.20
   81     7    1.50
   82     6    1.50
   83     6    1.50
   84     8    1.40
   85     6    1.50
   86     6    1.50
   87     6    1.50
   88     6    1.50
   89     6    1.50
   90     6    1.50
   91     6    1.50
   92     8    1.40
   93     1    1.20
   94     1    1.20
   95     1    1.20
   96     1    1.20
   97     1    1.20
   98     1    1.20
   99     1    1.20
  100     1    1.20
  101     1    1.20
  102     7    1.50
  103     6    1.50
  104     6    1.50
  105     8    1.40
  106     6    1.50
  107     6    1.50
  108     6    1.50
  109     6    1.50
  110     1    1.20
  111     1    1.20
  112     1    1.20
  113     1    1.20
  114     1    1.20
  115     1    1.20
  116     1    1.20
  117     1    1.20
  118     1    1.20
  119     1    1.20
  120     1    1.20
  121     7    1.50
  122     6    1.50
  123     6    1.50
  124     8    1.40
  125     6    1.50
  126     8    1.40
  127     1    1.20
  128     1    1.20
  129     1    1.20
  130     1    1.20
  131     1    1.20
  132     7    1.50
  133     6    1.50
  134     6    1.50
  135     8    1.40
  136     6    1.50
  137     1    1.20
  138     1    1.20
  139     1    1.20
  140     1    1.20
  141     1    1.20
  142     7    1.50
  143     6    1.50
  144     6    1.50
  145     8    1.40
  146     6    1.50
  147     1    1.20
  148     1    1.20
  149     1    1.20
  150     1    1.20
  151     1    1.20
  152     7    1.50
  153     6    1.50
  154     6    1.50
  155     8    1.40
  156     6    1.50
  157     6    1.50
  158     6    1.50
  159     8    1.40
  160     8    1.40
  161     1    1.20
  162     1    1.20
  163     1    1.20
  164     1    1.20
  165     1    1.20
  166     1    1.20
  167     7    1.50
  168     6    1.50
  169     1    1.20
  170     1    1.20
  171     1    1.20
  172     1    1.20
[...]
 **** Fit       0.001557
 **** Fit       0.006665
 **** Fit       0.010196
 **** Fit       0.011707
 **** Fit      -0.031509
 **** Fit      -0.024501
 **** Fit      -0.017637
 **** Fit      -0.009943
 **** Fit      -0.001964
 **** Fit       0.005601
 **** Fit       0.011963
 **** Fit       0.016455
 **** Fit      -0.008594
 **** Fit       0.001533
 **** Fit       0.010614
 **** Fit       0.049767
 **** Fit       0.048898
 **** Fit       0.044123
 **** Fit       0.046226
 **** Fit       0.041617
 **** Fit       0.041934
 **** Fit       0.040742
 **** Fit       0.037826
 **** Fit       0.033655
 **** Fit       0.029104
 **** Fit       0.022538
 **** Fit       0.037825
 **** Fit       0.036304
 **** Fit       0.033331
 **** Fit       0.029502
 **** Fit       0.025938
 **** Fit       0.023946
 **** Fit       0.024756
 **** Fit       0.033197
 **** Fit       0.030618
 **** Fit       0.027585
 **** Fit       0.025405
 **** Fit       0.025296
 **** Fit       0.028188
 **** Fit       0.026179
 **** Fit       0.025871
 **** Fit       0.021078
 **** Fit       0.019664
 **** Fit       0.023144
 **** Fit       0.025686
 **** Fit       0.027265
 **** Fit       0.028917
 **** Fit       0.027360
 **** Fit       0.029230
 **** Fit       0.032400
 **** Fit       0.030096
 **** Fit       0.033957
 **** Fit       0.020252
 **** Fit       0.035938
 **** Fit       0.033863
 **** Fit       0.031301
 **** Fit       0.028579
 **** Fit       0.026549
 **** Fit       0.025829
 **** Fit       0.025875
 **** Fit       0.024878
 **** Fit       0.031452
 **** Fit       0.028871
 **** Fit       0.026551
 **** Fit       0.025097
 **** Fit       0.023352
 **** Fit       0.028828
 **** Fit       0.026288
 **** Fit       0.023650
 **** Fit       0.025614
 **** Fit      -0.002666
 **** Fit      -0.004575
 **** Fit       0.000069
 **** Fit      -0.001082
 **** Fit      -0.002679
 **** Fit      -0.004516
 **** Fit      -0.006679
 **** Fit      -0.008860
 **** Fit       0.001554
 **** Fit       0.000905
 **** Fit      -0.000007
 **** Fit      -0.001193
 **** Fit      -0.002600
 **** Fit      -0.004350
 **** Fit      -0.006576
 **** Fit      -0.009271
 **** Fit      -0.012119
 **** Fit      -0.014443
 **** Fit       0.002751
 **** Fit       0.002360
 **** Fit       0.001777
 **** Fit       0.000980
 **** Fit      -0.000014
 **** Fit      -0.001193
 **** Fit      -0.002499
 **** Fit      -0.015411
 **** Fit      -0.018814
 **** Fit      -0.021209
 **** Fit       0.003675
 **** Fit       0.003440
 **** Fit       0.003053
 **** Fit       0.002475
 **** Fit       0.001715
 **** Fit       0.000815
 **** Fit      -0.000183
 **** Fit      -0.001270
 **** Fit       0.004569
 **** Fit       0.004510
 **** Fit       0.004342
 **** Fit       0.003987
 **** Fit       0.003406
 **** Fit       0.002617
 **** Fit       0.001685
 **** Fit       0.000685
 **** Fit      -0.000330
 **** Fit      -0.001353
 **** Fit       0.005293
 **** Fit       0.005402
 **** Fit       0.005451
 **** Fit       0.002505
 **** Fit       0.001405
 **** Fit       0.000328
 **** Fit      -0.000677
 **** Fit       0.005710
 **** Fit       0.006025
 **** Fit       0.006308
 **** Fit       0.000940
 **** Fit      -0.000228
 **** Fit      -0.001235
 **** Fit       0.005588
 **** Fit       0.006248
 **** Fit       0.006802
 **** Fit       0.000096
 **** Fit      -0.001143
 **** Fit      -0.002144
 **** Fit       0.006504
 **** Fit       0.007361
 **** Fit      -0.002441
 **** Fit      -0.003467
 **** Fit       0.006901
 **** Fit      -0.004183
 **** Fit      -0.005309
 **** Fit      -0.006742
 **** Fit      -0.007941
 **** Fit      -0.010470
 **** Fit      -0.011658
 **** Fit      -0.015739
 **** Fit      -0.016850
 **** Fit      -0.017476
 **** Fit      -0.024450
 **** Fit      -0.004908
 **** Fit      -0.007162
 **** Fit      -0.010001
 **** Fit      -0.004415
 **** Fit      -0.006269
 **** Fit      -0.008780
 **** Fit      -0.011963
 **** Fit      -0.015455
 **** Fit      -0.003039
 **** Fit      -0.004101
 **** Fit      -0.005702
 **** Fit      -0.007902
 **** Fit      -0.010881
 **** Fit      -0.014723
 **** Fit      -0.019243
 **** Fit      -0.023742
 **** Fit      -0.002895
 **** Fit      -0.004026
 **** Fit      -0.005445
 **** Fit      -0.007415
 **** Fit      -0.010160
 **** Fit      -0.013912
 **** Fit      -0.018847
 **** Fit      -0.024921
 **** Fit      -0.002059
 **** Fit      -0.002957
 **** Fit      -0.004253
 **** Fit      -0.005487
 **** Fit      -0.007205
 **** Fit      -0.009623
 **** Fit      -0.013004
 **** Fit      -0.017663
 **** Fit      -0.023929
 **** Fit      -0.001759
 **** Fit      -0.002542
 **** Fit      -0.003324
 **** Fit      -0.004857
 **** Fit      -0.005996
 **** Fit      -0.007617
 **** Fit      -0.009945
 **** Fit      -0.013280
 **** Fit      -0.018034
 **** Fit      -0.002599
 **** Fit      -0.003317
 **** Fit      -0.004018
 **** Fit      -0.005931
 **** Fit      -0.006966
 **** Fit      -0.008467
 **** Fit      -0.010652
 **** Fit      -0.013819
 **** Fit      -0.018405
 **** Fit      -0.003964
 **** Fit      -0.004586
 **** Fit      -0.005190
 **** Fit      -0.007592
 **** Fit      -0.008551
 **** Fit      -0.009990
 **** Fit      -0.012121
 **** Fit      -0.015245
 **** Fit      -0.019816
 **** Fit      -0.005939
 **** Fit      -0.006447
 **** Fit      -0.006943
 **** Fit      -0.009991
 **** Fit      -0.010924
 **** Fit      -0.012425
 **** Fit      -0.014726
 **** Fit      -0.018165
 **** Fit      -0.023279
 **** Fit      -0.008730
 **** Fit      -0.009082
 **** Fit      -0.009436
 **** Fit      -0.013318
 **** Fit      -0.014234
 **** Fit      -0.015879
 **** Fit      -0.018509
 **** Fit      -0.022500
 **** Fit      -0.012822
 **** Fit      -0.012917
 **** Fit      -0.017797
 **** Fit      -0.018641
 **** Fit      -0.020436
 **** Fit      -0.023422
 **** Fit      -0.027929
 **** Fit      -0.018080
 **** Fit      -0.017688
 **** Fit      -0.023643
 **** Fit      -0.024387
 **** Fit      -0.026570
 **** Fit      -0.030373
 **** Fit      -0.024118
 **** Fit      -0.031327
 **** Fit      -0.001481
 **** Fit      -0.002057
 **** Fit      -0.003463
 **** Fit      -0.002837
 **** Fit      -0.000833
 **** Fit       0.000166
 **** Fit      -0.000425
 **** Fit      -0.002547
 **** Fit      -0.004433
 **** Fit      -0.005878
 **** Fit      -0.006041
 **** Fit      -0.004619
 **** Fit      -0.002281
 **** Fit      -0.000121
 **** Fit       0.001172
 **** Fit       0.001544
 **** Fit       0.001238
 **** Fit       0.000428
 **** Fit      -0.000846
 **** Fit      -0.004957
 **** Fit      -0.007097
 **** Fit      -0.008864
 **** Fit      -0.009630
 **** Fit      -0.008975
 **** Fit      -0.007000
 **** Fit      -0.004280
 **** Fit      -0.001545
 **** Fit       0.000637
 **** Fit       0.002017
 **** Fit       0.002633
 **** Fit       0.002699
 **** Fit       0.002425
 **** Fit       0.001910
 **** Fit       0.001161
 **** Fit       0.000138
 **** Fit      -0.001213
 **** Fit      -0.012958
 **** Fit      -0.014217
 **** Fit      -0.013941
 **** Fit      -0.012109
 **** Fit      -0.009150
 **** Fit      -0.005700
 **** Fit      -0.002389
 **** Fit       0.000325
 **** Fit       0.002242
 **** Fit       0.003338
 **** Fit       0.003746
 **** Fit       0.003721
 **** Fit       0.003476
 **** Fit       0.003104
 **** Fit       0.002613
 **** Fit      -0.020653
 **** Fit      -0.020407
 **** Fit      -0.018212
 **** Fit      -0.014614
 **** Fit      -0.010325
 **** Fit      -0.005999
 **** Fit      -0.002185
 **** Fit       0.000819
 **** Fit       0.002965
 **** Fit       0.004230
 **** Fit       0.004691
 **** Fit       0.004654
 **** Fit       0.004424
 **** Fit       0.004131
 **** Fit       0.003795
 **** Fit      -0.022283
 **** Fit      -0.016942
 **** Fit      -0.011492
 **** Fit      -0.006477
 **** Fit      -0.002311
 **** Fit       0.000923
 **** Fit       0.005391
 **** Fit       0.005147
 **** Fit       0.004911
 **** Fit       0.004692
 **** Fit      -0.020928
 **** Fit      -0.014030
 **** Fit      -0.008058
 **** Fit      -0.003332
 **** Fit       0.005332
 **** Fit      -0.016365
 **** Fit      -0.009714
 **** Fit       0.005392
 **** Fit       0.005620
 **** Fit       0.005569
 **** Fit       0.005208
 **** Fit       0.004550
 **** Fit       0.003653
 **** Fit       0.006457
 **** Fit       0.006648
 **** Fit       0.006548
 **** Fit       0.006135
 **** Fit       0.005425
 **** Fit       0.004465
 **** Fit       0.003329
 **** Fit       0.002107
 **** Fit       0.007151
 **** Fit       0.007562
 **** Fit       0.007704
 **** Fit       0.007542
 **** Fit       0.007063
 **** Fit       0.006283
 **** Fit       0.005247
 **** Fit       0.004020
 **** Fit       0.002679
 **** Fit       0.001308
 **** Fit       0.007886
 **** Fit       0.008483
 **** Fit       0.008774
 **** Fit       0.008719
 **** Fit       0.008295
 **** Fit       0.007511
 **** Fit       0.006408
 **** Fit       0.005051
 **** Fit       0.003523
 **** Fit       0.001911
 **** Fit       0.000304
 **** Fit       0.008501
 **** Fit       0.009334
 **** Fit       0.009821
 **** Fit       0.009911
 **** Fit       0.009570
 **** Fit       0.008797
 **** Fit       0.007630
 **** Fit       0.006139
 **** Fit       0.004413
 **** Fit       0.002549
 **** Fit       0.000642
 **** Fit      -0.001216
 **** Fit       0.008310
 **** Fit       0.009636
 **** Fit       0.010577
 **** Fit       0.011048
 **** Fit       0.010988
 **** Fit       0.010374
 **** Fit       0.009226
 **** Fit       0.007617
 **** Fit       0.005653
 **** Fit       0.003456
 **** Fit       0.001149
 **** Fit      -0.001155
 **** Fit      -0.003357
 **** Fit      -0.005366
 **** Fit       0.009505
 **** Fit       0.011112
 **** Fit       0.012040
 **** Fit       0.012200
 **** Fit       0.011552
 **** Fit       0.010119
 **** Fit       0.008012
 **** Fit       0.005405
 **** Fit       0.002498
 **** Fit      -0.000522
 **** Fit      -0.003491
 **** Fit      -0.006277
 **** Fit      -0.008774
 **** Fit       0.012120
 **** Fit       0.013189
 **** Fit       0.012994
 **** Fit       0.011507
 **** Fit       0.008857
 **** Fit       0.005348
 **** Fit       0.001349
 **** Fit      -0.002801
 **** Fit      -0.006829
 **** Fit      -0.010523
 **** Fit      -0.013737
 **** Fit      -0.000591
 **** Fit       0.018799
 **** Fit       0.011487
 **** Fit       0.027462
 **** Fit       0.021306
 **** Fit       0.013201
 **** Fit       0.037302
 **** Fit       0.034272
 **** Fit       0.029907
 **** Fit       0.023584
 **** Fit       0.014923
 **** Fit       0.040268
 **** Fit       0.038292
 **** Fit       0.032875
 **** Fit       0.026156
 **** Fit       0.017153
 **** Fit       0.043865
 **** Fit       0.037058
 **** Fit       0.029180
 **** Fit       0.019472
 **** Fit       0.044790
 **** Fit       0.033428
 **** Fit       0.023111
 **** Fit       0.009850
 **** Fit       0.042643
 **** Fit       0.027493
 **** Fit       0.013994
 **** Fit       0.037944
 **** Fit       0.019623
 **** Fit       0.006479
 **** Fit       0.020542
 **** Fit       0.030468
 **** Fit       0.030605
 **** Fit       0.010501
 **** Fit       0.011883
 **** Fit       0.019394
 **** Fit       0.026949
 **** Fit       0.042508
 **** Fit       0.045250
 **** Fit       0.030162
 **** Fit       0.035585
 **** Fit       0.039507
 **** Fit       0.043115
 **** Fit       0.046500
 **** Fit       0.035198
 **** Fit       0.037671
 **** Fit       0.041517
 **** Fit       0.028830
 **** Fit       0.028498
 **** Fit       0.032625
 **** Fit       0.033108
 **** Fit       0.033627
 **** Fit       0.034567
 **** Fit       0.035055
 **** Fit       0.035582
 **** Fit       0.036421
 **** Fit       0.037477
 **** Fit       0.038936
 **** Fit       0.041172
 **** Fit       0.038346
 **** Fit       0.038205
 **** Fit       0.038892
 **** Fit       0.040046
 **** Fit       0.041618
 **** Fit       0.043756
 **** Fit       0.042081
 **** Fit       0.040928
 **** Fit       0.041066
 **** Fit       0.041981
 **** Fit       0.043437
 **** Fit       0.045399
 **** Fit       0.047929
 **** Fit       0.044907
 **** Fit       0.043342
 **** Fit       0.043190
 **** Fit       0.044016
 **** Fit       0.045540
 **** Fit       0.047648
 **** Fit       0.050306
 **** Fit       0.046274
 **** Fit       0.045091
 **** Fit       0.044885
 **** Fit       0.045655
 **** Fit       0.047218
 **** Fit       0.049441
 **** Fit       0.052249
 **** Fit       0.055601
 **** Fit       0.045957
 **** Fit       0.045988
 **** Fit       0.046594
 **** Fit       0.048061
 **** Fit       0.050354
 **** Fit       0.053412
 **** Fit       0.046859
 **** Fit       0.048083
 **** Fit       0.050316
 **** Fit       0.037988
 **** Fit       0.043553
 **** Fit       0.036076
 **** Fit       0.039281
 **** Fit       0.041875
 **** Fit       0.043632
 **** Fit       0.055215
 **** Fit       0.036118
 **** Fit       0.037124
 **** Fit       0.038513
 **** Fit       0.039468
 **** Fit       0.039519
 **** Fit       0.038379
 **** Fit       0.036106
 **** Fit       0.053260
 **** Fit       0.052578
 **** Fit       0.051517
 **** Fit       0.040497
 **** Fit       0.039442
 **** Fit       0.039198
 **** Fit       0.038985
 **** Fit       0.038164
 **** Fit       0.036459
 **** Fit       0.034106
 **** Fit       0.031910
 **** Fit       0.030765
 **** Fit       0.031056
 **** Fit       0.048695
 **** Fit       0.049963
 **** Fit       0.050384
 **** Fit       0.050146
 **** Fit       0.049299
 **** Fit       0.047730
 **** Fit       0.045389
 **** Fit       0.042677
 **** Fit       0.042094
 **** Fit       0.040690
 **** Fit       0.039558
 **** Fit       0.038138
 **** Fit       0.036188
 **** Fit       0.034150
 **** Fit       0.032956
 **** Fit       0.033285
 **** Fit       0.035152
 **** Fit       0.038106
 **** Fit       0.041412
 **** Fit       0.044348
 **** Fit       0.046471
 **** Fit       0.047634
 **** Fit       0.047894
 **** Fit       0.047315
 **** Fit       0.045932
 **** Fit       0.043991
 **** Fit       0.042370
 **** Fit       0.040557
 **** Fit       0.038650
 **** Fit       0.036687
 **** Fit       0.035622
 **** Fit       0.036420
 **** Fit       0.038881
 **** Fit       0.041888
 **** Fit       0.044299
 **** Fit       0.045505
 **** Fit       0.045397
 **** Fit       0.044165
 **** Fit       0.041866
 **** Fit       0.039641
 **** Fit       0.038367
 **** Fit       0.039880
 **** Fit       0.042493
 **** Fit       0.043287
 **** Fit       0.040946
 -----------------------------------------------------------------
 Leave Link  602 at Wed Sep 18 16:10:53 2019, MaxMem=  1342177280 cpu:             102.4 elap:               2.2

 Test job not archived.
 1\1\GINC-C484-062\SP\RB3LYP\SVP\C54H83Ca1N15O23\JAEBEOMH\18-Sep-2019\0
 \\#b3lyp/svp scf=(tight,noincore) Test #IOP(5/87=12) Density=Current P
 op=(MK,readradii) iop(6/33=2) iop(6/42=6)\\CaMKII_loop3_37.0\\0,1\C,0,
 65.74,46.68,24.61\C,0,64.6,45.71,24.9\O,0,64.83,44.56,25.27\H,0,66.613
 ,46.123,24.27\H,0,65.433,47.381,23.834\H,0,65.991,47.229,25.518\N,0,63
 .36,46.18,25.\C,0,62.12,45.5,25.31\C,0,61.85,44.43,24.27\O,0,61.64,44.
 7,23.09\C,0,60.95,46.47,25.52\C,0,59.63,45.81,25.89\O,0,59.66,44.63,26
 .28\O,0,58.57,46.47,25.81\H,0,63.22,47.1,24.61\H,0,62.2,45.01,26.28\H,
 0,60.73,46.96,24.57\H,0,61.25,47.26,26.2\N,0,61.93,43.16,24.69\C,0,62.
 05,41.92,23.95\C,0,60.68,41.33,23.65\O,0,60.56,40.37,22.9\C,0,62.93,40
 .92,24.7\C,0,63.66,39.94,23.79\C,0,64.79,39.22,24.53\C,0,65.48,38.29,2
 3.54\N,0,66.34,37.32,24.24\H,0,62.09,43.08,25.68\H,0,62.54,42.22,23.02
 \H,0,62.34,40.4,25.45\H,0,63.66,41.48,25.28\H,0,64.18,40.5,23.01\H,0,6
 2.96,39.24,23.35\H,0,64.38,38.59,25.32\H,0,65.59,39.81,24.98\H,0,66.04
 ,38.97,22.88\H,0,64.69,37.79,22.99\H,0,66.31,36.43,23.76\H,0,67.31,37.
 61,24.28\H,0,66.05,37.07,25.17\N,0,59.58,41.8,24.25\C,0,58.23,41.32,24
 .1\C,0,57.22,42.45,23.92\O,0,56.02,42.26,23.76\C,0,57.76,40.37,25.2\C,
 0,57.72,40.87,26.64\O,0,57.35,40.09,27.54\O,0,58.05,42.06,26.87\H,0,59
 .66,42.54,24.94\H,0,58.11,40.84,23.13\H,0,58.49,39.56,25.16\H,0,56.81,
 39.91,24.96\N,0,57.66,43.7,24.1\C,0,56.94,44.93,23.85\C,0,55.9,45.36,2
 4.87\O,0,54.94,46.1,24.63\H,0,58.55,43.86,24.56\H,0,56.48,44.8,22.87\H
 ,0,57.59,45.8,23.8\N,0,56.12,44.83,26.08\C,0,55.25,45.14,27.2\C,0,55.3
 7,46.54,27.78\O,0,54.57,46.95,28.62\C,0,55.42,43.95,28.15\C,0,56.49,44
 .14,29.21\N,0,56.26,43.86,30.5\O,0,57.58,44.64,28.94\H,0,56.98,44.34,2
 6.24\H,0,54.25,45.08,26.77\H,0,55.38,42.97,27.69\H,0,54.48,44.07,28.69
 \H,0,55.46,43.27,30.66\H,0,56.88,44.24,31.2\N,0,56.34,47.34,27.34\C,0,
 56.64,48.67,27.82\C,0,57.57,48.73,29.03\O,0,57.56,49.72,29.75\H,0,57.0
 1,47.01,26.66\H,0,55.71,49.18,28.05\H,0,57.08,49.22,26.99\N,0,58.26,47
 .61,29.31\C,0,59.23,47.5,30.37\C,0,60.47,46.68,30.04\O,0,60.43,45.69,2
 9.31\C,0,58.56,46.96,31.62\C,0,57.39,47.79,32.11\C,0,57.56,48.68,33.17
 \C,0,56.11,47.61,31.59\C,0,56.44,49.32,33.74\C,0,54.98,48.25,32.12\C,0
 ,55.15,49.11,33.22\O,0,54.09,49.72,33.84\H,0,58.21,46.91,28.58\H,0,59.
 51,48.55,30.53\H,0,59.22,47.02,32.49\H,0,58.28,45.91,31.55\H,0,58.52,4
 8.89,33.62\H,0,55.94,46.87,30.81\H,0,56.61,49.8,34.69\H,0,54.03,47.95,
 31.69\H,0,53.3,49.54,33.33\N,0,61.57,47.02,30.71\C,0,62.83,46.31,30.66
 \C,0,63.16,45.71,32.02\O,0,62.95,46.29,33.09\C,0,63.93,47.17,30.05\C,0
 ,63.61,47.96,28.78\C,0,65.25,46.4,29.96\C,0,64.39,49.24,28.54\H,0,61.5
 8,47.81,31.33\H,0,62.67,45.42,30.06\H,0,64.09,47.96,30.79\H,0,62.55,48
 .2,28.8\H,0,63.81,47.34,27.91\H,0,65.56,46.17,30.98\H,0,65.19,45.49,29
 .37\H,0,65.95,47.13,29.55\H,0,64.22,49.92,29.38\H,0,65.47,49.1,28.44\H
 ,0,63.92,49.65,27.65\N,0,63.87,44.58,32.\C,0,64.24,43.67,33.06\C,0,65.
 64,43.11,32.86\O,0,66.12,43.17,31.73\C,0,63.29,42.47,33.12\O,0,63.38,4
 1.79,31.89\H,0,64.05,44.31,31.04\H,0,64.24,44.1,34.07\H,0,62.31,42.94,
 33.22\H,0,63.47,41.83,33.98\H,0,63.08,42.37,31.2\N,0,66.25,42.49,33.88
 \C,0,67.55,41.85,33.81\C,0,67.82,40.99,32.59\O,0,68.83,41.21,31.91\C,0
 ,67.86,41.19,35.15\H,0,65.87,42.64,34.8\H,0,68.26,42.67,33.71\H,0,68.8
 4,40.77,35.37\H,0,67.64,41.81,36.02\H,0,67.24,40.3,35.21\N,0,67.03,39.
 95,32.3\C,0,67.29,39.14,31.13\C,0,67.34,39.92,29.82\O,0,68.12,39.49,28
 .98\C,0,66.2,38.08,31.13\H,0,66.23,39.74,32.88\H,0,68.17,38.51,31.28\H
 ,0,66.42,37.49,30.24\H,0,66.16,37.56,32.08\H,0,65.25,38.54,30.87\N,0,6
 6.49,40.93,29.61\C,0,66.45,41.71,28.39\C,0,67.71,42.56,28.3\O,0,68.29,
 42.72,27.22\C,0,65.2,42.57,28.29\C,0,63.95,41.69,28.24\C,0,62.73,42.59
 ,28.35\O,0,61.99,42.83,27.38\O,0,62.41,42.91,29.52\H,0,65.74,41.03,30.
 28\H,0,66.39,41.06,27.52\H,0,65.28,43.29,27.48\H,0,65.15,43.2,29.17\H,
 0,63.93,41.09,29.15\H,0,63.97,41.14,27.3\N,0,68.09,43.19,29.41\C,0,69.
 28,44.02,29.41\H,0,70.087,43.497,28.897\H,0,69.07,44.957,28.895\H,0,69
 .578,44.228,30.437\H,0,67.54,43.17,30.25\Ca,0,59.76,43.16,28.54\O,0,59
 .89,43.27,31.23\H,0,59.75,43.77,32.04\H,0,60.13,42.39,31.53\\Version=E
 S64L-G16RevA.03\State=1-A\HF=-5333.5715668\RMSD=3.107e-09\Dipole=11.69
 75857,-9.9838641,4.5508935\Quadrupole=-81.1269968,66.4854167,14.641580
 1,-56.0736203,-75.7391025,30.1237726\PG=C01 [X(C54H83Ca1N15O23)]\\@


 THE ENLIGHTENED ONE, BECAUSE HE SAW MANKIND DROWNING  
 IN THE GREAT SEA OF BIRTH, DEATH, AND SORROW, LONGED TO SAVE 
 THEM, FOR THIS HE WAS MOVED TO PITY.                         
 BECAUSE HE SAW MEN OF THE WORLD STRAYING IN FALSE PATHS, AND 
 NONE TO GUIDE THEM, FOR THIS HE WAS MOVED TO PITY.           
                     ..................                       
 BECAUSE HE SAW THE MEN OF THE WORLD PLOUGHING THEIR FIELDS,  
 SOWING THE SEED, TRAFFICKING, HUCKSTERING, BUYING, SELLING,  
 AND AT THE END WINNOWING NOTHING BUT BITTERNESS,             
 FOR THIS HE WAS MOVED TO PITY......                   
                   BUDAH'S PITY - UPSAKA SILA SUTRA           
 Job cpu time:       0 days  9 hours 45 minutes 20.4 seconds.
 Elapsed time:       0 days  0 hours 12 minutes 19.9 seconds.
 File lengths (MBytes):  RWF=   1517 Int=      0 D2E=      0 Chk=    171 Scr=      1
 Normal termination of Gaussian 16 at Wed Sep 18 16:10:54 2019.
