 Entering Gaussian System, Link 0=g16
 Initial command:
 /home1/apps/gaussian/16rA.03/g16/l1.exe "/scratch/04905/jaebeomh/4356904/Gau-129677.inp" -scrdir="/scratch/04905/jaebeomh/4356904/"
 Entering Link 1 = /home1/apps/gaussian/16rA.03/g16/l1.exe PID=    129679.
  
 Copyright (c) 1988,1990,1992,1993,1995,1998,2003,2009,2016,
            Gaussian, Inc.  All Rights Reserved.
  
 This is part of the Gaussian(R) 16 program.  It is based on
 the Gaussian(R) 09 system (copyright 2009, Gaussian, Inc.),
 the Gaussian(R) 03 system (copyright 2003, Gaussian, Inc.),
 the Gaussian(R) 98 system (copyright 1998, Gaussian, Inc.),
 the Gaussian(R) 94 system (copyright 1995, Gaussian, Inc.),
 the Gaussian 92(TM) system (copyright 1992, Gaussian, Inc.),
 the Gaussian 90(TM) system (copyright 1990, Gaussian, Inc.),
 the Gaussian 88(TM) system (copyright 1988, Gaussian, Inc.),
 the Gaussian 86(TM) system (copyright 1986, Carnegie Mellon
 University), and the Gaussian 82(TM) system (copyright 1983,
 Carnegie Mellon University). Gaussian is a federally registered
 trademark of Gaussian, Inc.
  
 This software contains proprietary and confidential information,
 including trade secrets, belonging to Gaussian, Inc.
  
 This software is provided under written license and may be
 used, copied, transmitted, or stored only in accord with that
 written license.
  
 The following legend is applicable only to US Government
 contracts under FAR:
  
                    RESTRICTED RIGHTS LEGEND
  
 Use, reproduction and disclosure by the US Government is
 subject to restrictions as set forth in subparagraphs (a)
 and (c) of the Commercial Computer Software - Restricted
 Rights clause in FAR 52.227-19.
  
 Gaussian, Inc.
 340 Quinnipiac St., Bldg. 40, Wallingford CT 06492
  
  
 ---------------------------------------------------------------
 Warning -- This program may not be used in any manner that
 competes with the business of Gaussian, Inc. or will provide
 assistance to any competitor of Gaussian, Inc.  The licensee
 of this program is prohibited from giving any competitor of
 Gaussian, Inc. access to this program.  By using this program,
 the user acknowledges that Gaussian, Inc. is engaged in the
 business of creating and licensing software in the field of
 computational chemistry and represents and warrants to the
 licensee that it is not a competitor of Gaussian, Inc. and that
 it will not use this program in any manner prohibited above.
 ---------------------------------------------------------------
  

 Cite this work as:
 Gaussian 16, Revision A.03,
 M. J. Frisch, G. W. Trucks, H. B. Schlegel, G. E. Scuseria, 
 M. A. Robb, J. R. Cheeseman, G. Scalmani, V. Barone, 
 G. A. Petersson, H. Nakatsuji, X. Li, M. Caricato, A. V. Marenich, 
 J. Bloino, B. G. Janesko, R. Gomperts, B. Mennucci, H. P. Hratchian, 
 J. V. Ortiz, A. F. Izmaylov, J. L. Sonnenberg, D. Williams-Young, 
 F. Ding, F. Lipparini, F. Egidi, J. Goings, B. Peng, A. Petrone, 
 T. Henderson, D. Ranasinghe, V. G. Zakrzewski, J. Gao, N. Rega, 
 G. Zheng, W. Liang, M. Hada, M. Ehara, K. Toyota, R. Fukuda, 
 J. Hasegawa, M. Ishida, T. Nakajima, Y. Honda, O. Kitao, H. Nakai, 
 T. Vreven, K. Throssell, J. A. Montgomery, Jr., J. E. Peralta, 
 F. Ogliaro, M. J. Bearpark, J. J. Heyd, E. N. Brothers, K. N. Kudin, 
 V. N. Staroverov, T. A. Keith, R. Kobayashi, J. Normand, 
 K. Raghavachari, A. P. Rendell, J. C. Burant, S. S. Iyengar, 
 J. Tomasi, M. Cossi, J. M. Millam, M. Klene, C. Adamo, R. Cammi, 
 J. W. Ochterski, R. L. Martin, K. Morokuma, O. Farkas, 
 J. B. Foresman, and D. J. Fox, Gaussian, Inc., Wallingford CT, 2016.
 
 ******************************************
 Gaussian 16:  ES64L-G16RevA.03 25-Dec-2016
                18-Sep-2019 
 ******************************************
 %chk=CaMKII_loop3_54.0.chk
 %nprocshared=48
 Will use up to   48 processors via shared memory.
 %mem=10GB
 %nosave
 ----------------------------------------------------------------------
 #b3lyp/svp scf=(tight,noincore) Test #IOP(5/87=12) Density=Current Pop
 =(MK,readradii) iop(6/33=2) iop(6/42=6)
 ----------------------------------------------------------------------
 1/30=1,38=1,172=1/1;
 2/12=2,17=6,18=5,40=1/2;
 3/5=18,7=101,11=2,25=1,30=1,74=-5/1,2,3;
 4//1;
 5/5=4,32=2,38=5,87=12/2;
 6/7=2,8=2,9=2,10=2,15=8,20=101,22=-1,28=1,33=2,42=6/1,2;
 99/5=1,9=1/99;
 -----------------
 CaMKII_loop3_54.0
 -----------------
 Symbolic Z-matrix:
 Charge =  0 Multiplicity = 1
 C                     82.52     60.44     31.17 
 C                     82.       60.29     32.59 
 O                     82.56     59.5      33.35 
 H                     83.545    60.073    31.118 
 H                     81.893    59.863    30.49 
 H                     82.496    61.491    30.883 
 N                     80.88     60.94     32.92 
 C                     80.3      60.91     34.24 
 C                     79.42     59.67     34.38 
 O                     78.22     59.73     34.11 
 C                     79.49     62.2      34.36 
 C                     78.73     62.41     35.66 
 O                     78.71     61.45     36.46 
 O                     78.01     63.41     35.86 
 H                     80.5      61.53     32.19 
 H                     81.08     60.94     35.01 
 H                     78.86     62.23     33.47 
 H                     80.24     62.98     34.47 
 N                     79.94     58.57     34.92 
 C                     79.3      57.28     34.84 
 C                     77.88     57.18     35.4 
 O                     77.09     56.46     34.79 
 C                     80.27     56.32     35.52 
 C                     79.92     54.84     35.41 
 C                     80.97     54.02     36.13 
 C                     80.6      52.55     36.29 
 N                     79.36     52.3      37.04 
 H                     80.92     58.55     35.16 
 H                     79.23     56.98     33.79 
 H                     80.31     56.54     36.59 
 H                     81.23     56.55     35.06 
 H                     79.89     54.49     34.38 
 H                     78.99     54.57     35.9 
 H                     81.14     54.52     37.09 
 H                     81.9      54.03     35.55 
 H                     81.34     52.08     36.94 
 H                     80.61     52.08     35.31 
 H                     78.57     52.4      36.41 
 H                     79.3      51.34     37.34 
 H                     79.16     52.95     37.78 
 N                     77.63     57.74     36.58 
 C                     76.37     57.73     37.3 
 C                     75.52     58.95     36.98 
 O                     74.3      59.03     37.12 
 C                     76.48     57.65     38.82 
 C                     77.47     58.62     39.44 
 O                     78.05     59.53     38.82 
 O                     77.55     58.55     40.69 
 H                     78.37     58.25     37.04 
 H                     75.82     56.85     36.96 
 H                     76.77     56.62     39.01 
 H                     75.48     57.86     39.2 
 N                     76.14     59.97     36.38 
 C                     75.51     61.17     35.86 
 C                     75.17     62.33     36.79 
 O                     74.35     63.2      36.53 
 H                     77.14     60.04     36.49 
 H                     74.6      60.85     35.35 
 H                     76.2      61.57     35.12 
 N                     75.74     62.33     37.99 
 C                     75.46     63.28     39.05 
 C                     76.01     64.69     38.89 
 O                     75.73     65.54     39.74 
 C                     75.95     62.62     40.34 
 C                     77.46     62.64     40.56 
 N                     77.89     62.67     41.82 
 O                     78.33     62.79     39.71 
 H                     76.65     61.89     38.01 
 H                     74.38     63.35     39.13 
 H                     75.56     61.61     40.45 
 H                     75.53     63.19     41.17 
 H                     77.22     62.94     42.53 
 H                     78.87     62.66     42.04 
 N                     76.81     64.98     37.86 
 C                     77.05     66.32     37.38 
 C                     78.51     66.69     37.2 
 O                     78.87     67.8      36.8 
 H                     77.22     64.26     37.28 
 H                     76.6      67.08     38.03 
 H                     76.6      66.37     36.39 
 N                     79.4      65.74     37.47 
 C                     80.85     65.85     37.57 
 C                     81.48     64.49     37.26 
 O                     80.82     63.45     37.32 
 C                     81.25     66.24     38.98 
 C                     80.2      66.64     39.99 
 C                     79.94     67.99     40.25 
 C                     79.68     65.67     40.86 
 C                     79.11     68.38     41.32 
 C                     78.95     66.08     41.98 
 C                     78.6      67.42     42.22 
 O                     77.82     67.77     43.27 
 H                     79.09     64.78     37.55 
 H                     81.21     66.62     36.89 
 H                     82.02     67.       38.87 
 H                     81.8      65.42     39.45 
 H                     80.37     68.73     39.6 
 H                     79.99     64.66     40.64 
 H                     78.87     69.4      41.57 
 H                     78.58     65.31     42.65 
 H                     77.63     67.03     43.85 
 N                     82.79     64.5      37.01 
 C                     83.63     63.33     36.87 
 C                     84.76     63.33     37.89 
 O                     85.45     64.33     38.08 
 C                     84.21     63.45     35.47 
 C                     83.25     63.41     34.28 
 C                     85.21     62.31     35.24 
 C                     83.63     64.24     33.06 
 H                     83.31     65.36     37.01 
 H                     83.06     62.4      36.94 
 H                     84.7      64.42     35.39 
 H                     82.23     63.57     34.63 
 H                     83.21     62.36     33.99 
 H                     84.76     61.35     35.47 
 H                     85.43     62.16     34.18 
 H                     86.15     62.45     35.76 
 H                     83.73     65.28     33.34 
 H                     84.57     63.89     32.61 
 H                     82.81     64.13     32.35 
 N                     85.13     62.17     38.45 
 C                     86.2      61.85     39.37 
 C                     87.24     60.91     38.77 
 O                     87.05     60.26     37.74 
 C                     85.58     61.1      40.54 
 O                     84.6      60.14     40.19 
 H                     84.74     61.32     38.07 
 H                     86.7      62.74     39.73 
 H                     85.04     61.88     41.08 
 H                     86.33     60.62     41.16 
 H                     84.47     59.65     41.01 
 N                     88.34     60.77     39.51 
 C                     89.45     59.98     39.02 
 C                     89.09     58.52     38.79 
 O                     89.43     57.87     37.8 
 C                     90.66     60.05     39.95 
 H                     88.52     61.33     40.33 
 H                     89.71     60.34     38.03 
 H                     90.68     61.04     40.4 
 H                     90.58     59.28     40.71 
 H                     91.61     59.83     39.46 
 N                     88.22     57.96     39.63 
 C                     87.69     56.62     39.54 
 C                     87.       56.43     38.19 
 O                     87.16     55.44     37.49 
 C                     86.75     56.3      40.7 
 H                     87.99     58.54     40.43 
 H                     88.45     55.85     39.68 
 H                     87.27     56.54     41.63 
 H                     85.79     56.8      40.69 
 H                     86.55     55.24     40.86 
 N                     86.21     57.41     37.74 
 C                     85.34     57.24     36.6 
 C                     86.13     57.57     35.34 
 O                     85.94     57.04     34.25 
 C                     84.16     58.21     36.67 
 C                     83.28     57.99     37.9 
 C                     82.12     58.96     38.04 
 O                     81.94     59.9      37.24 
 O                     81.24     58.76     38.91 
 H                     86.17     58.28     38.25 
 H                     84.91     56.26     36.43 
 H                     83.5      58.21     35.81 
 H                     84.56     59.23     36.7 
 H                     84.01     58.07     38.71 
 H                     82.99     56.95     37.76 
 N                     87.09     58.49     35.46 
 C                     87.99     58.79     34.36 
 H                     88.951    58.306    34.535 
 H                     87.562    58.421    33.428 
 H                     88.135    59.868    34.292 
 H                     87.11     59.03     36.31 
 Ca                    80.04     61.02     38.58 
 O                     82.28     61.88     39.75 
 H                     82.61     62.52     40.39 
 H                     82.97     61.21     39.72 
 
 Stoichiometry    C54H83CaN15O23
 Framework group  C1[X(C54H83CaN15O23)]
 Deg. of freedom   522
 Full point group                 C1      NOp   1
 Largest Abelian subgroup         C1      NOp   1
 Largest concise Abelian subgroup C1      NOp   1
                         Standard orientation:                         
 ---------------------------------------------------------------------
 Center     Atomic      Atomic             Coordinates (Angstroms)
 Number     Number       Type             X           Y           Z
 ---------------------------------------------------------------------
      1          6           0        1.950590    1.855046    5.876928
      2          6           0        1.439108    1.771052    4.448422
      3          8           0        2.246770    1.828877    3.521256
      4          1           0        3.012413    1.609833    5.897427
      5          1           0        1.804259    2.866283    6.256988
      6          1           0        1.403192    1.149344    6.501336
      7          7           0        0.116898    1.753924    4.255371
      8          6           0       -0.497888    1.642563    2.955626
      9          6           0       -0.593615    3.027075    2.318787
     10          8           0       -1.604366    3.712235    2.478276
     11          6           0       -1.876871    1.034217    3.206464
     12          6           0       -2.768233    0.839571    1.990205
     13          8           0       -2.361892    1.325502    0.912819
     14          8           0       -3.926210    0.381152    2.075881
     15          1           0       -0.436529    1.744995    5.103333
     16          1           0        0.057844    0.943568    2.319413
     17          1           0       -2.325418    1.646973    3.989559
     18          1           0       -1.673123   -0.008266    3.440380
     19          7           0        0.369055    3.420747    1.487951
     20          6           0        0.525440    4.789935    1.062546
     21          6           0       -0.675322    5.437267    0.370352
     22          8           0       -0.890229    6.622890    0.620778
     23          6           0        1.776591    4.787596    0.191045
     24          6           0        2.280837    6.159381   -0.243630
     25          6           0        3.520471    5.992276   -1.097260
     26          6           0        3.973263    7.276096   -1.782962
     27          7           0        2.982787    7.879684   -2.686974
     28          1           0        1.176974    2.832143    1.349346
     29          1           0        0.740112    5.413449    1.935785
     30          1           0        1.577046    4.235416   -0.731007
     31          1           0        2.510935    4.251419    0.790504
     32          1           0        2.553509    6.793582    0.597643
     33          1           0        1.589691    6.700463   -0.881947
     34          1           0        3.293331    5.190543   -1.808689
     35          1           0        4.359539    5.683141   -0.463383
     36          1           0        4.774087    7.026644   -2.481142
     37          1           0        4.337868    7.965174   -1.025575
     38          1           0        2.334370    8.436066   -2.138344
     39          1           0        3.409848    8.555289   -3.300469
     40          1           0        2.388988    7.233254   -3.176496
     41          7           0       -1.311118    4.739222   -0.566129
     42          6           0       -2.442656    5.177450   -1.362168
     43          6           0       -3.770246    4.792872   -0.727420
     44          8           0       -4.852975    5.335183   -0.946498
     45          6           0       -2.472887    4.669079   -2.800760
     46          6           0       -2.223862    3.179395   -2.956409
     47          8           0       -2.152697    2.372607   -2.011460
     48          8           0       -2.255275    2.770178   -4.141886
     49          1           0       -1.010345    3.793665   -0.752561
     50          1           0       -2.400247    6.268115   -1.396121
     51          1           0       -1.702621    5.249103   -3.302120
     52          1           0       -3.465927    4.912294   -3.179201
     53          7           0       -3.726092    3.872678    0.240099
     54          6           0       -4.836486    3.453456    1.075909
     55          6           0       -5.839526    2.422282    0.569262
     56          8           0       -6.962468    2.272938    1.031429
     57          1           0       -2.935063    3.247354    0.255658
     58          1           0       -5.375607    4.359265    1.357789
     59          1           0       -4.388889    3.023867    1.969671
     60          7           0       -5.491013    1.713945   -0.499240
     61          6           0       -6.346191    0.769841   -1.193386
     62          6           0       -6.615873   -0.563565   -0.511109
     63          8           0       -7.395102   -1.359419   -1.042917
     64          6           0       -5.723999    0.585807   -2.578597
     65          6           0       -4.489867   -0.310110   -2.634729
     66          7           0       -4.281438   -0.987152   -3.762368
     67          8           0       -3.746257   -0.604895   -1.706265
     68          1           0       -4.494847    1.562522   -0.581846
     69          1           0       -7.299464    1.265345   -1.346509
     70          1           0       -5.526985    1.540373   -3.062632
     71          1           0       -6.469909    0.088608   -3.200378
     72          1           0       -5.064956   -1.077782   -4.397809
     73          1           0       -3.476658   -1.576779   -3.878857
     74          7           0       -5.985902   -0.868958    0.626815
     75          6           0       -6.444076   -1.874810    1.555221
     76          6           0       -5.394453   -2.880827    1.987796
     77          8           0       -5.638294   -3.799307    2.774330
     78          1           0       -5.195860   -0.334239    0.962686
     79          1           0       -7.296584   -2.442755    1.163727
     80          1           0       -6.741152   -1.340024    2.455693
     81          7           0       -4.171280   -2.710183    1.495629
     82          6           0       -3.022339   -3.603466    1.576740
     83          6           0       -1.736750   -2.780749    1.462732
     84          8           0       -1.745210   -1.641903    0.989700
     85          6           0       -3.046688   -4.594190    0.428666
     86          6           0       -4.251141   -4.683712   -0.479012
     87          6           0       -5.215119   -5.679423   -0.286648
     88          6           0       -4.267180   -3.946587   -1.672574
     89          6           0       -6.235940   -5.898868   -1.233046
     90          6           0       -5.220042   -4.251775   -2.649464
     91          6           0       -6.252150   -5.184938   -2.450314
     92          8           0       -7.207536   -5.393327   -3.386910
     93          1           0       -3.930359   -1.827018    1.064263
     94          1           0       -3.055108   -4.163994    2.509282
     95          1           0       -2.791606   -5.557783    0.863433
     96          1           0       -2.199977   -4.410135   -0.238420
     97          1           0       -5.176396   -6.264163    0.614229
     98          1           0       -3.446188   -3.254737   -1.781733
     99          1           0       -7.006693   -6.645953   -1.141918
    100          1           0       -5.194588   -3.682541   -3.573598
    101          1           0       -7.037012   -4.913184   -4.199612
    102          7           0       -0.614271   -3.403893    1.823888
    103          6           0        0.728332   -2.897904    1.635496
    104          6           0        1.566900   -3.844691    0.788326
    105          8           0        1.594655   -5.052691    1.016725
    106          6           0        1.303991   -2.829415    3.040745
    107          6           0        0.647977   -1.885158    4.049370
    108          6           0        2.774862   -2.401837    2.961894
    109          6           0        0.658806   -2.321121    5.509343
    110          1           0       -0.634317   -4.348572    2.166204
    111          1           0        0.735955   -1.895799    1.199117
    112          1           0        1.208988   -3.816456    3.492545
    113          1           0       -0.332041   -1.582386    3.680055
    114          1           0        1.203767   -0.951820    3.958946
    115          1           0        2.881861   -1.494405    2.376984
    116          1           0        3.154573   -2.046154    3.923044
    117          1           0        3.433740   -3.187429    2.612145
    118          1           0        0.159826   -3.275378    5.611388
    119          1           0        1.683426   -2.400150    5.899864
    120          1           0        0.105454   -1.558917    6.058384
    121          7           0        2.433250   -3.331116   -0.095857
    122          6           0        3.402296   -3.964015   -0.964239
    123          6           0        4.840711   -3.588360   -0.625058
    124          8           0        5.138352   -2.636046    0.098826
    125          6           0        3.152752   -3.445106   -2.372877
    126          8           0        2.877479   -2.059407   -2.465417
    127          1           0        2.598494   -2.335694   -0.067036
    128          1           0        3.310391   -5.042468   -0.950314
    129          1           0        2.225954   -3.943473   -2.663180
    130          1           0        3.970550   -3.682043   -3.045460
    131          1           0        2.939506   -1.885990   -3.411715
    132          7           0        5.758883   -4.316290   -1.260887
    133          6           0        7.164460   -4.131381   -0.966846
    134          6           0        7.662717   -2.729372   -1.283408
    135          8           0        8.401303   -2.073545   -0.546807
    136          6           0        8.042829   -5.144882   -1.698408
    137          1           0        5.523477   -5.122770   -1.819971
    138          1           0        7.299199   -4.216167    0.106447
    139          1           0        7.484730   -6.074867   -1.779982
    140          1           0        8.302154   -4.760806   -2.679294
    141          1           0        9.011126   -5.316611   -1.225217
    142          7           0        7.138035   -2.113233   -2.342267
    143          6           0        7.414492   -0.760641   -2.764956
    144          6           0        7.082407    0.209631   -1.632264
    145          8           0        7.818901    1.127653   -1.299828
    146          6           0        6.668711   -0.400982   -4.047943
    147          1           0        6.549705   -2.709550   -2.914607
    148          1           0        8.446929   -0.616418   -3.086472
    149          1           0        6.877035   -1.177868   -4.786827
    150          1           0        5.597570   -0.272760   -3.958969
    151          1           0        7.046491    0.474070   -4.577817
    152          7           0        5.946870    0.022913   -0.952049
    153          6           0        5.430110    1.003102   -0.025989
    154          6           0        6.055417    0.749451    1.339753
    155          8           0        6.295818    1.628894    2.160660
    156          6           0        3.915718    0.857354    0.127547
    157          6           0        3.159609    1.083851   -1.181154
    158          6           0        1.654415    0.903858   -1.091201
    159          8           0        1.090666    0.540240   -0.039550
    160          8           0        0.926796    1.236030   -2.056360
    161          1           0        5.395600   -0.802160   -1.136321
    162          1           0        5.608001    2.050017   -0.241685
    163          1           0        3.454646    1.499298    0.869518
    164          1           0        3.706580   -0.157435    0.484988
    165          1           0        3.642420    0.359312   -1.842469
    166          1           0        3.483744    2.092440   -1.432120
    167          7           0        6.360130   -0.517119    1.631898
    168          6           0        7.076411   -0.860104    2.848164
    169          1           0        8.121963   -1.056814    2.610406
    170          1           0        7.014141   -0.031624    3.553650
    171          1           0        6.632861   -1.750716    3.292918
    172          1           0        5.997664   -1.232746    1.022803
    173         20           0       -1.246342    0.235119   -1.090881
    174          8           0        0.051585   -2.021904   -1.680230
    175          1           0       -0.080742   -2.909937   -2.029494
    176          1           0        0.990550   -1.860631   -1.815273
 ---------------------------------------------------------------------
 Rotational constants (GHZ):           0.0236595           0.0155029           0.0122358
 Standard basis: SVP (5D, 7F)
 There are  1809 symmetry adapted cartesian basis functions of A   symmetry.
 There are  1717 symmetry adapted basis functions of A   symmetry.
  1717 basis functions,  2922 primitive gaussians,  1809 cartesian basis functions
   358 alpha electrons      358 beta electrons
       nuclear repulsion energy     21877.8033847979 Hartrees.
 NAtoms=  176 NActive=  176 NUniq=  176 SFac= 1.00D+00 NAtFMM=   60 NAOKFM=T Big=T
 Integral buffers will be    131072 words long.
 Raffenetti 2 integral format.
 Two-electron integral symmetry is turned on.
 One-electron integrals computed using PRISM.
 NBasis=  1717 RedAO= T EigKep=  2.65D-04  NBF=  1717
 NBsUse=  1717 1.00D-06 EigRej= -1.00D+00 NBFU=  1717
 ExpMin= 1.98D-02 ExpMax= 3.51D+04 ExpMxC= 5.28D+03 IAcc=3 IRadAn=         5 AccDes= 0.00D+00
 Harris functional with IExCor=  402 and IRadAn=       5 diagonalized for initial guess.
 HarFok:  IExCor=  402 AccDes= 0.00D+00 IRadAn=         5 IDoV= 1 UseB2=F ITyADJ=14
 ICtDFT=  3500011 ScaDFX=  1.000000  1.000000  1.000000  1.000000
 FoFCou: FMM=F IPFlag=           0 FMFlag=      100000 FMFlg1=        2001
         NFxFlg=           0 DoJE=T BraDBF=F KetDBF=T FulRan=T
         wScrn=  0.000000 ICntrl=       500 IOpCl=  0 I1Cent=   200000004 NGrid=           0
         NMat0=    1 NMatS0=      1 NMatT0=    0 NMatD0=    1 NMtDS0=    0 NMtDT0=    0
 Petite list used in FoFCou.
 Requested convergence on RMS density matrix=1.00D-08 within 128 cycles.
 Requested convergence on MAX density matrix=1.00D-06.
 Requested convergence on             energy=1.00D-06.
 No special actions if energy rises.
 EnCoef did     4 forward-backward iterations
 EnCoef did     6 forward-backward iterations
 SCF Done:  E(RB3LYP) =  -5333.55502883     A.U. after   20 cycles
            NFock= 20  Conv=0.45D-08     -V/T= 2.0081
 SCF density gives NOpUse=  1 NOpAll=  1.
 Hyperfine terms turned off by default for NAtoms > 100.

 **********************************************************************

            Population analysis using the SCF density.

 **********************************************************************

 Orbital symmetries:
 BldTbl:  Degeneracy threshold= 1.00D-02
       Occupied  (A) (A) (A) (A) (A) (A) (A) (A) (A) (A) (A) (A)
                 (A) (A) (A) (A) (A) (A) (A) (A) (A) (A) (A) (A)
                 (A) (A) (A) (A) (A) (A) (A) (A) (A) (A) (A) (A)
                 (A) (A) (A) (A) (A) (A) (A) (A) (A) (A) (A) (A)
                 (A) (A) (A) (A) (A) (A) (A) (A) (A) (A) (A) (A)
                 (A) (A) (A) (A) (A) (A) (A) (A) (A) (A) (A) (A)
                 (A) (A) (A) (A) (A) (A) (A) (A) (A) (A) (A) (A)
                 (A) (A) (A) (A) (A) (A) (A) (A) (A) (A) (A) (A)
                 (A) (A) (A) (A) (A) (A) (A) (A) (A) (A) (A) (A)
                 (A) (A) (A) (A) (A) (A) (A) (A) (A) (A) (A) (A)
                 (A) (A) (A) (A) (A) (A) (A) (A) (A) (A) (A) (A)
                 (A) (A) (A) (A) (A) (A) (A) (A) (A) (A) (A) (A)
                 (A) (A) (A) (A) (A) (A) (A) (A) (A) (A) (A) (A)
                 (A) (A) (A) (A) (A) (A) (A) (A) (A) (A) (A) (A)
                 (A) (A) (A) (A) (A) (A) (A) (A) (A) (A) (A) (A)
                 (A) (A) (A) (A) (A) (A) (A) (A) (A) (A) (A) (A)
                 (A) (A) (A) (A) (A) (A) (A) (A) (A) (A) (A) (A)
                 (A) (A) (A) (A) (A) (A) (A) (A) (A) (A) (A) (A)
                 (A) (A) (A) (A) (A) (A) (A) (A) (A) (A) (A) (A)
                 (A) (A) (A) (A) (A) (A) (A) (A) (A) (A) (A) (A)
                 (A) (A) (A) (A) (A) (A) (A) (A) (A) (A) (A) (A)
                 (A) (A) (A) (A) (A) (A) (A) (A) (A) (A) (A) (A)
                 (A) (A) (A) (A) (A) (A) (A) (A) (A) (A) (A) (A)
                 (A) (A) (A) (A) (A) (A) (A) (A) (A) (A) (A) (A)
                 (A) (A) (A) (A) (A) (A) (A) (A) (A) (A) (A) (A)
                 (A) (A) (A) (A) (A) (A) (A) (A) (A) (A) (A) (A)
                 (A) (A) (A) (A) (A) (A) (A) (A) (A) (A) (A) (A)
                 (A) (A) (A) (A) (A) (A) (A) (A) (A) (A) (A) (A)
                 (A) (A) (A) (A) (A) (A) (A) (A) (A) (A) (A) (A)
                 (A) (A) (A) (A) (A) (A) (A) (A) (A) (A)
       Virtual   (A) (A) (A) (A) (A) (A) (A) (A) (A) (A) (A) (A)
                 (A) (A) (A) (A) (A) (A) (A) (A) (A) (A) (A) (A)
                 (A) (A) (A) (A) (A) (A) (A) (A) (A) (A) (A) (A)
                 (A) (A) (A) (A) (A) (A) (A) (A) (A) (A) (A) (A)
                 (A) (A) (A) (A) (A) (A) (A) (A) (A) (A) (A) (A)
                 (A) (A) (A) (A) (A) (A) (A) (A) (A) (A) (A) (A)
                 (A) (A) (A) (A) (A) (A) (A) (A) (A) (A) (A) (A)
                 (A) (A) (A) (A) (A) (A) (A) (A) (A) (A) (A) (A)
                 (A) (A) (A) (A) (A) (A) (A) (A) (A) (A) (A) (A)
                 (A) (A) (A) (A) (A) (A) (A) (A) (A) (A) (A) (A)
                 (A) (A) (A) (A) (A) (A) (A) (A) (A) (A) (A) (A)
                 (A) (A) (A) (A) (A) (A) (A) (A) (A) (A) (A) (A)
                 (A) (A) (A) (A) (A) (A) (A) (A) (A) (A) (A) (A)
                 (A) (A) (A) (A) (A) (A) (A) (A) (A) (A) (A) (A)
                 (A) (A) (A) (A) (A) (A) (A) (A) (A) (A) (A) (A)
                 (A) (A) (A) (A) (A) (A) (A) (A) (A) (A) (A) (A)
                 (A) (A) (A) (A) (A) (A) (A) (A) (A) (A) (A) (A)
                 (A) (A) (A) (A) (A) (A) (A) (A) (A) (A) (A) (A)
                 (A) (A) (A) (A) (A) (A) (A) (A) (A) (A) (A) (A)
                 (A) (A) (A) (A) (A) (A) (A) (A) (A) (A) (A) (A)
                 (A) (A) (A) (A) (A) (A) (A) (A) (A) (A) (A) (A)
                 (A) (A) (A) (A) (A) (A) (A) (A) (A) (A) (A) (A)
                 (A) (A) (A) (A) (A) (A) (A) (A) (A) (A) (A) (A)
                 (A) (A) (A) (A) (A) (A) (A) (A) (A) (A) (A) (A)
                 (A) (A) (A) (A) (A) (A) (A) (A) (A) (A) (A) (A)
                 (A) (A) (A) (A) (A) (A) (A) (A) (A) (A) (A) (A)
                 (A) (A) (A) (A) (A) (A) (A) (A) (A) (A) (A) (A)
                 (A) (A) (A) (A) (A) (A) (A) (A) (A) (A) (A) (A)
                 (A) (A) (A) (A) (A) (A) (A) (A) (A) (A) (A) (A)
                 (A) (A) (A) (A) (A) (A) (A) (A) (A) (A) (A) (A)
                 (A) (A) (A) (A) (A) (A) (A) (A) (A) (A) (A) (A)
                 (A) (A) (A) (A) (A) (A) (A) (A) (A) (A) (A) (A)
                 (A) (A) (A) (A) (A) (A) (A) (A) (A) (A) (A) (A)
                 (A) (A) (A) (A) (A) (A) (A) (A) (A) (A) (A) (A)
                 (A) (A) (A) (A) (A) (A) (A) (A) (A) (A) (A) (A)
                 (A) (A) (A) (A) (A) (A) (A) (A) (A) (A) (A) (A)
                 (A) (A) (A) (A) (A) (A) (A) (A) (A) (A) (A) (A)
                 (A) (A) (A) (A) (A) (A) (A) (A) (A) (A) (A) (A)
                 (A) (A) (A) (A) (A) (A) (A) (A) (A) (A) (A) (A)
                 (A) (A) (A) (A) (A) (A) (A) (A) (A) (A) (A) (A)
                 (A) (A) (A) (A) (A) (A) (A) (A) (A) (A) (A) (A)
                 (A) (A) (A) (A) (A) (A) (A) (A) (A) (A) (A) (A)
                 (A) (A) (A) (A) (A) (A) (A) (A) (A) (A) (A) (A)
                 (A) (A) (A) (A) (A) (A) (A) (A) (A) (A) (A) (A)
                 (A) (A) (A) (A) (A) (A) (A) (A) (A) (A) (A) (A)
                 (A) (A) (A) (A) (A) (A) (A) (A) (A) (A) (A) (A)
                 (A) (A) (A) (A) (A) (A) (A) (A) (A) (A) (A) (A)
                 (A) (A) (A) (A) (A) (A) (A) (A) (A) (A) (A) (A)
                 (A) (A) (A) (A) (A) (A) (A) (A) (A) (A) (A) (A)
                 (A) (A) (A) (A) (A) (A) (A) (A) (A) (A) (A) (A)
                 (A) (A) (A) (A) (A) (A) (A) (A) (A) (A) (A) (A)
                 (A) (A) (A) (A) (A) (A) (A) (A) (A) (A) (A) (A)
                 (A) (A) (A) (A) (A) (A) (A) (A) (A) (A) (A) (A)
                 (A) (A) (A) (A) (A) (A) (A) (A) (A) (A) (A) (A)
                 (A) (A) (A) (A) (A) (A) (A) (A) (A) (A) (A) (A)
                 (A) (A) (A) (A) (A) (A) (A) (A) (A) (A) (A) (A)
                 (A) (A) (A) (A) (A) (A) (A) (A) (A) (A) (A) (A)
                 (A) (A) (A) (A) (A) (A) (A) (A) (A) (A) (A) (A)
                 (A) (A) (A) (A) (A) (A) (A) (A) (A) (A) (A) (A)
                 (A) (A) (A) (A) (A) (A) (A) (A) (A) (A) (A) (A)
                 (A) (A) (A) (A) (A) (A) (A) (A) (A) (A) (A) (A)
                 (A) (A) (A) (A) (A) (A) (A) (A) (A) (A) (A) (A)
                 (A) (A) (A) (A) (A) (A) (A) (A) (A) (A) (A) (A)
                 (A) (A) (A) (A) (A) (A) (A) (A) (A) (A) (A) (A)
                 (A) (A) (A) (A) (A) (A) (A) (A) (A) (A) (A) (A)
                 (A) (A) (A) (A) (A) (A) (A) (A) (A) (A) (A) (A)
                 (A) (A) (A) (A) (A) (A) (A) (A) (A) (A) (A) (A)
                 (A) (A) (A) (A) (A) (A) (A) (A) (A) (A) (A) (A)
                 (A) (A) (A) (A) (A) (A) (A) (A) (A) (A) (A) (A)
                 (A) (A) (A) (A) (A) (A) (A) (A) (A) (A) (A) (A)
                 (A) (A) (A) (A) (A) (A) (A) (A) (A) (A) (A) (A)
                 (A) (A) (A) (A) (A) (A) (A) (A) (A) (A) (A) (A)
                 (A) (A) (A) (A) (A) (A) (A) (A) (A) (A) (A) (A)
                 (A) (A) (A) (A) (A) (A) (A) (A) (A) (A) (A) (A)
                 (A) (A) (A) (A) (A) (A) (A) (A) (A) (A) (A) (A)
                 (A) (A) (A) (A) (A) (A) (A) (A) (A) (A) (A) (A)
                 (A) (A) (A) (A) (A) (A) (A) (A) (A) (A) (A) (A)
                 (A) (A) (A) (A) (A) (A) (A) (A) (A) (A) (A) (A)
                 (A) (A) (A) (A) (A) (A) (A) (A) (A) (A) (A) (A)
                 (A) (A) (A) (A) (A) (A) (A) (A) (A) (A) (A) (A)
                 (A) (A) (A) (A) (A) (A) (A) (A) (A) (A) (A) (A)
                 (A) (A) (A) (A) (A) (A) (A) (A) (A) (A) (A) (A)
                 (A) (A) (A) (A) (A) (A) (A) (A) (A) (A) (A) (A)
                 (A) (A) (A) (A) (A) (A) (A) (A) (A) (A) (A) (A)
                 (A) (A) (A) (A) (A) (A) (A) (A) (A) (A) (A) (A)
                 (A) (A) (A) (A) (A) (A) (A) (A) (A) (A) (A) (A)
                 (A) (A) (A) (A) (A) (A) (A) (A) (A) (A) (A) (A)
                 (A) (A) (A) (A) (A) (A) (A) (A) (A) (A) (A) (A)
                 (A) (A) (A) (A) (A) (A) (A) (A) (A) (A) (A) (A)
                 (A) (A) (A) (A) (A) (A) (A) (A) (A) (A) (A) (A)
                 (A) (A) (A) (A) (A) (A) (A) (A) (A) (A) (A) (A)
                 (A) (A) (A) (A) (A) (A) (A) (A) (A) (A) (A) (A)
                 (A) (A) (A) (A) (A) (A) (A) (A) (A) (A) (A) (A)
                 (A) (A) (A) (A) (A) (A) (A) (A) (A) (A) (A) (A)
                 (A) (A) (A) (A) (A) (A) (A) (A) (A) (A) (A) (A)
                 (A) (A) (A) (A) (A) (A) (A) (A) (A) (A) (A) (A)
                 (A) (A) (A) (A) (A) (A) (A) (A) (A) (A) (A) (A)
                 (A) (A) (A) (A) (A) (A) (A) (A) (A) (A) (A) (A)
                 (A) (A) (A) (A) (A) (A) (A) (A) (A) (A) (A) (A)
                 (A) (A) (A) (A) (A) (A) (A) (A) (A) (A) (A) (A)
                 (A) (A) (A) (A) (A) (A) (A) (A) (A) (A) (A) (A)
                 (A) (A) (A) (A) (A) (A) (A) (A) (A) (A) (A) (A)
                 (A) (A) (A) (A) (A) (A) (A) (A) (A) (A) (A) (A)
                 (A) (A) (A) (A) (A) (A) (A) (A) (A) (A) (A) (A)
                 (A) (A) (A) (A) (A) (A) (A) (A) (A) (A) (A) (A)
                 (A) (A) (A) (A) (A) (A) (A) (A) (A) (A) (A) (A)
                 (A) (A) (A) (A) (A) (A) (A) (A) (A) (A) (A) (A)
                 (A) (A) (A) (A) (A) (A) (A) (A) (A) (A) (A) (A)
                 (A) (A) (A) (A) (A) (A) (A) (A) (A) (A) (A) (A)
                 (A) (A) (A) (A) (A) (A) (A) (A) (A) (A) (A) (A)
                 (A) (A) (A) (A) (A) (A) (A) (A) (A) (A) (A) (A)
                 (A) (A) (A) (A) (A) (A) (A) (A) (A) (A) (A) (A)
                 (A) (A) (A) (A) (A) (A) (A) (A) (A) (A) (A) (A)
                 (A) (A) (A)
 The electronic state is 1-A.
 Alpha  occ. eigenvalues -- -145.36267 -19.22094 -19.18796 -19.16964 -19.15305
 Alpha  occ. eigenvalues --  -19.12697 -19.12111 -19.12028 -19.11280 -19.09166
 Alpha  occ. eigenvalues --  -19.07958 -19.07930 -19.06825 -19.06711 -19.06680
 Alpha  occ. eigenvalues --  -19.05691 -19.04805 -19.04254 -19.04012 -19.03980
 Alpha  occ. eigenvalues --  -19.03040 -19.02973 -19.02869 -19.00207 -15.42033
 Alpha  occ. eigenvalues --  -14.58421 -14.42599 -14.39260 -14.38994 -14.37390
 Alpha  occ. eigenvalues --  -14.35662 -14.35220 -14.34245 -14.33131 -14.32087
 Alpha  occ. eigenvalues --  -14.31244 -14.30940 -14.28854 -14.28619 -14.27679
 Alpha  occ. eigenvalues --  -12.55649 -12.55611 -12.55590 -10.35084 -10.34983
 Alpha  occ. eigenvalues --  -10.31563 -10.31096 -10.31063 -10.30351 -10.29785
 Alpha  occ. eigenvalues --  -10.29676 -10.28317 -10.28060 -10.26857 -10.26824
 Alpha  occ. eigenvalues --  -10.26800 -10.26149 -10.25724 -10.25261 -10.24675
 Alpha  occ. eigenvalues --  -10.24476 -10.24060 -10.24039 -10.23913 -10.23763
 Alpha  occ. eigenvalues --  -10.23269 -10.23112 -10.22608 -10.22569 -10.22153
 Alpha  occ. eigenvalues --  -10.22137 -10.21704 -10.21655 -10.21644 -10.21573
 Alpha  occ. eigenvalues --  -10.20515 -10.19583 -10.19569 -10.19050 -10.18920
 Alpha  occ. eigenvalues --  -10.18669 -10.18464 -10.18436 -10.18203 -10.17965
 Alpha  occ. eigenvalues --  -10.17949 -10.17853 -10.17701 -10.17680 -10.17608
 Alpha  occ. eigenvalues --  -10.17579 -10.17492 -10.17403 -10.17167 -10.15816
 Alpha  occ. eigenvalues --  -10.15591 -10.14954  -1.78952  -1.13841  -1.10524
 Alpha  occ. eigenvalues --   -1.09583  -1.06759  -1.06595  -1.06351  -1.05966
 Alpha  occ. eigenvalues --   -1.05571  -1.04573  -1.04427  -1.04294  -1.04089
 Alpha  occ. eigenvalues --   -1.02707  -1.02533  -1.01124  -1.00209  -0.99378
 Alpha  occ. eigenvalues --   -0.99186  -0.99044  -0.98419  -0.97924  -0.97247
 Alpha  occ. eigenvalues --   -0.97150  -0.96366  -0.96162  -0.95843  -0.95195
 Alpha  occ. eigenvalues --   -0.94496  -0.92028  -0.91572  -0.90952  -0.90708
 Alpha  occ. eigenvalues --   -0.90491  -0.89089  -0.88836  -0.88746  -0.88127
 Alpha  occ. eigenvalues --   -0.87434  -0.86703  -0.86270  -0.85581  -0.85092
 Alpha  occ. eigenvalues --   -0.83987  -0.83250  -0.82569  -0.82151  -0.81416
 Alpha  occ. eigenvalues --   -0.80149  -0.78750  -0.77751  -0.76952  -0.75641
 Alpha  occ. eigenvalues --   -0.75524  -0.75286  -0.74244  -0.72706  -0.72640
 Alpha  occ. eigenvalues --   -0.72495  -0.72299  -0.71991  -0.71605  -0.71050
 Alpha  occ. eigenvalues --   -0.70896  -0.70041  -0.68812  -0.68407  -0.68133
 Alpha  occ. eigenvalues --   -0.67275  -0.67148  -0.66717  -0.64803  -0.64375
 Alpha  occ. eigenvalues --   -0.64234  -0.63872  -0.63468  -0.63260  -0.62648
 Alpha  occ. eigenvalues --   -0.61538  -0.61497  -0.60942  -0.60871  -0.60699
 Alpha  occ. eigenvalues --   -0.60250  -0.59711  -0.58600  -0.58535  -0.58480
 Alpha  occ. eigenvalues --   -0.57929  -0.57883  -0.57723  -0.56929  -0.56891
 Alpha  occ. eigenvalues --   -0.56127  -0.55936  -0.55671  -0.55415  -0.54917
 Alpha  occ. eigenvalues --   -0.54844  -0.54387  -0.54069  -0.54013  -0.53560
 Alpha  occ. eigenvalues --   -0.53201  -0.52876  -0.52849  -0.52455  -0.52314
 Alpha  occ. eigenvalues --   -0.52009  -0.51626  -0.51277  -0.50954  -0.50730
 Alpha  occ. eigenvalues --   -0.50572  -0.49673  -0.49349  -0.49195  -0.49077
 Alpha  occ. eigenvalues --   -0.48647  -0.48590  -0.48551  -0.48335  -0.48056
 Alpha  occ. eigenvalues --   -0.48008  -0.47752  -0.47427  -0.46995  -0.46672
 Alpha  occ. eigenvalues --   -0.46496  -0.46421  -0.46340  -0.46144  -0.46036
 Alpha  occ. eigenvalues --   -0.45957  -0.45669  -0.45482  -0.45096  -0.44884
 Alpha  occ. eigenvalues --   -0.44767  -0.44617  -0.44414  -0.44238  -0.44056
 Alpha  occ. eigenvalues --   -0.43798  -0.43648  -0.43366  -0.43323  -0.42952
 Alpha  occ. eigenvalues --   -0.42882  -0.42712  -0.42632  -0.42582  -0.42305
 Alpha  occ. eigenvalues --   -0.42248  -0.41968  -0.41791  -0.41658  -0.41544
 Alpha  occ. eigenvalues --   -0.41343  -0.41246  -0.41145  -0.40989  -0.40906
 Alpha  occ. eigenvalues --   -0.40658  -0.40639  -0.40539  -0.40251  -0.40143
 Alpha  occ. eigenvalues --   -0.40010  -0.39726  -0.39540  -0.39429  -0.39332
 Alpha  occ. eigenvalues --   -0.39161  -0.39045  -0.38828  -0.38645  -0.38568
 Alpha  occ. eigenvalues --   -0.38472  -0.38396  -0.38243  -0.38137  -0.37974
 Alpha  occ. eigenvalues --   -0.37889  -0.37670  -0.37566  -0.37492  -0.37411
 Alpha  occ. eigenvalues --   -0.37129  -0.36911  -0.36851  -0.36807  -0.36648
 Alpha  occ. eigenvalues --   -0.36572  -0.36207  -0.35890  -0.35798  -0.35639
 Alpha  occ. eigenvalues --   -0.35233  -0.35045  -0.34927  -0.34552  -0.34487
 Alpha  occ. eigenvalues --   -0.34332  -0.34246  -0.34052  -0.33822  -0.33717
 Alpha  occ. eigenvalues --   -0.33643  -0.33404  -0.33070  -0.32890  -0.32767
 Alpha  occ. eigenvalues --   -0.32495  -0.32430  -0.32306  -0.32186  -0.32152
 Alpha  occ. eigenvalues --   -0.31706  -0.31609  -0.31362  -0.30947  -0.30146
 Alpha  occ. eigenvalues --   -0.29983  -0.29740  -0.29581  -0.28799  -0.28604
 Alpha  occ. eigenvalues --   -0.27998  -0.27598  -0.27348  -0.27014  -0.26653
 Alpha  occ. eigenvalues --   -0.26585  -0.26212  -0.25115  -0.24936  -0.24575
 Alpha  occ. eigenvalues --   -0.24237  -0.24059  -0.23671  -0.22977  -0.22783
 Alpha  occ. eigenvalues --   -0.22417  -0.22280  -0.22195  -0.21977  -0.21726
 Alpha  occ. eigenvalues --   -0.21411  -0.21337  -0.21275  -0.21071  -0.20903
 Alpha  occ. eigenvalues --   -0.20848  -0.19595  -0.19149  -0.18956  -0.18790
 Alpha  occ. eigenvalues --   -0.18457  -0.17182  -0.16402
 Alpha virt. eigenvalues --   -0.10174  -0.05294  -0.04454  -0.04304  -0.03930
 Alpha virt. eigenvalues --   -0.02418  -0.01748  -0.01653  -0.01062  -0.00318
 Alpha virt. eigenvalues --    0.00205   0.00493   0.00650   0.01282   0.01527
 Alpha virt. eigenvalues --    0.01711   0.02222   0.02596   0.02625   0.03005
 Alpha virt. eigenvalues --    0.03636   0.03704   0.03898   0.04222   0.04515
 Alpha virt. eigenvalues --    0.04809   0.04982   0.05173   0.05326   0.05512
 Alpha virt. eigenvalues --    0.05643   0.05820   0.06063   0.06342   0.06488
 Alpha virt. eigenvalues --    0.06847   0.06932   0.07107   0.07577   0.07601
 Alpha virt. eigenvalues --    0.07663   0.07803   0.08088   0.08209   0.08492
 Alpha virt. eigenvalues --    0.08638   0.08856   0.08906   0.09132   0.09329
 Alpha virt. eigenvalues --    0.09573   0.09769   0.09835   0.10071   0.10364
 Alpha virt. eigenvalues --    0.10551   0.10830   0.11029   0.11138   0.11374
 Alpha virt. eigenvalues --    0.11758   0.11888   0.12202   0.12282   0.12469
 Alpha virt. eigenvalues --    0.12531   0.12624   0.12826   0.13189   0.13254
 Alpha virt. eigenvalues --    0.13558   0.13659   0.13866   0.14046   0.14195
 Alpha virt. eigenvalues --    0.14318   0.14683   0.14773   0.14908   0.15149
 Alpha virt. eigenvalues --    0.15420   0.15477   0.15783   0.15988   0.16186
 Alpha virt. eigenvalues --    0.16205   0.16350   0.16688   0.16709   0.16899
 Alpha virt. eigenvalues --    0.17164   0.17354   0.17369   0.17502   0.17711
 Alpha virt. eigenvalues --    0.18008   0.18047   0.18243   0.18323   0.18472
 Alpha virt. eigenvalues --    0.18554   0.18625   0.18734   0.19030   0.19099
 Alpha virt. eigenvalues --    0.19202   0.19612   0.19837   0.20061   0.20235
 Alpha virt. eigenvalues --    0.20464   0.20874   0.20981   0.21233   0.21525
 Alpha virt. eigenvalues --    0.21587   0.21815   0.21870   0.22054   0.22216
 Alpha virt. eigenvalues --    0.22617   0.22929   0.23120   0.23371   0.23534
 Alpha virt. eigenvalues --    0.23985   0.24182   0.24421   0.24506   0.24675
 Alpha virt. eigenvalues --    0.24887   0.25116   0.25239   0.25503   0.25723
 Alpha virt. eigenvalues --    0.25795   0.26084   0.26201   0.26565   0.26737
 Alpha virt. eigenvalues --    0.26905   0.27119   0.27224   0.27703   0.28073
 Alpha virt. eigenvalues --    0.28106   0.28313   0.28579   0.29026   0.29270
 Alpha virt. eigenvalues --    0.29529   0.29744   0.29805   0.29944   0.30297
 Alpha virt. eigenvalues --    0.30483   0.30666   0.31155   0.31350   0.31574
 Alpha virt. eigenvalues --    0.31675   0.31863   0.32109   0.32294   0.32598
 Alpha virt. eigenvalues --    0.32659   0.32814   0.33090   0.33615   0.33693
 Alpha virt. eigenvalues --    0.34033   0.34151   0.34198   0.34787   0.34980
 Alpha virt. eigenvalues --    0.35090   0.35809   0.36018   0.36287   0.36644
 Alpha virt. eigenvalues --    0.36952   0.37038   0.37439   0.37937   0.38011
 Alpha virt. eigenvalues --    0.38158   0.38297   0.38464   0.38550   0.39109
 Alpha virt. eigenvalues --    0.39551   0.39645   0.39999   0.40158   0.40263
 Alpha virt. eigenvalues --    0.40659   0.40699   0.41205   0.41386   0.41911
 Alpha virt. eigenvalues --    0.42004   0.42240   0.42368   0.42545   0.42665
 Alpha virt. eigenvalues --    0.42949   0.43111   0.43460   0.43655   0.43831
 Alpha virt. eigenvalues --    0.44193   0.44362   0.44816   0.44869   0.44993
 Alpha virt. eigenvalues --    0.45070   0.45471   0.45651   0.45822   0.45977
 Alpha virt. eigenvalues --    0.46540   0.46829   0.46927   0.47153   0.47209
 Alpha virt. eigenvalues --    0.47323   0.47584   0.47995   0.48162   0.48245
 Alpha virt. eigenvalues --    0.48433   0.48834   0.49086   0.49132   0.49288
 Alpha virt. eigenvalues --    0.49546   0.49820   0.50039   0.50245   0.50537
 Alpha virt. eigenvalues --    0.50551   0.50757   0.50915   0.51083   0.51310
 Alpha virt. eigenvalues --    0.51374   0.51940   0.52060   0.52150   0.52446
 Alpha virt. eigenvalues --    0.52688   0.52734   0.52980   0.53194   0.53423
 Alpha virt. eigenvalues --    0.53715   0.53887   0.53997   0.54060   0.54156
 Alpha virt. eigenvalues --    0.54488   0.54518   0.54636   0.54729   0.54789
 Alpha virt. eigenvalues --    0.55085   0.55111   0.55530   0.55694   0.55762
 Alpha virt. eigenvalues --    0.55996   0.56319   0.56502   0.56701   0.56946
 Alpha virt. eigenvalues --    0.57064   0.57281   0.57459   0.57578   0.57766
 Alpha virt. eigenvalues --    0.57891   0.58065   0.58302   0.58384   0.58572
 Alpha virt. eigenvalues --    0.58630   0.58994   0.59121   0.59267   0.59423
 Alpha virt. eigenvalues --    0.59641   0.59685   0.59942   0.59996   0.60123
 Alpha virt. eigenvalues --    0.60206   0.60387   0.60515   0.60737   0.60785
 Alpha virt. eigenvalues --    0.61035   0.61145   0.61297   0.61491   0.61578
 Alpha virt. eigenvalues --    0.61632   0.61751   0.61902   0.62025   0.62322
 Alpha virt. eigenvalues --    0.62512   0.62582   0.62714   0.62866   0.62958
 Alpha virt. eigenvalues --    0.63064   0.63139   0.63335   0.63459   0.63577
 Alpha virt. eigenvalues --    0.63831   0.63868   0.63975   0.64135   0.64214
 Alpha virt. eigenvalues --    0.64329   0.64421   0.64730   0.64817   0.64905
 Alpha virt. eigenvalues --    0.64998   0.65107   0.65146   0.65331   0.65413
 Alpha virt. eigenvalues --    0.65453   0.65820   0.65939   0.66128   0.66251
 Alpha virt. eigenvalues --    0.66322   0.66429   0.66471   0.66723   0.66829
 Alpha virt. eigenvalues --    0.66928   0.67020   0.67085   0.67169   0.67374
 Alpha virt. eigenvalues --    0.67412   0.67538   0.67712   0.67808   0.67871
 Alpha virt. eigenvalues --    0.67988   0.68124   0.68252   0.68312   0.68477
 Alpha virt. eigenvalues --    0.68577   0.68634   0.68786   0.68930   0.69103
 Alpha virt. eigenvalues --    0.69294   0.69423   0.69629   0.69728   0.69802
 Alpha virt. eigenvalues --    0.69928   0.70016   0.70171   0.70375   0.70509
 Alpha virt. eigenvalues --    0.70602   0.70676   0.70821   0.71087   0.71189
 Alpha virt. eigenvalues --    0.71364   0.71387   0.71478   0.71673   0.71704
 Alpha virt. eigenvalues --    0.71962   0.72051   0.72233   0.72254   0.72399
 Alpha virt. eigenvalues --    0.72703   0.72839   0.72956   0.73101   0.73301
 Alpha virt. eigenvalues --    0.73463   0.73602   0.73674   0.74089   0.74270
 Alpha virt. eigenvalues --    0.74321   0.74500   0.74633   0.74838   0.75058
 Alpha virt. eigenvalues --    0.75210   0.75545   0.75597   0.75644   0.75938
 Alpha virt. eigenvalues --    0.76237   0.76241   0.76439   0.76546   0.76865
 Alpha virt. eigenvalues --    0.77038   0.77399   0.77470   0.77568   0.77701
 Alpha virt. eigenvalues --    0.77834   0.78240   0.78374   0.78754   0.78915
 Alpha virt. eigenvalues --    0.79246   0.79495   0.79967   0.80117   0.80333
 Alpha virt. eigenvalues --    0.80891   0.80980   0.81112   0.81226   0.81737
 Alpha virt. eigenvalues --    0.81890   0.82182   0.82253   0.82588   0.82841
 Alpha virt. eigenvalues --    0.83430   0.83444   0.83681   0.84224   0.84366
 Alpha virt. eigenvalues --    0.84735   0.84922   0.85027   0.85340   0.85429
 Alpha virt. eigenvalues --    0.85823   0.86010   0.86353   0.86483   0.86648
 Alpha virt. eigenvalues --    0.87090   0.87191   0.87477   0.87995   0.88111
 Alpha virt. eigenvalues --    0.88437   0.88590   0.88815   0.89160   0.90015
 Alpha virt. eigenvalues --    0.90274   0.90460   0.90705   0.90826   0.91265
 Alpha virt. eigenvalues --    0.91478   0.91841   0.92059   0.92313   0.92410
 Alpha virt. eigenvalues --    0.92585   0.93444   0.93650   0.93973   0.94256
 Alpha virt. eigenvalues --    0.94495   0.94938   0.95169   0.95594   0.95729
 Alpha virt. eigenvalues --    0.96184   0.96359   0.96756   0.96913   0.97269
 Alpha virt. eigenvalues --    0.97519   0.97878   0.98292   0.98541   0.98759
 Alpha virt. eigenvalues --    0.98847   0.99373   0.99571   0.99960   1.00001
 Alpha virt. eigenvalues --    1.00252   1.00558   1.00738   1.00920   1.01270
 Alpha virt. eigenvalues --    1.01616   1.01956   1.02420   1.02804   1.02921
 Alpha virt. eigenvalues --    1.03039   1.03438   1.03588   1.03845   1.04152
 Alpha virt. eigenvalues --    1.04837   1.05153   1.05421   1.05499   1.05797
 Alpha virt. eigenvalues --    1.06037   1.06197   1.06441   1.06763   1.06982
 Alpha virt. eigenvalues --    1.07403   1.07609   1.07917   1.08196   1.08858
 Alpha virt. eigenvalues --    1.09165   1.09522   1.09739   1.09917   1.10034
 Alpha virt. eigenvalues --    1.10511   1.10810   1.10962   1.11131   1.11529
 Alpha virt. eigenvalues --    1.11665   1.11920   1.12703   1.12952   1.13161
 Alpha virt. eigenvalues --    1.13487   1.13679   1.13853   1.14313   1.14525
 Alpha virt. eigenvalues --    1.14807   1.14972   1.15295   1.15808   1.15880
 Alpha virt. eigenvalues --    1.15940   1.16489   1.16692   1.17107   1.17381
 Alpha virt. eigenvalues --    1.17687   1.17783   1.18002   1.18149   1.18272
 Alpha virt. eigenvalues --    1.18557   1.18834   1.19197   1.19407   1.19675
 Alpha virt. eigenvalues --    1.19859   1.20258   1.20433   1.20680   1.20940
 Alpha virt. eigenvalues --    1.21083   1.21565   1.21712   1.21741   1.22162
 Alpha virt. eigenvalues --    1.22557   1.22728   1.22808   1.22953   1.23258
 Alpha virt. eigenvalues --    1.23784   1.23892   1.24379   1.24431   1.25062
 Alpha virt. eigenvalues --    1.25083   1.25276   1.25472   1.25737   1.25943
 Alpha virt. eigenvalues --    1.26276   1.26474   1.26668   1.26775   1.27144
 Alpha virt. eigenvalues --    1.27455   1.27766   1.27962   1.28155   1.28327
 Alpha virt. eigenvalues --    1.28828   1.29012   1.29398   1.29735   1.29941
 Alpha virt. eigenvalues --    1.30251   1.30342   1.30638   1.30838   1.31352
 Alpha virt. eigenvalues --    1.31641   1.31990   1.32606   1.32698   1.33192
 Alpha virt. eigenvalues --    1.33285   1.33513   1.33630   1.33888   1.34288
 Alpha virt. eigenvalues --    1.34512   1.34775   1.34894   1.35145   1.35596
 Alpha virt. eigenvalues --    1.35742   1.35967   1.36079   1.36305   1.36603
 Alpha virt. eigenvalues --    1.36841   1.37037   1.37323   1.37544   1.37968
 Alpha virt. eigenvalues --    1.38247   1.38576   1.38613   1.38997   1.39417
 Alpha virt. eigenvalues --    1.40061   1.40158   1.40361   1.40469   1.40571
 Alpha virt. eigenvalues --    1.41165   1.41292   1.41481   1.41993   1.42110
 Alpha virt. eigenvalues --    1.42872   1.43069   1.43391   1.43794   1.44175
 Alpha virt. eigenvalues --    1.44437   1.44854   1.44996   1.45207   1.45663
 Alpha virt. eigenvalues --    1.46033   1.46234   1.46603   1.46830   1.46974
 Alpha virt. eigenvalues --    1.47620   1.47917   1.48177   1.48538   1.48724
 Alpha virt. eigenvalues --    1.48841   1.49464   1.49978   1.50224   1.50598
 Alpha virt. eigenvalues --    1.50610   1.50981   1.51364   1.51828   1.52073
 Alpha virt. eigenvalues --    1.52203   1.52231   1.52419   1.52916   1.53119
 Alpha virt. eigenvalues --    1.53316   1.53634   1.54111   1.54248   1.54749
 Alpha virt. eigenvalues --    1.55018   1.55138   1.55323   1.55767   1.55912
 Alpha virt. eigenvalues --    1.56190   1.56501   1.56955   1.56973   1.57664
 Alpha virt. eigenvalues --    1.57936   1.58434   1.58879   1.59148   1.59322
 Alpha virt. eigenvalues --    1.59635   1.59754   1.60155   1.60342   1.60829
 Alpha virt. eigenvalues --    1.60992   1.61206   1.61461   1.61955   1.62243
 Alpha virt. eigenvalues --    1.62348   1.62777   1.62820   1.62924   1.63562
 Alpha virt. eigenvalues --    1.63716   1.63768   1.64221   1.64311   1.64703
 Alpha virt. eigenvalues --    1.64800   1.65233   1.65486   1.65754   1.66144
 Alpha virt. eigenvalues --    1.66354   1.66771   1.67025   1.67045   1.67658
 Alpha virt. eigenvalues --    1.67915   1.68441   1.68542   1.68803   1.69157
 Alpha virt. eigenvalues --    1.69477   1.69771   1.70283   1.70388   1.70513
 Alpha virt. eigenvalues --    1.70584   1.70870   1.70943   1.71192   1.71361
 Alpha virt. eigenvalues --    1.71643   1.72268   1.72411   1.72782   1.73356
 Alpha virt. eigenvalues --    1.73445   1.73599   1.73691   1.73994   1.74389
 Alpha virt. eigenvalues --    1.74537   1.74668   1.74866   1.75059   1.75394
 Alpha virt. eigenvalues --    1.75509   1.75833   1.76030   1.76161   1.76226
 Alpha virt. eigenvalues --    1.76507   1.76634   1.76996   1.77164   1.77297
 Alpha virt. eigenvalues --    1.77322   1.77506   1.77606   1.77767   1.77850
 Alpha virt. eigenvalues --    1.78135   1.78264   1.78289   1.78455   1.78667
 Alpha virt. eigenvalues --    1.78771   1.79034   1.79196   1.79319   1.79420
 Alpha virt. eigenvalues --    1.79806   1.79870   1.80153   1.80203   1.80347
 Alpha virt. eigenvalues --    1.80557   1.80886   1.80956   1.81096   1.81249
 Alpha virt. eigenvalues --    1.81466   1.81606   1.81769   1.81898   1.82059
 Alpha virt. eigenvalues --    1.82197   1.82419   1.82538   1.82612   1.82839
 Alpha virt. eigenvalues --    1.82908   1.83070   1.83187   1.83475   1.83508
 Alpha virt. eigenvalues --    1.83687   1.83893   1.84177   1.84195   1.84449
 Alpha virt. eigenvalues --    1.84673   1.84892   1.85112   1.85146   1.85345
 Alpha virt. eigenvalues --    1.85475   1.85647   1.86006   1.86278   1.86413
 Alpha virt. eigenvalues --    1.86852   1.86947   1.87198   1.87366   1.87517
 Alpha virt. eigenvalues --    1.87666   1.87825   1.88282   1.88402   1.88480
 Alpha virt. eigenvalues --    1.88817   1.89143   1.89291   1.89405   1.89644
 Alpha virt. eigenvalues --    1.89921   1.90027   1.90120   1.90479   1.90779
 Alpha virt. eigenvalues --    1.90961   1.91124   1.91318   1.91680   1.91719
 Alpha virt. eigenvalues --    1.91827   1.92291   1.92398   1.92660   1.92849
 Alpha virt. eigenvalues --    1.93175   1.93436   1.93767   1.94013   1.94136
 Alpha virt. eigenvalues --    1.94225   1.94299   1.94421   1.94717   1.95203
 Alpha virt. eigenvalues --    1.95325   1.95465   1.95793   1.95937   1.96199
 Alpha virt. eigenvalues --    1.96517   1.96601   1.96664   1.97171   1.97281
 Alpha virt. eigenvalues --    1.97380   1.97636   1.97934   1.98099   1.98432
 Alpha virt. eigenvalues --    1.98502   1.98750   1.98940   1.98960   1.99366
 Alpha virt. eigenvalues --    1.99540   1.99795   2.00121   2.00422   2.00539
 Alpha virt. eigenvalues --    2.00876   2.01079   2.01099   2.01200   2.01430
 Alpha virt. eigenvalues --    2.01685   2.02090   2.02403   2.02490   2.02759
 Alpha virt. eigenvalues --    2.02862   2.03389   2.03545   2.04283   2.04509
 Alpha virt. eigenvalues --    2.04820   2.04949   2.05255   2.05964   2.06268
 Alpha virt. eigenvalues --    2.06526   2.06677   2.07021   2.07057   2.07350
 Alpha virt. eigenvalues --    2.07578   2.07628   2.08193   2.08664   2.09021
 Alpha virt. eigenvalues --    2.09245   2.09631   2.09802   2.10191   2.10449
 Alpha virt. eigenvalues --    2.10615   2.10792   2.11106   2.11417   2.11741
 Alpha virt. eigenvalues --    2.11907   2.12103   2.12300   2.12771   2.12798
 Alpha virt. eigenvalues --    2.13058   2.13265   2.13668   2.13895   2.14041
 Alpha virt. eigenvalues --    2.14298   2.14666   2.15057   2.15208   2.15397
 Alpha virt. eigenvalues --    2.15652   2.15841   2.16333   2.16529   2.16558
 Alpha virt. eigenvalues --    2.16829   2.17157   2.17218   2.17251   2.17606
 Alpha virt. eigenvalues --    2.17789   2.18068   2.18549   2.18689   2.19257
 Alpha virt. eigenvalues --    2.19580   2.19784   2.20267   2.20464   2.20761
 Alpha virt. eigenvalues --    2.20963   2.21521   2.21844   2.22026   2.22184
 Alpha virt. eigenvalues --    2.22288   2.22651   2.23052   2.23823   2.23935
 Alpha virt. eigenvalues --    2.24278   2.24481   2.25027   2.25185   2.25542
 Alpha virt. eigenvalues --    2.25751   2.26122   2.26494   2.26951   2.27070
 Alpha virt. eigenvalues --    2.27623   2.28054   2.28183   2.28335   2.28854
 Alpha virt. eigenvalues --    2.29172   2.29363   2.29524   2.29931   2.30179
 Alpha virt. eigenvalues --    2.30536   2.30721   2.31422   2.31666   2.32071
 Alpha virt. eigenvalues --    2.32376   2.32746   2.33229   2.33711   2.33841
 Alpha virt. eigenvalues --    2.34296   2.34362   2.34961   2.35496   2.35580
 Alpha virt. eigenvalues --    2.35665   2.35794   2.36107   2.36435   2.36801
 Alpha virt. eigenvalues --    2.36953   2.37391   2.37647   2.37968   2.38697
 Alpha virt. eigenvalues --    2.38930   2.39116   2.39376   2.39661   2.39701
 Alpha virt. eigenvalues --    2.39883   2.40190   2.40585   2.41180   2.41985
 Alpha virt. eigenvalues --    2.42603   2.43124   2.43231   2.43369   2.43937
 Alpha virt. eigenvalues --    2.44750   2.45038   2.45254   2.45314   2.45632
 Alpha virt. eigenvalues --    2.46167   2.46413   2.46644   2.46876   2.47454
 Alpha virt. eigenvalues --    2.47673   2.47752   2.48022   2.48172   2.48853
 Alpha virt. eigenvalues --    2.48937   2.49224   2.49453   2.49677   2.50244
 Alpha virt. eigenvalues --    2.50498   2.51096   2.51253   2.51439   2.51677
 Alpha virt. eigenvalues --    2.52133   2.52539   2.52852   2.53243   2.53427
 Alpha virt. eigenvalues --    2.53687   2.54093   2.55286   2.55653   2.55904
 Alpha virt. eigenvalues --    2.56182   2.56317   2.56748   2.56943   2.57072
 Alpha virt. eigenvalues --    2.57376   2.58084   2.58223   2.58576   2.58711
 Alpha virt. eigenvalues --    2.59055   2.59455   2.60129   2.60295   2.60351
 Alpha virt. eigenvalues --    2.60705   2.61095   2.61221   2.61394   2.61905
 Alpha virt. eigenvalues --    2.62104   2.62204   2.62496   2.62801   2.62963
 Alpha virt. eigenvalues --    2.63248   2.63383   2.63649   2.64189   2.64497
 Alpha virt. eigenvalues --    2.64942   2.65054   2.65624   2.65852   2.66243
 Alpha virt. eigenvalues --    2.66450   2.66991   2.67402   2.67857   2.68037
 Alpha virt. eigenvalues --    2.68656   2.68910   2.69238   2.69393   2.69483
 Alpha virt. eigenvalues --    2.69802   2.70315   2.70370   2.70558   2.70719
 Alpha virt. eigenvalues --    2.70800   2.71260   2.71406   2.71835   2.71891
 Alpha virt. eigenvalues --    2.72027   2.72694   2.72841   2.73028   2.73234
 Alpha virt. eigenvalues --    2.73941   2.74039   2.74395   2.74759   2.74884
 Alpha virt. eigenvalues --    2.75118   2.75307   2.75461   2.75623   2.75882
 Alpha virt. eigenvalues --    2.76191   2.76280   2.76576   2.76781   2.76848
 Alpha virt. eigenvalues --    2.77223   2.77371   2.77813   2.78082   2.78426
 Alpha virt. eigenvalues --    2.78556   2.78864   2.79322   2.79519   2.79585
 Alpha virt. eigenvalues --    2.79828   2.80082   2.80197   2.80284   2.80459
 Alpha virt. eigenvalues --    2.81230   2.81755   2.81920   2.82405   2.82573
 Alpha virt. eigenvalues --    2.82952   2.83082   2.83663   2.83875   2.83967
 Alpha virt. eigenvalues --    2.84853   2.85338   2.85430   2.85655   2.85816
 Alpha virt. eigenvalues --    2.86155   2.86655   2.87083   2.87220   2.87453
 Alpha virt. eigenvalues --    2.87836   2.88681   2.88772   2.88945   2.88980
 Alpha virt. eigenvalues --    2.89706   2.89736   2.89749   2.90243   2.90699
 Alpha virt. eigenvalues --    2.90937   2.91406   2.91430   2.91694   2.92138
 Alpha virt. eigenvalues --    2.92260   2.92523   2.92581   2.92700   2.92788
 Alpha virt. eigenvalues --    2.92939   2.93703   2.93976   2.94084   2.94611
 Alpha virt. eigenvalues --    2.94684   2.95256   2.95465   2.95588   2.95632
 Alpha virt. eigenvalues --    2.96011   2.96165   2.96807   2.96959   2.97075
 Alpha virt. eigenvalues --    2.97488   2.98268   2.98393   2.98995   2.99063
 Alpha virt. eigenvalues --    2.99576   2.99746   3.00444   3.00796   3.01254
 Alpha virt. eigenvalues --    3.01398   3.01652   3.01965   3.02078   3.02377
 Alpha virt. eigenvalues --    3.02595   3.02992   3.03997   3.04219   3.04333
 Alpha virt. eigenvalues --    3.04765   3.05677   3.06180   3.06578   3.07150
 Alpha virt. eigenvalues --    3.07410   3.08305   3.08599   3.08911   3.09395
 Alpha virt. eigenvalues --    3.09825   3.10076   3.10253   3.11210   3.11680
 Alpha virt. eigenvalues --    3.12796   3.13112   3.13550   3.14154   3.14435
 Alpha virt. eigenvalues --    3.14767   3.15186   3.15715   3.15800   3.16306
 Alpha virt. eigenvalues --    3.16704   3.17109   3.17172   3.17733   3.17914
 Alpha virt. eigenvalues --    3.18520   3.18844   3.18947   3.19214   3.19272
 Alpha virt. eigenvalues --    3.19388   3.19785   3.20176   3.20376   3.21621
 Alpha virt. eigenvalues --    3.21958   3.22172   3.22541   3.23109   3.23191
 Alpha virt. eigenvalues --    3.23619   3.24082   3.24269   3.24578   3.24783
 Alpha virt. eigenvalues --    3.25040   3.25721   3.25777   3.25989   3.26196
 Alpha virt. eigenvalues --    3.27536   3.28727   3.29337   3.29573   3.30088
 Alpha virt. eigenvalues --    3.30314   3.30708   3.31090   3.32267   3.34350
 Alpha virt. eigenvalues --    3.34869   3.35553   3.36772   3.37141   3.39397
 Alpha virt. eigenvalues --    3.41926   3.44229   3.48680   3.49419   3.51794
 Alpha virt. eigenvalues --    3.52868   3.53351   3.54948   3.56110   3.57215
 Alpha virt. eigenvalues --    3.57915   3.58221   3.58732   3.60253   3.61524
 Alpha virt. eigenvalues --    3.62155   3.62424   3.62575   3.63339   3.64518
 Alpha virt. eigenvalues --    3.64953   3.65771   3.66679   3.66970   3.67849
 Alpha virt. eigenvalues --    3.67936   3.69578   3.70405   3.70752   3.71201
 Alpha virt. eigenvalues --    3.71461   3.71603   3.71864   3.72469   3.72607
 Alpha virt. eigenvalues --    3.72667   3.73512   3.73812   3.73944   3.74039
 Alpha virt. eigenvalues --    3.76694   3.80319   3.82049   3.83284
          Condensed to atoms (all electrons):
 Mulliken charges:
               1
     1  C    0.051553
     2  C    0.020389
     3  O   -0.297733
     4  H    0.036592
     5  H    0.039697
     6  H    0.008026
     7  N   -0.125030
     8  C    0.060241
     9  C    0.101491
    10  O   -0.272689
    11  C    0.080495
    12  C    0.172989
    13  O   -0.482773
    14  O   -0.375100
    15  H    0.117227
    16  H    0.025996
    17  H    0.019644
    18  H   -0.002787
    19  N   -0.110317
    20  C    0.149173
    21  C    0.077425
    22  O   -0.297745
    23  C   -0.045419
    24  C    0.030962
    25  C   -0.048066
    26  C    0.048940
    27  N    0.069115
    28  H    0.140942
    29  H   -0.003149
    30  H    0.023375
    31  H    0.037186
    32  H    0.016080
    33  H   -0.036691
    34  H    0.034757
    35  H    0.063057
    36  H    0.059252
    37  H    0.082383
    38  H    0.196840
    39  H    0.191058
    40  H    0.199747
    41  N   -0.129237
    42  C    0.109492
    43  C    0.046691
    44  O   -0.295021
    45  C    0.070809
    46  C    0.125744
    47  O   -0.472329
    48  O   -0.384756
    49  H    0.132961
    50  H   -0.012575
    51  H   -0.033663
    52  H    0.037950
    53  N   -0.156302
    54  C    0.221222
    55  C    0.035569
    56  O   -0.291218
    57  H    0.155709
    58  H    0.016467
    59  H    0.036257
    60  N   -0.160443
    61  C    0.154176
    62  C    0.078683
    63  O   -0.307688
    64  C    0.037066
    65  C    0.098651
    66  N   -0.035542
    67  O   -0.351602
    68  H    0.133445
    69  H    0.021943
    70  H    0.070393
    71  H    0.011230
    72  H    0.129000
    73  H    0.120066
    74  N   -0.175472
    75  C    0.239401
    76  C    0.022605
    77  O   -0.309648
    78  H    0.153046
    79  H    0.044183
    80  H    0.033980
    81  N   -0.126925
    82  C    0.110855
    83  C    0.109030
    84  O   -0.328763
    85  C    0.143265
    86  C   -0.032497
    87  C    0.027456
    88  C    0.037476
    89  C   -0.026341
    90  C   -0.033659
    91  C    0.180356
    92  O   -0.182097
    93  H    0.140648
    94  H    0.008829
    95  H   -0.012940
    96  H   -0.036857
    97  H   -0.024611
    98  H   -0.071148
    99  H   -0.028877
   100  H   -0.090973
   101  H    0.172485
   102  N   -0.109519
   103  C    0.152655
   104  C    0.054247
   105  O   -0.275940
   106  C   -0.117000
   107  C   -0.003712
   108  C    0.050289
   109  C    0.050154
   110  H    0.126655
   111  H    0.020838
   112  H   -0.021231
   113  H   -0.000586
   114  H    0.009525
   115  H    0.029863
   116  H    0.006838
   117  H    0.011577
   118  H    0.008147
   119  H    0.012935
   120  H    0.014069
   121  N   -0.139658
   122  C    0.104067
   123  C    0.108513
   124  O   -0.262334
   125  C    0.193437
   126  O   -0.299551
   127  H    0.156857
   128  H    0.036315
   129  H    0.005148
   130  H   -0.004472
   131  H    0.199397
   132  N   -0.134292
   133  C    0.074659
   134  C    0.037410
   135  O   -0.236526
   136  C    0.060739
   137  H    0.125436
   138  H    0.031631
   139  H    0.017111
   140  H    0.014478
   141  H    0.056361
   142  N   -0.131661
   143  C    0.122596
   144  C    0.077825
   145  O   -0.249608
   146  C    0.018025
   147  H    0.091496
   148  H    0.012143
   149  H    0.004313
   150  H    0.006053
   151  H    0.033576
   152  N   -0.156248
   153  C    0.148876
   154  C    0.070378
   155  O   -0.281242
   156  C   -0.061102
   157  C    0.103030
   158  C    0.110023
   159  O   -0.415985
   160  O   -0.415145
   161  H    0.118032
   162  H   -0.019748
   163  H    0.032111
   164  H   -0.013794
   165  H   -0.032092
   166  H   -0.018920
   167  N   -0.170140
   168  C    0.136598
   169  H    0.021970
   170  H    0.037535
   171  H   -0.003040
   172  H    0.116033
   173  Ca   1.283977
   174  O   -0.319901
   175  H    0.181443
   176  H    0.184979
 Sum of Mulliken charges =  -0.00000
 Mulliken charges with hydrogens summed into heavy atoms:
               1
     1  C    0.135867
     2  C    0.020389
     3  O   -0.297733
     7  N   -0.007803
     8  C    0.086238
     9  C    0.101491
    10  O   -0.272689
    11  C    0.097352
    12  C    0.172989
    13  O   -0.482773
    14  O   -0.375100
    19  N    0.030625
    20  C    0.146023
    21  C    0.077425
    22  O   -0.297745
    23  C    0.015142
    24  C    0.010351
    25  C    0.049748
    26  C    0.190575
    27  N    0.656760
    41  N    0.003724
    42  C    0.096917
    43  C    0.046691
    44  O   -0.295021
    45  C    0.075096
    46  C    0.125744
    47  O   -0.472329
    48  O   -0.384756
    53  N   -0.000593
    54  C    0.273945
    55  C    0.035569
    56  O   -0.291218
    60  N   -0.026998
    61  C    0.176119
    62  C    0.078683
    63  O   -0.307688
    64  C    0.118689
    65  C    0.098651
    66  N    0.213524
    67  O   -0.351602
    74  N   -0.022426
    75  C    0.317564
    76  C    0.022605
    77  O   -0.309648
    81  N    0.013723
    82  C    0.119684
    83  C    0.109030
    84  O   -0.328763
    85  C    0.093468
    86  C   -0.032497
    87  C    0.002844
    88  C   -0.033672
    89  C   -0.055218
    90  C   -0.124631
    91  C    0.180356
    92  O   -0.009612
   102  N    0.017136
   103  C    0.173493
   104  C    0.054247
   105  O   -0.275940
   106  C   -0.138231
   107  C    0.005227
   108  C    0.098567
   109  C    0.085305
   121  N    0.017200
   122  C    0.140382
   123  C    0.108513
   124  O   -0.262334
   125  C    0.194113
   126  O   -0.100154
   132  N   -0.008856
   133  C    0.106289
   134  C    0.037410
   135  O   -0.236526
   136  C    0.148689
   142  N   -0.040165
   143  C    0.134739
   144  C    0.077825
   145  O   -0.249608
   146  C    0.061967
   152  N   -0.038217
   153  C    0.129128
   154  C    0.070378
   155  O   -0.281242
   156  C   -0.042785
   157  C    0.052017
   158  C    0.110023
   159  O   -0.415985
   160  O   -0.415145
   167  N   -0.054107
   168  C    0.193063
   173  Ca   1.283977
   174  O    0.046521
 DipInt: DoE/N= T F RetVal/Mat= T F Init=T NMatP=  1 IDeriv=0 Min/MaxMlt=  0  4
 Entering OneElI...
 OneElI was handed  1333951383 working-precision words.
 Multipole integrals L=0 to 4 MinM= 0 MaxM= 0.
 Requested accuracy = 0.1000D-12
 ShPair: Thresh= 1.00D-13 NBox=     0 BxSize= 0.00D+00 RnKept= 2.55D+01
         NSMCal=               327645 NSMKep=              163073
 PrmmSu-InSpLW:  IPartL=    0 NPrtUS=    1 NPrtUL=    1 DoSpLW=F IThBeg=    0 IThEnd=    0 NThAct=    1.
 PrsmSu:  NPrtUS=   1 ThrOK=F IAlg=1 NPAlg=1 LenDen=           0 ISkipM=0 DoSpLW=F IThBeg=    0 IThEnd=    0.
 Prism:   IPart=     0 DynPar=F LinDyn=F Incr=         512.
 PRISM was handed  1323776899 working-precision words and163073 shell-pairs
 IPart=  0 NShTot=      163073 NBatch=         373 AvBLen=       437.2
 PrsmSu-ThDecC:  IPartSL=    0    0 NPrtUSL=    1    1 IThBeg=    0 IThEnd=    0 CPU=   -1 GPU=   -1 NThAct=    1.
 PrSmSu:  NxtVal=            513.
 Electronic moments (au):
       -716.00000000         12.69902067          1.08095229         -7.94657315
     -50367.98279406     -29290.84645626     -12915.40273931         45.81100621
        -37.48773562        -23.77092376     -76231.82545538     -54677.27253736
     -22789.30371837      13895.23148690      97088.65251988      58919.77960582
      -6094.84175374       1171.35184758      28385.51940848       1533.58447721
   -7088238.17106522   -2847495.28783206    -667811.07870452     188617.09267648
     212050.35896164    -434984.13395210     145444.95246256    -105887.96509759
      -8629.93061857   -1814847.68100245    -728576.08231641    -397873.97675086
    -265487.81507529      20567.49391301     -68708.00606094
 Electronic spatial extent (au):  <R**2>=          92574.2320
 DipInt: DoE/N= F T RetVal/Mat= T F Init=T NMatP=  1 IDeriv=0 Min/MaxMlt=  0  4
 Nuclear    moments (au):
        716.00000000          0.00000000          0.00000000          0.00000000
      49841.96615909      29014.27217825      12546.67119614         -0.00000000
         -0.00000000         -0.00000000      77042.31945820      56817.78809223
      22663.27841629     -11829.77560140     -97383.38073979     -59823.14805973
       6389.30374048      -1081.06567396     -29567.68633052      -1869.64347573
    6882460.25352551    2781565.70801400     626659.50271155    -194869.85950156
    -214159.22950678     451582.37041141    -159534.88012351     105729.33705349
       9981.66981321    1773688.10299171     695501.31823080     378646.06140473
     265965.93059541     -27584.45461791      70221.84613688
 Total      moments (au):
          0.00000000         12.69902067          1.08095229         -7.94657315
       -526.01663498       -276.57427800       -368.73154316         45.81100621
        -37.48773562        -23.77092376        810.49400282       2140.51555486
       -126.02530208       2065.45588550       -294.72821991       -903.36845391
        294.46198674         90.28617362      -1182.16692204       -336.05899853
    -205777.91753971     -65929.57981806     -41151.57599297      -6252.76682508
      -2108.87054514      16598.23645931     -14089.92766095       -158.62804410
       1351.73919464     -41159.57801075     -33074.76408561     -19227.91534613
        478.11552012      -7016.96070490       1513.84007593
 Traceless Quadrup. (au):
       -135.57581626        113.86654071         21.70927555         45.81100621
        -37.48773562        -23.77092376
 Charge=              0.0000 electrons
 Dipole moment (field-independent basis, Debye):
    X=             32.2777    Y=              2.7475    Z=            -20.1982  Tot=             38.1754
 Quadrupole moment (field-independent basis, Debye-Ang):
   XX=           -707.5104   YY=           -372.0019   ZZ=           -495.9566
   XY=             61.6174   XZ=            -50.4223   YZ=            -31.9727
 Traceless Quadrupole moment (field-independent basis, Debye-Ang):
   XX=           -182.3541   YY=            153.1544   ZZ=             29.1997
   XY=             61.6174   XZ=            -50.4223   YZ=            -31.9727
 Octapole moment (field-independent basis, Debye-Ang**2):
  XXX=            576.8784  YYY=           1523.5365  ZZZ=            -89.7000  XYY=           1470.1119
  XXY=           -209.7762  XXZ=           -642.9829  XZZ=            209.5867  YZZ=             64.2622
  YYZ=           -841.4209  XYZ=           -239.1938
 Hexadecapole moment (field-independent basis, Debye-Ang**3):
 XXXX=         -77505.8311 YYYY=         -24832.2412 ZZZZ=         -15499.6568 XXXY=          -2355.0918
 XXXZ=           -794.3018 YYYX=           6251.6918 YYYZ=          -5306.9424 ZZZX=            -59.7469
 ZZZY=            509.1298 XXYY=         -15502.6707 XXZZ=         -12457.5421 YYZZ=          -7242.1549
 XXYZ=            180.0812 YYXZ=          -2642.9239 ZZXY=            570.1848
 N-N= 2.187780338480D+04 E-N=-5.623710229659D+04  KE= 5.290583910346D+03
 Leave Link  601 at Wed Sep 18 16:11:39 2019, MaxMem=  1342177280 cpu:              45.8 elap:               1.2
 FitSet:  NAtFit=   176 NAtPot=   176 NAtFrz=     0 MDM=   180 TotChg=   0.00000
 Merz-Kollman atomic radii used.
 Read replacement radii for each type of atom:
 Rad(20) =   1.700000000000D+00
 Atom Element Radius
    1     6    1.50
    2     6    1.50
    3     8    1.40
    4     1    1.20
    5     1    1.20
    6     1    1.20
    7     7    1.50
    8     6    1.50
    9     6    1.50
   10     8    1.40
   11     6    1.50
   12     6    1.50
   13     8    1.40
   14     8    1.40
   15     1    1.20
   16     1    1.20
   17     1    1.20
   18     1    1.20
   19     7    1.50
   20     6    1.50
   21     6    1.50
   22     8    1.40
   23     6    1.50
   24     6    1.50
   25     6    1.50
   26     6    1.50
   27     7    1.50
   28     1    1.20
   29     1    1.20
   30     1    1.20
   31     1    1.20
   32     1    1.20
   33     1    1.20
   34     1    1.20
   35     1    1.20
   36     1    1.20
   37     1    1.20
   38     1    1.20
   39     1    1.20
   40     1    1.20
   41     7    1.50
   42     6    1.50
   43     6    1.50
   44     8    1.40
   45     6    1.50
   46     6    1.50
   47     8    1.40
   48     8    1.40
   49     1    1.20
   50     1    1.20
   51     1    1.20
   52     1    1.20
   53     7    1.50
   54     6    1.50
   55     6    1.50
   56     8    1.40
   57     1    1.20
   58     1    1.20
   59     1    1.20
   60     7    1.50
   61     6    1.50
   62     6    1.50
   63     8    1.40
   64     6    1.50
   65     6    1.50
   66     7    1.50
   67     8    1.40
   68     1    1.20
   69     1    1.20
   70     1    1.20
   71     1    1.20
   72     1    1.20
   73     1    1.20
   74     7    1.50
   75     6    1.50
   76     6    1.50
   77     8    1.40
   78     1    1.20
   79     1    1.20
   80     1    1.20
   81     7    1.50
   82     6    1.50
   83     6    1.50
   84     8    1.40
   85     6    1.50
   86     6    1.50
   87     6    1.50
   88     6    1.50
   89     6    1.50
   90     6    1.50
   91     6    1.50
   92     8    1.40
   93     1    1.20
   94     1    1.20
   95     1    1.20
   96     1    1.20
   97     1    1.20
   98     1    1.20
   99     1    1.20
  100     1    1.20
  101     1    1.20
  102     7    1.50
  103     6    1.50
  104     6    1.50
  105     8    1.40
  106     6    1.50
  107     6    1.50
  108     6    1.50
  109     6    1.50
  110     1    1.20
  111     1    1.20
  112     1    1.20
  113     1    1.20
  114     1    1.20
  115     1    1.20
  116     1    1.20
  117     1    1.20
  118     1    1.20
  119     1    1.20
  120     1    1.20
  121     7    1.50
  122     6    1.50
  123     6    1.50
  124     8    1.40
  125     6    1.50
  126     8    1.40
  127     1    1.20
  128     1    1.20
  129     1    1.20
  130     1    1.20
  131     1    1.20
  132     7    1.50
  133     6    1.50
  134     6    1.50
  135     8    1.40
  136     6    1.50
  137     1    1.20
  138     1    1.20
  139     1    1.20
  140     1    1.20
  141     1    1.20
  142     7    1.50
  143     6    1.50
  144     6    1.50
  145     8    1.40
  146     6    1.50
  147     1    1.20
  148     1    1.20
  149     1    1.20
  150     1    1.20
  151     1    1.20
  152     7    1.50
  153     6    1.50
  154     6    1.50
  155     8    1.40
  156     6    1.50
  157     6    1.50
  158     6    1.50
  159     8    1.40
  160     8    1.40
  161     1    1.20
  162     1    1.20
  163     1    1.20
  164     1    1.20
  165     1    1.20
  166     1    1.20
  167     7    1.50
  168     6    1.50
  169     1    1.20
  170     1    1.20
  171     1    1.20
[...]
 **** Fit      -0.040469
 **** Fit      -0.040972
 **** Fit      -0.040819
 **** Fit      -0.040110
 **** Fit      -0.038931
 **** Fit      -0.037360
 **** Fit      -0.035469
 **** Fit      -0.033333
 **** Fit      -0.031040
 **** Fit      -0.028708
 **** Fit      -0.026500
 **** Fit      -0.024631
 **** Fit      -0.023367
 **** Fit      -0.022996
 **** Fit      -0.023798
 **** Fit      -0.026087
 **** Fit      -0.030347
 **** Fit      -0.042992
 **** Fit      -0.043058
 **** Fit      -0.042439
 **** Fit      -0.041231
 **** Fit      -0.039518
 **** Fit      -0.037381
 **** Fit      -0.034888
 **** Fit      -0.032105
 **** Fit      -0.029113
 **** Fit      -0.026020
 **** Fit      -0.022988
 **** Fit      -0.020251
 **** Fit      -0.018107
 **** Fit      -0.016865
 **** Fit      -0.016743
 **** Fit      -0.042138
 **** Fit      -0.046557
 **** Fit      -0.046035
 **** Fit      -0.044754
 **** Fit      -0.042816
 **** Fit      -0.040329
 **** Fit      -0.037386
 **** Fit      -0.034061
 **** Fit      -0.030418
 **** Fit      -0.026532
 **** Fit      -0.022515
 **** Fit      -0.018547
 **** Fit      -0.014913
 **** Fit      -0.011992
 **** Fit      -0.010144
 **** Fit      -0.009495
 **** Fit      -0.050403
 **** Fit      -0.048191
 **** Fit      -0.045238
 **** Fit      -0.041711
 **** Fit      -0.037736
 **** Fit      -0.033397
 **** Fit      -0.028755
 **** Fit      -0.023876
 **** Fit      -0.018869
 **** Fit      -0.013936
 **** Fit      -0.009419
 **** Fit      -0.005790
 **** Fit      -0.003447
 **** Fit      -0.042842
 **** Fit      -0.037157
 **** Fit      -0.031203
 **** Fit      -0.025031
 **** Fit      -0.018714
 **** Fit      -0.034933
 **** Fit       0.023081
 **** Fit       0.021806
 **** Fit       0.009314
 **** Fit       0.020345
 **** Fit       0.017044
 **** Fit       0.011864
 **** Fit       0.003385
 **** Fit       0.019572
 **** Fit       0.014341
 **** Fit       0.006997
 **** Fit       0.019421
 **** Fit       0.012664
 **** Fit       0.004152
 **** Fit       0.013747
 **** Fit       0.012326
 **** Fit       0.009281
 **** Fit      -0.004943
 **** Fit       0.005340
 **** Fit       0.005009
 **** Fit       0.002598
 **** Fit      -0.002481
 **** Fit      -0.010325
 **** Fit      -0.000740
 **** Fit      -0.001767
 **** Fit      -0.004501
 **** Fit      -0.009718
 **** Fit      -0.017801
 **** Fit      -0.001441
 **** Fit      -0.003703
 **** Fit      -0.005365
 **** Fit      -0.007321
 **** Fit      -0.010565
 **** Fit      -0.015998
 **** Fit      -0.024230
 **** Fit      -0.035576
 **** Fit       0.008238
 **** Fit       0.013422
 **** Fit       0.013942
 **** Fit      -0.001745
 **** Fit      -0.005575
 **** Fit      -0.008659
 **** Fit      -0.011770
 **** Fit      -0.015952
 **** Fit      -0.022227
 **** Fit      -0.031318
 **** Fit      -0.013156
 **** Fit      -0.004397
 **** Fit       0.002221
 **** Fit       0.008009
 **** Fit       0.012744
 **** Fit       0.008601
 **** Fit       0.003121
 **** Fit      -0.006540
 **** Fit      -0.010869
 **** Fit      -0.015257
 **** Fit      -0.020750
 **** Fit      -0.028508
 **** Fit      -0.039031
 **** Fit      -0.037661
 **** Fit      -0.023236
 **** Fit      -0.012478
 **** Fit      -0.004756
 **** Fit       0.000608
 **** Fit       0.003006
 **** Fit       0.001790
 **** Fit      -0.002005
 **** Fit      -0.012102
 **** Fit      -0.017336
 **** Fit      -0.024052
 **** Fit      -0.033018
 **** Fit      -0.042829
 **** Fit      -0.042570
 **** Fit      -0.030391
 **** Fit      -0.018779
 **** Fit      -0.010841
 **** Fit      -0.007273
 **** Fit      -0.008209
 **** Fit      -0.018359
 **** Fit      -0.025653
 **** Fit      -0.034087
 **** Fit      -0.033353
 **** Fit      -0.023099
 **** Fit      -0.016561
 **** Fit      -0.025377
 **** Fit      -0.019475
 **** Fit      -0.009239
 **** Fit       0.000563
 **** Fit      -0.025699
 **** Fit      -0.014589
 **** Fit      -0.003998
 **** Fit       0.006263
 **** Fit      -0.010750
 **** Fit       0.000419
 **** Fit       0.011062
 **** Fit      -0.005308
 **** Fit       0.006541
 **** Fit       0.017535
 **** Fit       0.001119
 **** Fit       0.013168
 **** Fit       0.006879
 **** Fit       0.018270
 **** Fit       0.027861
 **** Fit       0.015566
 **** Fit       0.025323
 **** Fit       0.012406
 **** Fit       0.022040
 **** Fit       0.028913
 **** Fit       0.020322
 **** Fit       0.020084
 **** Fit       0.035182
 **** Fit       0.023587
 **** Fit       0.029897
 **** Fit       0.037026
 **** Fit       0.022779
 **** Fit       0.026963
 **** Fit       0.032554
 **** Fit       0.024881
 **** Fit       0.028468
 **** Fit       0.032876
 **** Fit       0.036889
 **** Fit       0.015903
 **** Fit       0.025148
 **** Fit       0.027961
 **** Fit       0.030342
 **** Fit       0.030285
 **** Fit       0.025696
 **** Fit       0.015608
 **** Fit       0.023336
 **** Fit       0.024127
 **** Fit       0.021158
 **** Fit       0.012413
 **** Fit      -0.008262
 **** Fit      -0.008135
 **** Fit      -0.008503
 **** Fit      -0.007012
 **** Fit      -0.006924
 **** Fit      -0.008137
 **** Fit      -0.008842
 **** Fit      -0.006975
 **** Fit      -0.005698
 **** Fit      -0.005302
 **** Fit      -0.005733
 **** Fit      -0.006758
 **** Fit      -0.008270
 **** Fit      -0.009753
 **** Fit      -0.009266
 **** Fit      -0.007122
 **** Fit      -0.004005
 **** Fit      -0.004661
 **** Fit      -0.005646
 **** Fit      -0.006872
 **** Fit      -0.008530
 **** Fit      -0.010096
 **** Fit      -0.011163
 **** Fit      -0.008447
 **** Fit      -0.003552
 **** Fit      -0.004562
 **** Fit      -0.005738
 **** Fit      -0.007065
 **** Fit      -0.008902
 **** Fit      -0.010477
 **** Fit      -0.012149
 **** Fit      -0.012043
 **** Fit      -0.008839
 **** Fit      -0.002707
 **** Fit      -0.003750
 **** Fit      -0.004879
 **** Fit      -0.006104
 **** Fit      -0.007442
 **** Fit      -0.009364
 **** Fit      -0.011053
 **** Fit      -0.012887
 **** Fit      -0.017758
 **** Fit      -0.013275
 **** Fit      -0.002736
 **** Fit      -0.003909
 **** Fit      -0.005126
 **** Fit      -0.006418
 **** Fit      -0.007822
 **** Fit      -0.009898
 **** Fit      -0.011681
 **** Fit      -0.013647
 **** Fit      -0.015819
 **** Fit      -0.026454
 **** Fit      -0.020675
 **** Fit      -0.001777
 **** Fit      -0.003025
 **** Fit      -0.004266
 **** Fit      -0.005524
 **** Fit      -0.006848
 **** Fit      -0.008293
 **** Fit      -0.014543
 **** Fit      -0.016926
 **** Fit      -0.019645
 **** Fit      -0.035411
 **** Fit      -0.028084
 **** Fit      -0.000615
 **** Fit      -0.002014
 **** Fit      -0.003367
 **** Fit      -0.018044
 **** Fit      -0.020953
 **** Fit      -0.024414
 **** Fit      -0.000980
 **** Fit      -0.002524
 **** Fit      -0.022560
 **** Fit      -0.026268
 **** Fit      -0.030927
 **** Fit       0.000455
 **** Fit      -0.001430
 **** Fit      -0.029059
 **** Fit      -0.034355
 **** Fit       0.000707
 **** Fit      -0.001722
 **** Fit      -0.032024
 **** Fit      -0.037703
 **** Fit       0.003866
 **** Fit       0.000649
 **** Fit      -0.035298
 **** Fit      -0.000058
 **** Fit      -0.040214
 **** Fit      -0.009287
 **** Fit      -0.011053
 **** Fit      -0.006395
 **** Fit      -0.007743
 **** Fit      -0.009692
 **** Fit      -0.011470
 **** Fit      -0.013524
 **** Fit      -0.004385
 **** Fit      -0.005520
 **** Fit      -0.006762
 **** Fit      -0.008139
 **** Fit      -0.010315
 **** Fit      -0.012050
 **** Fit      -0.014062
 **** Fit      -0.016425
 **** Fit      -0.003762
 **** Fit      -0.004926
 **** Fit      -0.006137
 **** Fit      -0.007413
 **** Fit      -0.008788
 **** Fit      -0.011280
 **** Fit      -0.013045
 **** Fit      -0.015102
 **** Fit      -0.017549
 **** Fit      -0.020516
 **** Fit      -0.002936
 **** Fit      -0.004285
 **** Fit      -0.005625
 **** Fit      -0.006956
 **** Fit      -0.008305
 **** Fit      -0.009725
 **** Fit      -0.012738
 **** Fit      -0.014477
 **** Fit      -0.016509
 **** Fit      -0.018939
 **** Fit      -0.021904
 **** Fit      -0.025613
 **** Fit      -0.002227
 **** Fit      -0.003891
 **** Fit      -0.005492
 **** Fit      -0.006992
 **** Fit      -0.008405
 **** Fit      -0.009785
 **** Fit      -0.011202
 **** Fit      -0.014878
 **** Fit      -0.016580
 **** Fit      -0.018593
 **** Fit      -0.021024
 **** Fit      -0.024008
 **** Fit      -0.027746
 **** Fit      -0.003474
 **** Fit      -0.005595
 **** Fit      -0.007496
 **** Fit      -0.009158
 **** Fit      -0.010631
 **** Fit      -0.012006
 **** Fit      -0.013386
 **** Fit      -0.017953
 **** Fit      -0.019628
 **** Fit      -0.021684
 **** Fit      -0.024241
 **** Fit      -0.027438
 **** Fit      -0.031469
 **** Fit      -0.005222
 **** Fit      -0.008121
 **** Fit      -0.010515
 **** Fit      -0.012410
 **** Fit      -0.013931
 **** Fit      -0.015250
 **** Fit      -0.016539
 **** Fit      -0.022316
 **** Fit      -0.023861
 **** Fit      -0.025931
 **** Fit      -0.028652
 **** Fit      -0.032146
 **** Fit      -0.036553
 **** Fit      -0.019160
 **** Fit      -0.020181
 **** Fit      -0.021152
 **** Fit      -0.028465
 **** Fit      -0.029597
 **** Fit      -0.031500
 **** Fit      -0.034269
 **** Fit      -0.037949
 **** Fit      -0.042497
 **** Fit      -0.039004
 **** Fit      -0.041990
 **** Fit      -0.046116
 **** Fit      -0.011366
 **** Fit      -0.011109
 **** Fit      -0.012893
 **** Fit      -0.013386
 **** Fit      -0.011867
 **** Fit      -0.010114
 **** Fit      -0.009823
 **** Fit      -0.011087
 **** Fit      -0.012934
 **** Fit      -0.014777
 **** Fit      -0.016048
 **** Fit      -0.016099
 **** Fit      -0.014768
 **** Fit      -0.012647
 **** Fit      -0.010554
 **** Fit      -0.009050
 **** Fit      -0.009565
 **** Fit      -0.011306
 **** Fit      -0.013108
 **** Fit      -0.015090
 **** Fit      -0.017108
 **** Fit      -0.018857
 **** Fit      -0.019892
 **** Fit      -0.019803
 **** Fit      -0.018493
 **** Fit      -0.016307
 **** Fit      -0.013798
 **** Fit      -0.011418
 **** Fit      -0.009741
 **** Fit      -0.011777
 **** Fit      -0.013630
 **** Fit      -0.015705
 **** Fit      -0.017991
 **** Fit      -0.020385
 **** Fit      -0.022637
 **** Fit      -0.024357
 **** Fit      -0.025109
 **** Fit      -0.024587
 **** Fit      -0.022798
 **** Fit      -0.020112
 **** Fit      -0.017050
 **** Fit      -0.014011
 **** Fit      -0.014483
 **** Fit      -0.016700
 **** Fit      -0.019218
 **** Fit      -0.022040
 **** Fit      -0.025058
 **** Fit      -0.028004
 **** Fit      -0.030451
 **** Fit      -0.031902
 **** Fit      -0.031962
 **** Fit      -0.030501
 **** Fit      -0.027715
 **** Fit      -0.024072
 **** Fit      -0.020072
 **** Fit      -0.015600
 **** Fit      -0.017937
 **** Fit      -0.020622
 **** Fit      -0.023733
 **** Fit      -0.027281
 **** Fit      -0.031155
 **** Fit      -0.035061
 **** Fit      -0.034459
 **** Fit      -0.029668
 **** Fit      -0.024378
 **** Fit      -0.019780
 **** Fit      -0.022847
 **** Fit      -0.026496
 **** Fit      -0.030839
 **** Fit      -0.037295
 **** Fit      -0.025377
 **** Fit      -0.029550
 **** Fit      -0.034683
 **** Fit      -0.033475
 **** Fit      -0.004920
 **** Fit      -0.004811
 **** Fit      -0.003374
 **** Fit      -0.003552
 **** Fit      -0.004660
 **** Fit      -0.002898
 **** Fit      -0.001910
 **** Fit      -0.001741
 **** Fit      -0.002359
 **** Fit      -0.003579
 **** Fit      -0.006870
 **** Fit      -0.004432
 **** Fit      -0.002570
 **** Fit      -0.001324
 **** Fit      -0.000567
 **** Fit      -0.000297
 **** Fit      -0.000550
 **** Fit      -0.001297
 **** Fit      -0.002428
 **** Fit      -0.001438
 **** Fit      -0.000376
 **** Fit       0.000429
 **** Fit       0.000915
 **** Fit       0.000992
 **** Fit       0.000624
 **** Fit      -0.000163
 **** Fit      -0.001283
 **** Fit       0.000876
 **** Fit       0.001691
 **** Fit       0.002180
 **** Fit       0.002256
 **** Fit       0.001891
 **** Fit       0.001103
 **** Fit      -0.000033
 **** Fit      -0.001405
 **** Fit       0.002023
 **** Fit       0.002930
 **** Fit       0.003447
 **** Fit       0.003536
 **** Fit       0.003177
 **** Fit       0.002385
 **** Fit       0.001220
 **** Fit      -0.000213
 **** Fit       0.003677
 **** Fit       0.004516
 **** Fit       0.004887
 **** Fit       0.004761
 **** Fit       0.004123
 **** Fit       0.003002
 **** Fit       0.001488
 **** Fit      -0.000274
 **** Fit       0.005525
 **** Fit       0.006192
 **** Fit       0.006359
 **** Fit       0.005956
 **** Fit       0.004965
 **** Fit       0.003438
 **** Fit       0.001505
 **** Fit       0.007167
 **** Fit       0.007836
 **** Fit       0.007930
 **** Fit       0.007328
 **** Fit       0.005994
 **** Fit       0.003998
 **** Fit       0.008033
 **** Fit       0.009175
 **** Fit       0.009669
 **** Fit       0.009254
 **** Fit       0.007794
 **** Fit       0.005323
 **** Fit       0.010853
 **** Fit       0.011305
 **** Fit       0.007468
 **** Fit       0.008942
 **** Fit       0.021396
 **** Fit       0.016375
 **** Fit       0.008685
 **** Fit      -0.002775
 **** Fit      -0.017663
 **** Fit       0.010805
 **** Fit       0.006706
 **** Fit      -0.002993
 **** Fit      -0.019592
 **** Fit      -0.007187
 **** Fit      -0.005987
 **** Fit       0.024102
 **** Fit       0.016691
 **** Fit       0.015979
 **** Fit       0.020121
 **** Fit       0.026680
 **** Fit       0.033719
 **** Fit       0.042514
 **** Fit       0.030097
 **** Fit       0.024152
 **** Fit       0.025174
 **** Fit       0.030485
 **** Fit       0.036490
 **** Fit       0.041416
 **** Fit       0.054850
 **** Fit       0.043551
 **** Fit       0.034730
 **** Fit       0.031585
 **** Fit       0.036397
 **** Fit       0.042463
 **** Fit       0.046217
 **** Fit       0.038732
 **** Fit       0.036763
 **** Fit       0.039903
 **** Fit       0.038315
 **** Fit       0.041823
 **** Fit       0.033261
 **** Fit       0.036736
 **** Fit       0.040375
 **** Fit       0.044370
 **** Fit       0.034117
 **** Fit       0.037297
 **** Fit       0.040928
 **** Fit       0.044947
 **** Fit       0.049588
 **** Fit       0.036589
 **** Fit       0.038543
 **** Fit       0.041506
 **** Fit       0.045108
 **** Fit       0.049318
 **** Fit       0.041715
 **** Fit       0.040400
 **** Fit       0.041149
 **** Fit       0.043408
 **** Fit       0.046686
 **** Fit       0.050779
 **** Fit       0.045519
 **** Fit       0.043826
 **** Fit       0.043637
 **** Fit       0.045098
 **** Fit       0.047868
 **** Fit       0.051637
 **** Fit       0.045258
 **** Fit       0.045221
 **** Fit       0.045780
 **** Fit       0.047696
 **** Fit       0.050880
 **** Fit       0.055011
 **** Fit       0.059563
 **** Fit       0.044822
 **** Fit       0.046401
 **** Fit       0.048721
 **** Fit       0.052285
 **** Fit       0.056404
 **** Fit       0.053066
 **** Fit       0.045845
 **** Fit       0.048978
 **** Fit       0.052692
 **** Fit       0.048548
 -----------------------------------------------------------------
 Leave Link  602 at Wed Sep 18 16:11:42 2019, MaxMem=  1342177280 cpu:             107.4 elap:               2.3

 Test job not archived.
 1\1\GINC-C490-124\SP\RB3LYP\SVP\C54H83Ca1N15O23\JAEBEOMH\18-Sep-2019\0
 \\#b3lyp/svp scf=(tight,noincore) Test #IOP(5/87=12) Density=Current P
 op=(MK,readradii) iop(6/33=2) iop(6/42=6)\\CaMKII_loop3_54.0\\0,1\C,0,
 82.52,60.44,31.17\C,0,82.,60.29,32.59\O,0,82.56,59.5,33.35\H,0,83.545,
 60.073,31.118\H,0,81.893,59.863,30.49\H,0,82.496,61.491,30.883\N,0,80.
 88,60.94,32.92\C,0,80.3,60.91,34.24\C,0,79.42,59.67,34.38\O,0,78.22,59
 .73,34.11\C,0,79.49,62.2,34.36\C,0,78.73,62.41,35.66\O,0,78.71,61.45,3
 6.46\O,0,78.01,63.41,35.86\H,0,80.5,61.53,32.19\H,0,81.08,60.94,35.01\
 H,0,78.86,62.23,33.47\H,0,80.24,62.98,34.47\N,0,79.94,58.57,34.92\C,0,
 79.3,57.28,34.84\C,0,77.88,57.18,35.4\O,0,77.09,56.46,34.79\C,0,80.27,
 56.32,35.52\C,0,79.92,54.84,35.41\C,0,80.97,54.02,36.13\C,0,80.6,52.55
 ,36.29\N,0,79.36,52.3,37.04\H,0,80.92,58.55,35.16\H,0,79.23,56.98,33.7
 9\H,0,80.31,56.54,36.59\H,0,81.23,56.55,35.06\H,0,79.89,54.49,34.38\H,
 0,78.99,54.57,35.9\H,0,81.14,54.52,37.09\H,0,81.9,54.03,35.55\H,0,81.3
 4,52.08,36.94\H,0,80.61,52.08,35.31\H,0,78.57,52.4,36.41\H,0,79.3,51.3
 4,37.34\H,0,79.16,52.95,37.78\N,0,77.63,57.74,36.58\C,0,76.37,57.73,37
 .3\C,0,75.52,58.95,36.98\O,0,74.3,59.03,37.12\C,0,76.48,57.65,38.82\C,
 0,77.47,58.62,39.44\O,0,78.05,59.53,38.82\O,0,77.55,58.55,40.69\H,0,78
 .37,58.25,37.04\H,0,75.82,56.85,36.96\H,0,76.77,56.62,39.01\H,0,75.48,
 57.86,39.2\N,0,76.14,59.97,36.38\C,0,75.51,61.17,35.86\C,0,75.17,62.33
 ,36.79\O,0,74.35,63.2,36.53\H,0,77.14,60.04,36.49\H,0,74.6,60.85,35.35
 \H,0,76.2,61.57,35.12\N,0,75.74,62.33,37.99\C,0,75.46,63.28,39.05\C,0,
 76.01,64.69,38.89\O,0,75.73,65.54,39.74\C,0,75.95,62.62,40.34\C,0,77.4
 6,62.64,40.56\N,0,77.89,62.67,41.82\O,0,78.33,62.79,39.71\H,0,76.65,61
 .89,38.01\H,0,74.38,63.35,39.13\H,0,75.56,61.61,40.45\H,0,75.53,63.19,
 41.17\H,0,77.22,62.94,42.53\H,0,78.87,62.66,42.04\N,0,76.81,64.98,37.8
 6\C,0,77.05,66.32,37.38\C,0,78.51,66.69,37.2\O,0,78.87,67.8,36.8\H,0,7
 7.22,64.26,37.28\H,0,76.6,67.08,38.03\H,0,76.6,66.37,36.39\N,0,79.4,65
 .74,37.47\C,0,80.85,65.85,37.57\C,0,81.48,64.49,37.26\O,0,80.82,63.45,
 37.32\C,0,81.25,66.24,38.98\C,0,80.2,66.64,39.99\C,0,79.94,67.99,40.25
 \C,0,79.68,65.67,40.86\C,0,79.11,68.38,41.32\C,0,78.95,66.08,41.98\C,0
 ,78.6,67.42,42.22\O,0,77.82,67.77,43.27\H,0,79.09,64.78,37.55\H,0,81.2
 1,66.62,36.89\H,0,82.02,67.,38.87\H,0,81.8,65.42,39.45\H,0,80.37,68.73
 ,39.6\H,0,79.99,64.66,40.64\H,0,78.87,69.4,41.57\H,0,78.58,65.31,42.65
 \H,0,77.63,67.03,43.85\N,0,82.79,64.5,37.01\C,0,83.63,63.33,36.87\C,0,
 84.76,63.33,37.89\O,0,85.45,64.33,38.08\C,0,84.21,63.45,35.47\C,0,83.2
 5,63.41,34.28\C,0,85.21,62.31,35.24\C,0,83.63,64.24,33.06\H,0,83.31,65
 .36,37.01\H,0,83.06,62.4,36.94\H,0,84.7,64.42,35.39\H,0,82.23,63.57,34
 .63\H,0,83.21,62.36,33.99\H,0,84.76,61.35,35.47\H,0,85.43,62.16,34.18\
 H,0,86.15,62.45,35.76\H,0,83.73,65.28,33.34\H,0,84.57,63.89,32.61\H,0,
 82.81,64.13,32.35\N,0,85.13,62.17,38.45\C,0,86.2,61.85,39.37\C,0,87.24
 ,60.91,38.77\O,0,87.05,60.26,37.74\C,0,85.58,61.1,40.54\O,0,84.6,60.14
 ,40.19\H,0,84.74,61.32,38.07\H,0,86.7,62.74,39.73\H,0,85.04,61.88,41.0
 8\H,0,86.33,60.62,41.16\H,0,84.47,59.65,41.01\N,0,88.34,60.77,39.51\C,
 0,89.45,59.98,39.02\C,0,89.09,58.52,38.79\O,0,89.43,57.87,37.8\C,0,90.
 66,60.05,39.95\H,0,88.52,61.33,40.33\H,0,89.71,60.34,38.03\H,0,90.68,6
 1.04,40.4\H,0,90.58,59.28,40.71\H,0,91.61,59.83,39.46\N,0,88.22,57.96,
 39.63\C,0,87.69,56.62,39.54\C,0,87.,56.43,38.19\O,0,87.16,55.44,37.49\
 C,0,86.75,56.3,40.7\H,0,87.99,58.54,40.43\H,0,88.45,55.85,39.68\H,0,87
 .27,56.54,41.63\H,0,85.79,56.8,40.69\H,0,86.55,55.24,40.86\N,0,86.21,5
 7.41,37.74\C,0,85.34,57.24,36.6\C,0,86.13,57.57,35.34\O,0,85.94,57.04,
 34.25\C,0,84.16,58.21,36.67\C,0,83.28,57.99,37.9\C,0,82.12,58.96,38.04
 \O,0,81.94,59.9,37.24\O,0,81.24,58.76,38.91\H,0,86.17,58.28,38.25\H,0,
 84.91,56.26,36.43\H,0,83.5,58.21,35.81\H,0,84.56,59.23,36.7\H,0,84.01,
 58.07,38.71\H,0,82.99,56.95,37.76\N,0,87.09,58.49,35.46\C,0,87.99,58.7
 9,34.36\H,0,88.951,58.306,34.535\H,0,87.562,58.421,33.428\H,0,88.135,5
 9.868,34.292\H,0,87.11,59.03,36.31\Ca,0,80.04,61.02,38.58\O,0,82.28,61
 .88,39.75\H,0,82.61,62.52,40.39\H,0,82.97,61.21,39.72\\Version=ES64L-G
 16RevA.03\State=1-A\HF=-5333.5550288\RMSD=4.524e-09\Dipole=9.3405039,-
 10.294202,5.6891125\Quadrupole=-107.7011953,96.6434654,11.0577299,88.7
 459175,39.3552103,-4.7240542\PG=C01 [X(C54H83Ca1N15O23)]\\@


 ALL THINGS ARE POSSIBLE EXCEPT SKIING THROUGH A REVOLVING DOOR.
 Job cpu time:       0 days 10 hours 24 minutes 21.1 seconds.
 Elapsed time:       0 days  0 hours 13 minutes  8.9 seconds.
 File lengths (MBytes):  RWF=   1517 Int=      0 D2E=      0 Chk=    171 Scr=      1
 Normal termination of Gaussian 16 at Wed Sep 18 16:11:43 2019.
