 Entering Gaussian System, Link 0=g16
 Initial command:
 /home1/apps/gaussian/16rA.03/g16/l1.exe "/scratch/04905/jaebeomh/4357398/Gau-64999.inp" -scrdir="/scratch/04905/jaebeomh/4357398/"
 Entering Link 1 = /home1/apps/gaussian/16rA.03/g16/l1.exe PID=     65000.
  
 Copyright (c) 1988,1990,1992,1993,1995,1998,2003,2009,2016,
            Gaussian, Inc.  All Rights Reserved.
  
 This is part of the Gaussian(R) 16 program.  It is based on
 the Gaussian(R) 09 system (copyright 2009, Gaussian, Inc.),
 the Gaussian(R) 03 system (copyright 2003, Gaussian, Inc.),
 the Gaussian(R) 98 system (copyright 1998, Gaussian, Inc.),
 the Gaussian(R) 94 system (copyright 1995, Gaussian, Inc.),
 the Gaussian 92(TM) system (copyright 1992, Gaussian, Inc.),
 the Gaussian 90(TM) system (copyright 1990, Gaussian, Inc.),
 the Gaussian 88(TM) system (copyright 1988, Gaussian, Inc.),
 the Gaussian 86(TM) system (copyright 1986, Carnegie Mellon
 University), and the Gaussian 82(TM) system (copyright 1983,
 Carnegie Mellon University). Gaussian is a federally registered
 trademark of Gaussian, Inc.
  
 This software contains proprietary and confidential information,
 including trade secrets, belonging to Gaussian, Inc.
  
 This software is provided under written license and may be
 used, copied, transmitted, or stored only in accord with that
 written license.
  
 The following legend is applicable only to US Government
 contracts under FAR:
  
                    RESTRICTED RIGHTS LEGEND
  
 Use, reproduction and disclosure by the US Government is
 subject to restrictions as set forth in subparagraphs (a)
 and (c) of the Commercial Computer Software - Restricted
 Rights clause in FAR 52.227-19.
  
 Gaussian, Inc.
 340 Quinnipiac St., Bldg. 40, Wallingford CT 06492
  
  
 ---------------------------------------------------------------
 Warning -- This program may not be used in any manner that
 competes with the business of Gaussian, Inc. or will provide
 assistance to any competitor of Gaussian, Inc.  The licensee
 of this program is prohibited from giving any competitor of
 Gaussian, Inc. access to this program.  By using this program,
 the user acknowledges that Gaussian, Inc. is engaged in the
 business of creating and licensing software in the field of
 computational chemistry and represents and warrants to the
 licensee that it is not a competitor of Gaussian, Inc. and that
 it will not use this program in any manner prohibited above.
 ---------------------------------------------------------------
  

 Cite this work as:
 Gaussian 16, Revision A.03,
 M. J. Frisch, G. W. Trucks, H. B. Schlegel, G. E. Scuseria, 
 M. A. Robb, J. R. Cheeseman, G. Scalmani, V. Barone, 
 G. A. Petersson, H. Nakatsuji, X. Li, M. Caricato, A. V. Marenich, 
 J. Bloino, B. G. Janesko, R. Gomperts, B. Mennucci, H. P. Hratchian, 
 J. V. Ortiz, A. F. Izmaylov, J. L. Sonnenberg, D. Williams-Young, 
 F. Ding, F. Lipparini, F. Egidi, J. Goings, B. Peng, A. Petrone, 
 T. Henderson, D. Ranasinghe, V. G. Zakrzewski, J. Gao, N. Rega, 
 G. Zheng, W. Liang, M. Hada, M. Ehara, K. Toyota, R. Fukuda, 
 J. Hasegawa, M. Ishida, T. Nakajima, Y. Honda, O. Kitao, H. Nakai, 
 T. Vreven, K. Throssell, J. A. Montgomery, Jr., J. E. Peralta, 
 F. Ogliaro, M. J. Bearpark, J. J. Heyd, E. N. Brothers, K. N. Kudin, 
 V. N. Staroverov, T. A. Keith, R. Kobayashi, J. Normand, 
 K. Raghavachari, A. P. Rendell, J. C. Burant, S. S. Iyengar, 
 J. Tomasi, M. Cossi, J. M. Millam, M. Klene, C. Adamo, R. Cammi, 
 J. W. Ochterski, R. L. Martin, K. Morokuma, O. Farkas, 
 J. B. Foresman, and D. J. Fox, Gaussian, Inc., Wallingford CT, 2016.
 
 ******************************************
 Gaussian 16:  ES64L-G16RevA.03 25-Dec-2016
                18-Sep-2019 
 ******************************************
 %chk=CaMKII_loop3_55.0.chk
 %nprocshared=48
 Will use up to   48 processors via shared memory.
 %mem=10GB
 %nosave
 ----------------------------------------------------------------------
 #b3lyp/svp scf=(tight,noincore) Test #IOP(5/87=12) Density=Current Pop
 =(MK,readradii) iop(6/33=2) iop(6/42=6)
 ----------------------------------------------------------------------
 1/30=1,38=1,172=1/1;
 2/12=2,17=6,18=5,40=1/2;
 3/5=18,7=101,11=2,25=1,30=1,74=-5/1,2,3;
 4//1;
 5/5=4,32=2,38=5,87=12/2;
 6/7=2,8=2,9=2,10=2,15=8,20=101,22=-1,28=1,33=2,42=6/1,2;
 99/5=1,9=1/99;
 -----------------
 CaMKII_loop3_55.0
 -----------------
 Symbolic Z-matrix:
 Charge =  0 Multiplicity = 1
 C                     82.42     41.63     25.83 
 C                     82.25     40.31     26.57 
 O                     82.55     39.2      26.12 
 H                     83.437    41.702    25.446 
 H                     81.715    41.676    25. 
 H                     82.231    42.458    26.514 
 N                     81.57     40.39     27.72 
 C                     81.31     39.26     28.59 
 C                     79.95     38.6      28.47 
 O                     79.06     38.68     29.32 
 C                     81.55     39.59     30.06 
 C                     81.47     38.41     31.01 
 O                     81.66     37.32     30.45 
 O                     81.13     38.54     32.21 
 H                     81.49     41.25     28.24 
 H                     81.98     38.43     28.35 
 H                     80.91     40.41     30.38 
 H                     82.58     39.94     30.15 
 N                     79.78     37.87     27.36 
 C                     78.51     37.31     26.96 
 C                     78.1      36.19     27.9 
 O                     76.91     35.99     28.17 
 C                     78.54     36.82     25.51 
 C                     78.89     37.97     24.56 
 C                     78.8      37.51     23.11 
 C                     78.83     38.65     22.09 
 N                     80.14     39.32     22.12 
 H                     80.67     37.67     26.92 
 H                     77.68     38.02     27. 
 H                     77.66     36.28     25.19 
 H                     79.4      36.18     25.29 
 H                     79.88     38.37     24.76 
 H                     78.2      38.78     24.81 
 H                     77.84     37.02     22.95 
 H                     79.58     36.81     22.8 
 H                     78.01     39.36     22.19 
 H                     78.62     38.22     21.11 
 H                     80.09     40.13     21.53 
 H                     80.49     39.59     23.03 
 H                     80.89     38.77     21.72 
 N                     79.08     35.43     28.38 
 C                     78.86     34.28     29.23 
 C                     78.68     34.64     30.7 
 O                     78.13     33.93     31.54 
 C                     80.08     33.36     29.18 
 C                     81.38     34.08     29.53 
 O                     81.98     34.02     30.62 
 O                     81.98     34.64     28.59 
 H                     80.       35.63     28.01 
 H                     77.95     33.72     29.01 
 H                     80.25     32.95     28.19 
 H                     80.04     32.51     29.87 
 N                     78.97     35.91     31. 
 C                     78.59     36.56     32.23 
 C                     79.19     36.12     33.56 
 O                     78.66     36.37     34.64 
 H                     79.65     36.41     30.43 
 H                     77.52     36.39     32.2 
 H                     78.68     37.65     32.22 
 N                     80.38     35.53     33.43 
 C                     81.22     35.02     34.5 
 C                     81.79     36.13     35.37 
 O                     82.43     35.87     36.39 
 C                     82.25     34.11     33.83 
 C                     83.59     34.7      33.42 
 N                     84.8      34.17     33.62 
 O                     83.58     35.78     32.84 
 H                     80.89     35.49     32.56 
 H                     80.56     34.46     35.16 
 H                     81.84     33.54     32.99 
 H                     82.53     33.32     34.53 
 H                     84.85     33.48     34.36 
 H                     85.62     34.69     33.36 
 N                     81.69     37.39     34.97 
 C                     82.25     38.52     35.68 
 C                     83.6      38.96     35.15 
 O                     84.16     39.86     35.78 
 H                     81.25     37.56     34.07 
 H                     82.34     38.21     36.72 
 H                     81.56     39.36     35.67 
 N                     84.13     38.4      34.06 
 C                     85.35     38.92     33.48 
 C                     85.34     39.04     31.96 
 O                     84.49     38.44     31.32 
 C                     86.58     38.14     33.94 
 C                     86.83     37.96     35.41 
 C                     87.83     38.76     35.98 
 C                     86.28     36.92     36.17 
 C                     88.25     38.55     37.3 
 C                     86.66     36.65     37.49 
 C                     87.63     37.51     38.03 
 O                     88.       37.38     39.34 
 H                     83.64     37.59     33.7 
 H                     85.57     39.88     33.94 
 H                     87.55     38.46     33.56 
 H                     86.45     37.13     33.54 
 H                     88.24     39.56     35.39 
 H                     85.45     36.31     35.84 
 H                     88.94     39.2      37.82 
 H                     86.2      35.83     38.02 
 H                     87.41     36.79     39.81 
 N                     86.43     39.57     31.41 
 C                     86.65     39.63     29.98 
 C                     88.06     39.11     29.75 
 O                     89.01     39.75     30.2 
 C                     86.58     41.09     29.53 
 C                     85.18     41.69     29.62 
 C                     87.01     41.36     28.09 
 C                     85.12     43.21     29.52 
 H                     86.96     40.19     32. 
 H                     85.96     39.01     29.41 
 H                     87.28     41.58     30.21 
 H                     84.84     41.46     30.63 
 H                     84.47     41.37     28.85 
 H                     86.94     42.43     27.9 
 H                     87.99     41.       27.82 
 H                     86.33     40.83     27.42 
 H                     84.19     43.56     29.97 
 H                     85.93     43.73     30.04 
 H                     85.09     43.46     28.46 
 N                     88.25     38.09     28.92 
 C                     89.46     37.47     28.42 
 C                     89.87     37.96     27.03 
 O                     89.01     38.29     26.22 
 C                     89.39     35.95     28.53 
 O                     88.75     35.56     29.72 
 H                     87.44     37.53     28.67 
 H                     90.22     37.87     29.1 
 H                     90.39     35.53     28.54 
 H                     88.93     35.61     27.61 
 H                     89.2      34.79     30.06 
 N                     91.15     37.91     26.65 
 C                     91.58     38.53     25.41 
 C                     90.78     38.23     24.16 
 O                     90.38     39.1      23.39 
 C                     93.03     38.17     25.08 
 H                     91.86     37.59     27.29 
 H                     91.48     39.61     25.53 
 H                     93.78     38.36     25.85 
 H                     93.16     37.13     24.79 
 H                     93.37     38.67     24.17 
 N                     90.52     36.94     23.89 
 C                     89.7      36.47     22.79 
 C                     88.23     36.87     22.83 
 O                     87.61     36.91     21.77 
 C                     90.02     35.       22.58 
 H                     90.89     36.25     24.52 
 H                     90.14     37.       21.95 
 H                     89.78     34.73     21.55 
 H                     91.01     34.68     22.9 
 H                     89.3      34.49     23.21 
 N                     87.66     37.29     23.96 
 C                     86.33     37.87     24.03 
 C                     86.31     39.31     23.55 
 O                     85.44     39.79     22.82 
 C                     85.84     37.83     25.48 
 C                     85.89     36.5      26.23 
 C                     85.18     36.74     27.55 
 O                     83.96     37.04     27.64 
 O                     85.8      36.4      28.58 
 H                     88.26     37.34     24.77 
 H                     85.69     37.3      23.36 
 H                     84.76     37.99     25.38 
 H                     86.37     38.58     26.07 
 H                     86.92     36.16     26.36 
 H                     85.32     35.72     25.73 
 N                     87.3      40.09     24. 
 C                     87.51     41.44     23.52 
 H                     88.499    41.514    23.068 
 H                     86.752    41.684    22.776 
 H                     87.439    42.138    24.354 
 H                     87.99     39.64     24.59 
 Ca                    83.76     36.02     30.14 
 O                     86.3      35.85     31.15 
 H                     87.18     35.86     31.53 
 H                     86.42     36.16     30.25 
 
 Stoichiometry    C54H83CaN15O23
 Framework group  C1[X(C54H83CaN15O23)]
 Deg. of freedom   522
 Full point group                 C1      NOp   1
 Largest Abelian subgroup         C1      NOp   1
 Largest concise Abelian subgroup C1      NOp   1
                         Standard orientation:                         
 ---------------------------------------------------------------------
 Center     Atomic      Atomic             Coordinates (Angstroms)
 Number     Number       Type             X           Y           Z
 ---------------------------------------------------------------------
      1          6           0        2.673918    3.098445    3.928327
      2          6           0        1.754859    2.961277    2.721920
      3          8           0        2.116080    3.027159    1.543031
      4          1           0        3.524824    2.427765    3.813981
      5          1           0        3.029567    4.126223    4.000631
      6          1           0        2.126326    2.838486    4.834818
      7          7           0        0.447488    2.934928    3.007201
      8          6           0       -0.597896    2.791788    2.013177
      9          6           0       -1.285493    4.062397    1.552350
     10          8           0       -2.444258    4.370721    1.840794
     11          6           0       -1.673385    1.797021    2.438811
     12          6           0       -2.703523    1.463099    1.376449
     13          8           0       -2.301377    1.678192    0.223274
     14          8           0       -3.873830    1.117691    1.665539
     15          1           0        0.099154    2.665103    3.913986
     16          1           0       -0.184577    2.411851    1.074979
     17          1           0       -2.141018    2.110604    3.370146
     18          1           0       -1.175150    0.846907    2.640168
     19          7           0       -0.542376    4.841627    0.755808
     20          6           0       -0.931276    6.173562    0.354304
     21          6           0       -2.110305    6.120775   -0.601313
     22          8           0       -2.971695    7.007904   -0.598095
     23          6           0        0.238779    6.940838   -0.266792
     24          6           0        1.400647    7.047503    0.726277
     25          6           0        2.514742    7.914478    0.152390
     26          6           0        3.572839    8.330471    1.176246
     27          7           0        4.313138    7.148426    1.645956
     28          1           0        0.249685    4.329367    0.387122
     29          1           0       -1.274259    6.803012    1.179383
     30          1           0       -0.017927    7.897933   -0.698616
     31          1           0        0.760596    6.374054   -1.044006
     32          1           0        1.793054    6.070258    0.992937
     33          1           0        0.965631    7.440810    1.648649
     34          1           0        2.089556    8.852442   -0.203615
     35          1           0        3.063238    7.467247   -0.680458
     36          1           0        3.183971    8.920199    2.005404
     37          1           0        4.231968    9.052601    0.693050
     38          1           0        4.914534    7.434542    2.396397
     39          1           0        3.759312    6.356184    1.944502
     40          1           0        4.946176    6.761797    0.956913
     41          7           0       -2.140770    5.097121   -1.449607
     42          6           0       -3.152075    4.931936   -2.471066
     43          6           0       -4.435065    4.291984   -1.954056
     44          8           0       -5.536257    4.378199   -2.494559
     45          6           0       -2.636204    3.992471   -3.561288
     46          6           0       -2.164859    2.648519   -3.011263
     47          8           0       -2.796450    1.575848   -3.057843
     48          8           0       -0.976805    2.583553   -2.635088
     49          1           0       -1.330873    4.491627   -1.422327
     50          1           0       -3.511936    5.864076   -2.908917
     51          1           0       -1.773527    4.395091   -4.081657
     52          1           0       -3.374169    3.733989   -4.328618
     53          7           0       -4.346065    3.789900   -0.718342
     54          6           0       -5.481306    3.422207    0.091492
     55          6           0       -6.375650    2.254398   -0.307097
     56          8           0       -7.521427    2.123610    0.117035
     57          1           0       -3.441030    3.469085   -0.378801
     58          1           0       -6.022735    4.361033    0.078832
     59          1           0       -5.258108    3.265580    1.150713
     60          7           0       -5.755777    1.356246   -1.075330
     61          6           0       -6.319028    0.125102   -1.602239
     62          6           0       -6.597336   -0.899145   -0.512577
     63          8           0       -7.180349   -1.953759   -0.768476
     64          6           0       -5.371230   -0.330982   -2.711999
     65          6           0       -4.254660   -1.303344   -2.366192
     66          7           0       -3.895523   -2.394900   -3.047754
     67          8           0       -3.599624   -1.077575   -1.354828
     68          1           0       -4.765776    1.378345   -1.270289
     69          1           0       -7.299683    0.386777   -1.995485
     70          1           0       -4.953722    0.499338   -3.290666
     71          1           0       -5.946723   -0.871485   -3.466428
     72          1           0       -4.605629   -2.768452   -3.666146
     73          1           0       -3.179838   -2.997629   -2.680450
     74          7           0       -6.112627   -0.704581    0.705947
     75          6           0       -6.257048   -1.638640    1.801975
     76          6           0       -5.056842   -2.545331    1.987492
     77          8           0       -5.169060   -3.419768    2.849622
     78          1           0       -5.544434    0.124562    0.854874
     79          1           0       -7.142632   -2.232035    1.579660
     80          1           0       -6.466678   -1.112402    2.729837
     81          7           0       -3.950709   -2.385082    1.257157
     82          6           0       -2.761302   -3.161467    1.535969
     83          6           0       -1.457311   -2.371488    1.514994
     84          8           0       -1.436513   -1.268712    0.990063
     85          6           0       -2.651609   -4.385748    0.629324
     86          6           0       -3.801235   -5.349109    0.551253
     87          6           0       -3.655780   -6.558672    1.244579
     88          6           0       -4.885750   -5.195447   -0.321624
     89          6           0       -4.596847   -7.586206    1.098061
     90          6           0       -5.856339   -6.184270   -0.521339
     91          6           0       -5.691254   -7.357407    0.232714
     92          8           0       -6.636666   -8.343479    0.171414
     93          1           0       -4.018375   -1.717698    0.498329
     94          1           0       -2.891629   -3.663015    2.491513
     95          1           0       -1.789332   -5.037947    0.766490
     96          1           0       -2.534520   -3.988040   -0.383158
     97          1           0       -2.823572   -6.662952    1.917450
     98          1           0       -5.119578   -4.270190   -0.830668
     99          1           0       -4.588829   -8.494396    1.684684
    100          1           0       -6.665972   -6.004687   -1.212095
    101          1           0       -7.425318   -8.040125   -0.279258
    102          7           0       -0.357488   -3.053716    1.825568
    103          6           0        0.976963   -2.501458    1.719972
    104          6           0        1.803731   -3.540142    0.979034
    105          8           0        2.000960   -4.632229    1.511055
    106          6           0        1.550329   -2.322041    3.126408
    107          6           0        0.859888   -1.225278    3.931705
    108          6           0        3.031957   -1.959595    3.195772
    109          6           0        1.150488   -1.241168    5.428133
    110          1           0       -0.494378   -3.859918    2.412679
    111          1           0        1.016051   -1.569600    1.158267
    112          1           0        1.402723   -3.309464    3.568798
    113          1           0       -0.205016   -1.443658    3.848701
    114          1           0        1.105246   -0.195827    3.649871
    115          1           0        3.324039   -1.884939    4.242202
    116          1           0        3.700316   -2.624321    2.672001
    117          1           0        3.174966   -0.991253    2.711972
    118          1           0        0.353022   -0.711834    5.951348
    119          1           0        1.198938   -2.241231    5.869070
    120          1           0        2.074043   -0.683695    5.580679
    121          7           0        2.445963   -3.190045   -0.130187
    122          6           0        3.385393   -3.910343   -0.965137
    123          6           0        4.848630   -3.574120   -0.671554
    124          8           0        5.153100   -2.447163   -0.294905
    125          6           0        3.020635   -3.789107   -2.441502
    126          8           0        1.626533   -3.833505   -2.621250
    127          1           0        2.162085   -2.327333   -0.585536
    128          1           0        3.254120   -4.941747   -0.620209
    129          1           0        3.452073   -4.611831   -3.001400
    130          1           0        3.516515   -2.892641   -2.793712
    131          1           0        1.445644   -4.332829   -3.414316
    132          7           0        5.810050   -4.460987   -0.944390
    133          6           0        7.176232   -4.229990   -0.511854
    134          6           0        7.786730   -2.875822   -0.805148
    135          8           0        8.373454   -2.203111    0.039253
    136          6           0        8.132944   -5.263179   -1.110371
    137          1           0        5.575682   -5.372717   -1.304834
    138          1           0        7.191536   -4.291900    0.577518
    139          1           0        7.887607   -6.316473   -0.962446
    140          1           0        8.283326   -5.141459   -2.180496
    141          1           0        9.154876   -5.117958   -0.752228
    142          7           0        7.684310   -2.413293   -2.062200
    143          6           0        8.130966   -1.106861   -2.506083
    144          6           0        7.416559    0.091095   -1.892060
    145          8           0        8.009473    1.166730   -1.859455
    146          6           0        8.242643   -1.154690   -4.020230
    147          1           0        7.229234   -3.001735   -2.737878
    148          1           0        9.148644   -1.085447   -2.126644
    149          1           0        8.953908   -0.393553   -4.346072
    150          1           0        8.421380   -2.138030   -4.451500
    151          1           0        7.264911   -0.830295   -4.358179
    152          7           0        6.234524   -0.044996   -1.290002
    153          6           0        5.593317    1.004211   -0.516557
    154          6           0        6.214303    1.158283    0.860047
    155          8           0        6.469097    2.240382    1.393284
    156          6           0        4.108603    0.669587   -0.349666
    157          6           0        3.290634    0.340913   -1.597384
    158          6           0        1.848629    0.239103   -1.134396
    159          8           0        1.202532    1.206272   -0.651030
    160          8           0        1.234602   -0.797446   -1.465207
    161          1           0        5.857720   -0.980589   -1.254162
    162          1           0        5.750321    1.941668   -1.045637
    163          1           0        3.672790    1.627515   -0.042356
    164          1           0        3.991899   -0.146788    0.365465
    165          1           0        3.647773   -0.576019   -2.071816
    166          1           0        3.306069    1.146824   -2.327843
    167          7           0        6.453475    0.021225    1.524047
    168          6           0        7.176670   -0.013250    2.778161
    169          1           0        8.071472   -0.624895    2.663616
    170          1           0        7.463280    0.999358    3.061209
    171          1           0        6.541156   -0.441427    3.553137
    172          1           0        6.231268   -0.837309    1.033901
    173         20           0       -1.179258    0.155402   -1.394768
    174          8           0       -0.780039   -2.516788   -1.842682
    175          1           0       -0.656564   -3.463627   -1.927235
    176          1           0        0.092771   -2.174817   -1.638332
 ---------------------------------------------------------------------
 Rotational constants (GHZ):           0.0214746           0.0157268           0.0110035
 Standard basis: SVP (5D, 7F)
 There are  1809 symmetry adapted cartesian basis functions of A   symmetry.
 There are  1717 symmetry adapted basis functions of A   symmetry.
  1717 basis functions,  2922 primitive gaussians,  1809 cartesian basis functions
   358 alpha electrons      358 beta electrons
       nuclear repulsion energy     21551.1276452472 Hartrees.
 NAtoms=  176 NActive=  176 NUniq=  176 SFac= 1.00D+00 NAtFMM=   60 NAOKFM=T Big=T
 Integral buffers will be    131072 words long.
 Raffenetti 2 integral format.
 Two-electron integral symmetry is turned on.
 One-electron integrals computed using PRISM.
 NBasis=  1717 RedAO= T EigKep=  2.79D-04  NBF=  1717
 NBsUse=  1717 1.00D-06 EigRej= -1.00D+00 NBFU=  1717
 ExpMin= 1.98D-02 ExpMax= 3.51D+04 ExpMxC= 5.28D+03 IAcc=3 IRadAn=         5 AccDes= 0.00D+00
 Harris functional with IExCor=  402 and IRadAn=       5 diagonalized for initial guess.
 HarFok:  IExCor=  402 AccDes= 0.00D+00 IRadAn=         5 IDoV= 1 UseB2=F ITyADJ=14
 ICtDFT=  3500011 ScaDFX=  1.000000  1.000000  1.000000  1.000000
 FoFCou: FMM=F IPFlag=           0 FMFlag=      100000 FMFlg1=        2001
         NFxFlg=           0 DoJE=T BraDBF=F KetDBF=T FulRan=T
         wScrn=  0.000000 ICntrl=       500 IOpCl=  0 I1Cent=   200000004 NGrid=           0
         NMat0=    1 NMatS0=      1 NMatT0=    0 NMatD0=    1 NMtDS0=    0 NMtDT0=    0
 Petite list used in FoFCou.
 Requested convergence on RMS density matrix=1.00D-08 within 128 cycles.
 Requested convergence on MAX density matrix=1.00D-06.
 Requested convergence on             energy=1.00D-06.
 No special actions if energy rises.
 EnCoef did     4 forward-backward iterations
 EnCoef did     6 forward-backward iterations
 SCF Done:  E(RB3LYP) =  -5333.58098670     A.U. after   20 cycles
            NFock= 20  Conv=0.47D-08     -V/T= 2.0081
 SCF density gives NOpUse=  1 NOpAll=  1.
 Hyperfine terms turned off by default for NAtoms > 100.

 **********************************************************************

            Population analysis using the SCF density.

 **********************************************************************

 Orbital symmetries:
 BldTbl:  Degeneracy threshold= 1.00D-02
       Occupied  (A) (A) (A) (A) (A) (A) (A) (A) (A) (A) (A) (A)
                 (A) (A) (A) (A) (A) (A) (A) (A) (A) (A) (A) (A)
                 (A) (A) (A) (A) (A) (A) (A) (A) (A) (A) (A) (A)
                 (A) (A) (A) (A) (A) (A) (A) (A) (A) (A) (A) (A)
                 (A) (A) (A) (A) (A) (A) (A) (A) (A) (A) (A) (A)
                 (A) (A) (A) (A) (A) (A) (A) (A) (A) (A) (A) (A)
                 (A) (A) (A) (A) (A) (A) (A) (A) (A) (A) (A) (A)
                 (A) (A) (A) (A) (A) (A) (A) (A) (A) (A) (A) (A)
                 (A) (A) (A) (A) (A) (A) (A) (A) (A) (A) (A) (A)
                 (A) (A) (A) (A) (A) (A) (A) (A) (A) (A) (A) (A)
                 (A) (A) (A) (A) (A) (A) (A) (A) (A) (A) (A) (A)
                 (A) (A) (A) (A) (A) (A) (A) (A) (A) (A) (A) (A)
                 (A) (A) (A) (A) (A) (A) (A) (A) (A) (A) (A) (A)
                 (A) (A) (A) (A) (A) (A) (A) (A) (A) (A) (A) (A)
                 (A) (A) (A) (A) (A) (A) (A) (A) (A) (A) (A) (A)
                 (A) (A) (A) (A) (A) (A) (A) (A) (A) (A) (A) (A)
                 (A) (A) (A) (A) (A) (A) (A) (A) (A) (A) (A) (A)
                 (A) (A) (A) (A) (A) (A) (A) (A) (A) (A) (A) (A)
                 (A) (A) (A) (A) (A) (A) (A) (A) (A) (A) (A) (A)
                 (A) (A) (A) (A) (A) (A) (A) (A) (A) (A) (A) (A)
                 (A) (A) (A) (A) (A) (A) (A) (A) (A) (A) (A) (A)
                 (A) (A) (A) (A) (A) (A) (A) (A) (A) (A) (A) (A)
                 (A) (A) (A) (A) (A) (A) (A) (A) (A) (A) (A) (A)
                 (A) (A) (A) (A) (A) (A) (A) (A) (A) (A) (A) (A)
                 (A) (A) (A) (A) (A) (A) (A) (A) (A) (A) (A) (A)
                 (A) (A) (A) (A) (A) (A) (A) (A) (A) (A) (A) (A)
                 (A) (A) (A) (A) (A) (A) (A) (A) (A) (A) (A) (A)
                 (A) (A) (A) (A) (A) (A) (A) (A) (A) (A) (A) (A)
                 (A) (A) (A) (A) (A) (A) (A) (A) (A) (A) (A) (A)
                 (A) (A) (A) (A) (A) (A) (A) (A) (A) (A)
       Virtual   (A) (A) (A) (A) (A) (A) (A) (A) (A) (A) (A) (A)
                 (A) (A) (A) (A) (A) (A) (A) (A) (A) (A) (A) (A)
                 (A) (A) (A) (A) (A) (A) (A) (A) (A) (A) (A) (A)
                 (A) (A) (A) (A) (A) (A) (A) (A) (A) (A) (A) (A)
                 (A) (A) (A) (A) (A) (A) (A) (A) (A) (A) (A) (A)
                 (A) (A) (A) (A) (A) (A) (A) (A) (A) (A) (A) (A)
                 (A) (A) (A) (A) (A) (A) (A) (A) (A) (A) (A) (A)
                 (A) (A) (A) (A) (A) (A) (A) (A) (A) (A) (A) (A)
                 (A) (A) (A) (A) (A) (A) (A) (A) (A) (A) (A) (A)
                 (A) (A) (A) (A) (A) (A) (A) (A) (A) (A) (A) (A)
                 (A) (A) (A) (A) (A) (A) (A) (A) (A) (A) (A) (A)
                 (A) (A) (A) (A) (A) (A) (A) (A) (A) (A) (A) (A)
                 (A) (A) (A) (A) (A) (A) (A) (A) (A) (A) (A) (A)
                 (A) (A) (A) (A) (A) (A) (A) (A) (A) (A) (A) (A)
                 (A) (A) (A) (A) (A) (A) (A) (A) (A) (A) (A) (A)
                 (A) (A) (A) (A) (A) (A) (A) (A) (A) (A) (A) (A)
                 (A) (A) (A) (A) (A) (A) (A) (A) (A) (A) (A) (A)
                 (A) (A) (A) (A) (A) (A) (A) (A) (A) (A) (A) (A)
                 (A) (A) (A) (A) (A) (A) (A) (A) (A) (A) (A) (A)
                 (A) (A) (A) (A) (A) (A) (A) (A) (A) (A) (A) (A)
                 (A) (A) (A) (A) (A) (A) (A) (A) (A) (A) (A) (A)
                 (A) (A) (A) (A) (A) (A) (A) (A) (A) (A) (A) (A)
                 (A) (A) (A) (A) (A) (A) (A) (A) (A) (A) (A) (A)
                 (A) (A) (A) (A) (A) (A) (A) (A) (A) (A) (A) (A)
                 (A) (A) (A) (A) (A) (A) (A) (A) (A) (A) (A) (A)
                 (A) (A) (A) (A) (A) (A) (A) (A) (A) (A) (A) (A)
                 (A) (A) (A) (A) (A) (A) (A) (A) (A) (A) (A) (A)
                 (A) (A) (A) (A) (A) (A) (A) (A) (A) (A) (A) (A)
                 (A) (A) (A) (A) (A) (A) (A) (A) (A) (A) (A) (A)
                 (A) (A) (A) (A) (A) (A) (A) (A) (A) (A) (A) (A)
                 (A) (A) (A) (A) (A) (A) (A) (A) (A) (A) (A) (A)
                 (A) (A) (A) (A) (A) (A) (A) (A) (A) (A) (A) (A)
                 (A) (A) (A) (A) (A) (A) (A) (A) (A) (A) (A) (A)
                 (A) (A) (A) (A) (A) (A) (A) (A) (A) (A) (A) (A)
                 (A) (A) (A) (A) (A) (A) (A) (A) (A) (A) (A) (A)
                 (A) (A) (A) (A) (A) (A) (A) (A) (A) (A) (A) (A)
                 (A) (A) (A) (A) (A) (A) (A) (A) (A) (A) (A) (A)
                 (A) (A) (A) (A) (A) (A) (A) (A) (A) (A) (A) (A)
                 (A) (A) (A) (A) (A) (A) (A) (A) (A) (A) (A) (A)
                 (A) (A) (A) (A) (A) (A) (A) (A) (A) (A) (A) (A)
                 (A) (A) (A) (A) (A) (A) (A) (A) (A) (A) (A) (A)
                 (A) (A) (A) (A) (A) (A) (A) (A) (A) (A) (A) (A)
                 (A) (A) (A) (A) (A) (A) (A) (A) (A) (A) (A) (A)
                 (A) (A) (A) (A) (A) (A) (A) (A) (A) (A) (A) (A)
                 (A) (A) (A) (A) (A) (A) (A) (A) (A) (A) (A) (A)
                 (A) (A) (A) (A) (A) (A) (A) (A) (A) (A) (A) (A)
                 (A) (A) (A) (A) (A) (A) (A) (A) (A) (A) (A) (A)
                 (A) (A) (A) (A) (A) (A) (A) (A) (A) (A) (A) (A)
                 (A) (A) (A) (A) (A) (A) (A) (A) (A) (A) (A) (A)
                 (A) (A) (A) (A) (A) (A) (A) (A) (A) (A) (A) (A)
                 (A) (A) (A) (A) (A) (A) (A) (A) (A) (A) (A) (A)
                 (A) (A) (A) (A) (A) (A) (A) (A) (A) (A) (A) (A)
                 (A) (A) (A) (A) (A) (A) (A) (A) (A) (A) (A) (A)
                 (A) (A) (A) (A) (A) (A) (A) (A) (A) (A) (A) (A)
                 (A) (A) (A) (A) (A) (A) (A) (A) (A) (A) (A) (A)
                 (A) (A) (A) (A) (A) (A) (A) (A) (A) (A) (A) (A)
                 (A) (A) (A) (A) (A) (A) (A) (A) (A) (A) (A) (A)
                 (A) (A) (A) (A) (A) (A) (A) (A) (A) (A) (A) (A)
                 (A) (A) (A) (A) (A) (A) (A) (A) (A) (A) (A) (A)
                 (A) (A) (A) (A) (A) (A) (A) (A) (A) (A) (A) (A)
                 (A) (A) (A) (A) (A) (A) (A) (A) (A) (A) (A) (A)
                 (A) (A) (A) (A) (A) (A) (A) (A) (A) (A) (A) (A)
                 (A) (A) (A) (A) (A) (A) (A) (A) (A) (A) (A) (A)
                 (A) (A) (A) (A) (A) (A) (A) (A) (A) (A) (A) (A)
                 (A) (A) (A) (A) (A) (A) (A) (A) (A) (A) (A) (A)
                 (A) (A) (A) (A) (A) (A) (A) (A) (A) (A) (A) (A)
                 (A) (A) (A) (A) (A) (A) (A) (A) (A) (A) (A) (A)
                 (A) (A) (A) (A) (A) (A) (A) (A) (A) (A) (A) (A)
                 (A) (A) (A) (A) (A) (A) (A) (A) (A) (A) (A) (A)
                 (A) (A) (A) (A) (A) (A) (A) (A) (A) (A) (A) (A)
                 (A) (A) (A) (A) (A) (A) (A) (A) (A) (A) (A) (A)
                 (A) (A) (A) (A) (A) (A) (A) (A) (A) (A) (A) (A)
                 (A) (A) (A) (A) (A) (A) (A) (A) (A) (A) (A) (A)
                 (A) (A) (A) (A) (A) (A) (A) (A) (A) (A) (A) (A)
                 (A) (A) (A) (A) (A) (A) (A) (A) (A) (A) (A) (A)
                 (A) (A) (A) (A) (A) (A) (A) (A) (A) (A) (A) (A)
                 (A) (A) (A) (A) (A) (A) (A) (A) (A) (A) (A) (A)
                 (A) (A) (A) (A) (A) (A) (A) (A) (A) (A) (A) (A)
                 (A) (A) (A) (A) (A) (A) (A) (A) (A) (A) (A) (A)
                 (A) (A) (A) (A) (A) (A) (A) (A) (A) (A) (A) (A)
                 (A) (A) (A) (A) (A) (A) (A) (A) (A) (A) (A) (A)
                 (A) (A) (A) (A) (A) (A) (A) (A) (A) (A) (A) (A)
                 (A) (A) (A) (A) (A) (A) (A) (A) (A) (A) (A) (A)
                 (A) (A) (A) (A) (A) (A) (A) (A) (A) (A) (A) (A)
                 (A) (A) (A) (A) (A) (A) (A) (A) (A) (A) (A) (A)
                 (A) (A) (A) (A) (A) (A) (A) (A) (A) (A) (A) (A)
                 (A) (A) (A) (A) (A) (A) (A) (A) (A) (A) (A) (A)
                 (A) (A) (A) (A) (A) (A) (A) (A) (A) (A) (A) (A)
                 (A) (A) (A) (A) (A) (A) (A) (A) (A) (A) (A) (A)
                 (A) (A) (A) (A) (A) (A) (A) (A) (A) (A) (A) (A)
                 (A) (A) (A) (A) (A) (A) (A) (A) (A) (A) (A) (A)
                 (A) (A) (A) (A) (A) (A) (A) (A) (A) (A) (A) (A)
                 (A) (A) (A) (A) (A) (A) (A) (A) (A) (A) (A) (A)
                 (A) (A) (A) (A) (A) (A) (A) (A) (A) (A) (A) (A)
                 (A) (A) (A) (A) (A) (A) (A) (A) (A) (A) (A) (A)
                 (A) (A) (A) (A) (A) (A) (A) (A) (A) (A) (A) (A)
                 (A) (A) (A) (A) (A) (A) (A) (A) (A) (A) (A) (A)
                 (A) (A) (A) (A) (A) (A) (A) (A) (A) (A) (A) (A)
                 (A) (A) (A) (A) (A) (A) (A) (A) (A) (A) (A) (A)
                 (A) (A) (A) (A) (A) (A) (A) (A) (A) (A) (A) (A)
                 (A) (A) (A) (A) (A) (A) (A) (A) (A) (A) (A) (A)
                 (A) (A) (A) (A) (A) (A) (A) (A) (A) (A) (A) (A)
                 (A) (A) (A) (A) (A) (A) (A) (A) (A) (A) (A) (A)
                 (A) (A) (A) (A) (A) (A) (A) (A) (A) (A) (A) (A)
                 (A) (A) (A) (A) (A) (A) (A) (A) (A) (A) (A) (A)
                 (A) (A) (A) (A) (A) (A) (A) (A) (A) (A) (A) (A)
                 (A) (A) (A) (A) (A) (A) (A) (A) (A) (A) (A) (A)
                 (A) (A) (A) (A) (A) (A) (A) (A) (A) (A) (A) (A)
                 (A) (A) (A) (A) (A) (A) (A) (A) (A) (A) (A) (A)
                 (A) (A) (A) (A) (A) (A) (A) (A) (A) (A) (A) (A)
                 (A) (A) (A) (A) (A) (A) (A) (A) (A) (A) (A) (A)
                 (A) (A) (A) (A) (A) (A) (A) (A) (A) (A) (A) (A)
                 (A) (A) (A) (A) (A) (A) (A) (A) (A) (A) (A) (A)
                 (A) (A) (A)
 The electronic state is 1-A.
 Alpha  occ. eigenvalues -- -145.35896 -19.17830 -19.15166 -19.13828 -19.13777
 Alpha  occ. eigenvalues --  -19.11761 -19.10555 -19.10503 -19.10215 -19.09622
 Alpha  occ. eigenvalues --  -19.09076 -19.08685 -19.08129 -19.07889 -19.07007
 Alpha  occ. eigenvalues --  -19.06416 -19.04604 -19.04423 -19.04254 -19.03710
 Alpha  occ. eigenvalues --  -19.03566 -19.03559 -19.03292 -19.01937 -15.41611
 Alpha  occ. eigenvalues --  -14.58213 -14.41234 -14.37579 -14.36357 -14.36292
 Alpha  occ. eigenvalues --  -14.36148 -14.35637 -14.34567 -14.34412 -14.33523
 Alpha  occ. eigenvalues --  -14.32257 -14.31304 -14.29540 -14.29029 -14.28498
 Alpha  occ. eigenvalues --  -12.55230 -12.55197 -12.55173 -10.35253 -10.33483
 Alpha  occ. eigenvalues --  -10.30786 -10.29616 -10.29012 -10.29010 -10.28770
 Alpha  occ. eigenvalues --  -10.28248 -10.27844 -10.27798 -10.27495 -10.27009
 Alpha  occ. eigenvalues --  -10.26800 -10.26482 -10.26363 -10.25260 -10.24563
 Alpha  occ. eigenvalues --  -10.24408 -10.23640 -10.23607 -10.23500 -10.23221
 Alpha  occ. eigenvalues --  -10.23129 -10.23027 -10.22956 -10.22462 -10.22308
 Alpha  occ. eigenvalues --  -10.22213 -10.22207 -10.22066 -10.21756 -10.21620
 Alpha  occ. eigenvalues --  -10.20814 -10.20724 -10.20454 -10.19928 -10.19914
 Alpha  occ. eigenvalues --  -10.19518 -10.18291 -10.18153 -10.18024 -10.18004
 Alpha  occ. eigenvalues --  -10.17995 -10.17824 -10.17807 -10.17689 -10.17145
 Alpha  occ. eigenvalues --  -10.16894 -10.16835 -10.16773 -10.16734 -10.15467
 Alpha  occ. eigenvalues --  -10.15447 -10.14791  -1.78459  -1.13553  -1.08752
 Alpha  occ. eigenvalues --   -1.06287  -1.06147  -1.06091  -1.05848  -1.04868
 Alpha  occ. eigenvalues --   -1.04089  -1.03539  -1.03224  -1.03177  -1.02886
 Alpha  occ. eigenvalues --   -1.02595  -1.02127  -1.01245  -1.00598  -1.00095
 Alpha  occ. eigenvalues --   -0.99538  -0.99051  -0.98249  -0.97600  -0.97494
 Alpha  occ. eigenvalues --   -0.97473  -0.96690  -0.95735  -0.94318  -0.93663
 Alpha  occ. eigenvalues --   -0.93348  -0.92312  -0.92055  -0.91741  -0.91653
 Alpha  occ. eigenvalues --   -0.89985  -0.89303  -0.89220  -0.89003  -0.88362
 Alpha  occ. eigenvalues --   -0.88000  -0.87661  -0.87360  -0.85835  -0.84689
 Alpha  occ. eigenvalues --   -0.83048  -0.82770  -0.82758  -0.82048  -0.79884
 Alpha  occ. eigenvalues --   -0.78906  -0.78150  -0.77912  -0.77157  -0.76621
 Alpha  occ. eigenvalues --   -0.75228  -0.74776  -0.74609  -0.73136  -0.72963
 Alpha  occ. eigenvalues --   -0.72399  -0.71904  -0.71767  -0.71680  -0.70551
 Alpha  occ. eigenvalues --   -0.70265  -0.68976  -0.68966  -0.68711  -0.68105
 Alpha  occ. eigenvalues --   -0.67166  -0.66542  -0.65452  -0.65186  -0.64474
 Alpha  occ. eigenvalues --   -0.63790  -0.63325  -0.63018  -0.62745  -0.61960
 Alpha  occ. eigenvalues --   -0.61877  -0.61281  -0.60681  -0.60430  -0.59973
 Alpha  occ. eigenvalues --   -0.59700  -0.59116  -0.58428  -0.58091  -0.57767
 Alpha  occ. eigenvalues --   -0.57249  -0.56788  -0.56377  -0.56352  -0.56218
 Alpha  occ. eigenvalues --   -0.55801  -0.55378  -0.55139  -0.54905  -0.54715
 Alpha  occ. eigenvalues --   -0.54613  -0.54180  -0.53567  -0.53481  -0.53064
 Alpha  occ. eigenvalues --   -0.52910  -0.52793  -0.52587  -0.51962  -0.51424
 Alpha  occ. eigenvalues --   -0.51318  -0.51229  -0.50817  -0.50484  -0.50194
 Alpha  occ. eigenvalues --   -0.49696  -0.49250  -0.49095  -0.48972  -0.48801
 Alpha  occ. eigenvalues --   -0.48636  -0.48423  -0.48231  -0.48007  -0.47935
 Alpha  occ. eigenvalues --   -0.47598  -0.47204  -0.46927  -0.46599  -0.46542
 Alpha  occ. eigenvalues --   -0.46372  -0.46153  -0.45915  -0.45817  -0.45744
 Alpha  occ. eigenvalues --   -0.45692  -0.45482  -0.45144  -0.45004  -0.44913
 Alpha  occ. eigenvalues --   -0.44751  -0.44500  -0.44192  -0.43777  -0.43614
 Alpha  occ. eigenvalues --   -0.43539  -0.43360  -0.43174  -0.42928  -0.42778
 Alpha  occ. eigenvalues --   -0.42660  -0.42625  -0.42388  -0.42191  -0.42055
 Alpha  occ. eigenvalues --   -0.42042  -0.41893  -0.41638  -0.41516  -0.41304
 Alpha  occ. eigenvalues --   -0.41215  -0.41097  -0.40860  -0.40731  -0.40629
 Alpha  occ. eigenvalues --   -0.40580  -0.40401  -0.40376  -0.40097  -0.39863
 Alpha  occ. eigenvalues --   -0.39822  -0.39676  -0.39611  -0.39479  -0.39378
 Alpha  occ. eigenvalues --   -0.39315  -0.39121  -0.38864  -0.38732  -0.38679
 Alpha  occ. eigenvalues --   -0.38454  -0.38312  -0.38126  -0.38048  -0.38034
 Alpha  occ. eigenvalues --   -0.37924  -0.37723  -0.37614  -0.37449  -0.37180
 Alpha  occ. eigenvalues --   -0.37051  -0.36900  -0.36750  -0.36482  -0.36382
 Alpha  occ. eigenvalues --   -0.36275  -0.35791  -0.35612  -0.35411  -0.35201
 Alpha  occ. eigenvalues --   -0.34926  -0.34825  -0.34711  -0.34496  -0.34467
 Alpha  occ. eigenvalues --   -0.34362  -0.34182  -0.33957  -0.33730  -0.33609
 Alpha  occ. eigenvalues --   -0.33424  -0.33388  -0.32892  -0.32596  -0.32480
 Alpha  occ. eigenvalues --   -0.32316  -0.32065  -0.31846  -0.31688  -0.31456
 Alpha  occ. eigenvalues --   -0.31329  -0.31116  -0.30864  -0.30788  -0.30257
 Alpha  occ. eigenvalues --   -0.29074  -0.29026  -0.28341  -0.28114  -0.27926
 Alpha  occ. eigenvalues --   -0.27608  -0.27356  -0.26997  -0.26576  -0.26518
 Alpha  occ. eigenvalues --   -0.26278  -0.26093  -0.25655  -0.25379  -0.25284
 Alpha  occ. eigenvalues --   -0.24388  -0.24185  -0.23963  -0.23781  -0.23354
 Alpha  occ. eigenvalues --   -0.23222  -0.23034  -0.22976  -0.22901  -0.22393
 Alpha  occ. eigenvalues --   -0.22275  -0.21953  -0.21588  -0.21355  -0.20747
 Alpha  occ. eigenvalues --   -0.20254  -0.19845  -0.19300  -0.19203  -0.19163
 Alpha  occ. eigenvalues --   -0.18776  -0.18091  -0.17811
 Alpha virt. eigenvalues --   -0.09793  -0.04623  -0.04268  -0.04026  -0.01237
 Alpha virt. eigenvalues --   -0.00999  -0.00652  -0.00182   0.00150   0.00394
 Alpha virt. eigenvalues --    0.00420   0.01173   0.01278   0.01672   0.02049
 Alpha virt. eigenvalues --    0.02203   0.02516   0.02624   0.02675   0.03072
 Alpha virt. eigenvalues --    0.03299   0.03583   0.03859   0.04074   0.04255
 Alpha virt. eigenvalues --    0.04729   0.04904   0.05244   0.05910   0.06164
 Alpha virt. eigenvalues --    0.06191   0.06495   0.06603   0.06689   0.06849
 Alpha virt. eigenvalues --    0.07160   0.07232   0.07553   0.07657   0.07779
 Alpha virt. eigenvalues --    0.08023   0.08149   0.08458   0.08818   0.08870
 Alpha virt. eigenvalues --    0.09086   0.09398   0.09535   0.09692   0.09783
 Alpha virt. eigenvalues --    0.10001   0.10135   0.10386   0.10455   0.10711
 Alpha virt. eigenvalues --    0.10796   0.11068   0.11246   0.11467   0.11596
 Alpha virt. eigenvalues --    0.11790   0.12166   0.12355   0.12411   0.12654
 Alpha virt. eigenvalues --    0.12735   0.12935   0.13185   0.13307   0.13433
 Alpha virt. eigenvalues --    0.13754   0.13873   0.13953   0.14174   0.14315
 Alpha virt. eigenvalues --    0.14457   0.14598   0.14676   0.15340   0.15548
 Alpha virt. eigenvalues --    0.15585   0.15676   0.15886   0.15946   0.16053
 Alpha virt. eigenvalues --    0.16319   0.16500   0.16571   0.16806   0.16965
 Alpha virt. eigenvalues --    0.17056   0.17233   0.17285   0.17621   0.17730
 Alpha virt. eigenvalues --    0.18049   0.18159   0.18374   0.18588   0.18675
 Alpha virt. eigenvalues --    0.18897   0.18999   0.19146   0.19210   0.19325
 Alpha virt. eigenvalues --    0.19468   0.19622   0.19742   0.20036   0.20081
 Alpha virt. eigenvalues --    0.20395   0.20609   0.20735   0.20897   0.21194
 Alpha virt. eigenvalues --    0.21574   0.21719   0.21873   0.22187   0.22492
 Alpha virt. eigenvalues --    0.22609   0.22773   0.22919   0.23446   0.23622
 Alpha virt. eigenvalues --    0.23738   0.24006   0.24246   0.24526   0.24614
 Alpha virt. eigenvalues --    0.24754   0.24952   0.25059   0.25365   0.25794
 Alpha virt. eigenvalues --    0.25890   0.26202   0.26284   0.26441   0.26689
 Alpha virt. eigenvalues --    0.26751   0.27275   0.27348   0.27832   0.27886
 Alpha virt. eigenvalues --    0.28122   0.28218   0.28469   0.28815   0.28864
 Alpha virt. eigenvalues --    0.29288   0.29476   0.29731   0.30299   0.30514
 Alpha virt. eigenvalues --    0.30830   0.31014   0.31231   0.31364   0.31472
 Alpha virt. eigenvalues --    0.31859   0.32086   0.32115   0.32498   0.32581
 Alpha virt. eigenvalues --    0.32846   0.32985   0.33284   0.33544   0.33935
 Alpha virt. eigenvalues --    0.33975   0.34203   0.34501   0.34953   0.35080
 Alpha virt. eigenvalues --    0.35169   0.35862   0.35993   0.36169   0.36393
 Alpha virt. eigenvalues --    0.36978   0.37373   0.37494   0.37987   0.38295
 Alpha virt. eigenvalues --    0.38329   0.38864   0.38915   0.39061   0.39445
 Alpha virt. eigenvalues --    0.39797   0.40001   0.40365   0.40672   0.40778
 Alpha virt. eigenvalues --    0.41213   0.41250   0.41415   0.41963   0.41993
 Alpha virt. eigenvalues --    0.42173   0.42445   0.42746   0.42786   0.43037
 Alpha virt. eigenvalues --    0.43268   0.43583   0.43650   0.43810   0.44071
 Alpha virt. eigenvalues --    0.44296   0.44672   0.44872   0.45036   0.45316
 Alpha virt. eigenvalues --    0.45528   0.45595   0.45762   0.46028   0.46134
 Alpha virt. eigenvalues --    0.46405   0.46533   0.46670   0.46793   0.46881
 Alpha virt. eigenvalues --    0.47360   0.47605   0.47656   0.47852   0.47992
 Alpha virt. eigenvalues --    0.48021   0.48145   0.48519   0.48957   0.49123
 Alpha virt. eigenvalues --    0.49230   0.49531   0.49748   0.49920   0.50125
 Alpha virt. eigenvalues --    0.50441   0.50479   0.50935   0.50977   0.51065
 Alpha virt. eigenvalues --    0.51218   0.51588   0.51699   0.51842   0.51973
 Alpha virt. eigenvalues --    0.52334   0.52654   0.52789   0.52901   0.53382
 Alpha virt. eigenvalues --    0.53574   0.53705   0.53828   0.54183   0.54401
 Alpha virt. eigenvalues --    0.54535   0.54712   0.54903   0.55077   0.55260
 Alpha virt. eigenvalues --    0.55407   0.55458   0.55931   0.56032   0.56424
 Alpha virt. eigenvalues --    0.56505   0.56565   0.56671   0.56919   0.57153
 Alpha virt. eigenvalues --    0.57272   0.57539   0.57575   0.57664   0.57912
 Alpha virt. eigenvalues --    0.58063   0.58235   0.58258   0.58315   0.58669
 Alpha virt. eigenvalues --    0.58732   0.58915   0.59178   0.59222   0.59321
 Alpha virt. eigenvalues --    0.59579   0.59829   0.59999   0.60065   0.60162
 Alpha virt. eigenvalues --    0.60331   0.60551   0.60610   0.60797   0.60883
 Alpha virt. eigenvalues --    0.61071   0.61122   0.61479   0.61591   0.61832
 Alpha virt. eigenvalues --    0.61856   0.62028   0.62173   0.62214   0.62355
 Alpha virt. eigenvalues --    0.62433   0.62540   0.62832   0.62924   0.63012
 Alpha virt. eigenvalues --    0.63199   0.63334   0.63362   0.63481   0.63588
 Alpha virt. eigenvalues --    0.63662   0.63797   0.63835   0.64047   0.64164
 Alpha virt. eigenvalues --    0.64193   0.64338   0.64491   0.64714   0.64785
 Alpha virt. eigenvalues --    0.64995   0.65148   0.65245   0.65387   0.65418
 Alpha virt. eigenvalues --    0.65594   0.65684   0.65799   0.65921   0.66018
 Alpha virt. eigenvalues --    0.66096   0.66157   0.66299   0.66403   0.66420
 Alpha virt. eigenvalues --    0.66618   0.66785   0.66847   0.66995   0.67111
 Alpha virt. eigenvalues --    0.67220   0.67359   0.67430   0.67591   0.67672
 Alpha virt. eigenvalues --    0.67786   0.67946   0.68057   0.68252   0.68310
 Alpha virt. eigenvalues --    0.68476   0.68525   0.68627   0.68670   0.68839
 Alpha virt. eigenvalues --    0.69010   0.69063   0.69233   0.69281   0.69362
 Alpha virt. eigenvalues --    0.69432   0.69763   0.69778   0.69962   0.70083
 Alpha virt. eigenvalues --    0.70120   0.70415   0.70456   0.70627   0.70674
 Alpha virt. eigenvalues --    0.70752   0.70963   0.71080   0.71142   0.71425
 Alpha virt. eigenvalues --    0.71446   0.71479   0.71730   0.72005   0.72104
 Alpha virt. eigenvalues --    0.72240   0.72383   0.72508   0.72713   0.72809
 Alpha virt. eigenvalues --    0.73106   0.73165   0.73318   0.73606   0.73658
 Alpha virt. eigenvalues --    0.73851   0.74113   0.74409   0.74620   0.74664
 Alpha virt. eigenvalues --    0.74964   0.75190   0.75483   0.75719   0.75792
 Alpha virt. eigenvalues --    0.76082   0.76501   0.76712   0.76833   0.76924
 Alpha virt. eigenvalues --    0.77045   0.77235   0.77291   0.77548   0.77996
 Alpha virt. eigenvalues --    0.78112   0.78347   0.78543   0.78640   0.79224
 Alpha virt. eigenvalues --    0.79377   0.79606   0.79721   0.80049   0.80339
 Alpha virt. eigenvalues --    0.80596   0.80658   0.80978   0.81410   0.81600
 Alpha virt. eigenvalues --    0.81831   0.82134   0.82281   0.82550   0.82793
 Alpha virt. eigenvalues --    0.83086   0.83358   0.83503   0.83829   0.84063
 Alpha virt. eigenvalues --    0.84271   0.84707   0.84951   0.85092   0.85698
 Alpha virt. eigenvalues --    0.86116   0.86181   0.86559   0.86773   0.87054
 Alpha virt. eigenvalues --    0.87201   0.87616   0.88047   0.88156   0.88337
 Alpha virt. eigenvalues --    0.88534   0.88929   0.89112   0.89630   0.89743
 Alpha virt. eigenvalues --    0.90032   0.90101   0.90627   0.90910   0.91003
 Alpha virt. eigenvalues --    0.91348   0.91790   0.92599   0.92791   0.92881
 Alpha virt. eigenvalues --    0.93034   0.93774   0.93823   0.94121   0.94548
 Alpha virt. eigenvalues --    0.95073   0.95250   0.95916   0.96089   0.96512
 Alpha virt. eigenvalues --    0.96607   0.96876   0.97075   0.97619   0.97754
 Alpha virt. eigenvalues --    0.98097   0.98390   0.98626   0.98764   0.99134
 Alpha virt. eigenvalues --    0.99222   0.99418   1.00117   1.00347   1.00637
 Alpha virt. eigenvalues --    1.00689   1.01172   1.01268   1.01503   1.01903
 Alpha virt. eigenvalues --    1.02153   1.02352   1.02679   1.02848   1.03139
 Alpha virt. eigenvalues --    1.03461   1.03722   1.03819   1.04171   1.04839
 Alpha virt. eigenvalues --    1.04950   1.05048   1.05582   1.05798   1.06003
 Alpha virt. eigenvalues --    1.06520   1.06730   1.07114   1.07420   1.07489
 Alpha virt. eigenvalues --    1.07641   1.07984   1.08269   1.08601   1.08870
 Alpha virt. eigenvalues --    1.09192   1.09568   1.09588   1.09744   1.10059
 Alpha virt. eigenvalues --    1.10512   1.10646   1.10898   1.11446   1.11542
 Alpha virt. eigenvalues --    1.11839   1.11872   1.12264   1.12562   1.12817
 Alpha virt. eigenvalues --    1.13000   1.13155   1.13662   1.13734   1.13997
 Alpha virt. eigenvalues --    1.14407   1.14487   1.14924   1.15401   1.15517
 Alpha virt. eigenvalues --    1.15990   1.16108   1.16390   1.16539   1.16953
 Alpha virt. eigenvalues --    1.17058   1.17554   1.17667   1.17794   1.18207
 Alpha virt. eigenvalues --    1.18666   1.18761   1.19022   1.19404   1.19690
 Alpha virt. eigenvalues --    1.19878   1.20124   1.20498   1.20618   1.20791
 Alpha virt. eigenvalues --    1.21439   1.21665   1.22004   1.22131   1.22183
 Alpha virt. eigenvalues --    1.22542   1.22709   1.23236   1.23484   1.23665
 Alpha virt. eigenvalues --    1.23763   1.24458   1.24875   1.25225   1.25298
 Alpha virt. eigenvalues --    1.25868   1.26063   1.26423   1.26596   1.26705
 Alpha virt. eigenvalues --    1.26803   1.26936   1.27119   1.27673   1.27774
 Alpha virt. eigenvalues --    1.27880   1.28117   1.28326   1.28690   1.29083
 Alpha virt. eigenvalues --    1.29200   1.29535   1.29655   1.29886   1.30066
 Alpha virt. eigenvalues --    1.30604   1.30960   1.31398   1.31699   1.31768
 Alpha virt. eigenvalues --    1.32145   1.32440   1.32639   1.32803   1.33287
 Alpha virt. eigenvalues --    1.33405   1.33922   1.34011   1.34273   1.34535
 Alpha virt. eigenvalues --    1.34838   1.35366   1.35586   1.35851   1.36203
 Alpha virt. eigenvalues --    1.36227   1.36689   1.36846   1.37132   1.37632
 Alpha virt. eigenvalues --    1.37760   1.37926   1.38082   1.38383   1.38556
 Alpha virt. eigenvalues --    1.38612   1.39058   1.39175   1.39835   1.40093
 Alpha virt. eigenvalues --    1.40309   1.40612   1.41047   1.41226   1.41319
 Alpha virt. eigenvalues --    1.41353   1.41592   1.42061   1.42249   1.42577
 Alpha virt. eigenvalues --    1.42950   1.43043   1.43527   1.44094   1.44415
 Alpha virt. eigenvalues --    1.44620   1.44765   1.45496   1.45771   1.46079
 Alpha virt. eigenvalues --    1.46400   1.46576   1.46814   1.46978   1.47600
 Alpha virt. eigenvalues --    1.47783   1.47992   1.48131   1.48513   1.48903
 Alpha virt. eigenvalues --    1.48953   1.49051   1.49109   1.49785   1.49928
 Alpha virt. eigenvalues --    1.50323   1.50478   1.50882   1.51171   1.51394
 Alpha virt. eigenvalues --    1.51805   1.51976   1.52658   1.52860   1.53114
 Alpha virt. eigenvalues --    1.53166   1.53384   1.53482   1.53642   1.54065
 Alpha virt. eigenvalues --    1.54873   1.55152   1.55334   1.55417   1.55813
 Alpha virt. eigenvalues --    1.56142   1.56571   1.56612   1.56762   1.57314
 Alpha virt. eigenvalues --    1.57926   1.58231   1.59071   1.59097   1.59371
 Alpha virt. eigenvalues --    1.59664   1.60000   1.60582   1.60864   1.61230
 Alpha virt. eigenvalues --    1.61632   1.61922   1.62257   1.62425   1.62619
 Alpha virt. eigenvalues --    1.62833   1.63067   1.63437   1.63657   1.63828
 Alpha virt. eigenvalues --    1.64224   1.64297   1.64544   1.64813   1.64939
 Alpha virt. eigenvalues --    1.65050   1.65814   1.66166   1.66493   1.66666
 Alpha virt. eigenvalues --    1.66872   1.67288   1.67491   1.67647   1.68270
 Alpha virt. eigenvalues --    1.68384   1.68538   1.68831   1.69016   1.69408
 Alpha virt. eigenvalues --    1.69786   1.70008   1.70196   1.70506   1.70630
 Alpha virt. eigenvalues --    1.70858   1.70976   1.71054   1.71713   1.71918
 Alpha virt. eigenvalues --    1.72091   1.72410   1.72696   1.73236   1.73269
 Alpha virt. eigenvalues --    1.73568   1.73714   1.73793   1.74282   1.74479
 Alpha virt. eigenvalues --    1.74625   1.74770   1.74978   1.75394   1.75652
 Alpha virt. eigenvalues --    1.75836   1.76031   1.76132   1.76275   1.76561
 Alpha virt. eigenvalues --    1.76918   1.77002   1.77117   1.77295   1.77702
 Alpha virt. eigenvalues --    1.77839   1.77896   1.78053   1.78086   1.78202
 Alpha virt. eigenvalues --    1.78275   1.78480   1.78708   1.78958   1.79069
 Alpha virt. eigenvalues --    1.79186   1.79310   1.79462   1.79672   1.79708
 Alpha virt. eigenvalues --    1.79879   1.80002   1.80092   1.80272   1.80498
 Alpha virt. eigenvalues --    1.80616   1.80759   1.80983   1.81077   1.81148
 Alpha virt. eigenvalues --    1.81406   1.81649   1.81677   1.81963   1.82063
 Alpha virt. eigenvalues --    1.82295   1.82442   1.82514   1.82698   1.82722
 Alpha virt. eigenvalues --    1.83056   1.83200   1.83300   1.83791   1.83899
 Alpha virt. eigenvalues --    1.84031   1.84433   1.84566   1.84639   1.84737
 Alpha virt. eigenvalues --    1.85055   1.85217   1.85296   1.85333   1.85733
 Alpha virt. eigenvalues --    1.85898   1.85933   1.86238   1.86532   1.86768
 Alpha virt. eigenvalues --    1.87167   1.87183   1.87426   1.87482   1.87716
 Alpha virt. eigenvalues --    1.87978   1.88025   1.88507   1.88839   1.88983
 Alpha virt. eigenvalues --    1.89078   1.89389   1.89423   1.89639   1.89656
 Alpha virt. eigenvalues --    1.89806   1.90200   1.90344   1.90494   1.90703
 Alpha virt. eigenvalues --    1.91000   1.91151   1.91342   1.91491   1.91911
 Alpha virt. eigenvalues --    1.92058   1.92253   1.92666   1.92695   1.92912
 Alpha virt. eigenvalues --    1.93147   1.93169   1.93368   1.93484   1.93624
 Alpha virt. eigenvalues --    1.93914   1.94323   1.94518   1.94593   1.94883
 Alpha virt. eigenvalues --    1.95283   1.95373   1.95527   1.95958   1.96029
 Alpha virt. eigenvalues --    1.96305   1.96347   1.96898   1.97159   1.97455
 Alpha virt. eigenvalues --    1.97631   1.97692   1.98108   1.98380   1.98420
 Alpha virt. eigenvalues --    1.98751   1.98913   1.99063   1.99294   1.99605
 Alpha virt. eigenvalues --    1.99815   1.99954   2.00278   2.00595   2.00658
 Alpha virt. eigenvalues --    2.01122   2.01185   2.01329   2.01492   2.01893
 Alpha virt. eigenvalues --    2.02452   2.02762   2.02911   2.03016   2.03363
 Alpha virt. eigenvalues --    2.03436   2.03580   2.04112   2.04247   2.04407
 Alpha virt. eigenvalues --    2.04574   2.04891   2.05103   2.05354   2.05409
 Alpha virt. eigenvalues --    2.05737   2.06277   2.06380   2.06430   2.06847
 Alpha virt. eigenvalues --    2.07487   2.07641   2.07866   2.08033   2.08237
 Alpha virt. eigenvalues --    2.08432   2.08518   2.08659   2.09168   2.09308
 Alpha virt. eigenvalues --    2.09565   2.10186   2.10411   2.10809   2.11071
 Alpha virt. eigenvalues --    2.11440   2.11765   2.11990   2.12036   2.12523
 Alpha virt. eigenvalues --    2.12960   2.13028   2.13327   2.13627   2.13741
 Alpha virt. eigenvalues --    2.14087   2.14251   2.14490   2.14556   2.14755
 Alpha virt. eigenvalues --    2.15200   2.16274   2.16460   2.16590   2.16780
 Alpha virt. eigenvalues --    2.17178   2.17385   2.17542   2.17806   2.18278
 Alpha virt. eigenvalues --    2.18329   2.18872   2.18946   2.19199   2.19519
 Alpha virt. eigenvalues --    2.20348   2.20703   2.20899   2.21137   2.21501
 Alpha virt. eigenvalues --    2.22009   2.22328   2.22504   2.22656   2.22701
 Alpha virt. eigenvalues --    2.22942   2.23502   2.23678   2.24255   2.24404
 Alpha virt. eigenvalues --    2.24850   2.25258   2.25647   2.25795   2.26075
 Alpha virt. eigenvalues --    2.26759   2.26804   2.27039   2.27075   2.27282
 Alpha virt. eigenvalues --    2.27572   2.27691   2.28045   2.28696   2.29069
 Alpha virt. eigenvalues --    2.29483   2.30317   2.30556   2.31301   2.31617
 Alpha virt. eigenvalues --    2.32224   2.32453   2.32858   2.33130   2.33333
 Alpha virt. eigenvalues --    2.33399   2.33727   2.33885   2.34058   2.34518
 Alpha virt. eigenvalues --    2.34647   2.34869   2.35687   2.35864   2.36026
 Alpha virt. eigenvalues --    2.36320   2.36573   2.36864   2.37101   2.37174
 Alpha virt. eigenvalues --    2.37447   2.37863   2.38403   2.38591   2.38803
 Alpha virt. eigenvalues --    2.39124   2.39334   2.39810   2.40021   2.40062
 Alpha virt. eigenvalues --    2.40332   2.40705   2.41000   2.41189   2.41532
 Alpha virt. eigenvalues --    2.41997   2.42406   2.42649   2.43129   2.43625
 Alpha virt. eigenvalues --    2.43803   2.44144   2.44564   2.44954   2.45213
 Alpha virt. eigenvalues --    2.45891   2.46056   2.46122   2.46308   2.46484
 Alpha virt. eigenvalues --    2.46743   2.47154   2.47312   2.47485   2.47695
 Alpha virt. eigenvalues --    2.47870   2.47968   2.48665   2.49048   2.49461
 Alpha virt. eigenvalues --    2.49514   2.50159   2.50386   2.50523   2.50841
 Alpha virt. eigenvalues --    2.51186   2.51804   2.51955   2.52525   2.53070
 Alpha virt. eigenvalues --    2.53393   2.53950   2.54248   2.54386   2.54905
 Alpha virt. eigenvalues --    2.55465   2.55711   2.56358   2.56587   2.56739
 Alpha virt. eigenvalues --    2.57313   2.57838   2.58447   2.58527   2.58707
 Alpha virt. eigenvalues --    2.59327   2.59524   2.59759   2.60110   2.60566
 Alpha virt. eigenvalues --    2.60608   2.60689   2.60919   2.61007   2.61339
 Alpha virt. eigenvalues --    2.61960   2.62215   2.62751   2.63167   2.63190
 Alpha virt. eigenvalues --    2.63413   2.63734   2.63956   2.64006   2.64202
 Alpha virt. eigenvalues --    2.65181   2.65752   2.66128   2.66143   2.66458
 Alpha virt. eigenvalues --    2.66578   2.66820   2.67476   2.67899   2.68151
 Alpha virt. eigenvalues --    2.68804   2.69148   2.69401   2.69553   2.69957
 Alpha virt. eigenvalues --    2.69974   2.70256   2.70539   2.70800   2.71065
 Alpha virt. eigenvalues --    2.71347   2.71488   2.71665   2.71909   2.72109
 Alpha virt. eigenvalues --    2.72383   2.72393   2.72650   2.72905   2.72947
 Alpha virt. eigenvalues --    2.73102   2.73531   2.73953   2.74343   2.74688
 Alpha virt. eigenvalues --    2.75017   2.75104   2.75304   2.75393   2.75699
 Alpha virt. eigenvalues --    2.75813   2.76975   2.77190   2.77236   2.77624
 Alpha virt. eigenvalues --    2.77670   2.77749   2.78305   2.78456   2.78697
 Alpha virt. eigenvalues --    2.79208   2.79347   2.79669   2.80137   2.80330
 Alpha virt. eigenvalues --    2.80483   2.80755   2.81173   2.81404   2.81917
 Alpha virt. eigenvalues --    2.82158   2.82270   2.82599   2.83105   2.83193
 Alpha virt. eigenvalues --    2.83289   2.83475   2.83697   2.83839   2.84089
 Alpha virt. eigenvalues --    2.84538   2.84641   2.84850   2.85213   2.85482
 Alpha virt. eigenvalues --    2.85689   2.86346   2.86692   2.86857   2.87110
 Alpha virt. eigenvalues --    2.87827   2.88033   2.88226   2.88305   2.88828
 Alpha virt. eigenvalues --    2.89741   2.89907   2.90049   2.90150   2.90217
 Alpha virt. eigenvalues --    2.90734   2.90760   2.90868   2.91127   2.91338
 Alpha virt. eigenvalues --    2.92045   2.92440   2.92675   2.92761   2.92864
 Alpha virt. eigenvalues --    2.93797   2.93961   2.94500   2.94785   2.94931
 Alpha virt. eigenvalues --    2.95225   2.95392   2.95709   2.96127   2.96722
 Alpha virt. eigenvalues --    2.97108   2.97249   2.97377   2.98139   2.98184
 Alpha virt. eigenvalues --    2.98942   2.99325   2.99558   2.99859   2.99947
 Alpha virt. eigenvalues --    3.00160   3.00299   3.00850   3.01308   3.02235
 Alpha virt. eigenvalues --    3.02355   3.02492   3.02608   3.02932   3.03324
 Alpha virt. eigenvalues --    3.03638   3.04131   3.04567   3.04899   3.05166
 Alpha virt. eigenvalues --    3.05248   3.05392   3.06362   3.06532   3.07839
 Alpha virt. eigenvalues --    3.08437   3.08714   3.09069   3.09313   3.09617
 Alpha virt. eigenvalues --    3.09681   3.10057   3.10412   3.11236   3.11659
 Alpha virt. eigenvalues --    3.11825   3.12415   3.13399   3.13789   3.13948
 Alpha virt. eigenvalues --    3.14603   3.15369   3.15781   3.16162   3.16578
 Alpha virt. eigenvalues --    3.16795   3.17026   3.17240   3.17952   3.18430
 Alpha virt. eigenvalues --    3.18588   3.18791   3.18994   3.19261   3.19873
 Alpha virt. eigenvalues --    3.20035   3.20290   3.20387   3.20806   3.21539
 Alpha virt. eigenvalues --    3.21825   3.22058   3.22704   3.22865   3.23425
 Alpha virt. eigenvalues --    3.23531   3.23942   3.24120   3.24476   3.24711
 Alpha virt. eigenvalues --    3.25753   3.25968   3.26529   3.26662   3.26975
 Alpha virt. eigenvalues --    3.28077   3.28300   3.28515   3.29338   3.30358
 Alpha virt. eigenvalues --    3.30552   3.30649   3.30809   3.31956   3.32647
 Alpha virt. eigenvalues --    3.32754   3.34761   3.35625   3.38041   3.39746
 Alpha virt. eigenvalues --    3.42079   3.43559   3.47680   3.52488   3.52593
 Alpha virt. eigenvalues --    3.52822   3.55289   3.55677   3.56221   3.56900
 Alpha virt. eigenvalues --    3.57433   3.58513   3.58990   3.59638   3.59981
 Alpha virt. eigenvalues --    3.61220   3.61986   3.62059   3.63061   3.64463
 Alpha virt. eigenvalues --    3.65974   3.66308   3.66697   3.67684   3.68123
 Alpha virt. eigenvalues --    3.68329   3.69037   3.69559   3.69956   3.70652
 Alpha virt. eigenvalues --    3.70843   3.71837   3.72098   3.72355   3.72791
 Alpha virt. eigenvalues --    3.73164   3.73688   3.74173   3.74858   3.74988
 Alpha virt. eigenvalues --    3.75745   3.81980   3.82724   3.88693
          Condensed to atoms (all electrons):
 Mulliken charges:
               1
     1  C    0.067196
     2  C    0.031042
     3  O   -0.284853
     4  H    0.055858
     5  H   -0.005963
     6  H    0.010110
     7  N   -0.108977
     8  C    0.034095
     9  C    0.055923
    10  O   -0.258129
    11  C    0.087946
    12  C    0.169209
    13  O   -0.495838
    14  O   -0.357809
    15  H    0.119026
    16  H    0.060089
    17  H   -0.008742
    18  H   -0.006917
    19  N   -0.162811
    20  C    0.155270
    21  C    0.065626
    22  O   -0.278109
    23  C    0.037128
    24  C   -0.016157
    25  C   -0.012921
    26  C    0.035788
    27  N    0.078177
    28  H    0.151020
    29  H    0.006156
    30  H    0.023588
    31  H    0.000527
    32  H   -0.002302
    33  H    0.004582
    34  H    0.043505
    35  H    0.032646
    36  H    0.072325
    37  H    0.066844
    38  H    0.185968
    39  H    0.198496
    40  H    0.197386
    41  N   -0.122375
    42  C    0.104864
    43  C    0.051803
    44  O   -0.275304
    45  C    0.133424
    46  C    0.073108
    47  O   -0.410335
    48  O   -0.423310
    49  H    0.116766
    50  H    0.016311
    51  H   -0.004648
    52  H    0.016020
    53  N   -0.189990
    54  C    0.204610
    55  C    0.061952
    56  O   -0.289762
    57  H    0.179432
    58  H    0.004835
    59  H    0.046379
    60  N   -0.178199
    61  C    0.160975
    62  C    0.037389
    63  O   -0.316680
    64  C    0.108126
    65  C    0.032937
    66  N   -0.021541
    67  O   -0.361987
    68  H    0.141410
    69  H    0.023677
    70  H    0.076695
    71  H   -0.024252
    72  H    0.128850
    73  H    0.131964
    74  N   -0.168474
    75  C    0.257530
    76  C    0.027405
    77  O   -0.316280
    78  H    0.153987
    79  H    0.030505
    80  H    0.033564
    81  N   -0.133387
    82  C    0.148087
    83  C    0.147242
    84  O   -0.309896
    85  C    0.101583
    86  C    0.033788
    87  C   -0.011631
    88  C   -0.034029
    89  C    0.008425
    90  C   -0.041227
    91  C    0.153421
    92  O   -0.212109
    93  H    0.161523
    94  H   -0.003467
    95  H   -0.020526
    96  H   -0.052852
    97  H   -0.043536
    98  H   -0.033475
    99  H   -0.029844
   100  H   -0.037888
   101  H    0.169443
   102  N   -0.129995
   103  C    0.160848
   104  C    0.068102
   105  O   -0.298921
   106  C   -0.100280
   107  C    0.000710
   108  C    0.065811
   109  C    0.018742
   110  H    0.135545
   111  H    0.007810
   112  H   -0.008377
   113  H    0.011862
   114  H    0.002241
   115  H    0.001929
   116  H    0.007305
   117  H    0.010248
   118  H    0.008108
   119  H    0.010148
   120  H    0.004025
   121  N   -0.131537
   122  C    0.094783
   123  C    0.096219
   124  O   -0.291111
   125  C    0.257172
   126  O   -0.285422
   127  H    0.148269
   128  H    0.002246
   129  H   -0.015092
   130  H   -0.000822
   131  H    0.175454
   132  N   -0.109810
   133  C    0.116679
   134  C    0.036789
   135  O   -0.252307
   136  C    0.020067
   137  H    0.124768
   138  H    0.025185
   139  H    0.028049
   140  H    0.004473
   141  H    0.041351
   142  N   -0.160267
   143  C    0.096968
   144  C    0.070160
   145  O   -0.286972
   146  C    0.049640
   147  H    0.096375
   148  H    0.027082
   149  H    0.044434
   150  H    0.014903
   151  H    0.001848
   152  N   -0.146984
   153  C    0.162428
   154  C    0.073039
   155  O   -0.306002
   156  C   -0.056777
   157  C    0.150027
   158  C    0.121091
   159  O   -0.361226
   160  O   -0.496877
   161  H    0.129489
   162  H   -0.018978
   163  H    0.047153
   164  H    0.004955
   165  H   -0.043328
   166  H    0.011880
   167  N   -0.175392
   168  C    0.129097
   169  H    0.029830
   170  H    0.028836
   171  H    0.007064
   172  H    0.126891
   173  Ca   1.283817
   174  O   -0.322070
   175  H    0.170304
   176  H    0.179272
 Sum of Mulliken charges =  -0.00000
 Mulliken charges with hydrogens summed into heavy atoms:
               1
     1  C    0.127201
     2  C    0.031042
     3  O   -0.284853
     7  N    0.010049
     8  C    0.094184
     9  C    0.055923
    10  O   -0.258129
    11  C    0.072287
    12  C    0.169209
    13  O   -0.495838
    14  O   -0.357809
    19  N   -0.011791
    20  C    0.161426
    21  C    0.065626
    22  O   -0.278109
    23  C    0.061242
    24  C   -0.013877
    25  C    0.063230
    26  C    0.174956
    27  N    0.660026
    41  N   -0.005609
    42  C    0.121176
    43  C    0.051803
    44  O   -0.275304
    45  C    0.144796
    46  C    0.073108
    47  O   -0.410335
    48  O   -0.423310
    53  N   -0.010558
    54  C    0.255824
    55  C    0.061952
    56  O   -0.289762
    60  N   -0.036789
    61  C    0.184652
    62  C    0.037389
    63  O   -0.316680
    64  C    0.160569
    65  C    0.032937
    66  N    0.239273
    67  O   -0.361987
    74  N   -0.014487
    75  C    0.321599
    76  C    0.027405
    77  O   -0.316280
    81  N    0.028137
    82  C    0.144620
    83  C    0.147242
    84  O   -0.309896
    85  C    0.028204
    86  C    0.033788
    87  C   -0.055167
    88  C   -0.067504
    89  C   -0.021418
    90  C   -0.079115
    91  C    0.153421
    92  O   -0.042666
   102  N    0.005550
   103  C    0.168658
   104  C    0.068102
   105  O   -0.298921
   106  C   -0.108657
   107  C    0.014814
   108  C    0.085292
   109  C    0.041022
   121  N    0.016732
   122  C    0.097029
   123  C    0.096219
   124  O   -0.291111
   125  C    0.241258
   126  O   -0.109969
   132  N    0.014958
   133  C    0.141863
   134  C    0.036789
   135  O   -0.252307
   136  C    0.093940
   142  N   -0.063892
   143  C    0.124050
   144  C    0.070160
   145  O   -0.286972
   146  C    0.110826
   152  N   -0.017495
   153  C    0.143450
   154  C    0.073039
   155  O   -0.306002
   156  C   -0.004668
   157  C    0.118578
   158  C    0.121091
   159  O   -0.361226
   160  O   -0.496877
   167  N   -0.048501
   168  C    0.194828
   173  Ca   1.283817
   174  O    0.027506
 DipInt: DoE/N= T F RetVal/Mat= T F Init=T NMatP=  1 IDeriv=0 Min/MaxMlt=  0  4
 Entering OneElI...
 OneElI was handed  1333951383 working-precision words.
 Multipole integrals L=0 to 4 MinM= 0 MaxM= 0.
 Requested accuracy = 0.1000D-12
 ShPair: Thresh= 1.00D-13 NBox=     0 BxSize= 0.00D+00 RnKept= 2.55D+01
         NSMCal=               327645 NSMKep=              156908
 PrmmSu-InSpLW:  IPartL=    0 NPrtUS=    1 NPrtUL=    1 DoSpLW=F IThBeg=    0 IThEnd=    0 NThAct=    1.
 PrsmSu:  NPrtUS=   1 ThrOK=F IAlg=1 NPAlg=1 LenDen=           0 ISkipM=0 DoSpLW=F IThBeg=    0 IThEnd=    0.
 Prism:   IPart=     0 DynPar=F LinDyn=F Incr=         512.
 PRISM was handed  1324013251 working-precision words and156908 shell-pairs
 IPart=  0 NShTot=      156908 NBatch=         357 AvBLen=       439.5
 PrsmSu-ThDecC:  IPartSL=    0    0 NPrtUSL=    1    1 IThBeg=    0 IThEnd=    0 CPU=   -1 GPU=   -1 NThAct=    1.
 PrSmSu:  NxtVal=            513.
 Electronic moments (au):
       -716.00000000         14.09865616          2.20347638         -0.48369620
     -52335.88320721     -36271.87724527     -10094.04015572         76.00594586
         14.33276710         82.36597142    -121920.75406654     -44271.81475229
      -9329.35097103      46725.12614591      97418.12553013      45952.14275652
     -11131.14649858      -1387.01707985      -9844.77741845     -37727.92403370
   -7766815.51035572   -4737550.13258603    -400423.79246718     319425.62369697
     463216.30991022   -1000812.80378698     -27316.12092529     -36601.57115046
      25656.87413735   -2296993.55326820    -627232.72507812    -308365.78607798
     -90340.12122341     -40443.43958586      49380.65981970
 Electronic spatial extent (au):  <R**2>=          98701.8006
 DipInt: DoE/N= F T RetVal/Mat= T F Init=T NMatP=  1 IDeriv=0 Min/MaxMlt=  0  4
 Nuclear    moments (au):
        716.00000000          0.00000000          0.00000000         -0.00000000
      51838.85226462      35991.71343675       9710.71259813         -0.00000000
         -0.00000000         -0.00000000     123059.65912754      46247.29401810
       9274.77519462     -44494.78072922     -97861.38163727     -46227.68716544
      11415.55474657       1371.12270586      10033.00982554      37971.44256014
    7563245.66764665    4639183.65425241     366595.52105715    -316815.12550659
    -463663.87678230    1019508.61293723      37931.84262712      37251.17166445
     -22951.20242421    2255169.57720237     592917.84686596     284015.88709052
      98201.91320328      43626.38796976     -48649.26453490
 Total      moments (au):
         -0.00000000         14.09865616          2.20347638         -0.48369620
       -497.03094259       -280.16380852       -383.32755759         76.00594586
         14.33276710         82.36597142       1138.90506100       1975.47926582
        -54.57577640       2230.34541669       -443.25610714       -275.54440892
        284.40824799        -15.89437399        188.23240710        243.51852644
    -203569.84270907     -98366.47833362     -33828.27141002       2610.49819038
       -447.56687208      18695.80915026      10615.72170183        649.60051398
       2705.67171314     -41823.97606583     -34314.87821216     -24349.89898746
       7861.79197987       3182.94838391        731.39528480
 Traceless Quadrup. (au):
       -110.19017302        106.67696105          3.51321197         76.00594586
         14.33276710         82.36597142
 Charge=             -0.0000 electrons
 Dipole moment (field-independent basis, Debye):
    X=             35.8352    Y=              5.6007    Z=             -1.2294  Tot=             36.2911
 Quadrupole moment (field-independent basis, Debye-Ang):
   XX=           -668.5236   YY=           -376.8299   ZZ=           -515.5887
   XY=            102.2306   XZ=             19.2781   YZ=            110.7851
 Traceless Quadrupole moment (field-independent basis, Debye-Ang):
   XX=           -148.2096   YY=            143.4842   ZZ=              4.7254
   XY=            102.2306   XZ=             19.2781   YZ=            110.7851
 Octapole moment (field-independent basis, Debye-Ang**2):
  XXX=            810.6287  YYY=           1406.0700  ZZZ=            -38.8449  XYY=           1587.4739
  XXY=           -315.4926  XXZ=           -196.1219  XZZ=            202.4308  YZZ=            -11.3130
  YYZ=            133.9766  XYZ=            173.3271
 Hexadecapole moment (field-independent basis, Debye-Ang**3):
 XXXX=         -76674.1643 YYYY=         -37049.5326 ZZZZ=         -12741.3491 XXXY=            983.2388
 XXXZ=           -168.5751 YYYX=           7041.7382 YYYZ=           3998.3898 ZZZX=            244.6707
 ZZZY=           1019.0857 XXYY=         -15752.9149 XXZZ=         -12924.6286 YYZZ=          -9171.3396
 XXYZ=           2961.1278 YYXZ=           1198.8510 ZZXY=            275.4785
 N-N= 2.155112764525D+04 E-N=-5.558520267737D+04  KE= 5.290521282001D+03
 Leave Link  601 at Wed Sep 18 16:57:41 2019, MaxMem=  1342177280 cpu:              44.6 elap:               1.1
 FitSet:  NAtFit=   176 NAtPot=   176 NAtFrz=     0 MDM=   180 TotChg=   0.00000
 Merz-Kollman atomic radii used.
 Read replacement radii for each type of atom:
 Rad(20) =   1.700000000000D+00
 Atom Element Radius
    1     6    1.50
    2     6    1.50
    3     8    1.40
    4     1    1.20
    5     1    1.20
    6     1    1.20
    7     7    1.50
    8     6    1.50
    9     6    1.50
   10     8    1.40
   11     6    1.50
   12     6    1.50
   13     8    1.40
   14     8    1.40
   15     1    1.20
   16     1    1.20
   17     1    1.20
   18     1    1.20
   19     7    1.50
   20     6    1.50
   21     6    1.50
   22     8    1.40
   23     6    1.50
   24     6    1.50
   25     6    1.50
   26     6    1.50
   27     7    1.50
   28     1    1.20
   29     1    1.20
   30     1    1.20
   31     1    1.20
   32     1    1.20
   33     1    1.20
   34     1    1.20
   35     1    1.20
   36     1    1.20
   37     1    1.20
   38     1    1.20
   39     1    1.20
   40     1    1.20
   41     7    1.50
   42     6    1.50
   43     6    1.50
   44     8    1.40
   45     6    1.50
   46     6    1.50
   47     8    1.40
   48     8    1.40
   49     1    1.20
   50     1    1.20
   51     1    1.20
   52     1    1.20
   53     7    1.50
   54     6    1.50
   55     6    1.50
   56     8    1.40
   57     1    1.20
   58     1    1.20
   59     1    1.20
   60     7    1.50
   61     6    1.50
   62     6    1.50
   63     8    1.40
   64     6    1.50
   65     6    1.50
   66     7    1.50
   67     8    1.40
   68     1    1.20
   69     1    1.20
   70     1    1.20
   71     1    1.20
   72     1    1.20
   73     1    1.20
   74     7    1.50
   75     6    1.50
   76     6    1.50
   77     8    1.40
   78     1    1.20
   79     1    1.20
   80     1    1.20
   81     7    1.50
   82     6    1.50
   83     6    1.50
   84     8    1.40
   85     6    1.50
   86     6    1.50
   87     6    1.50
   88     6    1.50
   89     6    1.50
   90     6    1.50
   91     6    1.50
   92     8    1.40
   93     1    1.20
   94     1    1.20
   95     1    1.20
   96     1    1.20
   97     1    1.20
   98     1    1.20
   99     1    1.20
  100     1    1.20
  101     1    1.20
  102     7    1.50
  103     6    1.50
  104     6    1.50
  105     8    1.40
  106     6    1.50
  107     6    1.50
  108     6    1.50
  109     6    1.50
  110     1    1.20
  111     1    1.20
  112     1    1.20
  113     1    1.20
  114     1    1.20
  115     1    1.20
  116     1    1.20
  117     1    1.20
  118     1    1.20
  119     1    1.20
  120     1    1.20
  121     7    1.50
  122     6    1.50
  123     6    1.50
  124     8    1.40
  125     6    1.50
  126     8    1.40
  127     1    1.20
  128     1    1.20
  129     1    1.20
  130     1    1.20
  131     1    1.20
  132     7    1.50
  133     6    1.50
  134     6    1.50
  135     8    1.40
  136     6    1.50
  137     1    1.20
  138     1    1.20
  139     1    1.20
  140     1    1.20
  141     1    1.20
  142     7    1.50
  143     6    1.50
  144     6    1.50
  145     8    1.40
  146     6    1.50
  147     1    1.20
  148     1    1.20
  149     1    1.20
  150     1    1.20
  151     1    1.20
  152     7    1.50
  153     6    1.50
  154     6    1.50
  155     8    1.40
  156     6    1.50
  157     6    1.50
  158     6    1.50
  159     8    1.40
  160     8    1.40
  161     1    1.20
  162     1    1.20
  163     1    1.20
  164     1    1.20
  165     1    1.20
  166     1    1.20
  167     7    1.50
  168     6    1.50
  169     1    1.20
  170     1    1.20
  171     1    1.20
  172     1    1.20
[...]
 **** Fit       0.004908
 **** Fit       0.014870
 **** Fit       0.022041
 **** Fit       0.025080
 **** Fit       0.023411
 **** Fit       0.017580
 **** Fit      -0.016965
 **** Fit      -0.005234
 **** Fit       0.005304
 **** Fit       0.014309
 **** Fit       0.020985
 **** Fit       0.024419
 **** Fit       0.024089
 **** Fit       0.020211
 **** Fit       0.013701
 **** Fit      -0.003055
 **** Fit       0.006612
 **** Fit       0.014301
 **** Fit       0.019499
 **** Fit       0.021664
 **** Fit       0.020622
 **** Fit       0.016765
 **** Fit       0.011002
 **** Fit      -0.000829
 **** Fit       0.007533
 **** Fit       0.013539
 **** Fit       0.016906
 **** Fit       0.017454
 **** Fit       0.015392
 **** Fit       0.011404
 **** Fit      -0.009051
 **** Fit       0.000210
 **** Fit       0.006988
 **** Fit       0.011343
 **** Fit       0.013229
 **** Fit       0.012793
 **** Fit       0.010550
 **** Fit      -0.003985
 **** Fit       0.003012
 **** Fit       0.007403
 **** Fit       0.009337
 **** Fit       0.009162
 **** Fit       0.007654
 **** Fit      -0.007583
 **** Fit      -0.000468
 **** Fit       0.003986
 **** Fit       0.006063
 **** Fit       0.006318
 **** Fit      -0.001967
 **** Fit       0.002063
 **** Fit       0.003848
 **** Fit      -0.001560
 **** Fit       0.001502
 **** Fit      -0.005076
 **** Fit      -0.000668
 **** Fit       0.000761
 **** Fit       0.014635
 **** Fit       0.015932
 **** Fit       0.015391
 **** Fit       0.014270
 **** Fit       0.011284
 **** Fit       0.004139
 **** Fit       0.010271
 **** Fit       0.005516
 **** Fit      -0.002688
 **** Fit      -0.014293
 **** Fit       0.002730
 **** Fit       0.019497
 **** Fit       0.024267
 **** Fit       0.017263
 **** Fit       0.009252
 **** Fit       0.021291
 **** Fit       0.014804
 **** Fit       0.013802
 **** Fit       0.017124
 **** Fit       0.012010
 **** Fit       0.007537
 **** Fit       0.004355
 **** Fit      -0.001296
 **** Fit      -0.009698
 **** Fit       0.007705
 **** Fit       0.005608
 **** Fit       0.001401
 **** Fit      -0.005165
 **** Fit      -0.014257
 **** Fit       0.006951
 **** Fit       0.006465
 **** Fit       0.004230
 **** Fit      -0.000057
 **** Fit      -0.006580
 **** Fit      -0.015451
 **** Fit      -0.026611
 **** Fit       0.005302
 **** Fit       0.005630
 **** Fit       0.004480
 **** Fit       0.001538
 **** Fit      -0.003398
 **** Fit      -0.010413
 **** Fit      -0.019401
 **** Fit      -0.029751
 **** Fit       0.001657
 **** Fit       0.002737
 **** Fit       0.003913
 **** Fit       0.004525
 **** Fit       0.004074
 **** Fit       0.002201
 **** Fit      -0.001319
 **** Fit      -0.006559
 **** Fit      -0.013376
 **** Fit      -0.021208
 **** Fit      -0.028677
 **** Fit       0.004594
 **** Fit       0.003379
 **** Fit       0.003183
 **** Fit       0.003556
 **** Fit       0.003795
 **** Fit       0.003257
 **** Fit       0.001481
 **** Fit      -0.001781
 **** Fit      -0.006521
 **** Fit      -0.012359
 **** Fit      -0.018318
 **** Fit      -0.022658
 **** Fit      -0.023405
 **** Fit       0.005685
 **** Fit       0.004460
 **** Fit       0.003896
 **** Fit       0.003556
 **** Fit       0.002797
 **** Fit       0.001079
 **** Fit      -0.001866
 **** Fit      -0.005922
 **** Fit      -0.010456
 **** Fit      -0.014229
 **** Fit      -0.015733
 **** Fit      -0.014299
 **** Fit      -0.011013
 **** Fit       0.007503
 **** Fit       0.005787
 **** Fit       0.004577
 **** Fit       0.003630
 **** Fit       0.002465
 **** Fit       0.000521
 **** Fit      -0.002402
 **** Fit      -0.005862
 **** Fit      -0.008726
 **** Fit      -0.009670
 **** Fit      -0.008315
 **** Fit      -0.005633
 **** Fit       0.007221
 **** Fit       0.005080
 **** Fit       0.003734
 **** Fit       0.002086
 **** Fit      -0.000292
 **** Fit      -0.003108
 **** Fit      -0.004905
 **** Fit      -0.004381
 **** Fit      -0.001955
 **** Fit       0.001242
 **** Fit       0.006024
 **** Fit       0.006101
 **** Fit       0.003675
 **** Fit       0.001814
 **** Fit      -0.000644
 **** Fit      -0.001062
 **** Fit       0.001468
 **** Fit       0.003808
 **** Fit       0.001624
 **** Fit       0.008608
 **** Fit       0.009146
 **** Fit       0.008011
 **** Fit       0.008487
 **** Fit       0.009118
 **** Fit       0.009710
 **** Fit       0.010181
 **** Fit       0.007847
 **** Fit       0.007387
 **** Fit       0.007827
 **** Fit       0.008437
 **** Fit       0.009100
 **** Fit       0.009685
 **** Fit       0.010155
 **** Fit       0.010566
 **** Fit       0.007428
 **** Fit       0.007169
 **** Fit       0.007164
 **** Fit       0.006687
 **** Fit       0.007099
 **** Fit       0.007702
 **** Fit       0.008426
 **** Fit       0.010524
 **** Fit       0.010969
 **** Fit       0.006818
 **** Fit       0.006520
 **** Fit       0.006412
 **** Fit       0.006466
 **** Fit       0.005871
 **** Fit       0.006206
 **** Fit       0.006730
 **** Fit       0.010981
 **** Fit       0.011625
 **** Fit       0.006124
 **** Fit       0.005845
 **** Fit       0.005699
 **** Fit       0.005652
 **** Fit       0.005700
 **** Fit       0.004912
 **** Fit       0.005170
 **** Fit       0.005630
 **** Fit       0.010152
 **** Fit       0.011239
 **** Fit       0.012275
 **** Fit       0.006029
 **** Fit       0.005547
 **** Fit       0.005220
 **** Fit       0.005020
 **** Fit       0.004899
 **** Fit       0.004828
 **** Fit       0.004816
 **** Fit       0.003785
 **** Fit       0.003932
 **** Fit       0.004281
 **** Fit       0.005491
 **** Fit       0.004946
 **** Fit       0.002476
 **** Fit       0.002692
 **** Fit       0.005867
 **** Fit       0.005115
 **** Fit       0.004393
 **** Fit       0.000757
 **** Fit       0.000817
 **** Fit       0.005741
 **** Fit       0.004804
 **** Fit       0.003778
 **** Fit      -0.001371
 **** Fit      -0.001347
 **** Fit       0.006698
 **** Fit       0.006063
 **** Fit       0.004894
 **** Fit       0.003377
 **** Fit      -0.003950
 **** Fit      -0.004142
 **** Fit       0.007077
 **** Fit       0.006117
 **** Fit       0.004248
 **** Fit      -0.006990
 **** Fit      -0.007405
 **** Fit       0.007458
 **** Fit       0.005961
 **** Fit      -0.010557
 **** Fit      -0.011168
 **** Fit      -0.012257
 **** Fit      -0.014756
 **** Fit      -0.015620
 **** Fit      -0.017284
 **** Fit      -0.019621
 **** Fit      -0.020842
 **** Fit      -0.023281
 **** Fit      -0.024954
 **** Fit      -0.025092
 **** Fit      -0.026740
 **** Fit      -0.030692
 **** Fit       0.004705
 **** Fit       0.003706
 **** Fit       0.004200
 **** Fit       0.003908
 **** Fit       0.003735
 **** Fit       0.003669
 **** Fit       0.002523
 **** Fit       0.002593
 **** Fit       0.003911
 **** Fit       0.003383
 **** Fit       0.002989
 **** Fit       0.002730
 **** Fit       0.002585
 **** Fit       0.002523
 **** Fit       0.001089
 **** Fit       0.001098
 **** Fit       0.001145
 **** Fit       0.003804
 **** Fit       0.002992
 **** Fit       0.002287
 **** Fit       0.001751
 **** Fit       0.001402
 **** Fit       0.001210
 **** Fit       0.001125
 **** Fit       0.001095
 **** Fit      -0.000691
 **** Fit      -0.000701
 **** Fit      -0.000747
 **** Fit       0.002170
 **** Fit       0.001044
 **** Fit       0.000157
 **** Fit      -0.000419
 **** Fit      -0.000710
 **** Fit      -0.000798
 **** Fit      -0.000775
 **** Fit      -0.000723
 **** Fit      -0.002934
 **** Fit      -0.002910
 **** Fit      -0.003005
 **** Fit      -0.003205
 **** Fit       0.001058
 **** Fit      -0.000742
 **** Fit      -0.002216
 **** Fit      -0.003181
 **** Fit      -0.003636
 **** Fit      -0.003703
 **** Fit      -0.003542
 **** Fit      -0.003297
 **** Fit      -0.003073
 **** Fit      -0.005787
 **** Fit      -0.005651
 **** Fit      -0.005743
 **** Fit      -0.006060
 **** Fit       0.000058
 **** Fit      -0.008326
 **** Fit      -0.008414
 **** Fit      -0.007994
 **** Fit      -0.007349
 **** Fit      -0.006688
 **** Fit      -0.006143
 **** Fit      -0.009439
 **** Fit      -0.009068
 **** Fit      -0.009102
 **** Fit      -0.009535
 **** Fit      -0.012894
 **** Fit      -0.011397
 **** Fit      -0.010222
 **** Fit      -0.014132
 **** Fit      -0.013317
 **** Fit      -0.013200
 **** Fit      -0.013739
 **** Fit      -0.015709
 **** Fit      -0.018576
 **** Fit      -0.018130
 **** Fit      -0.023905
 **** Fit       0.009481
 **** Fit       0.008804
 **** Fit       0.009557
 **** Fit       0.010151
 **** Fit       0.010368
 **** Fit       0.007909
 **** Fit       0.008633
 **** Fit       0.009408
 **** Fit       0.010068
 **** Fit       0.010480
 **** Fit       0.010602
 **** Fit       0.010503
 **** Fit       0.006808
 **** Fit       0.007477
 **** Fit       0.008247
 **** Fit       0.009014
 **** Fit       0.009666
 **** Fit       0.010104
 **** Fit       0.010288
 **** Fit       0.010293
 **** Fit       0.010249
 **** Fit       0.005449
 **** Fit       0.006050
 **** Fit       0.006754
 **** Fit       0.007486
 **** Fit       0.008166
 **** Fit       0.008701
 **** Fit       0.009011
 **** Fit       0.009076
 **** Fit       0.009008
 **** Fit       0.009039
 **** Fit       0.003771
 **** Fit       0.004260
 **** Fit       0.004829
 **** Fit       0.005416
 **** Fit       0.005962
 **** Fit       0.006398
 **** Fit       0.006646
 **** Fit       0.006642
 **** Fit       0.006388
 **** Fit       0.006038
 **** Fit       0.005924
 **** Fit       0.006426
 **** Fit       0.001755
 **** Fit       0.002126
 **** Fit       0.002534
 **** Fit       0.002910
 **** Fit       0.003188
 **** Fit       0.003295
 **** Fit       0.003147
 **** Fit       0.002664
 **** Fit      -0.000691
 **** Fit      -0.000493
 **** Fit      -0.000326
 **** Fit      -0.000275
 **** Fit      -0.000421
 **** Fit      -0.000865
 **** Fit      -0.001717
 **** Fit      -0.003632
 **** Fit      -0.003662
 **** Fit      -0.003826
 **** Fit      -0.004237
 **** Fit      -0.005022
 **** Fit      -0.006341
 **** Fit      -0.007532
 **** Fit      -0.008211
 **** Fit      -0.009390
 **** Fit      -0.011307
 **** Fit      -0.012297
 **** Fit      -0.013809
 **** Fit      -0.018063
 **** Fit       0.009844
 **** Fit       0.009245
 **** Fit       0.009842
 **** Fit       0.010476
 **** Fit       0.010431
 **** Fit       0.009760
 **** Fit       0.009209
 **** Fit       0.008641
 **** Fit       0.009103
 **** Fit       0.009747
 **** Fit       0.010469
 **** Fit       0.011084
 **** Fit       0.011305
 **** Fit       0.011005
 **** Fit       0.010342
 **** Fit       0.009593
 **** Fit       0.008976
 **** Fit       0.008578
 **** Fit       0.008452
 **** Fit       0.010940
 **** Fit       0.011623
 **** Fit       0.012022
 **** Fit       0.011984
 **** Fit       0.011559
 **** Fit       0.010885
 **** Fit       0.010087
 **** Fit       0.009333
 **** Fit       0.008737
 **** Fit       0.008285
 **** Fit       0.007952
 **** Fit       0.007775
 **** Fit       0.007802
 **** Fit       0.011435
 **** Fit       0.012261
 **** Fit       0.012741
 **** Fit       0.012730
 **** Fit       0.012330
 **** Fit       0.009186
 **** Fit       0.008553
 **** Fit       0.008098
 **** Fit       0.007715
 **** Fit       0.007379
 **** Fit       0.007138
 **** Fit       0.012098
 **** Fit       0.013097
 **** Fit       0.013455
 **** Fit       0.013181
 **** Fit       0.008366
 **** Fit       0.007905
 **** Fit       0.007584
 **** Fit       0.007249
 **** Fit       0.006881
 **** Fit       0.006552
 **** Fit       0.013848
 **** Fit       0.013090
 **** Fit       0.007260
 **** Fit       0.007114
 **** Fit       0.006830
 **** Fit       0.006421
 **** Fit       0.006632
 **** Fit       0.006789
 **** Fit       0.006656
 **** Fit       0.006231
 **** Fit       0.006489
 **** Fit       0.006597
 **** Fit       0.006222
 **** Fit       0.006669
 **** Fit       0.006553
 **** Fit      -0.019634
 **** Fit      -0.007804
 **** Fit      -0.012939
 **** Fit      -0.000761
 **** Fit      -0.002589
 **** Fit      -0.004741
 **** Fit      -0.007366
 **** Fit      -0.013547
 **** Fit      -0.000543
 **** Fit       0.000954
 **** Fit       0.001600
 **** Fit       0.001109
 **** Fit      -0.000559
 **** Fit      -0.003282
 **** Fit      -0.007984
 **** Fit      -0.015113
 **** Fit      -0.007876
 **** Fit      -0.003195
 **** Fit      -0.000557
 **** Fit       0.000336
 **** Fit      -0.000536
 **** Fit      -0.003247
 **** Fit      -0.009738
 **** Fit      -0.017690
 **** Fit      -0.010155
 **** Fit      -0.004936
 **** Fit      -0.003211
 **** Fit      -0.004811
 **** Fit      -0.012773
 **** Fit      -0.013426
 **** Fit      -0.009063
 **** Fit      -0.001571
 **** Fit      -0.001178
 **** Fit       0.000978
 **** Fit       0.000967
 **** Fit       0.019647
 **** Fit       0.023388
 **** Fit       0.003861
 **** Fit       0.001582
 **** Fit       0.000487
 **** Fit      -0.000672
 **** Fit       0.014485
 **** Fit       0.018181
 **** Fit       0.007704
 **** Fit       0.003341
 **** Fit       0.002012
 **** Fit       0.004664
 **** Fit       0.009925
 **** Fit       0.011808
 **** Fit       0.006163
 **** Fit       0.009595
 **** Fit       0.014451
 **** Fit       0.018078
 **** Fit       0.018906
 **** Fit       0.018627
 **** Fit       0.020716
 **** Fit       0.022544
 **** Fit       0.023701
 **** Fit       0.021332
 **** Fit       0.022340
 **** Fit       0.024235
 **** Fit       0.026454
 **** Fit       0.026605
 **** Fit       0.025872
 **** Fit       0.027029
 **** Fit       0.029308
 **** Fit       0.032367
 **** Fit       0.029600
 **** Fit       0.029556
 **** Fit       0.031363
 **** Fit       0.034653
 **** Fit       0.031588
 **** Fit       0.033502
 **** Fit       0.037552
 **** Fit       0.031979
 **** Fit       0.034201
 **** Fit       0.029357
 **** Fit       0.031944
 **** Fit       0.036307
 **** Fit       0.029949
 -----------------------------------------------------------------
 Leave Link  602 at Wed Sep 18 16:57:43 2019, MaxMem=  1342177280 cpu:             112.7 elap:               2.4

 Test job not archived.
 1\1\GINC-C501-124\SP\RB3LYP\SVP\C54H83Ca1N15O23\JAEBEOMH\18-Sep-2019\0
 \\#b3lyp/svp scf=(tight,noincore) Test #IOP(5/87=12) Density=Current P
 op=(MK,readradii) iop(6/33=2) iop(6/42=6)\\CaMKII_loop3_55.0\\0,1\C,0,
 82.42,41.63,25.83\C,0,82.25,40.31,26.57\O,0,82.55,39.2,26.12\H,0,83.43
 7,41.702,25.446\H,0,81.715,41.676,25.\H,0,82.231,42.458,26.514\N,0,81.
 57,40.39,27.72\C,0,81.31,39.26,28.59\C,0,79.95,38.6,28.47\O,0,79.06,38
 .68,29.32\C,0,81.55,39.59,30.06\C,0,81.47,38.41,31.01\O,0,81.66,37.32,
 30.45\O,0,81.13,38.54,32.21\H,0,81.49,41.25,28.24\H,0,81.98,38.43,28.3
 5\H,0,80.91,40.41,30.38\H,0,82.58,39.94,30.15\N,0,79.78,37.87,27.36\C,
 0,78.51,37.31,26.96\C,0,78.1,36.19,27.9\O,0,76.91,35.99,28.17\C,0,78.5
 4,36.82,25.51\C,0,78.89,37.97,24.56\C,0,78.8,37.51,23.11\C,0,78.83,38.
 65,22.09\N,0,80.14,39.32,22.12\H,0,80.67,37.67,26.92\H,0,77.68,38.02,2
 7.\H,0,77.66,36.28,25.19\H,0,79.4,36.18,25.29\H,0,79.88,38.37,24.76\H,
 0,78.2,38.78,24.81\H,0,77.84,37.02,22.95\H,0,79.58,36.81,22.8\H,0,78.0
 1,39.36,22.19\H,0,78.62,38.22,21.11\H,0,80.09,40.13,21.53\H,0,80.49,39
 .59,23.03\H,0,80.89,38.77,21.72\N,0,79.08,35.43,28.38\C,0,78.86,34.28,
 29.23\C,0,78.68,34.64,30.7\O,0,78.13,33.93,31.54\C,0,80.08,33.36,29.18
 \C,0,81.38,34.08,29.53\O,0,81.98,34.02,30.62\O,0,81.98,34.64,28.59\H,0
 ,80.,35.63,28.01\H,0,77.95,33.72,29.01\H,0,80.25,32.95,28.19\H,0,80.04
 ,32.51,29.87\N,0,78.97,35.91,31.\C,0,78.59,36.56,32.23\C,0,79.19,36.12
 ,33.56\O,0,78.66,36.37,34.64\H,0,79.65,36.41,30.43\H,0,77.52,36.39,32.
 2\H,0,78.68,37.65,32.22\N,0,80.38,35.53,33.43\C,0,81.22,35.02,34.5\C,0
 ,81.79,36.13,35.37\O,0,82.43,35.87,36.39\C,0,82.25,34.11,33.83\C,0,83.
 59,34.7,33.42\N,0,84.8,34.17,33.62\O,0,83.58,35.78,32.84\H,0,80.89,35.
 49,32.56\H,0,80.56,34.46,35.16\H,0,81.84,33.54,32.99\H,0,82.53,33.32,3
 4.53\H,0,84.85,33.48,34.36\H,0,85.62,34.69,33.36\N,0,81.69,37.39,34.97
 \C,0,82.25,38.52,35.68\C,0,83.6,38.96,35.15\O,0,84.16,39.86,35.78\H,0,
 81.25,37.56,34.07\H,0,82.34,38.21,36.72\H,0,81.56,39.36,35.67\N,0,84.1
 3,38.4,34.06\C,0,85.35,38.92,33.48\C,0,85.34,39.04,31.96\O,0,84.49,38.
 44,31.32\C,0,86.58,38.14,33.94\C,0,86.83,37.96,35.41\C,0,87.83,38.76,3
 5.98\C,0,86.28,36.92,36.17\C,0,88.25,38.55,37.3\C,0,86.66,36.65,37.49\
 C,0,87.63,37.51,38.03\O,0,88.,37.38,39.34\H,0,83.64,37.59,33.7\H,0,85.
 57,39.88,33.94\H,0,87.55,38.46,33.56\H,0,86.45,37.13,33.54\H,0,88.24,3
 9.56,35.39\H,0,85.45,36.31,35.84\H,0,88.94,39.2,37.82\H,0,86.2,35.83,3
 8.02\H,0,87.41,36.79,39.81\N,0,86.43,39.57,31.41\C,0,86.65,39.63,29.98
 \C,0,88.06,39.11,29.75\O,0,89.01,39.75,30.2\C,0,86.58,41.09,29.53\C,0,
 85.18,41.69,29.62\C,0,87.01,41.36,28.09\C,0,85.12,43.21,29.52\H,0,86.9
 6,40.19,32.\H,0,85.96,39.01,29.41\H,0,87.28,41.58,30.21\H,0,84.84,41.4
 6,30.63\H,0,84.47,41.37,28.85\H,0,86.94,42.43,27.9\H,0,87.99,41.,27.82
 \H,0,86.33,40.83,27.42\H,0,84.19,43.56,29.97\H,0,85.93,43.73,30.04\H,0
 ,85.09,43.46,28.46\N,0,88.25,38.09,28.92\C,0,89.46,37.47,28.42\C,0,89.
 87,37.96,27.03\O,0,89.01,38.29,26.22\C,0,89.39,35.95,28.53\O,0,88.75,3
 5.56,29.72\H,0,87.44,37.53,28.67\H,0,90.22,37.87,29.1\H,0,90.39,35.53,
 28.54\H,0,88.93,35.61,27.61\H,0,89.2,34.79,30.06\N,0,91.15,37.91,26.65
 \C,0,91.58,38.53,25.41\C,0,90.78,38.23,24.16\O,0,90.38,39.1,23.39\C,0,
 93.03,38.17,25.08\H,0,91.86,37.59,27.29\H,0,91.48,39.61,25.53\H,0,93.7
 8,38.36,25.85\H,0,93.16,37.13,24.79\H,0,93.37,38.67,24.17\N,0,90.52,36
 .94,23.89\C,0,89.7,36.47,22.79\C,0,88.23,36.87,22.83\O,0,87.61,36.91,2
 1.77\C,0,90.02,35.,22.58\H,0,90.89,36.25,24.52\H,0,90.14,37.,21.95\H,0
 ,89.78,34.73,21.55\H,0,91.01,34.68,22.9\H,0,89.3,34.49,23.21\N,0,87.66
 ,37.29,23.96\C,0,86.33,37.87,24.03\C,0,86.31,39.31,23.55\O,0,85.44,39.
 79,22.82\C,0,85.84,37.83,25.48\C,0,85.89,36.5,26.23\C,0,85.18,36.74,27
 .55\O,0,83.96,37.04,27.64\O,0,85.8,36.4,28.58\H,0,88.26,37.34,24.77\H,
 0,85.69,37.3,23.36\H,0,84.76,37.99,25.38\H,0,86.37,38.58,26.07\H,0,86.
 92,36.16,26.36\H,0,85.32,35.72,25.73\N,0,87.3,40.09,24.\C,0,87.51,41.4
 4,23.52\H,0,88.499,41.514,23.068\H,0,86.752,41.684,22.776\H,0,87.439,4
 2.138,24.354\H,0,87.99,39.64,24.59\Ca,0,83.76,36.02,30.14\O,0,86.3,35.
 85,31.15\H,0,87.18,35.86,31.53\H,0,86.42,36.16,30.25\\Version=ES64L-G1
 6RevA.03\State=1-A\HF=-5333.5809867\RMSD=4.724e-09\Dipole=5.3192169,1.
 5403644,-13.1603414\Quadrupole=2.2962122,-8.7545001,6.4582879,-76.3185
 095,131.5925115,-36.478282\PG=C01 [X(C54H83Ca1N15O23)]\\@


 NOBODY LOSES ALL THE TIME
 I HAD AN UNCLE NAMED
 SOL WHO WAS A BORN FAILURE AND
 NEARLY EVERYBODY SAID HE SHOULD HAVE GONE
 INTO VAUDEVILLE PERHAPS BECAUSE MY UNCLE SOL COULD
 SING MCCANN HE WAS A DIVER ON XMAS EVE LIKE HELL ITSELF WHICH
 MAY OR MAY NOT ACCOUNT FOR THE FACT THAT MY UNCLE
 SOL INDULGED IN THAT POSSIBLY MOST INEXCUSABLE
 OF ALL TO USE A HIGHFALOOTIN PHRASE
 LUXURIES THAT IS OR TO
 WIT FARMING AND BE
 IT NEEDLESSLY
 ADDED
 MY UNCLE SOL'S FARM     
 FAILED BECAUSE THE CHICKENS
 ATE THE VEGETABLES SO
 MY UNCLE SOL HAD A
 CHICKEN FARM TILL THE
 SKUNKS ATE THE CHICKENS WHEN 
 MY UNCLE SOL
 HAD A SKUNK FARM BUT
 THE SKUNKS CAUGHT COLD AND
 DIED AND SO
 MY UNCLE SOL IMITATED THE
 SKUNKS IN A SUBTLE MANNER
 OR BY DROWNING HIMSELF IN THE WATERTANK
 BUT SOMEBODY WHO'D GIVEN MY UNCLE SOL A VICTOR     
 VICTROLA AND RECORDS WHILE HE LIVED PRESENTED TO
 HIM UPON THE AUSPICIOUS OCCASION OF HIS DECEASE A
 SCRUMPTIOUS NOT TO MENTION SPLENDIFEROUS FUNERAL WITH
 TALL BOYS IN BLACK GLOVES AND FLOWERS AND EVERYTHING AND
 I REMEMBER WE ALL CRIED LIKE THE MISSOURI
 WHEN MY UNCLE SOL'S COFFIN LURCHED BECAUSE     
 SOMEBODY PRESSED A BUTTON
 (AND DOWN WENT
 MY UNCLE
 SOL
 AND STARTED A WORM FARM)
           E. E. CUMMINGS
 Job cpu time:       0 days  9 hours 22 minutes 46.3 seconds.
 Elapsed time:       0 days  0 hours 11 minutes 51.2 seconds.
 File lengths (MBytes):  RWF=   1517 Int=      0 D2E=      0 Chk=    171 Scr=      1
 Normal termination of Gaussian 16 at Wed Sep 18 16:57:44 2019.
