 Entering Gaussian System, Link 0=g16
 Initial command:
 /home1/apps/gaussian/16rA.03/g16/l1.exe "/scratch/04905/jaebeomh/4356903/Gau-185097.inp" -scrdir="/scratch/04905/jaebeomh/4356903/"
 Entering Link 1 = /home1/apps/gaussian/16rA.03/g16/l1.exe PID=    185098.
  
 Copyright (c) 1988,1990,1992,1993,1995,1998,2003,2009,2016,
            Gaussian, Inc.  All Rights Reserved.
  
 This is part of the Gaussian(R) 16 program.  It is based on
 the Gaussian(R) 09 system (copyright 2009, Gaussian, Inc.),
 the Gaussian(R) 03 system (copyright 2003, Gaussian, Inc.),
 the Gaussian(R) 98 system (copyright 1998, Gaussian, Inc.),
 the Gaussian(R) 94 system (copyright 1995, Gaussian, Inc.),
 the Gaussian 92(TM) system (copyright 1992, Gaussian, Inc.),
 the Gaussian 90(TM) system (copyright 1990, Gaussian, Inc.),
 the Gaussian 88(TM) system (copyright 1988, Gaussian, Inc.),
 the Gaussian 86(TM) system (copyright 1986, Carnegie Mellon
 University), and the Gaussian 82(TM) system (copyright 1983,
 Carnegie Mellon University). Gaussian is a federally registered
 trademark of Gaussian, Inc.
  
 This software contains proprietary and confidential information,
 including trade secrets, belonging to Gaussian, Inc.
  
 This software is provided under written license and may be
 used, copied, transmitted, or stored only in accord with that
 written license.
  
 The following legend is applicable only to US Government
 contracts under FAR:
  
                    RESTRICTED RIGHTS LEGEND
  
 Use, reproduction and disclosure by the US Government is
 subject to restrictions as set forth in subparagraphs (a)
 and (c) of the Commercial Computer Software - Restricted
 Rights clause in FAR 52.227-19.
  
 Gaussian, Inc.
 340 Quinnipiac St., Bldg. 40, Wallingford CT 06492
  
  
 ---------------------------------------------------------------
 Warning -- This program may not be used in any manner that
 competes with the business of Gaussian, Inc. or will provide
 assistance to any competitor of Gaussian, Inc.  The licensee
 of this program is prohibited from giving any competitor of
 Gaussian, Inc. access to this program.  By using this program,
 the user acknowledges that Gaussian, Inc. is engaged in the
 business of creating and licensing software in the field of
 computational chemistry and represents and warrants to the
 licensee that it is not a competitor of Gaussian, Inc. and that
 it will not use this program in any manner prohibited above.
 ---------------------------------------------------------------
  

 Cite this work as:
 Gaussian 16, Revision A.03,
 M. J. Frisch, G. W. Trucks, H. B. Schlegel, G. E. Scuseria, 
 M. A. Robb, J. R. Cheeseman, G. Scalmani, V. Barone, 
 G. A. Petersson, H. Nakatsuji, X. Li, M. Caricato, A. V. Marenich, 
 J. Bloino, B. G. Janesko, R. Gomperts, B. Mennucci, H. P. Hratchian, 
 J. V. Ortiz, A. F. Izmaylov, J. L. Sonnenberg, D. Williams-Young, 
 F. Ding, F. Lipparini, F. Egidi, J. Goings, B. Peng, A. Petrone, 
 T. Henderson, D. Ranasinghe, V. G. Zakrzewski, J. Gao, N. Rega, 
 G. Zheng, W. Liang, M. Hada, M. Ehara, K. Toyota, R. Fukuda, 
 J. Hasegawa, M. Ishida, T. Nakajima, Y. Honda, O. Kitao, H. Nakai, 
 T. Vreven, K. Throssell, J. A. Montgomery, Jr., J. E. Peralta, 
 F. Ogliaro, M. J. Bearpark, J. J. Heyd, E. N. Brothers, K. N. Kudin, 
 V. N. Staroverov, T. A. Keith, R. Kobayashi, J. Normand, 
 K. Raghavachari, A. P. Rendell, J. C. Burant, S. S. Iyengar, 
 J. Tomasi, M. Cossi, J. M. Millam, M. Klene, C. Adamo, R. Cammi, 
 J. W. Ochterski, R. L. Martin, K. Morokuma, O. Farkas, 
 J. B. Foresman, and D. J. Fox, Gaussian, Inc., Wallingford CT, 2016.
 
 ******************************************
 Gaussian 16:  ES64L-G16RevA.03 25-Dec-2016
                18-Sep-2019 
 ******************************************
 %chk=CaMKII_loop3_53.0.chk
 %nprocshared=48
 Will use up to   48 processors via shared memory.
 %mem=10GB
 %nosave
 ----------------------------------------------------------------------
 #b3lyp/svp scf=(tight,noincore) Test #IOP(5/87=12) Density=Current Pop
 =(MK,readradii) iop(6/33=2) iop(6/42=6)
 ----------------------------------------------------------------------
 1/30=1,38=1,172=1/1;
 2/12=2,17=6,18=5,40=1/2;
 3/5=18,7=101,11=2,25=1,30=1,74=-5/1,2,3;
 4//1;
 5/5=4,32=2,38=5,87=12/2;
 6/7=2,8=2,9=2,10=2,15=8,20=101,22=-1,28=1,33=2,42=6/1,2;
 99/5=1,9=1/99;
 -----------------
 CaMKII_loop3_53.0
 -----------------
 Symbolic Z-matrix:
 Charge =  0 Multiplicity = 1
 C                     80.71     64.93     35.91 
 C                     80.1      64.98     37.3 
 O                     80.1      63.95     37.97 
 H                     81.727    64.543    35.974 
 H                     80.113    64.277    35.274 
 H                     80.73     65.934    35.485 
 N                     79.64     66.15     37.74 
 C                     78.84     66.29     38.94 
 C                     77.51     65.55     38.82 
 O                     76.61     66.14     38.23 
 C                     78.84     67.76     39.33 
 C                     77.98     68.07     40.55 
 O                     77.9      67.25     41.49 
 O                     77.3      69.13     40.6 
 H                     79.83     66.99     37.21 
 H                     79.4      65.72     39.69 
 H                     78.52     68.34     38.46 
 H                     79.86     68.06     39.55 
 N                     77.37     64.3      39.25 
 C                     76.33     63.38     38.82 
 C                     75.       63.67     39.52 
 O                     73.91     63.63     38.94 
 C                     76.84     61.94     38.86 
 C                     75.79     60.84     38.94 
 C                     76.53     59.51     38.78 
 C                     77.51     59.24     39.91 
 N                     78.4      58.11     39.6 
 H                     78.17     63.88     39.7 
 H                     76.09     63.61     37.78 
 H                     77.41     61.81     39.78 
 H                     77.63     61.71     38.14 
 H                     75.12     61.04     38.11 
 H                     75.32     60.86     39.92 
 H                     77.12     59.5      37.87 
 H                     75.75     58.77     38.61 
 H                     76.98     59.05     40.84 
 H                     78.1      60.1      40.26 
 H                     77.77     57.32     39.6 
 H                     78.81     58.31     38.7 
 H                     79.09     57.98     40.33 
 N                     75.09     63.98     40.81 
 C                     73.94     64.27     41.65 
 C                     73.47     65.72     41.54 
 O                     72.29     66.03     41.66 
 C                     74.24     63.89     43.09 
 C                     75.63     64.21     43.64 
 O                     76.43     65.       43.09 
 O                     75.96     63.71     44.73 
 H                     76.02     63.9      41.2 
 H                     73.06     63.67     41.41 
 H                     74.11     62.81     43.14 
 H                     73.47     64.24     43.78 
 N                     74.43     66.62     41.3 
 C                     74.27     68.01     40.94 
 C                     74.59     68.99     42.07 
 O                     74.02     70.07     42.22 
 H                     75.34     66.19     41.16 
 H                     73.23     68.22     40.71 
 H                     74.89     68.22     40.07 
 N                     75.43     68.58     43.02 
 C                     75.71     69.34     44.22 
 C                     76.45     70.66     44.04 
 O                     76.34     71.57     44.87 
 C                     76.32     68.47     45.31 
 C                     77.84     68.54     45.25 
 N                     78.49     69.06     46.29 
 O                     78.36     68.27     44.17 
 H                     75.83     67.66     42.97 
 H                     74.71     69.57     44.6 
 H                     75.9      67.46     45.26 
 H                     76.05     68.8      46.31 
 H                     77.93     69.32     47.1 
 H                     79.43     69.41     46.18 
 N                     77.26     70.84     43. 
 C                     78.16     71.96     42.82 
 C                     79.65     71.63     42.78 
 O                     80.54     72.46     42.63 
 H                     77.44     70.05     42.39 
 H                     77.91     72.67     43.61 
 H                     77.82     72.48     41.93 
 N                     80.03     70.36     42.96 
 C                     81.41     69.94     42.95 
 C                     81.5      68.61     42.21 
 O                     80.62     67.76     42.35 
 C                     82.18     70.06     44.27 
 C                     81.44     70.36     45.55 
 C                     81.07     71.7      45.77 
 C                     81.35     69.44     46.6 
 C                     80.76     72.22     47.03 
 C                     80.95     69.93     47.85 
 C                     80.66     71.29     48.08 
 O                     80.29     71.67     49.34 
 H                     79.36     69.63     43.15 
 H                     81.92     70.66     42.31 
 H                     82.94     70.83     44.16 
 H                     82.65     69.11     44.54 
 H                     81.16     72.38     44.93 
 H                     81.47     68.4      46.34 
 H                     80.62     73.27     47.25 
 H                     80.79     69.24     48.66 
 H                     80.4      70.9      49.9 
 N                     82.68     68.38     41.64 
 C                     83.15     67.11     41.13 
 C                     84.03     66.54     42.24 
 O                     85.03     67.15     42.62 
 C                     83.85     67.14     39.78 
 C                     82.91     67.92     38.86 
 C                     84.13     65.71     39.32 
 C                     83.5      68.32     37.51 
 H                     83.15     69.26     41.52 
 H                     82.29     66.44     41.15 
 H                     84.83     67.62     39.87 
 H                     82.39     68.81     39.2 
 H                     82.1      67.27     38.52 
 H                     84.88     65.75     38.53 
 H                     84.74     65.19     40.05 
 H                     83.26     65.1      39.08 
 H                     83.96     67.52     36.93 
 H                     82.84     68.84     36.82 
 H                     84.31     68.98     37.84 
 N                     83.77     65.26     42.52 
 C                     84.56     64.44     43.41 
 C                     85.36     63.41     42.62 
 O                     85.03     63.08     41.49 
 C                     83.68     63.72     44.43 
 O                     82.56     62.95     44.04 
 H                     82.96     64.81     42.11 
 H                     85.32     65.05     43.89 
 H                     83.23     64.51     45.03 
 H                     84.32     63.13     45.09 
 H                     81.94     63.5      43.55 
 N                     86.31     62.78     43.31 
 C                     87.16     61.71     42.84 
 C                     86.53     60.46     42.25 
 O                     86.9      59.9      41.21 
 C                     88.26     61.55     43.88 
 H                     86.64     63.11     44.21 
 H                     87.63     62.24     42.01 
 H                     88.63     62.49     44.3 
 H                     87.84     61.       44.72 
 H                     89.11     60.99     43.48 
 N                     85.6      59.87     43.01 
 C                     84.7      58.82     42.57 
 C                     83.83     59.15     41.36 
 O                     83.47     58.26     40.6 
 C                     83.92     58.39     43.81 
 H                     85.5      60.27     43.93 
 H                     85.36     58.02     42.25 
 H                     83.27     57.59     43.47 
 H                     84.53     57.83     44.52 
 H                     83.31     59.13     44.33 
 N                     83.36     60.38     41.17 
 C                     82.53     60.81     40.06 
 C                     83.33     61.01     38.78 
 O                     82.82     60.86     37.68 
 C                     81.92     62.17     40.41 
 C                     80.71     62.05     41.33 
 C                     80.29     63.46     41.71 
 O                     81.08     64.19     42.35 
 O                     79.14     63.82     41.38 
 H                     83.31     60.9      42.04 
 H                     81.73     60.11     39.85 
 H                     81.6      62.5      39.42 
 H                     82.63     62.84     40.9 
 H                     81.05     61.52     42.22 
 H                     79.89     61.54     40.83 
 N                     84.63     61.3      38.91 
 C                     85.55     61.57     37.83 
 H                     86.504    61.084    38.036 
 H                     85.14     61.184    36.897 
 H                     85.703    62.646    37.742 
 H                     84.92     61.53     39.85 
 Ca                    78.95     65.74     43.22 
 O                     77.83     65.67     45.7 
 H                     77.14     65.03     45.5 
 H                     78.06     65.5      46.61 
 
 Stoichiometry    C54H83CaN15O23
 Framework group  C1[X(C54H83CaN15O23)]
 Deg. of freedom   522
 Full point group                 C1      NOp   1
 Largest Abelian subgroup         C1      NOp   1
 Largest concise Abelian subgroup C1      NOp   1
                         Standard orientation:                         
 ---------------------------------------------------------------------
 Center     Atomic      Atomic             Coordinates (Angstroms)
 Number     Number       Type             X           Y           Z
 ---------------------------------------------------------------------
      1          6           0        2.380985    2.452445    4.988863
      2          6           0        1.610741    2.265896    3.693246
      3          8           0        2.212453    2.424187    2.633677
      4          1           0        3.265808    1.815925    4.979579
      5          1           0        2.684991    3.494432    5.084554
      6          1           0        1.746208    2.178947    5.832248
      7          7           0        0.334535    1.892780    3.771892
      8          6           0       -0.567378    1.898239    2.637818
      9          6           0       -0.772921    3.307692    2.088186
     10          8           0       -1.602219    4.002453    2.667644
     11          6           0       -1.781637    1.059481    3.005324
     12          6           0       -2.853285    1.025472    1.921574
     13          8           0       -2.529545    1.027862    0.714268
     14          8           0       -4.075120    1.048425    2.229944
     15          1           0       -0.046708    1.610223    4.664873
     16          1           0        0.000894    1.382899    1.855201
     17          1           0       -2.182024    1.440537    3.948821
     18          1           0       -1.455562    0.040623    3.190802
     19          7           0       -0.025375    3.781773    1.096509
     20          6           0        0.160725    5.190479    0.790219
     21          6           0       -1.040006    5.763336    0.033198
     22          8           0       -1.509493    6.882918    0.261709
     23          6           0        1.544232    5.428109    0.186284
     24          6           0        1.725737    6.693293   -0.641524
     25          6           0        3.216670    6.795760   -0.971250
     26          6           0        3.709376    5.649761   -1.839654
     27          7           0        5.178575    5.615293   -1.912911
     28          1           0        0.652481    3.151118    0.694409
     29          1           0        0.117737    5.744886    1.729839
     30          1           0        1.740977    4.629779   -0.529371
     31          1           0        2.381436    5.252302    0.867152
     32          1           0        1.392409    7.496004    0.008359
     33          1           0        1.170300    6.599310   -1.571232
     34          1           0        3.817939    6.761170   -0.069264
     35          1           0        3.353771    7.805356   -1.354419
     36          1           0        3.289957    5.719103   -2.840244
     37          1           0        3.320218    4.650240   -1.595287
     38          1           0        5.398428    6.454730   -2.430608
     39          1           0        5.510634    5.620003   -0.960118
     40          1           0        5.497372    4.811251   -2.439964
     41          7           0       -1.561106    4.967484   -0.895981
     42          6           0       -2.690990    5.338296   -1.731481
     43          6           0       -4.039613    5.097300   -1.054254
     44          8           0       -5.012451    5.809939   -1.274781
     45          6           0       -2.604300    4.623162   -3.069041
     46          6           0       -2.158866    3.160772   -3.071269
     47          8           0       -2.131650    2.441089   -2.047592
     48          8           0       -1.871063    2.635896   -4.161532
     49          1           0       -1.046565    4.111317   -1.056064
     50          1           0       -2.701137    6.393626   -2.011081
     51          1           0       -1.878929    5.186082   -3.654496
     52          1           0       -3.512317    4.743281   -3.662822
     53          7           0       -4.081581    4.064070   -0.205798
     54          6           0       -5.133142    3.725669    0.725332
     55          6           0       -5.980720    2.524553    0.302683
     56          8           0       -7.178194    2.408462    0.560325
     57          1           0       -3.174471    3.621980   -0.086184
     58          1           0       -5.854098    4.535046    0.786403
     59          1           0       -4.690778    3.550860    1.704697
     60          7           0       -5.418503    1.631045   -0.510800
     61          6           0       -6.142214    0.527756   -1.106615
     62          6           0       -6.649307   -0.552659   -0.159008
     63          8           0       -7.622308   -1.255306   -0.456760
     64          6           0       -5.406989   -0.045843   -2.309748
     65          6           0       -4.533609   -1.217978   -1.882890
     66          7           0       -4.812013   -2.424782   -2.373416
     67          8           0       -3.732824   -1.004440   -0.975782
     68          1           0       -4.470218    1.760270   -0.815688
     69          1           0       -7.015418    1.019707   -1.545705
     70          1           0       -4.881833    0.753950   -2.842235
     71          1           0       -6.082260   -0.442050   -3.063956
     72          1           0       -5.557896   -2.480172   -3.064711
     73          1           0       -4.484509   -3.254431   -1.901585
     74          7           0       -6.025565   -0.782578    0.993461
     75          6           0       -6.285628   -1.895975    1.882007
     76          6           0       -5.133113   -2.874240    2.094859
     77          8           0       -5.187859   -3.863166    2.817720
     78          1           0       -5.159449   -0.287847    1.176993
     79          1           0       -7.180730   -2.382876    1.491597
     80          1           0       -6.647356   -1.463458    2.809467
     81          7           0       -3.992958   -2.676919    1.423435
     82          6           0       -2.846216   -3.543835    1.543185
     83          6           0       -1.591457   -2.677873    1.560153
     84          8           0       -1.512962   -1.683082    0.838538
     85          6           0       -2.824297   -4.790391    0.651379
     86          6           0       -3.832353   -4.939424   -0.461102
     87          6           0       -5.125066   -5.358010   -0.094255
     88          6           0       -3.468054   -4.934446   -1.811754
     89          6           0       -6.036590   -5.927306   -0.988194
     90          6           0       -4.408166   -5.416539   -2.731741
     91          6           0       -5.670722   -5.910145   -2.345856
     92          8           0       -6.512349   -6.370365   -3.319900
     93          1           0       -3.892596   -1.920230    0.763701
     94          1           0       -2.916021   -3.968226    2.544744
     95          1           0       -2.922116   -5.670647    1.282395
     96          1           0       -1.895910   -4.847135    0.075900
     97          1           0       -5.363390   -5.350634    0.963690
     98          1           0       -2.541312   -4.440493   -2.058250
     99          1           0       -6.972308   -6.392179   -0.707437
    100          1           0       -4.196290   -5.351972   -3.784708
    101          1           0       -6.012251   -6.363470   -4.137491
    102          7           0       -0.560262   -3.221640    2.201367
    103          6           0        0.816015   -2.779361    2.136937
    104          6           0        1.480894   -3.704474    1.120324
    105          8           0        1.518388   -4.920242    1.312680
    106          6           0        1.569128   -2.716162    3.456871
    107          6           0        0.659383   -1.925899    4.398279
    108          6           0        2.939349   -2.078680    3.231012
    109          6           0        1.066900   -1.944605    5.869394
    110          1           0       -0.912300   -3.923987    2.827847
    111          1           0        0.802106   -1.826274    1.607472
    112          1           0        1.769500   -3.726068    3.829482
    113          1           0       -0.414684   -2.081442    4.415267
    114          1           0        0.755371   -0.856343    4.195705
    115          1           0        3.566968   -2.313332    4.090799
    116          1           0        3.505054   -2.645826    2.500448
    117          1           0        2.942751   -1.026536    2.948909
    118          1           0        2.100369   -1.674184    6.085762
    119          1           0        0.460683   -1.357249    6.554678
    120          1           0        0.965993   -3.014107    6.085228
    121          7           0        2.218853   -3.056405    0.214882
    122          6           0        3.076912   -3.699758   -0.753844
    123          6           0        4.543363   -3.491537   -0.391677
    124          8           0        4.893574   -2.575112    0.337855
    125          6           0        2.824743   -3.164051   -2.161903
    126          8           0        2.838967   -1.779554   -2.448895
    127          1           0        2.182133   -2.044944    0.166949
    128          1           0        2.944242   -4.776635   -0.700605
    129          1           0        1.799543   -3.446762   -2.397779
    130          1           0        3.479821   -3.690896   -2.859476
    131          1           0        2.181215   -1.327475   -1.910391
    132          7           0        5.406441   -4.252250   -1.063921
    133          6           0        6.848575   -4.210132   -0.981608
    134          6           0        7.571978   -2.895194   -1.216397
    135          8           0        8.491582   -2.454162   -0.515028
    136          6           0        7.353769   -5.456846   -1.694126
    137          1           0        5.116967   -5.063970   -1.597882
    138          1           0        6.948619   -4.431828    0.082132
    139          1           0        6.753873   -6.355171   -1.520812
    140          1           0        7.296153   -5.269126   -2.764612
    141          1           0        8.391876   -5.675996   -1.428780
    142          7           0        7.260245   -2.261180   -2.352817
    143          6           0        7.631119   -0.897022   -2.680881
    144          6           0        7.180069    0.173884   -1.691126
    145          8           0        7.837943    1.196815   -1.549302
    146          6           0        7.161522   -0.668751   -4.115548
    147          1           0        6.655010   -2.783082   -2.967397
    148          1           0        8.715724   -0.898643   -2.640521
    149          1           0        7.466742    0.345332   -4.353404
    150          1           0        7.762747   -1.208800   -4.848130
    151          1           0        6.099408   -0.769610   -4.343237
    152          7           0        6.018885    0.068263   -1.050505
    153          6           0        5.489790    1.017929   -0.089208
    154          6           0        6.155801    0.895955    1.274593
    155          8           0        6.254200    1.856070    2.023657
    156          6           0        4.003871    0.715581    0.122525
    157          6           0        3.126867    1.280499   -0.989515
    158          6           0        1.709034    0.796008   -0.736694
    159          8           0        1.461366   -0.430735   -0.755671
    160          8           0        0.835203    1.667962   -0.544043
    161          1           0        5.366086   -0.523273   -1.554231
    162          1           0        5.595236    2.043111   -0.423848
    163          1           0        3.824164    1.263717    1.049160
    164          1           0        3.793254   -0.354417    0.184529
    165          1           0        3.496154    0.852480   -1.921731
    166          1           0        3.153283    2.367604   -0.991711
    167          7           0        6.680918   -0.292585    1.594944
    168          6           0        7.313075   -0.629301    2.849017
    169          1           0        8.197503   -1.237524    2.657708
    170          1           0        7.605679    0.284104    3.366376
    171          1           0        6.614539   -1.190796    3.470065
    172          1           0        6.432519   -1.046799    0.970396
    173         20           0       -1.215959    0.112692   -1.238283
    174          8           0       -2.488813   -0.124207   -3.632740
    175          1           0       -2.365478    0.784910   -3.922558
    176          1           0       -2.462843   -0.638737   -4.435538
 ---------------------------------------------------------------------
 Rotational constants (GHZ):           0.0233398           0.0156981           0.0120842
 Standard basis: SVP (5D, 7F)
 There are  1809 symmetry adapted cartesian basis functions of A   symmetry.
 There are  1717 symmetry adapted basis functions of A   symmetry.
  1717 basis functions,  2922 primitive gaussians,  1809 cartesian basis functions
   358 alpha electrons      358 beta electrons
       nuclear repulsion energy     21812.7793547272 Hartrees.
 NAtoms=  176 NActive=  176 NUniq=  176 SFac= 1.00D+00 NAtFMM=   60 NAOKFM=T Big=T
 Integral buffers will be    131072 words long.
 Raffenetti 2 integral format.
 Two-electron integral symmetry is turned on.
 One-electron integrals computed using PRISM.
 NBasis=  1717 RedAO= T EigKep=  2.72D-04  NBF=  1717
 NBsUse=  1717 1.00D-06 EigRej= -1.00D+00 NBFU=  1717
 ExpMin= 1.98D-02 ExpMax= 3.51D+04 ExpMxC= 5.28D+03 IAcc=3 IRadAn=         5 AccDes= 0.00D+00
 Harris functional with IExCor=  402 and IRadAn=       5 diagonalized for initial guess.
 HarFok:  IExCor=  402 AccDes= 0.00D+00 IRadAn=         5 IDoV= 1 UseB2=F ITyADJ=14
 ICtDFT=  3500011 ScaDFX=  1.000000  1.000000  1.000000  1.000000
 FoFCou: FMM=F IPFlag=           0 FMFlag=      100000 FMFlg1=        2001
         NFxFlg=           0 DoJE=T BraDBF=F KetDBF=T FulRan=T
         wScrn=  0.000000 ICntrl=       500 IOpCl=  0 I1Cent=   200000004 NGrid=           0
         NMat0=    1 NMatS0=      1 NMatT0=    0 NMatD0=    1 NMtDS0=    0 NMtDT0=    0
 Petite list used in FoFCou.
 Requested convergence on RMS density matrix=1.00D-08 within 128 cycles.
 Requested convergence on MAX density matrix=1.00D-06.
 Requested convergence on             energy=1.00D-06.
 No special actions if energy rises.
 EnCoef did     4 forward-backward iterations
 SCF Done:  E(RB3LYP) =  -5333.55567768     A.U. after   17 cycles
            NFock= 17  Conv=0.55D-08     -V/T= 2.0081
 SCF density gives NOpUse=  1 NOpAll=  1.
 Hyperfine terms turned off by default for NAtoms > 100.

 **********************************************************************

            Population analysis using the SCF density.

 **********************************************************************

 Orbital symmetries:
 BldTbl:  Degeneracy threshold= 1.00D-02
       Occupied  (A) (A) (A) (A) (A) (A) (A) (A) (A) (A) (A) (A)
                 (A) (A) (A) (A) (A) (A) (A) (A) (A) (A) (A) (A)
                 (A) (A) (A) (A) (A) (A) (A) (A) (A) (A) (A) (A)
                 (A) (A) (A) (A) (A) (A) (A) (A) (A) (A) (A) (A)
                 (A) (A) (A) (A) (A) (A) (A) (A) (A) (A) (A) (A)
                 (A) (A) (A) (A) (A) (A) (A) (A) (A) (A) (A) (A)
                 (A) (A) (A) (A) (A) (A) (A) (A) (A) (A) (A) (A)
                 (A) (A) (A) (A) (A) (A) (A) (A) (A) (A) (A) (A)
                 (A) (A) (A) (A) (A) (A) (A) (A) (A) (A) (A) (A)
                 (A) (A) (A) (A) (A) (A) (A) (A) (A) (A) (A) (A)
                 (A) (A) (A) (A) (A) (A) (A) (A) (A) (A) (A) (A)
                 (A) (A) (A) (A) (A) (A) (A) (A) (A) (A) (A) (A)
                 (A) (A) (A) (A) (A) (A) (A) (A) (A) (A) (A) (A)
                 (A) (A) (A) (A) (A) (A) (A) (A) (A) (A) (A) (A)
                 (A) (A) (A) (A) (A) (A) (A) (A) (A) (A) (A) (A)
                 (A) (A) (A) (A) (A) (A) (A) (A) (A) (A) (A) (A)
                 (A) (A) (A) (A) (A) (A) (A) (A) (A) (A) (A) (A)
                 (A) (A) (A) (A) (A) (A) (A) (A) (A) (A) (A) (A)
                 (A) (A) (A) (A) (A) (A) (A) (A) (A) (A) (A) (A)
                 (A) (A) (A) (A) (A) (A) (A) (A) (A) (A) (A) (A)
                 (A) (A) (A) (A) (A) (A) (A) (A) (A) (A) (A) (A)
                 (A) (A) (A) (A) (A) (A) (A) (A) (A) (A) (A) (A)
                 (A) (A) (A) (A) (A) (A) (A) (A) (A) (A) (A) (A)
                 (A) (A) (A) (A) (A) (A) (A) (A) (A) (A) (A) (A)
                 (A) (A) (A) (A) (A) (A) (A) (A) (A) (A) (A) (A)
                 (A) (A) (A) (A) (A) (A) (A) (A) (A) (A) (A) (A)
                 (A) (A) (A) (A) (A) (A) (A) (A) (A) (A) (A) (A)
                 (A) (A) (A) (A) (A) (A) (A) (A) (A) (A) (A) (A)
                 (A) (A) (A) (A) (A) (A) (A) (A) (A) (A) (A) (A)
                 (A) (A) (A) (A) (A) (A) (A) (A) (A) (A)
       Virtual   (A) (A) (A) (A) (A) (A) (A) (A) (A) (A) (A) (A)
                 (A) (A) (A) (A) (A) (A) (A) (A) (A) (A) (A) (A)
                 (A) (A) (A) (A) (A) (A) (A) (A) (A) (A) (A) (A)
                 (A) (A) (A) (A) (A) (A) (A) (A) (A) (A) (A) (A)
                 (A) (A) (A) (A) (A) (A) (A) (A) (A) (A) (A) (A)
                 (A) (A) (A) (A) (A) (A) (A) (A) (A) (A) (A) (A)
                 (A) (A) (A) (A) (A) (A) (A) (A) (A) (A) (A) (A)
                 (A) (A) (A) (A) (A) (A) (A) (A) (A) (A) (A) (A)
                 (A) (A) (A) (A) (A) (A) (A) (A) (A) (A) (A) (A)
                 (A) (A) (A) (A) (A) (A) (A) (A) (A) (A) (A) (A)
                 (A) (A) (A) (A) (A) (A) (A) (A) (A) (A) (A) (A)
                 (A) (A) (A) (A) (A) (A) (A) (A) (A) (A) (A) (A)
                 (A) (A) (A) (A) (A) (A) (A) (A) (A) (A) (A) (A)
                 (A) (A) (A) (A) (A) (A) (A) (A) (A) (A) (A) (A)
                 (A) (A) (A) (A) (A) (A) (A) (A) (A) (A) (A) (A)
                 (A) (A) (A) (A) (A) (A) (A) (A) (A) (A) (A) (A)
                 (A) (A) (A) (A) (A) (A) (A) (A) (A) (A) (A) (A)
                 (A) (A) (A) (A) (A) (A) (A) (A) (A) (A) (A) (A)
                 (A) (A) (A) (A) (A) (A) (A) (A) (A) (A) (A) (A)
                 (A) (A) (A) (A) (A) (A) (A) (A) (A) (A) (A) (A)
                 (A) (A) (A) (A) (A) (A) (A) (A) (A) (A) (A) (A)
                 (A) (A) (A) (A) (A) (A) (A) (A) (A) (A) (A) (A)
                 (A) (A) (A) (A) (A) (A) (A) (A) (A) (A) (A) (A)
                 (A) (A) (A) (A) (A) (A) (A) (A) (A) (A) (A) (A)
                 (A) (A) (A) (A) (A) (A) (A) (A) (A) (A) (A) (A)
                 (A) (A) (A) (A) (A) (A) (A) (A) (A) (A) (A) (A)
                 (A) (A) (A) (A) (A) (A) (A) (A) (A) (A) (A) (A)
                 (A) (A) (A) (A) (A) (A) (A) (A) (A) (A) (A) (A)
                 (A) (A) (A) (A) (A) (A) (A) (A) (A) (A) (A) (A)
                 (A) (A) (A) (A) (A) (A) (A) (A) (A) (A) (A) (A)
                 (A) (A) (A) (A) (A) (A) (A) (A) (A) (A) (A) (A)
                 (A) (A) (A) (A) (A) (A) (A) (A) (A) (A) (A) (A)
                 (A) (A) (A) (A) (A) (A) (A) (A) (A) (A) (A) (A)
                 (A) (A) (A) (A) (A) (A) (A) (A) (A) (A) (A) (A)
                 (A) (A) (A) (A) (A) (A) (A) (A) (A) (A) (A) (A)
                 (A) (A) (A) (A) (A) (A) (A) (A) (A) (A) (A) (A)
                 (A) (A) (A) (A) (A) (A) (A) (A) (A) (A) (A) (A)
                 (A) (A) (A) (A) (A) (A) (A) (A) (A) (A) (A) (A)
                 (A) (A) (A) (A) (A) (A) (A) (A) (A) (A) (A) (A)
                 (A) (A) (A) (A) (A) (A) (A) (A) (A) (A) (A) (A)
                 (A) (A) (A) (A) (A) (A) (A) (A) (A) (A) (A) (A)
                 (A) (A) (A) (A) (A) (A) (A) (A) (A) (A) (A) (A)
                 (A) (A) (A) (A) (A) (A) (A) (A) (A) (A) (A) (A)
                 (A) (A) (A) (A) (A) (A) (A) (A) (A) (A) (A) (A)
                 (A) (A) (A) (A) (A) (A) (A) (A) (A) (A) (A) (A)
                 (A) (A) (A) (A) (A) (A) (A) (A) (A) (A) (A) (A)
                 (A) (A) (A) (A) (A) (A) (A) (A) (A) (A) (A) (A)
                 (A) (A) (A) (A) (A) (A) (A) (A) (A) (A) (A) (A)
                 (A) (A) (A) (A) (A) (A) (A) (A) (A) (A) (A) (A)
                 (A) (A) (A) (A) (A) (A) (A) (A) (A) (A) (A) (A)
                 (A) (A) (A) (A) (A) (A) (A) (A) (A) (A) (A) (A)
                 (A) (A) (A) (A) (A) (A) (A) (A) (A) (A) (A) (A)
                 (A) (A) (A) (A) (A) (A) (A) (A) (A) (A) (A) (A)
                 (A) (A) (A) (A) (A) (A) (A) (A) (A) (A) (A) (A)
                 (A) (A) (A) (A) (A) (A) (A) (A) (A) (A) (A) (A)
                 (A) (A) (A) (A) (A) (A) (A) (A) (A) (A) (A) (A)
                 (A) (A) (A) (A) (A) (A) (A) (A) (A) (A) (A) (A)
                 (A) (A) (A) (A) (A) (A) (A) (A) (A) (A) (A) (A)
                 (A) (A) (A) (A) (A) (A) (A) (A) (A) (A) (A) (A)
                 (A) (A) (A) (A) (A) (A) (A) (A) (A) (A) (A) (A)
                 (A) (A) (A) (A) (A) (A) (A) (A) (A) (A) (A) (A)
                 (A) (A) (A) (A) (A) (A) (A) (A) (A) (A) (A) (A)
                 (A) (A) (A) (A) (A) (A) (A) (A) (A) (A) (A) (A)
                 (A) (A) (A) (A) (A) (A) (A) (A) (A) (A) (A) (A)
                 (A) (A) (A) (A) (A) (A) (A) (A) (A) (A) (A) (A)
                 (A) (A) (A) (A) (A) (A) (A) (A) (A) (A) (A) (A)
                 (A) (A) (A) (A) (A) (A) (A) (A) (A) (A) (A) (A)
                 (A) (A) (A) (A) (A) (A) (A) (A) (A) (A) (A) (A)
                 (A) (A) (A) (A) (A) (A) (A) (A) (A) (A) (A) (A)
                 (A) (A) (A) (A) (A) (A) (A) (A) (A) (A) (A) (A)
                 (A) (A) (A) (A) (A) (A) (A) (A) (A) (A) (A) (A)
                 (A) (A) (A) (A) (A) (A) (A) (A) (A) (A) (A) (A)
                 (A) (A) (A) (A) (A) (A) (A) (A) (A) (A) (A) (A)
                 (A) (A) (A) (A) (A) (A) (A) (A) (A) (A) (A) (A)
                 (A) (A) (A) (A) (A) (A) (A) (A) (A) (A) (A) (A)
                 (A) (A) (A) (A) (A) (A) (A) (A) (A) (A) (A) (A)
                 (A) (A) (A) (A) (A) (A) (A) (A) (A) (A) (A) (A)
                 (A) (A) (A) (A) (A) (A) (A) (A) (A) (A) (A) (A)
                 (A) (A) (A) (A) (A) (A) (A) (A) (A) (A) (A) (A)
                 (A) (A) (A) (A) (A) (A) (A) (A) (A) (A) (A) (A)
                 (A) (A) (A) (A) (A) (A) (A) (A) (A) (A) (A) (A)
                 (A) (A) (A) (A) (A) (A) (A) (A) (A) (A) (A) (A)
                 (A) (A) (A) (A) (A) (A) (A) (A) (A) (A) (A) (A)
                 (A) (A) (A) (A) (A) (A) (A) (A) (A) (A) (A) (A)
                 (A) (A) (A) (A) (A) (A) (A) (A) (A) (A) (A) (A)
                 (A) (A) (A) (A) (A) (A) (A) (A) (A) (A) (A) (A)
                 (A) (A) (A) (A) (A) (A) (A) (A) (A) (A) (A) (A)
                 (A) (A) (A) (A) (A) (A) (A) (A) (A) (A) (A) (A)
                 (A) (A) (A) (A) (A) (A) (A) (A) (A) (A) (A) (A)
                 (A) (A) (A) (A) (A) (A) (A) (A) (A) (A) (A) (A)
                 (A) (A) (A) (A) (A) (A) (A) (A) (A) (A) (A) (A)
                 (A) (A) (A) (A) (A) (A) (A) (A) (A) (A) (A) (A)
                 (A) (A) (A) (A) (A) (A) (A) (A) (A) (A) (A) (A)
                 (A) (A) (A) (A) (A) (A) (A) (A) (A) (A) (A) (A)
                 (A) (A) (A) (A) (A) (A) (A) (A) (A) (A) (A) (A)
                 (A) (A) (A) (A) (A) (A) (A) (A) (A) (A) (A) (A)
                 (A) (A) (A) (A) (A) (A) (A) (A) (A) (A) (A) (A)
                 (A) (A) (A) (A) (A) (A) (A) (A) (A) (A) (A) (A)
                 (A) (A) (A) (A) (A) (A) (A) (A) (A) (A) (A) (A)
                 (A) (A) (A) (A) (A) (A) (A) (A) (A) (A) (A) (A)
                 (A) (A) (A) (A) (A) (A) (A) (A) (A) (A) (A) (A)
                 (A) (A) (A) (A) (A) (A) (A) (A) (A) (A) (A) (A)
                 (A) (A) (A) (A) (A) (A) (A) (A) (A) (A) (A) (A)
                 (A) (A) (A) (A) (A) (A) (A) (A) (A) (A) (A) (A)
                 (A) (A) (A) (A) (A) (A) (A) (A) (A) (A) (A) (A)
                 (A) (A) (A) (A) (A) (A) (A) (A) (A) (A) (A) (A)
                 (A) (A) (A) (A) (A) (A) (A) (A) (A) (A) (A) (A)
                 (A) (A) (A) (A) (A) (A) (A) (A) (A) (A) (A) (A)
                 (A) (A) (A) (A) (A) (A) (A) (A) (A) (A) (A) (A)
                 (A) (A) (A) (A) (A) (A) (A) (A) (A) (A) (A) (A)
                 (A) (A) (A) (A) (A) (A) (A) (A) (A) (A) (A) (A)
                 (A) (A) (A) (A) (A) (A) (A) (A) (A) (A) (A) (A)
                 (A) (A) (A) (A) (A) (A) (A) (A) (A) (A) (A) (A)
                 (A) (A) (A)
 The electronic state is 1-A.
 Alpha  occ. eigenvalues -- -145.40442 -19.17246 -19.15619 -19.14622 -19.14350
 Alpha  occ. eigenvalues --  -19.13984 -19.12657 -19.12194 -19.12184 -19.11641
 Alpha  occ. eigenvalues --  -19.11022 -19.10049 -19.09015 -19.08550 -19.07187
 Alpha  occ. eigenvalues --  -19.06994 -19.06660 -19.06335 -19.04856 -19.04209
 Alpha  occ. eigenvalues --  -19.04122 -19.03204 -19.02800 -19.01131 -15.46150
 Alpha  occ. eigenvalues --  -14.58444 -14.40133 -14.38605 -14.37414 -14.37213
 Alpha  occ. eigenvalues --  -14.37031 -14.35109 -14.35106 -14.33959 -14.32969
 Alpha  occ. eigenvalues --  -14.32879 -14.32473 -14.29580 -14.29551 -14.28787
 Alpha  occ. eigenvalues --  -12.59751 -12.59740 -12.59721 -10.34704 -10.32203
 Alpha  occ. eigenvalues --  -10.31625 -10.31605 -10.30348 -10.30178 -10.29324
 Alpha  occ. eigenvalues --  -10.28737 -10.27835 -10.27710 -10.27378 -10.27152
 Alpha  occ. eigenvalues --  -10.26949 -10.26743 -10.26252 -10.26181 -10.26050
 Alpha  occ. eigenvalues --  -10.25877 -10.25457 -10.25088 -10.24649 -10.24210
 Alpha  occ. eigenvalues --  -10.23782 -10.23601 -10.23350 -10.23021 -10.22865
 Alpha  occ. eigenvalues --  -10.22840 -10.22772 -10.22234 -10.21931 -10.21650
 Alpha  occ. eigenvalues --  -10.21321 -10.21225 -10.21049 -10.20851 -10.20778
 Alpha  occ. eigenvalues --  -10.20364 -10.20271 -10.20105 -10.20043 -10.19899
 Alpha  occ. eigenvalues --  -10.19757 -10.19635 -10.19314 -10.18871 -10.18732
 Alpha  occ. eigenvalues --  -10.18680 -10.18285 -10.18157 -10.17933 -10.16956
 Alpha  occ. eigenvalues --  -10.16370 -10.15855  -1.82845  -1.13769  -1.10400
 Alpha  occ. eigenvalues --   -1.10159  -1.10094  -1.07797  -1.07586  -1.06108
 Alpha  occ. eigenvalues --   -1.05637  -1.05033  -1.04763  -1.03703  -1.03052
 Alpha  occ. eigenvalues --   -1.02953  -1.02109  -1.01906  -1.01832  -1.00827
 Alpha  occ. eigenvalues --   -1.00643  -1.00399  -0.99483  -0.97963  -0.97534
 Alpha  occ. eigenvalues --   -0.97486  -0.97036  -0.96818  -0.95895  -0.95356
 Alpha  occ. eigenvalues --   -0.94646  -0.94041  -0.94014  -0.91699  -0.90895
 Alpha  occ. eigenvalues --   -0.90606  -0.90237  -0.90075  -0.89854  -0.89235
 Alpha  occ. eigenvalues --   -0.88727  -0.86833  -0.86380  -0.86132  -0.85926
 Alpha  occ. eigenvalues --   -0.85341  -0.83600  -0.82848  -0.81943  -0.81307
 Alpha  occ. eigenvalues --   -0.80254  -0.78841  -0.78493  -0.77062  -0.76009
 Alpha  occ. eigenvalues --   -0.75912  -0.75516  -0.75403  -0.75144  -0.75093
 Alpha  occ. eigenvalues --   -0.73753  -0.73616  -0.72857  -0.71402  -0.71355
 Alpha  occ. eigenvalues --   -0.70974  -0.69813  -0.69581  -0.68867  -0.68727
 Alpha  occ. eigenvalues --   -0.68172  -0.67601  -0.65996  -0.65500  -0.64548
 Alpha  occ. eigenvalues --   -0.63852  -0.63788  -0.63452  -0.63440  -0.63379
 Alpha  occ. eigenvalues --   -0.62324  -0.62188  -0.61745  -0.61309  -0.60652
 Alpha  occ. eigenvalues --   -0.59996  -0.59605  -0.59443  -0.58799  -0.58259
 Alpha  occ. eigenvalues --   -0.57873  -0.57410  -0.56979  -0.56772  -0.56619
 Alpha  occ. eigenvalues --   -0.56546  -0.56276  -0.55335  -0.55155  -0.54987
 Alpha  occ. eigenvalues --   -0.54861  -0.54561  -0.54182  -0.53956  -0.53678
 Alpha  occ. eigenvalues --   -0.53184  -0.52864  -0.52616  -0.52364  -0.52251
 Alpha  occ. eigenvalues --   -0.51863  -0.51537  -0.51315  -0.50965  -0.50797
 Alpha  occ. eigenvalues --   -0.50684  -0.50378  -0.49869  -0.49691  -0.49430
 Alpha  occ. eigenvalues --   -0.49259  -0.49170  -0.48961  -0.48596  -0.48388
 Alpha  occ. eigenvalues --   -0.48222  -0.48007  -0.47916  -0.47693  -0.47504
 Alpha  occ. eigenvalues --   -0.47241  -0.47237  -0.46919  -0.46560  -0.46530
 Alpha  occ. eigenvalues --   -0.46312  -0.46019  -0.45956  -0.45669  -0.45456
 Alpha  occ. eigenvalues --   -0.45234  -0.45005  -0.44878  -0.44804  -0.44678
 Alpha  occ. eigenvalues --   -0.44421  -0.44222  -0.44008  -0.43944  -0.43870
 Alpha  occ. eigenvalues --   -0.43813  -0.43786  -0.43506  -0.43380  -0.43230
 Alpha  occ. eigenvalues --   -0.43015  -0.42987  -0.42805  -0.42710  -0.42524
 Alpha  occ. eigenvalues --   -0.42370  -0.42104  -0.41758  -0.41577  -0.41385
 Alpha  occ. eigenvalues --   -0.41250  -0.41204  -0.41129  -0.41007  -0.40735
 Alpha  occ. eigenvalues --   -0.40701  -0.40358  -0.40321  -0.40191  -0.40152
 Alpha  occ. eigenvalues --   -0.39915  -0.39835  -0.39727  -0.39572  -0.39336
 Alpha  occ. eigenvalues --   -0.39206  -0.39123  -0.38853  -0.38708  -0.38608
 Alpha  occ. eigenvalues --   -0.38542  -0.38175  -0.38160  -0.38018  -0.37984
 Alpha  occ. eigenvalues --   -0.37826  -0.37614  -0.37601  -0.37207  -0.37009
 Alpha  occ. eigenvalues --   -0.36929  -0.36722  -0.36637  -0.36570  -0.36404
 Alpha  occ. eigenvalues --   -0.36261  -0.35860  -0.35606  -0.35565  -0.35478
 Alpha  occ. eigenvalues --   -0.35134  -0.34978  -0.34871  -0.34865  -0.34411
 Alpha  occ. eigenvalues --   -0.34202  -0.34116  -0.33820  -0.33725  -0.33472
 Alpha  occ. eigenvalues --   -0.32856  -0.32782  -0.32421  -0.32285  -0.31990
 Alpha  occ. eigenvalues --   -0.31702  -0.31647  -0.31350  -0.31074  -0.30797
 Alpha  occ. eigenvalues --   -0.30353  -0.30105  -0.29608  -0.29600  -0.29124
 Alpha  occ. eigenvalues --   -0.28941  -0.28710  -0.28492  -0.28161  -0.27984
 Alpha  occ. eigenvalues --   -0.27208  -0.26882  -0.26863  -0.26734  -0.25887
 Alpha  occ. eigenvalues --   -0.25503  -0.25448  -0.25276  -0.24914  -0.24633
 Alpha  occ. eigenvalues --   -0.24148  -0.24120  -0.23959  -0.23690  -0.23362
 Alpha  occ. eigenvalues --   -0.23327  -0.22338  -0.22078  -0.21922  -0.21498
 Alpha  occ. eigenvalues --   -0.20602  -0.20479  -0.20104  -0.19799  -0.19507
 Alpha  occ. eigenvalues --   -0.18743  -0.17886  -0.17029
 Alpha virt. eigenvalues --   -0.10340  -0.04734  -0.04019  -0.03744  -0.03007
 Alpha virt. eigenvalues --   -0.02738  -0.02184  -0.01655  -0.00981  -0.00953
 Alpha virt. eigenvalues --   -0.00732  -0.00336   0.00071   0.00556   0.00904
 Alpha virt. eigenvalues --    0.01536   0.01956   0.02232   0.02615   0.03003
 Alpha virt. eigenvalues --    0.03200   0.03258   0.03427   0.03906   0.04170
 Alpha virt. eigenvalues --    0.04288   0.04486   0.04643   0.04987   0.05136
 Alpha virt. eigenvalues --    0.05299   0.05742   0.05848   0.06216   0.06356
 Alpha virt. eigenvalues --    0.06476   0.06665   0.06819   0.07009   0.07320
 Alpha virt. eigenvalues --    0.07418   0.07493   0.07744   0.07962   0.08068
 Alpha virt. eigenvalues --    0.08681   0.08752   0.08924   0.09108   0.09324
 Alpha virt. eigenvalues --    0.09584   0.09804   0.09926   0.10037   0.10076
 Alpha virt. eigenvalues --    0.10303   0.10517   0.10650   0.10875   0.10949
 Alpha virt. eigenvalues --    0.11433   0.11510   0.11656   0.11882   0.11897
 Alpha virt. eigenvalues --    0.12293   0.12386   0.12436   0.12548   0.12898
 Alpha virt. eigenvalues --    0.13002   0.13095   0.13427   0.13709   0.13818
 Alpha virt. eigenvalues --    0.13915   0.13955   0.14237   0.14379   0.14615
 Alpha virt. eigenvalues --    0.14694   0.14907   0.14982   0.15152   0.15203
 Alpha virt. eigenvalues --    0.15487   0.15704   0.15942   0.16255   0.16269
 Alpha virt. eigenvalues --    0.16564   0.16828   0.16886   0.16988   0.17419
 Alpha virt. eigenvalues --    0.17536   0.17853   0.18067   0.18212   0.18289
 Alpha virt. eigenvalues --    0.18382   0.18562   0.18777   0.18962   0.19180
 Alpha virt. eigenvalues --    0.19360   0.19462   0.19533   0.19763   0.19795
 Alpha virt. eigenvalues --    0.20123   0.20397   0.20531   0.20717   0.20955
 Alpha virt. eigenvalues --    0.21083   0.21365   0.21464   0.21542   0.21818
 Alpha virt. eigenvalues --    0.21919   0.21957   0.22191   0.22421   0.22533
 Alpha virt. eigenvalues --    0.22819   0.23145   0.23446   0.23615   0.23796
 Alpha virt. eigenvalues --    0.24053   0.24426   0.24592   0.24821   0.25028
 Alpha virt. eigenvalues --    0.25178   0.25532   0.25683   0.26016   0.26318
 Alpha virt. eigenvalues --    0.26670   0.26692   0.26887   0.26928   0.27198
 Alpha virt. eigenvalues --    0.27252   0.27511   0.27662   0.27886   0.28137
 Alpha virt. eigenvalues --    0.28432   0.28486   0.29022   0.29325   0.29534
 Alpha virt. eigenvalues --    0.29797   0.30098   0.30378   0.30629   0.30812
 Alpha virt. eigenvalues --    0.31152   0.31242   0.31480   0.31724   0.32143
 Alpha virt. eigenvalues --    0.32493   0.32668   0.33028   0.33283   0.33546
 Alpha virt. eigenvalues --    0.33626   0.34054   0.34173   0.34305   0.34415
 Alpha virt. eigenvalues --    0.34652   0.35106   0.35324   0.35599   0.35975
 Alpha virt. eigenvalues --    0.36331   0.36474   0.36664   0.36988   0.37268
 Alpha virt. eigenvalues --    0.37803   0.37957   0.38106   0.38602   0.38771
 Alpha virt. eigenvalues --    0.38898   0.39312   0.39452   0.39760   0.39844
 Alpha virt. eigenvalues --    0.40025   0.40409   0.40512   0.40869   0.41127
 Alpha virt. eigenvalues --    0.41385   0.41552   0.41712   0.41862   0.42303
 Alpha virt. eigenvalues --    0.42538   0.42800   0.42941   0.43358   0.43613
 Alpha virt. eigenvalues --    0.43860   0.44197   0.44304   0.44464   0.44588
 Alpha virt. eigenvalues --    0.44739   0.44950   0.45154   0.45277   0.45591
 Alpha virt. eigenvalues --    0.45634   0.45730   0.45936   0.46330   0.46611
 Alpha virt. eigenvalues --    0.46706   0.46861   0.46998   0.47233   0.47415
 Alpha virt. eigenvalues --    0.47535   0.47855   0.48257   0.48362   0.48604
 Alpha virt. eigenvalues --    0.48756   0.48820   0.49069   0.49134   0.49497
 Alpha virt. eigenvalues --    0.49664   0.49878   0.50174   0.50257   0.50405
 Alpha virt. eigenvalues --    0.50839   0.50941   0.51335   0.51439   0.51605
 Alpha virt. eigenvalues --    0.51756   0.51944   0.52318   0.52393   0.52547
 Alpha virt. eigenvalues --    0.52603   0.52751   0.52945   0.53059   0.53441
 Alpha virt. eigenvalues --    0.53538   0.53639   0.54126   0.54149   0.54271
 Alpha virt. eigenvalues --    0.54391   0.54656   0.54754   0.54805   0.54984
 Alpha virt. eigenvalues --    0.55347   0.55649   0.55866   0.56177   0.56342
 Alpha virt. eigenvalues --    0.56394   0.56614   0.56860   0.56872   0.57023
 Alpha virt. eigenvalues --    0.57341   0.57645   0.57713   0.57814   0.58119
 Alpha virt. eigenvalues --    0.58214   0.58463   0.58646   0.58790   0.58963
 Alpha virt. eigenvalues --    0.59051   0.59218   0.59491   0.59524   0.59637
 Alpha virt. eigenvalues --    0.60035   0.60071   0.60272   0.60338   0.60448
 Alpha virt. eigenvalues --    0.60650   0.60777   0.60792   0.61037   0.61119
 Alpha virt. eigenvalues --    0.61366   0.61434   0.61574   0.61721   0.61803
 Alpha virt. eigenvalues --    0.61878   0.61961   0.62156   0.62269   0.62406
 Alpha virt. eigenvalues --    0.62471   0.62605   0.62771   0.62962   0.63024
 Alpha virt. eigenvalues --    0.63221   0.63375   0.63422   0.63633   0.63688
 Alpha virt. eigenvalues --    0.63787   0.63900   0.64016   0.64162   0.64296
 Alpha virt. eigenvalues --    0.64337   0.64402   0.64486   0.64608   0.64863
 Alpha virt. eigenvalues --    0.64885   0.65035   0.65236   0.65306   0.65355
 Alpha virt. eigenvalues --    0.65537   0.65566   0.65786   0.65876   0.66021
 Alpha virt. eigenvalues --    0.66172   0.66279   0.66309   0.66445   0.66499
 Alpha virt. eigenvalues --    0.66689   0.66774   0.66892   0.66964   0.66986
 Alpha virt. eigenvalues --    0.67169   0.67208   0.67340   0.67567   0.67696
 Alpha virt. eigenvalues --    0.67769   0.67838   0.68040   0.68109   0.68170
 Alpha virt. eigenvalues --    0.68299   0.68633   0.68744   0.68860   0.68995
 Alpha virt. eigenvalues --    0.69025   0.69258   0.69301   0.69493   0.69571
 Alpha virt. eigenvalues --    0.69657   0.69676   0.69909   0.70181   0.70332
 Alpha virt. eigenvalues --    0.70402   0.70489   0.70607   0.70739   0.70797
 Alpha virt. eigenvalues --    0.71005   0.71060   0.71185   0.71509   0.71654
 Alpha virt. eigenvalues --    0.71778   0.71962   0.72136   0.72356   0.72486
 Alpha virt. eigenvalues --    0.72596   0.72803   0.72978   0.73036   0.73282
 Alpha virt. eigenvalues --    0.73453   0.73613   0.73787   0.73849   0.74305
 Alpha virt. eigenvalues --    0.74698   0.74767   0.74970   0.75132   0.75316
 Alpha virt. eigenvalues --    0.75585   0.75873   0.76034   0.76249   0.76448
 Alpha virt. eigenvalues --    0.76813   0.77100   0.77304   0.77391   0.77616
 Alpha virt. eigenvalues --    0.77929   0.78299   0.78512   0.78701   0.78893
 Alpha virt. eigenvalues --    0.79089   0.79196   0.79448   0.79751   0.79947
 Alpha virt. eigenvalues --    0.80138   0.80517   0.80607   0.80820   0.81139
 Alpha virt. eigenvalues --    0.81292   0.81762   0.82217   0.82393   0.82740
 Alpha virt. eigenvalues --    0.82906   0.83325   0.83487   0.83709   0.83974
 Alpha virt. eigenvalues --    0.84111   0.84392   0.84581   0.84924   0.85414
 Alpha virt. eigenvalues --    0.85533   0.85891   0.86064   0.86511   0.86914
 Alpha virt. eigenvalues --    0.87093   0.87275   0.87457   0.87548   0.88021
 Alpha virt. eigenvalues --    0.88297   0.88589   0.88770   0.89085   0.89369
 Alpha virt. eigenvalues --    0.89727   0.90001   0.90393   0.90932   0.91249
 Alpha virt. eigenvalues --    0.91551   0.91707   0.91792   0.91960   0.92471
 Alpha virt. eigenvalues --    0.92638   0.93313   0.93471   0.93805   0.94026
 Alpha virt. eigenvalues --    0.94233   0.94509   0.94851   0.95112   0.95466
 Alpha virt. eigenvalues --    0.95904   0.96022   0.96723   0.97029   0.97183
 Alpha virt. eigenvalues --    0.97260   0.97471   0.97654   0.97899   0.98035
 Alpha virt. eigenvalues --    0.98425   0.98590   0.98735   0.98940   0.99539
 Alpha virt. eigenvalues --    0.99741   1.00349   1.00569   1.00746   1.01055
 Alpha virt. eigenvalues --    1.01484   1.02028   1.02149   1.02517   1.03120
 Alpha virt. eigenvalues --    1.03148   1.03381   1.03663   1.03925   1.04084
 Alpha virt. eigenvalues --    1.04588   1.04897   1.05474   1.05601   1.06018
 Alpha virt. eigenvalues --    1.06383   1.06528   1.06675   1.06780   1.07091
 Alpha virt. eigenvalues --    1.07279   1.07435   1.07707   1.08080   1.08187
 Alpha virt. eigenvalues --    1.08706   1.09357   1.09675   1.09730   1.10354
 Alpha virt. eigenvalues --    1.10724   1.10840   1.11009   1.11272   1.11692
 Alpha virt. eigenvalues --    1.11999   1.12351   1.12643   1.12856   1.13080
 Alpha virt. eigenvalues --    1.13332   1.13685   1.13936   1.13965   1.14173
 Alpha virt. eigenvalues --    1.14330   1.14902   1.15092   1.15365   1.15604
 Alpha virt. eigenvalues --    1.15760   1.16174   1.16475   1.16608   1.16894
 Alpha virt. eigenvalues --    1.17133   1.17304   1.17563   1.17838   1.18080
 Alpha virt. eigenvalues --    1.18355   1.18596   1.18704   1.18999   1.19316
 Alpha virt. eigenvalues --    1.19830   1.19857   1.20025   1.20579   1.20666
 Alpha virt. eigenvalues --    1.20978   1.21212   1.21692   1.21990   1.22452
 Alpha virt. eigenvalues --    1.22651   1.22919   1.23026   1.23325   1.23513
 Alpha virt. eigenvalues --    1.23769   1.24079   1.24149   1.24510   1.24563
 Alpha virt. eigenvalues --    1.24808   1.25214   1.25382   1.25565   1.25931
 Alpha virt. eigenvalues --    1.26253   1.26557   1.26641   1.26914   1.27321
 Alpha virt. eigenvalues --    1.27726   1.27940   1.28242   1.28743   1.28879
 Alpha virt. eigenvalues --    1.28982   1.29078   1.29443   1.29705   1.29843
 Alpha virt. eigenvalues --    1.30101   1.30589   1.30685   1.31136   1.31166
 Alpha virt. eigenvalues --    1.31617   1.32006   1.32161   1.32421   1.32893
 Alpha virt. eigenvalues --    1.33005   1.33245   1.33449   1.33781   1.34027
 Alpha virt. eigenvalues --    1.34258   1.34696   1.34879   1.35149   1.35549
 Alpha virt. eigenvalues --    1.35618   1.36166   1.36285   1.36662   1.36912
 Alpha virt. eigenvalues --    1.37191   1.37370   1.37524   1.37596   1.37744
 Alpha virt. eigenvalues --    1.37911   1.38592   1.38634   1.38660   1.39163
 Alpha virt. eigenvalues --    1.39514   1.39989   1.40066   1.40426   1.40676
 Alpha virt. eigenvalues --    1.40973   1.41203   1.41735   1.42036   1.42227
 Alpha virt. eigenvalues --    1.42431   1.42742   1.42890   1.43371   1.43695
 Alpha virt. eigenvalues --    1.43872   1.43975   1.44154   1.44654   1.45293
 Alpha virt. eigenvalues --    1.45460   1.45677   1.46019   1.46318   1.46537
 Alpha virt. eigenvalues --    1.46856   1.47021   1.47253   1.47384   1.47780
 Alpha virt. eigenvalues --    1.48050   1.48651   1.49078   1.49345   1.49741
 Alpha virt. eigenvalues --    1.49866   1.50078   1.50434   1.50705   1.51024
 Alpha virt. eigenvalues --    1.51326   1.51810   1.51878   1.52080   1.52136
 Alpha virt. eigenvalues --    1.52645   1.52925   1.53025   1.53111   1.53572
 Alpha virt. eigenvalues --    1.53716   1.53863   1.54156   1.54257   1.54853
 Alpha virt. eigenvalues --    1.55105   1.55553   1.56051   1.56324   1.56562
 Alpha virt. eigenvalues --    1.56699   1.57370   1.57724   1.58073   1.58271
 Alpha virt. eigenvalues --    1.58726   1.59200   1.59583   1.59830   1.60050
 Alpha virt. eigenvalues --    1.60283   1.60662   1.60981   1.61231   1.61589
 Alpha virt. eigenvalues --    1.61907   1.62225   1.62554   1.62797   1.62828
 Alpha virt. eigenvalues --    1.63661   1.63699   1.64036   1.64576   1.64645
 Alpha virt. eigenvalues --    1.65323   1.65653   1.65963   1.66104   1.66306
 Alpha virt. eigenvalues --    1.66538   1.66631   1.67154   1.67466   1.67918
 Alpha virt. eigenvalues --    1.68097   1.68274   1.68322   1.68920   1.68995
 Alpha virt. eigenvalues --    1.69170   1.69503   1.69900   1.69958   1.70236
 Alpha virt. eigenvalues --    1.70669   1.70963   1.71161   1.71230   1.71485
 Alpha virt. eigenvalues --    1.71676   1.72039   1.72200   1.72378   1.72778
 Alpha virt. eigenvalues --    1.72906   1.72988   1.73404   1.73568   1.73632
 Alpha virt. eigenvalues --    1.73882   1.73987   1.74172   1.74363   1.74456
 Alpha virt. eigenvalues --    1.74916   1.75041   1.75252   1.75463   1.75638
 Alpha virt. eigenvalues --    1.75825   1.75913   1.75954   1.76135   1.76356
 Alpha virt. eigenvalues --    1.76510   1.76554   1.76746   1.76878   1.77053
 Alpha virt. eigenvalues --    1.77176   1.77362   1.77547   1.77684   1.77840
 Alpha virt. eigenvalues --    1.78003   1.78093   1.78393   1.78596   1.78757
 Alpha virt. eigenvalues --    1.79073   1.79114   1.79200   1.79267   1.79546
 Alpha virt. eigenvalues --    1.79865   1.79890   1.80070   1.80437   1.80523
 Alpha virt. eigenvalues --    1.80719   1.80959   1.81146   1.81348   1.81390
 Alpha virt. eigenvalues --    1.81609   1.81983   1.82285   1.82419   1.82583
 Alpha virt. eigenvalues --    1.82720   1.82848   1.83043   1.83447   1.83585
 Alpha virt. eigenvalues --    1.83817   1.83917   1.84102   1.84304   1.84446
 Alpha virt. eigenvalues --    1.84668   1.84720   1.85212   1.85548   1.85635
 Alpha virt. eigenvalues --    1.85987   1.86072   1.86170   1.86380   1.86552
 Alpha virt. eigenvalues --    1.86747   1.87283   1.87341   1.87529   1.87868
 Alpha virt. eigenvalues --    1.88129   1.88292   1.88371   1.88616   1.88765
 Alpha virt. eigenvalues --    1.89019   1.89108   1.89317   1.89545   1.89572
 Alpha virt. eigenvalues --    1.89681   1.89985   1.90189   1.90295   1.90535
 Alpha virt. eigenvalues --    1.90811   1.90838   1.90926   1.91047   1.91298
 Alpha virt. eigenvalues --    1.91644   1.91994   1.92150   1.92410   1.92488
 Alpha virt. eigenvalues --    1.92668   1.93035   1.93155   1.93375   1.93500
 Alpha virt. eigenvalues --    1.93884   1.93939   1.94177   1.94220   1.94570
 Alpha virt. eigenvalues --    1.94722   1.95002   1.95268   1.95349   1.95481
 Alpha virt. eigenvalues --    1.95888   1.96028   1.96274   1.96642   1.96828
 Alpha virt. eigenvalues --    1.97082   1.97316   1.97480   1.97767   1.98020
 Alpha virt. eigenvalues --    1.98447   1.98609   1.98691   1.99058   1.99154
 Alpha virt. eigenvalues --    1.99262   1.99614   1.99785   1.99934   2.00034
 Alpha virt. eigenvalues --    2.00289   2.00565   2.00632   2.00882   2.01198
 Alpha virt. eigenvalues --    2.01767   2.01817   2.01970   2.02359   2.02559
 Alpha virt. eigenvalues --    2.02874   2.03047   2.03377   2.03794   2.03989
 Alpha virt. eigenvalues --    2.04330   2.04434   2.04942   2.05307   2.05496
 Alpha virt. eigenvalues --    2.05681   2.05912   2.06305   2.06530   2.06666
 Alpha virt. eigenvalues --    2.06767   2.06961   2.07536   2.07831   2.08071
 Alpha virt. eigenvalues --    2.08524   2.08709   2.08870   2.09277   2.09427
 Alpha virt. eigenvalues --    2.09675   2.10216   2.10272   2.10412   2.10718
 Alpha virt. eigenvalues --    2.10842   2.11145   2.11554   2.11931   2.12081
 Alpha virt. eigenvalues --    2.12342   2.12392   2.12444   2.12906   2.13239
 Alpha virt. eigenvalues --    2.13913   2.14068   2.14313   2.14439   2.14918
 Alpha virt. eigenvalues --    2.15263   2.15405   2.15559   2.16074   2.16282
 Alpha virt. eigenvalues --    2.16604   2.16712   2.16857   2.17000   2.17325
 Alpha virt. eigenvalues --    2.17750   2.18169   2.18501   2.18584   2.19073
 Alpha virt. eigenvalues --    2.19455   2.19668   2.19817   2.20315   2.20599
 Alpha virt. eigenvalues --    2.21019   2.21195   2.21536   2.21625   2.21883
 Alpha virt. eigenvalues --    2.22090   2.22653   2.22788   2.23136   2.23371
 Alpha virt. eigenvalues --    2.23813   2.24053   2.24169   2.24959   2.25347
 Alpha virt. eigenvalues --    2.25594   2.26184   2.26524   2.26657   2.27239
 Alpha virt. eigenvalues --    2.27537   2.27657   2.28026   2.28342   2.28984
 Alpha virt. eigenvalues --    2.29076   2.29449   2.29777   2.30130   2.30440
 Alpha virt. eigenvalues --    2.30723   2.30883   2.31119   2.31727   2.31961
 Alpha virt. eigenvalues --    2.32282   2.33144   2.33434   2.33667   2.33792
 Alpha virt. eigenvalues --    2.34126   2.34265   2.34751   2.34896   2.35282
 Alpha virt. eigenvalues --    2.35385   2.35762   2.35902   2.35921   2.36423
 Alpha virt. eigenvalues --    2.36579   2.36788   2.36940   2.37339   2.37633
 Alpha virt. eigenvalues --    2.38094   2.38807   2.38921   2.39340   2.39740
 Alpha virt. eigenvalues --    2.40177   2.40485   2.40722   2.40856   2.41106
 Alpha virt. eigenvalues --    2.41224   2.41717   2.41967   2.42450   2.42652
 Alpha virt. eigenvalues --    2.42830   2.43382   2.43676   2.43943   2.44212
 Alpha virt. eigenvalues --    2.44631   2.45333   2.45473   2.45486   2.45757
 Alpha virt. eigenvalues --    2.46177   2.46320   2.46403   2.46660   2.47040
 Alpha virt. eigenvalues --    2.47649   2.47931   2.48317   2.48781   2.49441
 Alpha virt. eigenvalues --    2.49911   2.50032   2.50929   2.51135   2.51603
 Alpha virt. eigenvalues --    2.51737   2.51977   2.52268   2.52614   2.53127
 Alpha virt. eigenvalues --    2.53568   2.53938   2.54409   2.54573   2.54679
 Alpha virt. eigenvalues --    2.55136   2.55374   2.55922   2.56365   2.56844
 Alpha virt. eigenvalues --    2.56988   2.57483   2.57595   2.58152   2.58576
 Alpha virt. eigenvalues --    2.58935   2.59027   2.59349   2.59588   2.60215
 Alpha virt. eigenvalues --    2.60344   2.60517   2.60875   2.61107   2.61552
 Alpha virt. eigenvalues --    2.61931   2.62489   2.62701   2.62834   2.62849
 Alpha virt. eigenvalues --    2.63314   2.63737   2.64020   2.64323   2.64484
 Alpha virt. eigenvalues --    2.64828   2.64947   2.65159   2.65221   2.65666
 Alpha virt. eigenvalues --    2.65755   2.66125   2.66245   2.66819   2.67562
 Alpha virt. eigenvalues --    2.67905   2.68059   2.68160   2.68590   2.68677
 Alpha virt. eigenvalues --    2.69455   2.69589   2.69715   2.69979   2.70167
 Alpha virt. eigenvalues --    2.70264   2.70654   2.71015   2.71128   2.71288
 Alpha virt. eigenvalues --    2.71626   2.71925   2.72295   2.72947   2.73201
 Alpha virt. eigenvalues --    2.73426   2.73563   2.73925   2.73970   2.74118
 Alpha virt. eigenvalues --    2.74291   2.74489   2.74670   2.75012   2.75897
 Alpha virt. eigenvalues --    2.76065   2.76306   2.76599   2.76962   2.77108
 Alpha virt. eigenvalues --    2.77321   2.77789   2.78035   2.78126   2.78458
 Alpha virt. eigenvalues --    2.78853   2.79136   2.79515   2.79623   2.79985
 Alpha virt. eigenvalues --    2.80168   2.80604   2.80985   2.81023   2.81159
 Alpha virt. eigenvalues --    2.81508   2.81805   2.82109   2.82175   2.82483
 Alpha virt. eigenvalues --    2.82784   2.83157   2.83306   2.84029   2.84378
 Alpha virt. eigenvalues --    2.84596   2.84769   2.85375   2.85528   2.85941
 Alpha virt. eigenvalues --    2.85986   2.86123   2.86302   2.86731   2.86956
 Alpha virt. eigenvalues --    2.87403   2.87511   2.87926   2.88238   2.88609
 Alpha virt. eigenvalues --    2.89433   2.89771   2.90034   2.90144   2.90257
 Alpha virt. eigenvalues --    2.90525   2.90648   2.90921   2.91325   2.91536
 Alpha virt. eigenvalues --    2.91822   2.91980   2.92425   2.92878   2.93019
 Alpha virt. eigenvalues --    2.93063   2.93237   2.93498   2.94311   2.94604
 Alpha virt. eigenvalues --    2.95017   2.95146   2.95177   2.95382   2.95733
 Alpha virt. eigenvalues --    2.96184   2.96849   2.97007   2.97340   2.97484
 Alpha virt. eigenvalues --    2.97953   2.98078   2.98616   2.98867   2.99168
 Alpha virt. eigenvalues --    2.99326   3.00014   3.00252   3.00561   3.00985
 Alpha virt. eigenvalues --    3.01154   3.01647   3.01924   3.02251   3.02405
 Alpha virt. eigenvalues --    3.02609   3.03188   3.03322   3.03436   3.03814
 Alpha virt. eigenvalues --    3.04462   3.04917   3.05308   3.05418   3.06261
 Alpha virt. eigenvalues --    3.06413   3.06662   3.07205   3.07447   3.07922
 Alpha virt. eigenvalues --    3.09161   3.10002   3.10104   3.10614   3.11212
 Alpha virt. eigenvalues --    3.11304   3.11746   3.13193   3.13677   3.13990
 Alpha virt. eigenvalues --    3.14606   3.14672   3.14893   3.15183   3.15272
 Alpha virt. eigenvalues --    3.16331   3.16943   3.17024   3.17699   3.17845
 Alpha virt. eigenvalues --    3.18404   3.18703   3.18944   3.19231   3.19258
 Alpha virt. eigenvalues --    3.19454   3.20212   3.20361   3.20559   3.20811
 Alpha virt. eigenvalues --    3.21592   3.22185   3.22498   3.22743   3.22785
 Alpha virt. eigenvalues --    3.23129   3.23502   3.23559   3.24235   3.24934
 Alpha virt. eigenvalues --    3.25422   3.25839   3.26236   3.26435   3.27075
 Alpha virt. eigenvalues --    3.27642   3.27703   3.28008   3.28593   3.29247
 Alpha virt. eigenvalues --    3.29836   3.30451   3.32054   3.33727   3.34731
 Alpha virt. eigenvalues --    3.35820   3.36080   3.36171   3.37306   3.38495
 Alpha virt. eigenvalues --    3.39676   3.40723   3.42372   3.49444   3.53170
 Alpha virt. eigenvalues --    3.53415   3.54097   3.54206   3.54448   3.54520
 Alpha virt. eigenvalues --    3.55879   3.56220   3.56445   3.57159   3.59386
 Alpha virt. eigenvalues --    3.59600   3.61503   3.63329   3.63554   3.63974
 Alpha virt. eigenvalues --    3.64128   3.64652   3.65202   3.66652   3.67756
 Alpha virt. eigenvalues --    3.68510   3.68824   3.69323   3.69721   3.70191
 Alpha virt. eigenvalues --    3.70605   3.70928   3.71730   3.71908   3.72279
 Alpha virt. eigenvalues --    3.73105   3.73464   3.73500   3.73881   3.76058
 Alpha virt. eigenvalues --    3.76968   3.81125   3.85139   3.86161
          Condensed to atoms (all electrons):
 Mulliken charges:
               1
     1  C    0.073339
     2  C    0.024206
     3  O   -0.304239
     4  H    0.040498
     5  H    0.040303
     6  H   -0.010739
     7  N   -0.124236
     8  C    0.115862
     9  C    0.058796
    10  O   -0.278605
    11  C    0.098271
    12  C    0.146830
    13  O   -0.474671
    14  O   -0.378270
    15  H    0.124936
    16  H   -0.018733
    17  H   -0.000118
    18  H   -0.007315
    19  N   -0.121793
    20  C    0.180864
    21  C    0.027881
    22  O   -0.273017
    23  C   -0.069093
    24  C    0.071473
    25  C   -0.000032
    26  C   -0.036419
    27  N    0.089143
    28  H    0.151232
    29  H    0.011221
    30  H   -0.019947
    31  H    0.012309
    32  H    0.047007
    33  H    0.028007
    34  H    0.009573
    35  H    0.032219
    36  H    0.063635
    37  H    0.085602
    38  H    0.196932
    39  H    0.210042
    40  H    0.203844
    41  N   -0.137357
    42  C    0.156056
    43  C    0.043009
    44  O   -0.272438
    45  C    0.055965
    46  C    0.115253
    47  O   -0.451305
    48  O   -0.394675
    49  H    0.129275
    50  H   -0.001522
    51  H   -0.009743
    52  H    0.033824
    53  N   -0.176906
    54  C    0.251044
    55  C    0.040066
    56  O   -0.296578
    57  H    0.148534
    58  H    0.016871
    59  H    0.050259
    60  N   -0.126823
    61  C    0.131281
    62  C    0.057895
    63  O   -0.306518
    64  C    0.105722
    65  C    0.045208
    66  N   -0.026707
    67  O   -0.351591
    68  H    0.123958
    69  H    0.015921
    70  H    0.027248
    71  H   -0.026279
    72  H    0.135014
    73  H    0.125007
    74  N   -0.174748
    75  C    0.233399
    76  C    0.050064
    77  O   -0.310769
    78  H    0.156821
    79  H    0.032846
    80  H    0.034852
    81  N   -0.162771
    82  C    0.114842
    83  C    0.091311
    84  O   -0.340703
    85  C    0.189426
    86  C   -0.130647
    87  C    0.016593
    88  C    0.000511
    89  C    0.002466
    90  C   -0.081552
    91  C    0.161273
    92  O   -0.180883
    93  H    0.171623
    94  H   -0.008989
    95  H    0.019656
    96  H   -0.014439
    97  H    0.015285
    98  H   -0.032999
    99  H   -0.007902
   100  H   -0.050400
   101  H    0.167870
   102  N   -0.104561
   103  C    0.133957
   104  C    0.068852
   105  O   -0.287699
   106  C   -0.033201
   107  C    0.007704
   108  C    0.039837
   109  C    0.016109
   110  H    0.126725
   111  H   -0.003273
   112  H   -0.006113
   113  H    0.013180
   114  H   -0.015780
   115  H    0.000257
   116  H    0.009731
   117  H    0.036680
   118  H    0.004383
   119  H    0.012921
   120  H   -0.004333
   121  N   -0.147686
   122  C    0.076822
   123  C    0.103489
   124  O   -0.265844
   125  C    0.257964
   126  O   -0.351296
   127  H    0.162330
   128  H    0.014818
   129  H   -0.009240
   130  H   -0.023796
   131  H    0.174664
   132  N   -0.122633
   133  C    0.044848
   134  C    0.088953
   135  O   -0.260498
   136  C    0.036686
   137  H    0.117885
   138  H    0.021000
   139  H    0.032682
   140  H    0.003596
   141  H    0.052810
   142  N   -0.141588
   143  C    0.119837
   144  C    0.050339
   145  O   -0.278571
   146  C    0.020089
   147  H    0.108625
   148  H    0.025323
   149  H    0.010443
   150  H    0.027426
   151  H    0.031527
   152  N   -0.130789
   153  C    0.178177
   154  C    0.039479
   155  O   -0.279826
   156  C   -0.092316
   157  C    0.124531
   158  C    0.158910
   159  O   -0.452339
   160  O   -0.377109
   161  H    0.120199
   162  H   -0.072669
   163  H    0.055066
   164  H    0.026337
   165  H   -0.009359
   166  H   -0.038056
   167  N   -0.155915
   168  C    0.128926
   169  H    0.027908
   170  H    0.034612
   171  H    0.016482
   172  H    0.139957
   173  Ca   1.323033
   174  O   -0.310660
   175  H    0.160396
   176  H    0.170841
 Sum of Mulliken charges =  -0.00000
 Mulliken charges with hydrogens summed into heavy atoms:
               1
     1  C    0.143400
     2  C    0.024206
     3  O   -0.304239
     7  N    0.000701
     8  C    0.097129
     9  C    0.058796
    10  O   -0.278605
    11  C    0.090839
    12  C    0.146830
    13  O   -0.474671
    14  O   -0.378270
    19  N    0.029439
    20  C    0.192085
    21  C    0.027881
    22  O   -0.273017
    23  C   -0.076731
    24  C    0.146488
    25  C    0.041759
    26  C    0.112819
    27  N    0.699961
    41  N   -0.008082
    42  C    0.154534
    43  C    0.043009
    44  O   -0.272438
    45  C    0.080046
    46  C    0.115253
    47  O   -0.451305
    48  O   -0.394675
    53  N   -0.028372
    54  C    0.318175
    55  C    0.040066
    56  O   -0.296578
    60  N   -0.002865
    61  C    0.147202
    62  C    0.057895
    63  O   -0.306518
    64  C    0.106691
    65  C    0.045208
    66  N    0.233314
    67  O   -0.351591
    74  N   -0.017927
    75  C    0.301097
    76  C    0.050064
    77  O   -0.310769
    81  N    0.008852
    82  C    0.105854
    83  C    0.091311
    84  O   -0.340703
    85  C    0.194643
    86  C   -0.130647
    87  C    0.031878
    88  C   -0.032488
    89  C   -0.005436
    90  C   -0.131951
    91  C    0.161273
    92  O   -0.013014
   102  N    0.022165
   103  C    0.130684
   104  C    0.068852
   105  O   -0.287699
   106  C   -0.039314
   107  C    0.005104
   108  C    0.086506
   109  C    0.029080
   121  N    0.014644
   122  C    0.091640
   123  C    0.103489
   124  O   -0.265844
   125  C    0.224928
   126  O   -0.176632
   132  N   -0.004748
   133  C    0.065848
   134  C    0.088953
   135  O   -0.260498
   136  C    0.125774
   142  N   -0.032964
   143  C    0.145160
   144  C    0.050339
   145  O   -0.278571
   146  C    0.089484
   152  N   -0.010590
   153  C    0.105509
   154  C    0.039479
   155  O   -0.279826
   156  C   -0.010913
   157  C    0.077116
   158  C    0.158910
   159  O   -0.452339
   160  O   -0.377109
   167  N   -0.015958
   168  C    0.207928
   173  Ca   1.323033
   174  O    0.020577
 DipInt: DoE/N= T F RetVal/Mat= T F Init=T NMatP=  1 IDeriv=0 Min/MaxMlt=  0  4
 Entering OneElI...
 OneElI was handed  1333951383 working-precision words.
 Multipole integrals L=0 to 4 MinM= 0 MaxM= 0.
 Requested accuracy = 0.1000D-12
 ShPair: Thresh= 1.00D-13 NBox=     0 BxSize= 0.00D+00 RnKept= 2.55D+01
         NSMCal=               327645 NSMKep=              162593
 PrmmSu-InSpLW:  IPartL=    0 NPrtUS=    1 NPrtUL=    1 DoSpLW=F IThBeg=    0 IThEnd=    0 NThAct=    1.
 PrsmSu:  NPrtUS=   1 ThrOK=F IAlg=1 NPAlg=1 LenDen=           0 ISkipM=0 DoSpLW=F IThBeg=    0 IThEnd=    0.
 Prism:   IPart=     0 DynPar=F LinDyn=F Incr=         512.
 PRISM was handed  1323803939 working-precision words and162593 shell-pairs
 IPart=  0 NShTot=      162593 NBatch=         373 AvBLen=       435.9
 PrsmSu-ThDecC:  IPartSL=    0    0 NPrtUSL=    1    1 IThBeg=    0 IThEnd=    0 CPU=   -1 GPU=   -1 NThAct=    1.
 PrSmSu:  NxtVal=            513.
 Electronic moments (au):
       -716.00000000         13.66786712         -1.54895483         -6.77805853
     -50219.99317563     -30396.76904710     -12335.90416890         90.68555573
        -25.00232822         -5.98768598     -92679.53537103     -35294.82383398
     -19075.18054330      34104.48337057      82805.29753312      52413.94256478
      -9016.97336098       6240.37218482      27528.71074327         50.23868812
   -6983382.51144005   -2870759.16423326    -604761.54499501     205635.29260805
     334990.27224138    -335159.77309127     -23685.10474569     -85844.91793890
      10942.36998925   -1873424.60667605    -696606.38159490    -398503.78393851
    -228372.09518704     -84399.39382518     -55888.89444560
 Electronic spatial extent (au):  <R**2>=          92952.6664
 DipInt: DoE/N= F T RetVal/Mat= T F Init=T NMatP=  1 IDeriv=0 Min/MaxMlt=  0  4
 Nuclear    moments (au):
        716.00000000          0.00000000         -0.00000000          0.00000000
      49721.74611158      30028.50054194      11958.84758535         -0.00000000
         -0.00000000         -0.00000000      94069.60865556      35583.20498559
      18951.62152732     -32423.90378611     -82849.60883296     -53200.51857876
       9238.48830362      -6331.00073481     -28184.65792532       -390.86571127
    6779206.01927365    2768204.06864044     564335.00465585    -201069.65207259
    -339023.38714368     348290.65047036      21605.67365380      86514.34848472
      -9039.31265521    1833103.67343543     664131.74258581     375876.82103976
     227748.89658852      80384.22475004      57482.82381790
 Total      moments (au):
         -0.00000000         13.66786712         -1.54895483         -6.77805853
       -498.24706405       -368.26850515       -377.05658355         90.68555573
        -25.00232822         -5.98768598       1390.07328452        288.38115161
       -123.55901599       1680.57958446        -44.31129984       -786.57601398
        221.51494264        -90.62854999       -655.94718205       -340.62702315
    -204176.49216640    -102555.09559282     -40426.54033916       4565.64053546
      -4033.11490230      13130.87737909      -2079.43109188        669.43054582
       1903.05733405     -40320.93324062     -32474.63900909     -22626.96289875
       -623.19859852      -4015.16907513       1593.92937230
 Traceless Quadrup. (au):
        -83.72301313         46.25554577         37.46746737         90.68555573
        -25.00232822         -5.98768598
 Charge=             -0.0000 electrons
 Dipole moment (field-independent basis, Debye):
    X=             34.7403    Y=             -3.9371    Z=            -17.2281  Tot=             38.9768
 Quadrupole moment (field-independent basis, Debye-Ang):
   XX=           -670.1594   YY=           -495.3338   ZZ=           -507.1540
   XY=            121.9752   XZ=            -33.6290   YZ=             -8.0536
 Traceless Quadrupole moment (field-independent basis, Debye-Ang):
   XX=           -112.6103   YY=             62.2153   ZZ=             50.3950
   XY=            121.9752   XZ=            -33.6290   YZ=             -8.0536
 Octapole moment (field-independent basis, Debye-Ang**2):
  XXX=            989.4006  YYY=            205.2586  ZZZ=            -87.9445  XYY=           1196.1718
  XXY=            -31.5391  XXZ=           -559.8545  XZZ=            157.6658  YZZ=            -64.5059
  YYZ=           -466.8779  XYZ=           -242.4452
 Hexadecapole moment (field-independent basis, Debye-Ang**3):
 XXXX=         -76902.6575 YYYY=         -38627.1667 ZZZZ=         -15226.5736 XXXY=           1719.6392
 XXXZ=          -1519.0645 YYYX=           4945.7181 YYYZ=           -783.2135 ZZZX=            252.1396
 ZZZY=            716.7826 XXYY=         -15186.7969 XXZZ=         -12231.5063 YYZZ=          -8522.3992
 XXYZ=           -234.7265 YYXZ=          -1512.3052 ZZXY=            600.3502
 N-N= 2.181277935473D+04 E-N=-5.610233407599D+04  KE= 5.290603121380D+03
 Leave Link  601 at Wed Sep 18 16:12:39 2019, MaxMem=  1342177280 cpu:              44.2 elap:               1.1
 FitSet:  NAtFit=   176 NAtPot=   176 NAtFrz=     0 MDM=   180 TotChg=   0.00000
 Merz-Kollman atomic radii used.
 Read replacement radii for each type of atom:
 Rad(20) =   1.700000000000D+00
 Atom Element Radius
    1     6    1.50
    2     6    1.50
    3     8    1.40
    4     1    1.20
    5     1    1.20
    6     1    1.20
    7     7    1.50
    8     6    1.50
    9     6    1.50
   10     8    1.40
   11     6    1.50
   12     6    1.50
   13     8    1.40
   14     8    1.40
   15     1    1.20
   16     1    1.20
   17     1    1.20
   18     1    1.20
   19     7    1.50
   20     6    1.50
   21     6    1.50
   22     8    1.40
   23     6    1.50
   24     6    1.50
   25     6    1.50
   26     6    1.50
   27     7    1.50
   28     1    1.20
   29     1    1.20
   30     1    1.20
   31     1    1.20
   32     1    1.20
   33     1    1.20
   34     1    1.20
   35     1    1.20
   36     1    1.20
   37     1    1.20
   38     1    1.20
   39     1    1.20
   40     1    1.20
   41     7    1.50
   42     6    1.50
   43     6    1.50
   44     8    1.40
   45     6    1.50
   46     6    1.50
   47     8    1.40
   48     8    1.40
   49     1    1.20
   50     1    1.20
   51     1    1.20
   52     1    1.20
   53     7    1.50
   54     6    1.50
   55     6    1.50
   56     8    1.40
   57     1    1.20
   58     1    1.20
   59     1    1.20
   60     7    1.50
   61     6    1.50
   62     6    1.50
   63     8    1.40
   64     6    1.50
   65     6    1.50
   66     7    1.50
   67     8    1.40
   68     1    1.20
   69     1    1.20
   70     1    1.20
   71     1    1.20
   72     1    1.20
   73     1    1.20
   74     7    1.50
   75     6    1.50
   76     6    1.50
   77     8    1.40
   78     1    1.20
   79     1    1.20
   80     1    1.20
   81     7    1.50
   82     6    1.50
   83     6    1.50
   84     8    1.40
   85     6    1.50
   86     6    1.50
   87     6    1.50
   88     6    1.50
   89     6    1.50
   90     6    1.50
   91     6    1.50
   92     8    1.40
   93     1    1.20
   94     1    1.20
   95     1    1.20
   96     1    1.20
   97     1    1.20
   98     1    1.20
   99     1    1.20
  100     1    1.20
  101     1    1.20
  102     7    1.50
  103     6    1.50
  104     6    1.50
  105     8    1.40
  106     6    1.50
  107     6    1.50
  108     6    1.50
  109     6    1.50
  110     1    1.20
  111     1    1.20
  112     1    1.20
  113     1    1.20
  114     1    1.20
  115     1    1.20
  116     1    1.20
  117     1    1.20
  118     1    1.20
  119     1    1.20
  120     1    1.20
  121     7    1.50
  122     6    1.50
  123     6    1.50
  124     8    1.40
  125     6    1.50
  126     8    1.40
  127     1    1.20
  128     1    1.20
  129     1    1.20
  130     1    1.20
  131     1    1.20
  132     7    1.50
  133     6    1.50
  134     6    1.50
  135     8    1.40
  136     6    1.50
  137     1    1.20
  138     1    1.20
  139     1    1.20
  140     1    1.20
  141     1    1.20
  142     7    1.50
  143     6    1.50
  144     6    1.50
  145     8    1.40
  146     6    1.50
  147     1    1.20
  148     1    1.20
  149     1    1.20
  150     1    1.20
  151     1    1.20
  152     7    1.50
  153     6    1.50
  154     6    1.50
  155     8    1.40
  156     6    1.50
  157     6    1.50
  158     6    1.50
  159     8    1.40
  160     8    1.40
  161     1    1.20
  162     1    1.20
  163     1    1.20
  164     1    1.20
  165     1    1.20
  166     1    1.20
  167     7    1.50
  168     6    1.50
  169     1    1.20
  170     1    1.20
  171     1    1.20
  172     1    1.20
  173    20    1.70
  174     8    1.40
[...]
 **** Fit       0.006095
 **** Fit       0.016419
 **** Fit       0.027645
 **** Fit       0.039179
 **** Fit       0.002071
 **** Fit       0.014895
 **** Fit       0.028737
 **** Fit       0.036415
 **** Fit       0.076406
 **** Fit       0.045122
 **** Fit       0.032336
 **** Fit       0.079068
 **** Fit       0.081738
 **** Fit       0.051223
 **** Fit       0.039816
 **** Fit       0.030203
 **** Fit       0.068267
 **** Fit       0.065277
 **** Fit       0.058222
 **** Fit       0.048741
 **** Fit       0.038957
 **** Fit       0.031111
 **** Fit       0.027084
 **** Fit       0.055099
 **** Fit       0.048815
 **** Fit       0.040924
 **** Fit       0.034017
 **** Fit       0.030130
 **** Fit       0.029308
 **** Fit       0.017750
 **** Fit       0.024213
 **** Fit       0.019107
 **** Fit       0.027606
 **** Fit       0.024170
 **** Fit       0.025831
 **** Fit       0.027643
 **** Fit       0.029883
 **** Fit       0.030370
 **** Fit       0.028999
 **** Fit       0.022230
 **** Fit       0.023741
 **** Fit       0.014022
 **** Fit       0.024028
 **** Fit       0.015220
 **** Fit       0.008917
 **** Fit       0.041521
 **** Fit       0.033217
 **** Fit       0.022392
 **** Fit       0.041912
 **** Fit       0.051744
 **** Fit       0.018281
 **** Fit       0.056329
 **** Fit       0.062636
 **** Fit       0.068342
 **** Fit       0.054851
 **** Fit       0.058880
 **** Fit       0.060985
 **** Fit       0.059578
 **** Fit       0.029275
 **** Fit       0.028215
 **** Fit       0.048813
 **** Fit       0.051593
 **** Fit       0.052977
 **** Fit       0.051395
 **** Fit       0.046767
 **** Fit       0.040580
 **** Fit       0.034864
 **** Fit       0.030931
 **** Fit       0.028315
 **** Fit       0.042655
 **** Fit       0.045451
 **** Fit       0.046321
 **** Fit       0.043878
 **** Fit       0.038771
 **** Fit       0.033516
 **** Fit       0.029439
 **** Fit       0.025556
 **** Fit       0.038780
 **** Fit       0.040510
 **** Fit       0.036943
 **** Fit       0.031806
 **** Fit       0.029254
 **** Fit       0.033017
 **** Fit       0.035037
 **** Fit      -0.018702
 **** Fit      -0.020330
 **** Fit      -0.020294
 **** Fit      -0.021033
 **** Fit      -0.022251
 **** Fit      -0.024898
 **** Fit       0.003122
 **** Fit       0.003217
 **** Fit       0.002344
 **** Fit       0.002084
 **** Fit       0.003085
 **** Fit       0.004023
 **** Fit       0.003925
 **** Fit       0.003314
 **** Fit       0.002556
 **** Fit       0.000731
 **** Fit       0.001637
 **** Fit       0.004535
 **** Fit       0.003972
 **** Fit       0.003358
 **** Fit       0.002743
 **** Fit      -0.001082
 **** Fit      -0.000161
 **** Fit       0.004982
 **** Fit       0.004473
 **** Fit       0.003933
 **** Fit       0.003307
 **** Fit       0.002764
 **** Fit      -0.001868
 **** Fit       0.005372
 **** Fit       0.004880
 **** Fit       0.004380
 **** Fit       0.003851
 **** Fit       0.003134
 **** Fit       0.002645
 **** Fit      -0.005004
 **** Fit      -0.002507
 **** Fit       0.006053
 **** Fit       0.005556
 **** Fit       0.005110
 **** Fit       0.004659
 **** Fit       0.004172
 **** Fit       0.003653
 **** Fit       0.002831
 **** Fit       0.002321
 **** Fit      -0.010329
 **** Fit      -0.006948
 **** Fit      -0.003481
 **** Fit       0.006305
 **** Fit       0.005802
 **** Fit       0.005370
 **** Fit       0.004948
 **** Fit       0.004483
 **** Fit       0.003956
 **** Fit       0.003390
 **** Fit       0.002394
 **** Fit       0.001834
 **** Fit       0.006450
 **** Fit       0.005953
 **** Fit       0.005539
 **** Fit       0.003648
 **** Fit       0.003015
 **** Fit       0.001814
 **** Fit       0.001172
 **** Fit       0.000608
 **** Fit       0.006621
 **** Fit       0.006091
 **** Fit       0.000330
 **** Fit      -0.000315
 **** Fit       0.006708
 **** Fit       0.006124
 **** Fit      -0.000757
 **** Fit      -0.001476
 **** Fit      -0.002191
 **** Fit       0.006865
 **** Fit       0.006186
 **** Fit      -0.002974
 **** Fit      -0.003783
 **** Fit       0.007145
 **** Fit       0.006605
 **** Fit       0.005670
 **** Fit      -0.004844
 **** Fit      -0.005691
 **** Fit      -0.006796
 **** Fit       0.006355
 **** Fit       0.006804
 **** Fit       0.006127
 **** Fit      -0.007208
 **** Fit      -0.008019
 **** Fit      -0.009155
 **** Fit      -0.010856
 **** Fit      -0.010261
 **** Fit      -0.011034
 **** Fit      -0.012264
 **** Fit      -0.014161
 **** Fit      -0.017116
 **** Fit      -0.014070
 **** Fit      -0.014822
 **** Fit      -0.016212
 **** Fit      -0.018638
 **** Fit       0.005194
 **** Fit       0.004693
 **** Fit       0.004198
 **** Fit       0.003707
 **** Fit       0.002555
 **** Fit       0.002069
 **** Fit       0.005638
 **** Fit       0.005091
 **** Fit       0.004559
 **** Fit       0.004045
 **** Fit       0.003546
 **** Fit       0.003051
 **** Fit       0.001720
 **** Fit       0.001218
 **** Fit       0.005434
 **** Fit       0.004815
 **** Fit       0.004217
 **** Fit       0.003662
 **** Fit       0.003152
 **** Fit       0.002673
 **** Fit       0.002203
 **** Fit       0.000627
 **** Fit       0.000127
 **** Fit      -0.000426
 **** Fit       0.005364
 **** Fit       0.004567
 **** Fit       0.003785
 **** Fit       0.003082
 **** Fit       0.002481
 **** Fit       0.001971
 **** Fit       0.001518
 **** Fit       0.001083
 **** Fit      -0.000849
 **** Fit      -0.001292
 **** Fit      -0.001830
 **** Fit       0.005138
 **** Fit       0.004081
 **** Fit       0.003004
 **** Fit       0.002043
 **** Fit       0.001266
 **** Fit       0.000673
 **** Fit       0.000226
 **** Fit      -0.000137
 **** Fit      -0.000478
 **** Fit      -0.002868
 **** Fit      -0.003196
 **** Fit      -0.003670
 **** Fit      -0.004317
 **** Fit       0.004962
 **** Fit       0.003568
 **** Fit       0.001989
 **** Fit       0.000526
 **** Fit      -0.000643
 **** Fit      -0.001467
 **** Fit      -0.001988
 **** Fit      -0.002292
 **** Fit      -0.002481
 **** Fit      -0.002648
 **** Fit      -0.005637
 **** Fit      -0.005768
 **** Fit      -0.006137
 **** Fit      -0.006782
 **** Fit       0.001591
 **** Fit      -0.000892
 **** Fit      -0.003083
 **** Fit      -0.004665
 **** Fit      -0.005586
 **** Fit      -0.005964
 **** Fit      -0.005987
 **** Fit      -0.005843
 **** Fit      -0.005688
 **** Fit      -0.009437
 **** Fit      -0.009208
 **** Fit      -0.009380
 **** Fit      -0.009995
 **** Fit      -0.011627
 **** Fit      -0.010789
 **** Fit      -0.010001
 **** Fit      -0.014649
 **** Fit      -0.013774
 **** Fit      -0.013571
 **** Fit      -0.018874
 **** Fit       0.000924
 **** Fit       0.001390
 **** Fit       0.000098
 **** Fit      -0.000623
 **** Fit       0.000322
 **** Fit       0.001701
 **** Fit       0.000581
 **** Fit      -0.000787
 **** Fit      -0.002097
 **** Fit      -0.002678
 **** Fit      -0.002021
 **** Fit       0.001842
 **** Fit       0.000889
 **** Fit      -0.000309
 **** Fit      -0.001796
 **** Fit      -0.003438
 **** Fit      -0.004855
 **** Fit      -0.005496
 **** Fit      -0.004968
 **** Fit      -0.003386
 **** Fit       0.002652
 **** Fit       0.001795
 **** Fit       0.000931
 **** Fit      -0.000142
 **** Fit      -0.001538
 **** Fit      -0.003307
 **** Fit      -0.005369
 **** Fit      -0.007435
 **** Fit      -0.008998
 **** Fit      -0.009472
 **** Fit      -0.008529
 **** Fit      -0.006398
 **** Fit       0.001546
 **** Fit       0.000729
 **** Fit      -0.000268
 **** Fit      -0.001588
 **** Fit      -0.003351
 **** Fit      -0.005622
 **** Fit      -0.008339
 **** Fit      -0.011232
 **** Fit      -0.013757
 **** Fit      -0.015171
 **** Fit      -0.014829
 **** Fit      -0.012625
 **** Fit       0.001075
 **** Fit       0.000303
 **** Fit      -0.000616
 **** Fit      -0.001829
 **** Fit      -0.003487
 **** Fit      -0.005726
 **** Fit      -0.008639
 **** Fit      -0.012212
 **** Fit      -0.016217
 **** Fit       0.000359
 **** Fit      -0.000426
 **** Fit      -0.001347
 **** Fit      -0.002579
 **** Fit      -0.004306
 **** Fit      -0.006729
 **** Fit      -0.010048
 **** Fit      -0.014418
 **** Fit      -0.001437
 **** Fit      -0.002356
 **** Fit      -0.003591
 **** Fit      -0.005349
 **** Fit      -0.007876
 **** Fit      -0.011467
 **** Fit      -0.016448
 **** Fit      -0.002804
 **** Fit      -0.003757
 **** Fit      -0.005050
 **** Fit      -0.006926
 **** Fit      -0.009687
 **** Fit      -0.013736
 **** Fit      -0.005683
 **** Fit      -0.007178
 **** Fit      -0.009429
 **** Fit      -0.012869
 **** Fit      -0.010005
 **** Fit      -0.012872
 **** Fit       0.004637
 **** Fit       0.004496
 **** Fit       0.003664
 **** Fit       0.003761
 **** Fit       0.004905
 **** Fit       0.005607
 **** Fit       0.005308
 **** Fit       0.002621
 **** Fit       0.003867
 **** Fit       0.005270
 **** Fit       0.006270
 **** Fit       0.006573
 **** Fit       0.006327
 **** Fit       0.005816
 **** Fit       0.005202
 **** Fit       0.001116
 **** Fit       0.002529
 **** Fit       0.004132
 **** Fit       0.005659
 **** Fit       0.006905
 **** Fit       0.007537
 **** Fit       0.007539
 **** Fit       0.007192
 **** Fit       0.006708
 **** Fit       0.006188
 **** Fit       0.005682
 **** Fit      -0.000375
 **** Fit       0.001520
 **** Fit       0.003335
 **** Fit       0.008659
 **** Fit       0.008151
 **** Fit       0.007595
 **** Fit       0.007046
 **** Fit       0.006527
 **** Fit       0.006065
 **** Fit      -0.001313
 **** Fit       0.001059
 **** Fit       0.008614
 **** Fit       0.007962
 **** Fit       0.007381
 **** Fit       0.006846
 **** Fit      -0.002312
 **** Fit       0.000213
 **** Fit       0.008813
 **** Fit       0.008170
 **** Fit       0.007605
 **** Fit       0.007071
 **** Fit       0.009141
 **** Fit       0.008495
 **** Fit       0.007961
 **** Fit       0.007421
 **** Fit       0.008478
 **** Fit       0.008110
 **** Fit       0.007671
 **** Fit       0.007835
 **** Fit       0.007840
 **** Fit       0.007742
 **** Fit       0.007373
 **** Fit       0.006632
 **** Fit       0.007132
 **** Fit       0.046023
 **** Fit       0.052717
 **** Fit       0.050894
 **** Fit       0.052361
 **** Fit       0.016540
 **** Fit       0.051363
 **** Fit       0.051127
 **** Fit       0.049260
 **** Fit       0.034865
 **** Fit       0.032372
 **** Fit       0.027325
 **** Fit       0.018934
 **** Fit       0.049157
 **** Fit       0.046923
 **** Fit       0.033356
 **** Fit       0.028687
 **** Fit       0.020926
 **** Fit       0.044877
 **** Fit       0.041907
 **** Fit       0.038946
 **** Fit       0.036326
 **** Fit       0.030794
 **** Fit       0.023890
 **** Fit       0.035371
 **** Fit       0.045490
 **** Fit       0.049408
 **** Fit       0.045925
 **** Fit       0.047656
 **** Fit       0.048789
 **** Fit       0.043485
 **** Fit       0.042006
 **** Fit       0.040105
 **** Fit       0.037636
 **** Fit       0.027686
 **** Fit       0.021139
 **** Fit       0.038385
 **** Fit       0.035590
 **** Fit       0.032201
 **** Fit       0.024369
 **** Fit       0.017147
 **** Fit       0.029672
 **** Fit       0.022997
 **** Fit       0.015134
 **** Fit      -0.001818
 **** Fit       0.003108
 **** Fit       0.008006
 **** Fit       0.013208
 **** Fit       0.014741
 **** Fit      -0.000062
 **** Fit       0.005330
 **** Fit       0.010582
 **** Fit       0.004807
 **** Fit      -0.010687
 **** Fit      -0.011091
 **** Fit      -0.006323
 **** Fit       0.038044
 **** Fit       0.041067
 **** Fit       0.043395
 **** Fit       0.045214
 **** Fit       0.036519
 **** Fit       0.038917
 **** Fit       0.040709
 **** Fit       0.041976
 **** Fit       0.042716
 **** Fit       0.042856
 **** Fit       0.042342
 **** Fit       0.034832
 **** Fit       0.036938
 **** Fit       0.038607
 **** Fit       0.039827
 **** Fit       0.040588
 **** Fit       0.040836
 **** Fit       0.040481
 **** Fit       0.039466
 **** Fit       0.037798
 **** Fit       0.035464
 **** Fit       0.029849
 **** Fit       0.018711
 **** Fit       0.023171
 **** Fit       0.031158
 **** Fit       0.033016
 **** Fit       0.034890
 **** Fit       0.036587
 **** Fit       0.037943
 **** Fit       0.038907
 **** Fit       0.039449
 **** Fit       0.039505
 **** Fit       0.038986
 **** Fit       0.037817
 **** Fit       0.035967
 **** Fit       0.033384
 **** Fit       0.028597
 **** Fit       0.023713
 **** Fit       0.017022
 **** Fit       0.011343
 **** Fit       0.015557
 **** Fit       0.019798
 **** Fit       0.023767
 **** Fit       0.027166
 **** Fit       0.029917
 **** Fit       0.032177
 **** Fit       0.034114
 **** Fit       0.035748
 **** Fit       0.037025
 **** Fit       0.037906
 **** Fit       0.038367
 **** Fit       0.038359
 **** Fit       0.037807
 **** Fit       0.036634
 **** Fit       0.034780
 **** Fit       0.032164
 **** Fit       0.027864
 **** Fit       0.022974
 **** Fit       0.016533
 **** Fit       0.008551
 **** Fit       0.009064
 **** Fit       0.013108
 **** Fit       0.017143
 **** Fit       0.021137
 **** Fit       0.024882
 **** Fit       0.028167
 **** Fit       0.030912
 **** Fit       0.033147
 **** Fit       0.034903
 **** Fit       0.036170
 **** Fit       0.036935
 **** Fit       0.037172
 **** Fit       0.036826
 **** Fit       0.035820
 **** Fit       0.034069
 **** Fit       0.031473
 **** Fit       0.027341
 **** Fit       0.022666
 **** Fit       0.016837
 **** Fit       0.010362
 **** Fit       0.004536
 **** Fit       0.003615
 **** Fit       0.007253
 **** Fit       0.011079
 **** Fit       0.014887
 **** Fit       0.018700
 **** Fit       0.022456
 **** Fit       0.025971
 **** Fit       0.029052
 **** Fit       0.031585
 **** Fit       0.033525
 **** Fit       0.034847
 **** Fit       0.035532
 **** Fit       0.035546
 **** Fit       0.034828
 **** Fit       0.033292
 **** Fit       0.030839
 **** Fit       0.026869
 **** Fit       0.022388
 **** Fit       0.017226
 **** Fit       0.012489
 **** Fit       0.009684
 **** Fit       0.009590
 **** Fit       0.011626
 **** Fit       0.014733
 **** Fit       0.018268
 **** Fit       0.021935
 **** Fit       0.025474
 **** Fit       0.028599
 **** Fit       0.031083
 **** Fit       0.032784
 **** Fit       0.033622
 **** Fit       0.033532
 **** Fit       0.032432
 **** Fit       0.030234
 **** Fit       0.026360
 **** Fit       0.021968
 **** Fit       0.017810
 **** Fit       0.015819
 **** Fit       0.016699
 **** Fit       0.019517
 **** Fit       0.023132
 **** Fit       0.026694
 **** Fit       0.029512
 **** Fit       0.031100
 **** Fit       0.031176
 **** Fit       0.029590
 **** Fit       0.025762
 **** Fit       0.021877
 **** Fit       0.021165
 **** Fit       0.024167
 **** Fit       0.027532
 **** Fit       0.028361
 **** Fit       0.025040
 -----------------------------------------------------------------
 Leave Link  602 at Wed Sep 18 16:12:42 2019, MaxMem=  1342177280 cpu:             125.4 elap:               2.7

 Test job not archived.
 1\1\GINC-C476-012\SP\RB3LYP\SVP\C54H83Ca1N15O23\JAEBEOMH\18-Sep-2019\0
 \\#b3lyp/svp scf=(tight,noincore) Test #IOP(5/87=12) Density=Current P
 op=(MK,readradii) iop(6/33=2) iop(6/42=6)\\CaMKII_loop3_53.0\\0,1\C,0,
 80.71,64.93,35.91\C,0,80.1,64.98,37.3\O,0,80.1,63.95,37.97\H,0,81.727,
 64.543,35.974\H,0,80.113,64.277,35.274\H,0,80.73,65.934,35.485\N,0,79.
 64,66.15,37.74\C,0,78.84,66.29,38.94\C,0,77.51,65.55,38.82\O,0,76.61,6
 6.14,38.23\C,0,78.84,67.76,39.33\C,0,77.98,68.07,40.55\O,0,77.9,67.25,
 41.49\O,0,77.3,69.13,40.6\H,0,79.83,66.99,37.21\H,0,79.4,65.72,39.69\H
 ,0,78.52,68.34,38.46\H,0,79.86,68.06,39.55\N,0,77.37,64.3,39.25\C,0,76
 .33,63.38,38.82\C,0,75.,63.67,39.52\O,0,73.91,63.63,38.94\C,0,76.84,61
 .94,38.86\C,0,75.79,60.84,38.94\C,0,76.53,59.51,38.78\C,0,77.51,59.24,
 39.91\N,0,78.4,58.11,39.6\H,0,78.17,63.88,39.7\H,0,76.09,63.61,37.78\H
 ,0,77.41,61.81,39.78\H,0,77.63,61.71,38.14\H,0,75.12,61.04,38.11\H,0,7
 5.32,60.86,39.92\H,0,77.12,59.5,37.87\H,0,75.75,58.77,38.61\H,0,76.98,
 59.05,40.84\H,0,78.1,60.1,40.26\H,0,77.77,57.32,39.6\H,0,78.81,58.31,3
 8.7\H,0,79.09,57.98,40.33\N,0,75.09,63.98,40.81\C,0,73.94,64.27,41.65\
 C,0,73.47,65.72,41.54\O,0,72.29,66.03,41.66\C,0,74.24,63.89,43.09\C,0,
 75.63,64.21,43.64\O,0,76.43,65.,43.09\O,0,75.96,63.71,44.73\H,0,76.02,
 63.9,41.2\H,0,73.06,63.67,41.41\H,0,74.11,62.81,43.14\H,0,73.47,64.24,
 43.78\N,0,74.43,66.62,41.3\C,0,74.27,68.01,40.94\C,0,74.59,68.99,42.07
 \O,0,74.02,70.07,42.22\H,0,75.34,66.19,41.16\H,0,73.23,68.22,40.71\H,0
 ,74.89,68.22,40.07\N,0,75.43,68.58,43.02\C,0,75.71,69.34,44.22\C,0,76.
 45,70.66,44.04\O,0,76.34,71.57,44.87\C,0,76.32,68.47,45.31\C,0,77.84,6
 8.54,45.25\N,0,78.49,69.06,46.29\O,0,78.36,68.27,44.17\H,0,75.83,67.66
 ,42.97\H,0,74.71,69.57,44.6\H,0,75.9,67.46,45.26\H,0,76.05,68.8,46.31\
 H,0,77.93,69.32,47.1\H,0,79.43,69.41,46.18\N,0,77.26,70.84,43.\C,0,78.
 16,71.96,42.82\C,0,79.65,71.63,42.78\O,0,80.54,72.46,42.63\H,0,77.44,7
 0.05,42.39\H,0,77.91,72.67,43.61\H,0,77.82,72.48,41.93\N,0,80.03,70.36
 ,42.96\C,0,81.41,69.94,42.95\C,0,81.5,68.61,42.21\O,0,80.62,67.76,42.3
 5\C,0,82.18,70.06,44.27\C,0,81.44,70.36,45.55\C,0,81.07,71.7,45.77\C,0
 ,81.35,69.44,46.6\C,0,80.76,72.22,47.03\C,0,80.95,69.93,47.85\C,0,80.6
 6,71.29,48.08\O,0,80.29,71.67,49.34\H,0,79.36,69.63,43.15\H,0,81.92,70
 .66,42.31\H,0,82.94,70.83,44.16\H,0,82.65,69.11,44.54\H,0,81.16,72.38,
 44.93\H,0,81.47,68.4,46.34\H,0,80.62,73.27,47.25\H,0,80.79,69.24,48.66
 \H,0,80.4,70.9,49.9\N,0,82.68,68.38,41.64\C,0,83.15,67.11,41.13\C,0,84
 .03,66.54,42.24\O,0,85.03,67.15,42.62\C,0,83.85,67.14,39.78\C,0,82.91,
 67.92,38.86\C,0,84.13,65.71,39.32\C,0,83.5,68.32,37.51\H,0,83.15,69.26
 ,41.52\H,0,82.29,66.44,41.15\H,0,84.83,67.62,39.87\H,0,82.39,68.81,39.
 2\H,0,82.1,67.27,38.52\H,0,84.88,65.75,38.53\H,0,84.74,65.19,40.05\H,0
 ,83.26,65.1,39.08\H,0,83.96,67.52,36.93\H,0,82.84,68.84,36.82\H,0,84.3
 1,68.98,37.84\N,0,83.77,65.26,42.52\C,0,84.56,64.44,43.41\C,0,85.36,63
 .41,42.62\O,0,85.03,63.08,41.49\C,0,83.68,63.72,44.43\O,0,82.56,62.95,
 44.04\H,0,82.96,64.81,42.11\H,0,85.32,65.05,43.89\H,0,83.23,64.51,45.0
 3\H,0,84.32,63.13,45.09\H,0,81.94,63.5,43.55\N,0,86.31,62.78,43.31\C,0
 ,87.16,61.71,42.84\C,0,86.53,60.46,42.25\O,0,86.9,59.9,41.21\C,0,88.26
 ,61.55,43.88\H,0,86.64,63.11,44.21\H,0,87.63,62.24,42.01\H,0,88.63,62.
 49,44.3\H,0,87.84,61.,44.72\H,0,89.11,60.99,43.48\N,0,85.6,59.87,43.01
 \C,0,84.7,58.82,42.57\C,0,83.83,59.15,41.36\O,0,83.47,58.26,40.6\C,0,8
 3.92,58.39,43.81\H,0,85.5,60.27,43.93\H,0,85.36,58.02,42.25\H,0,83.27,
 57.59,43.47\H,0,84.53,57.83,44.52\H,0,83.31,59.13,44.33\N,0,83.36,60.3
 8,41.17\C,0,82.53,60.81,40.06\C,0,83.33,61.01,38.78\O,0,82.82,60.86,37
 .68\C,0,81.92,62.17,40.41\C,0,80.71,62.05,41.33\C,0,80.29,63.46,41.71\
 O,0,81.08,64.19,42.35\O,0,79.14,63.82,41.38\H,0,83.31,60.9,42.04\H,0,8
 1.73,60.11,39.85\H,0,81.6,62.5,39.42\H,0,82.63,62.84,40.9\H,0,81.05,61
 .52,42.22\H,0,79.89,61.54,40.83\N,0,84.63,61.3,38.91\C,0,85.55,61.57,3
 7.83\H,0,86.504,61.084,38.036\H,0,85.14,61.184,36.897\H,0,85.703,62.64
 6,37.742\H,0,84.92,61.53,39.85\Ca,0,78.95,65.74,43.22\O,0,77.83,65.67,
 45.7\H,0,77.14,65.03,45.5\H,0,78.06,65.5,46.61\\Version=ES64L-G16RevA.
 03\State=1-A\HF=-5333.5556777\RMSD=5.488e-09\Dipole=7.8495166,-12.8593
 15,2.8592022\Quadrupole=-88.9778051,52.2004147,36.7773905,86.0902773,2
 6.8413833,5.6615475\PG=C01 [X(C54H83Ca1N15O23)]\\@


 Human beings, who are almost unique in having the
 ability to learn from the experience of others, are
 also remarkable for their apparent disinclination to do so.
                               -- Douglas Adams,
                                Last Chance to See
 Job cpu time:       0 days  8 hours 42 minutes 42.1 seconds.
 Elapsed time:       0 days  0 hours 11 minutes  0.6 seconds.
 File lengths (MBytes):  RWF=   1517 Int=      0 D2E=      0 Chk=    171 Scr=      1
 Normal termination of Gaussian 16 at Wed Sep 18 16:12:43 2019.
