 Entering Gaussian System, Link 0=g16
 Initial command:
 /home1/apps/gaussian/16rA.03/g16/l1.exe "/scratch/04905/jaebeomh/4357408/Gau-164674.inp" -scrdir="/scratch/04905/jaebeomh/4357408/"
 Entering Link 1 = /home1/apps/gaussian/16rA.03/g16/l1.exe PID=    164675.
  
 Copyright (c) 1988,1990,1992,1993,1995,1998,2003,2009,2016,
            Gaussian, Inc.  All Rights Reserved.
  
 This is part of the Gaussian(R) 16 program.  It is based on
 the Gaussian(R) 09 system (copyright 2009, Gaussian, Inc.),
 the Gaussian(R) 03 system (copyright 2003, Gaussian, Inc.),
 the Gaussian(R) 98 system (copyright 1998, Gaussian, Inc.),
 the Gaussian(R) 94 system (copyright 1995, Gaussian, Inc.),
 the Gaussian 92(TM) system (copyright 1992, Gaussian, Inc.),
 the Gaussian 90(TM) system (copyright 1990, Gaussian, Inc.),
 the Gaussian 88(TM) system (copyright 1988, Gaussian, Inc.),
 the Gaussian 86(TM) system (copyright 1986, Carnegie Mellon
 University), and the Gaussian 82(TM) system (copyright 1983,
 Carnegie Mellon University). Gaussian is a federally registered
 trademark of Gaussian, Inc.
  
 This software contains proprietary and confidential information,
 including trade secrets, belonging to Gaussian, Inc.
  
 This software is provided under written license and may be
 used, copied, transmitted, or stored only in accord with that
 written license.
  
 The following legend is applicable only to US Government
 contracts under FAR:
  
                    RESTRICTED RIGHTS LEGEND
  
 Use, reproduction and disclosure by the US Government is
 subject to restrictions as set forth in subparagraphs (a)
 and (c) of the Commercial Computer Software - Restricted
 Rights clause in FAR 52.227-19.
  
 Gaussian, Inc.
 340 Quinnipiac St., Bldg. 40, Wallingford CT 06492
  
  
 ---------------------------------------------------------------
 Warning -- This program may not be used in any manner that
 competes with the business of Gaussian, Inc. or will provide
 assistance to any competitor of Gaussian, Inc.  The licensee
 of this program is prohibited from giving any competitor of
 Gaussian, Inc. access to this program.  By using this program,
 the user acknowledges that Gaussian, Inc. is engaged in the
 business of creating and licensing software in the field of
 computational chemistry and represents and warrants to the
 licensee that it is not a competitor of Gaussian, Inc. and that
 it will not use this program in any manner prohibited above.
 ---------------------------------------------------------------
  

 Cite this work as:
 Gaussian 16, Revision A.03,
 M. J. Frisch, G. W. Trucks, H. B. Schlegel, G. E. Scuseria, 
 M. A. Robb, J. R. Cheeseman, G. Scalmani, V. Barone, 
 G. A. Petersson, H. Nakatsuji, X. Li, M. Caricato, A. V. Marenich, 
 J. Bloino, B. G. Janesko, R. Gomperts, B. Mennucci, H. P. Hratchian, 
 J. V. Ortiz, A. F. Izmaylov, J. L. Sonnenberg, D. Williams-Young, 
 F. Ding, F. Lipparini, F. Egidi, J. Goings, B. Peng, A. Petrone, 
 T. Henderson, D. Ranasinghe, V. G. Zakrzewski, J. Gao, N. Rega, 
 G. Zheng, W. Liang, M. Hada, M. Ehara, K. Toyota, R. Fukuda, 
 J. Hasegawa, M. Ishida, T. Nakajima, Y. Honda, O. Kitao, H. Nakai, 
 T. Vreven, K. Throssell, J. A. Montgomery, Jr., J. E. Peralta, 
 F. Ogliaro, M. J. Bearpark, J. J. Heyd, E. N. Brothers, K. N. Kudin, 
 V. N. Staroverov, T. A. Keith, R. Kobayashi, J. Normand, 
 K. Raghavachari, A. P. Rendell, J. C. Burant, S. S. Iyengar, 
 J. Tomasi, M. Cossi, J. M. Millam, M. Klene, C. Adamo, R. Cammi, 
 J. W. Ochterski, R. L. Martin, K. Morokuma, O. Farkas, 
 J. B. Foresman, and D. J. Fox, Gaussian, Inc., Wallingford CT, 2016.
 
 ******************************************
 Gaussian 16:  ES64L-G16RevA.03 25-Dec-2016
                18-Sep-2019 
 ******************************************
 %chk=CaMKII_loop3_60.0.chk
 %nprocshared=48
 Will use up to   48 processors via shared memory.
 %mem=10GB
 %nosave
 ----------------------------------------------------------------------
 #b3lyp/svp scf=(tight,noincore) Test #IOP(5/87=12) Density=Current Pop
 =(MK,readradii) iop(6/33=2) iop(6/42=6)
 ----------------------------------------------------------------------
 1/30=1,38=1,172=1/1;
 2/12=2,17=6,18=5,40=1/2;
 3/5=18,7=101,11=2,25=1,30=1,74=-5/1,2,3;
 4//1;
 5/5=4,32=2,38=5,87=12/2;
 6/7=2,8=2,9=2,10=2,15=8,20=101,22=-1,28=1,33=2,42=6/1,2;
 99/5=1,9=1/99;
 -----------------
 CaMKII_loop3_60.0
 -----------------
 Symbolic Z-matrix:
 Charge =  0 Multiplicity = 1
 C                     81.76     46.42     37.2 
 C                     81.       45.8      38.36 
 O                     81.56     44.92     39.02 
 H                     82.755    45.978    37.14 
 H                     81.223    46.231    36.271 
 H                     81.849    47.495    37.357 
 N                     79.74     46.2      38.54 
 C                     78.88     45.78     39.63 
 C                     78.08     44.56     39.22 
 O                     76.87     44.67     39.03 
 C                     78.06     46.97     40.14 
 C                     77.3      46.84     41.45 
 O                     77.58     45.86     42.18 
 O                     76.42     47.63     41.84 
 H                     79.45     46.99     37.98 
 H                     79.54     45.46     40.44 
 H                     77.4      47.27     39.33 
 H                     78.71     47.83     40.33 
 N                     78.81     43.47     38.99 
 C                     78.18     42.24     38.53 
 C                     77.1      41.63     39.41 
 O                     76.22     40.95     38.88 
 C                     79.29     41.23     38.25 
 C                     80.14     41.61     37.04 
 C                     80.93     40.36     36.66 
 C                     81.84     40.48     35.44 
 N                     82.73     41.64     35.56 
 H                     79.81     43.47     39.12 
 H                     77.68     42.49     37.59 
 H                     78.79     40.28     38.09 
 H                     80.02     41.14     39.05 
 H                     80.73     42.46     37.38 
 H                     79.48     41.89     36.21 
 H                     80.25     39.52     36.48 
 H                     81.54     39.99     37.48 
 H                     81.33     40.5      34.48 
 H                     82.5      39.61     35.51 
 H                     82.31     42.53     35.31 
 H                     82.99     41.72     36.54 
 H                     83.56     41.4      35.03 
 N                     77.12     41.8      40.74 
 C                     76.14     41.35     41.71 
 C                     75.01     42.36     41.92 
 O                     73.92     42.02     42.36 
 C                     76.83     41.19     43.05 
 C                     77.6      42.43     43.47 
 O                     77.25     43.13     44.45 
 O                     78.56     42.84     42.79 
 H                     77.87     42.33     41.15 
 H                     75.72     40.39     41.41 
 H                     77.58     40.41     42.91 
 H                     76.05     41.11     43.81 
 N                     75.3      43.59     41.5 
 C                     74.31     44.64     41.41 
 C                     73.94     45.44     42.66 
 O                     72.87     46.03     42.61 
 H                     76.28     43.72     41.29 
 H                     73.39     44.23     40.98 
 H                     74.69     45.31     40.65 
 N                     74.68     45.46     43.77 
 C                     74.24     46.1      44.99 
 C                     74.27     47.62     45.01 
 O                     73.91     48.23     46.02 
 C                     75.1      45.55     46.13 
 C                     76.58     45.89     46.2 
 N                     77.37     45.63     47.24 
 O                     77.18     46.42     45.27 
 H                     75.61     45.09     43.63 
 H                     73.19     45.86     45.14 
 H                     75.03     44.46     46.05 
 H                     74.64     45.85     47.07 
 H                     77.05     45.44     48.18 
 H                     78.29     46.02     47.09 
 N                     74.81     48.29     43.99 
 C                     75.01     49.71     43.83 
 C                     76.41     50.24     44.09 
 O                     76.65     51.44     43.94 
 H                     75.29     47.83     43.23 
 H                     74.32     50.34     44.39 
 H                     74.91     49.97     42.77 
 N                     77.32     49.3      44.34 
 C                     78.67     49.6      44.77 
 C                     79.7      48.88     43.92 
 O                     79.51     47.68     43.68 
 C                     78.8      49.21     46.24 
 C                     77.84     49.94     47.15 
 C                     78.03     51.31     47.36 
 C                     76.73     49.27     47.68 
 C                     77.2      52.01     48.24 
 C                     75.96     49.94     48.63 
 C                     76.18     51.31     48.91 
 O                     75.4      51.99     49.8 
 H                     77.17     48.32     44.12 
 H                     78.75     50.68     44.67 
 H                     79.81     49.29     46.63 
 H                     78.63     48.14     46.39 
 H                     78.82     51.86     46.88 
 H                     76.56     48.28     47.27 
 H                     77.28     53.04     48.55 
 H                     75.04     49.48     48.97 
 H                     74.67     51.41     50.02 
 N                     80.8      49.56     43.56 
 C                     82.03     48.97     43.09 
 C                     83.07     48.97     44.2 
 O                     83.31     50.02     44.8 
 C                     82.51     49.74     41.86 
 C                     81.49     49.67     40.73 
 C                     83.91     49.33     41.41 
 C                     81.58     50.57     39.5 
 H                     80.85     50.52     43.85 
 H                     81.83     47.96     42.74 
 H                     82.66     50.77     42.18 
 H                     80.48     49.8      41.14 
 H                     81.54     48.66     40.32 
 H                     84.19     49.75     40.44 
 H                     84.62     49.56     42.2 
 H                     83.77     48.27     41.2 
 H                     80.76     50.17     38.9 
 H                     81.51     51.61     39.79 
 H                     82.49     50.33     38.94 
 N                     83.89     47.92     44.18 
 C                     85.13     47.83     44.93 
 C                     86.35     47.67     44.04 
 O                     86.27     47.72     42.81 
 C                     84.9      46.75     45.98 
 O                     84.79     45.46     45.42 
 H                     83.55     47.13     43.65 
 H                     85.41     48.75     45.46 
 H                     83.97     46.97     46.5 
 H                     85.75     46.8      46.66 
 H                     83.85     45.41     45.21 
 N                     87.48     47.4      44.68 
 C                     88.74     47.16     44. 
 C                     88.87     45.81     43.3 
 O                     89.58     45.79     42.3 
 C                     89.9      47.46     44.95 
 H                     87.45     47.41     45.69 
 H                     88.74     47.93     43.23 
 H                     89.86     46.7      45.74 
 H                     90.89     47.37     44.51 
 H                     89.67     48.46     45.31 
 N                     88.29     44.75     43.86 
 C                     88.47     43.43     43.28 
 C                     87.45     43.37     42.15 
 O                     87.75     42.74     41.14 
 C                     88.4      42.41     44.42 
 H                     87.78     44.87     44.73 
 H                     89.45     43.38     42.81 
 H                     87.35     42.37     44.71 
 H                     88.71     41.43     44.05 
 H                     89.03     42.64     45.28 
 N                     86.35     44.13     42.16 
 C                     85.45     44.34     41.04 
 C                     86.14     45.14     39.94 
 O                     86.19     44.73     38.78 
 C                     84.15     44.95     41.54 
 C                     83.46     44.09     42.59 
 C                     82.23     44.78     43.18 
 O                     82.26     45.49     44.21 
 O                     81.12     44.69     42.61 
 H                     86.09     44.5      43.06 
 H                     85.3      43.32     40.67 
 H                     83.52     44.95     40.65 
 H                     84.31     45.96     41.89 
 H                     84.16     43.77     43.36 
 H                     83.09     43.22     42.06 
 N                     86.71     46.28     40.33 
 C                     87.35     47.13     39.34 
 H                     88.351    46.753    39.131 
 H                     86.762    47.126    38.422 
 H                     87.419    48.148    39.724 
 H                     86.67     46.63     41.28 
 Ca                    79.11     45.01     44.04 
 O                     80.45     45.8      46.19 
 H                     80.93     46.55     46.52 
 H                     81.13     45.16     45.98 
 
 Stoichiometry    C54H83CaN15O23
 Framework group  C1[X(C54H83CaN15O23)]
 Deg. of freedom   522
 Full point group                 C1      NOp   1
 Largest Abelian subgroup         C1      NOp   1
 Largest concise Abelian subgroup C1      NOp   1
                         Standard orientation:                         
 ---------------------------------------------------------------------
 Center     Atomic      Atomic             Coordinates (Angstroms)
 Number     Number       Type             X           Y           Z
 ---------------------------------------------------------------------
      1          6           0        2.563024    3.063998    3.999791
      2          6           0        1.648950    2.915174    2.795665
      3          8           0        2.161854    2.897058    1.673078
      4          1           0        3.599617    3.113108    3.665050
      5          1           0        2.311815    3.978508    4.536166
      6          1           0        2.435174    2.207035    4.661202
      7          7           0        0.336228    2.889979    3.032579
      8          6           0       -0.688268    2.683008    2.026761
      9          6           0       -1.153044    4.016374    1.476655
     10          8           0       -2.279105    4.423336    1.757138
     11          6           0       -1.790592    1.773299    2.579853
     12          6           0       -2.821192    1.192394    1.625383
     13          8           0       -2.576928    1.275599    0.398553
     14          8           0       -3.886302    0.651198    1.976452
     15          1           0        0.070849    2.822276    4.005611
     16          1           0       -0.207708    2.156542    1.198512
     17          1           0       -2.267918    2.313243    3.393684
     18          1           0       -1.356143    0.875587    3.031037
     19          7           0       -0.222478    4.694727    0.807488
     20          6           0       -0.510854    6.019325    0.274873
     21          6           0       -1.662499    6.147021   -0.710170
     22          8           0       -2.261129    7.221249   -0.783483
     23          6           0        0.782109    6.567157   -0.324063
     24          6           0        1.833369    6.885488    0.736370
     25          6           0        2.884410    7.756075    0.051979
     26          6           0        4.037490    8.238954    0.928411
     27          7           0        4.670045    7.116779    1.630334
     28          1           0        0.700174    4.315484    0.659885
     29          1           0       -0.794965    6.634696    1.133186
     30          1           0        0.497997    7.461504   -0.869522
     31          1           0        1.294821    5.872118   -0.983644
     32          1           0        2.174827    5.910105    1.080223
     33          1           0        1.364251    7.452492    1.549595
     34          1           0        2.415591    8.642247   -0.389959
     35          1           0        3.322816    7.271061   -0.816331
     36          1           0        3.785988    9.025815    1.635304
     37          1           0        4.791023    8.585681    0.214710
     38          1           0        4.187246    6.808985    2.468885
     39          1           0        4.661659    6.321685    0.996177
     40          1           0        5.633308    7.396952    1.775344
     41          7           0       -2.001685    5.123416   -1.507280
     42          6           0       -3.106082    5.053070   -2.444914
     43          6           0       -4.400735    4.558596   -1.796478
     44          8           0       -5.496141    4.806057   -2.282429
     45          6           0       -2.754563    4.050121   -3.525574
     46          6           0       -2.324157    2.705214   -2.966222
     47          8           0       -3.015319    1.669784   -3.118140
     48          8           0       -1.304522    2.611391   -2.256544
     49          1           0       -1.473106    4.269591   -1.451714
     50          1           0       -3.277357    6.025955   -2.905522
     51          1           0       -1.877400    4.452623   -4.034570
     52          1           0       -3.675549    3.814853   -4.063007
     53          7           0       -4.218178    3.930544   -0.636468
     54          6           0       -5.310982    3.572113    0.239891
     55          6           0       -6.104567    2.291751   -0.025244
     56          8           0       -7.209351    2.239428    0.496497
     57          1           0       -3.251076    3.700411   -0.454389
     58          1           0       -6.016335    4.408114    0.294476
     59          1           0       -4.867376    3.526160    1.225793
     60          7           0       -5.677193    1.309147   -0.820191
     61          6           0       -6.504297    0.177350   -1.175906
     62          6           0       -6.726359   -0.869296   -0.095665
     63          8           0       -7.419983   -1.861538   -0.332606
     64          6           0       -5.877635   -0.476417   -2.409431
     65          6           0       -4.536633   -1.183701   -2.298242
     66          7           0       -3.998832   -1.944621   -3.249594
     67          8           0       -3.818013   -1.083868   -1.308587
     68          1           0       -4.694416    1.382976   -1.044020
     69          1           0       -7.505542    0.542726   -1.391802
     70          1           0       -5.748367    0.332835   -3.135930
     71          1           0       -6.599230   -1.183116   -2.815730
     72          1           0       -4.507510   -2.361841   -4.017236
     73          1           0       -3.145986   -2.373258   -2.918044
     74          7           0       -6.065287   -0.785232    1.060543
     75          6           0       -6.064064   -1.691709    2.183173
     76          6           0       -4.877435   -2.632790    2.304745
     77          8           0       -4.804933   -3.409438    3.259555
     78          1           0       -5.343496   -0.098769    1.226030
     79          1           0       -6.964141   -2.295812    2.290506
     80          1           0       -5.937950   -1.117967    3.108438
     81          7           0       -3.918609   -2.433870    1.401815
     82          6           0       -2.784828   -3.320854    1.243065
     83          6           0       -1.473375   -2.558082    1.251466
     84          8           0       -1.401127   -1.531128    0.563102
     85          6           0       -2.963252   -4.094154   -0.060803
     86          6           0       -4.224396   -4.924779   -0.107479
     87          6           0       -4.316667   -6.045924    0.724158
     88          6           0       -5.307937   -4.510230   -0.892329
     89          6           0       -5.441351   -6.873782    0.669055
     90          6           0       -6.387882   -5.382867   -1.020871
     91          6           0       -6.468914   -6.560279   -0.239311
     92          8           0       -7.545102   -7.395998   -0.318629
     93          1           0       -3.848702   -1.580395    0.855927
     94          1           0       -2.858160   -4.004036    2.086086
     95          1           0       -2.108651   -4.706789   -0.330870
     96          1           0       -2.989923   -3.425481   -0.925942
     97          1           0       -3.531759   -6.320453    1.406471
     98          1           0       -5.208256   -3.515165   -1.313054
     99          1           0       -5.608576   -7.801706    1.192882
    100          1           0       -7.276668   -5.036089   -1.534100
    101          1           0       -8.203194   -6.942140   -0.846482
    102          7           0       -0.443285   -3.091910    1.926700
    103          6           0        0.943634   -2.733001    1.754824
    104          6           0        1.660737   -3.789414    0.928111
    105          8           0        1.570948   -4.974312    1.256827
    106          6           0        1.583472   -2.556256    3.131620
    107          6           0        0.901760   -1.444906    3.920524
    108          6           0        3.098663   -2.381695    3.065866
    109          6           0        1.148136   -1.242295    5.413591
    110          1           0       -0.622867   -3.950349    2.415609
    111          1           0        1.002975   -1.756476    1.279979
    112          1           0        1.480609   -3.511338    3.644493
    113          1           0       -0.185771   -1.517083    3.789495
    114          1           0        1.214771   -0.500374    3.472660
    115          1           0        3.539420   -2.087462    4.022349
    116          1           0        3.543029   -3.279774    2.645040
    117          1           0        3.188566   -1.484008    2.454821
    118          1           0        0.578948   -0.326679    5.587006
    119          1           0        0.841021   -2.119732    5.967112
    120          1           0        2.195260   -0.965026    5.574693
    121          7           0        2.618554   -3.306818    0.137549
    122          6           0        3.630745   -4.116290   -0.516992
    123          6           0        5.043060   -3.759022   -0.088241
    124          8           0        5.264507   -2.934130    0.801879
    125          6           0        3.324541   -4.034624   -2.007418
    126          8           0        3.567331   -2.752978   -2.544294
    127          1           0        2.553400   -2.315577   -0.046290
    128          1           0        3.617582   -5.177681   -0.235964
    129          1           0        2.271500   -4.265431   -2.154157
    130          1           0        3.959065   -4.777431   -2.490136
    131          1           0        2.729959   -2.303168   -2.380958
    132          7           0        6.006663   -4.340484   -0.790218
    133          6           0        7.417878   -4.083556   -0.566482
    134          6           0        7.934386   -2.736230   -1.063806
    135          8           0        8.864384   -2.250218   -0.428670
    136          6           0        8.240875   -5.268398   -1.073362
    137          1           0        5.725186   -5.024400   -1.478789
    138          1           0        7.484910   -4.079544    0.520390
    139          1           0        8.129053   -5.281093   -2.164524
    140          1           0        9.310301   -5.196984   -0.891622
    141          1           0        7.770019   -6.119863   -0.587768
    142          7           0        7.412578   -2.233440   -2.181177
    143          6           0        7.942138   -1.002372   -2.742638
    144          6           0        7.258809    0.102238   -1.946525
    145          8           0        7.898367    1.125416   -1.720533
    146          6           0        7.756647   -1.068813   -4.261216
    147          1           0        6.689745   -2.756749   -2.666007
    148          1           0        9.003009   -0.934632   -2.510765
    149          1           0        6.688248   -0.933295   -4.429614
    150          1           0        8.303156   -0.247312   -4.730111
    151          1           0        8.107203   -1.991153   -4.725758
    152          7           0        6.082968   -0.096666   -1.341930
    153          6           0        5.468099    0.784284   -0.365016
    154          6           0        6.271301    0.791426    0.931486
    155          8           0        6.673853    1.840952    1.434126
    156          6           0        4.003637    0.411891   -0.195392
    157          6           0        3.222572    0.479139   -1.500618
    158          6           0        1.789640   -0.028654   -1.339523
    159          8           0        1.447319   -1.215342   -1.540736
    160          8           0        0.885927    0.742056   -0.946574
    161          1           0        5.551003   -0.881565   -1.681706
    162          1           0        5.581781    1.766583   -0.836148
    163          1           0        3.623359    1.199606    0.455679
    164          1           0        3.906096   -0.552996    0.281766
    165          1           0        3.751280   -0.031800   -2.303555
    166          1           0        3.141702    1.533021   -1.740395
    167          7           0        6.534338   -0.407526    1.451031
    168          6           0        7.254347   -0.494234    2.710502
    169          1           0        8.323221   -0.389486    2.525173
    170          1           0        6.921790    0.302972    3.375598
    171          1           0        7.060152   -1.461125    3.175209
    172          1           0        6.203268   -1.276913    1.049585
    173         20           0       -1.441005    0.140099   -1.587226
    174          8           0       -0.823796   -2.242265   -2.579997
    175          1           0       -0.568733   -3.111461   -2.294968
    176          1           0       -0.018705   -1.866204   -2.935674
 ---------------------------------------------------------------------
 Rotational constants (GHZ):           0.0222830           0.0151904           0.0109764
 Standard basis: SVP (5D, 7F)
 There are  1809 symmetry adapted cartesian basis functions of A   symmetry.
 There are  1717 symmetry adapted basis functions of A   symmetry.
  1717 basis functions,  2922 primitive gaussians,  1809 cartesian basis functions
   358 alpha electrons      358 beta electrons
       nuclear repulsion energy     21539.2789629546 Hartrees.
 NAtoms=  176 NActive=  176 NUniq=  176 SFac= 1.00D+00 NAtFMM=   60 NAOKFM=T Big=T
 Integral buffers will be    131072 words long.
 Raffenetti 2 integral format.
 Two-electron integral symmetry is turned on.
 One-electron integrals computed using PRISM.
 NBasis=  1717 RedAO= T EigKep=  3.04D-04  NBF=  1717
 NBsUse=  1717 1.00D-06 EigRej= -1.00D+00 NBFU=  1717
 ExpMin= 1.98D-02 ExpMax= 3.51D+04 ExpMxC= 5.28D+03 IAcc=3 IRadAn=         5 AccDes= 0.00D+00
 Harris functional with IExCor=  402 and IRadAn=       5 diagonalized for initial guess.
 HarFok:  IExCor=  402 AccDes= 0.00D+00 IRadAn=         5 IDoV= 1 UseB2=F ITyADJ=14
 ICtDFT=  3500011 ScaDFX=  1.000000  1.000000  1.000000  1.000000
 FoFCou: FMM=F IPFlag=           0 FMFlag=      100000 FMFlg1=        2001
         NFxFlg=           0 DoJE=T BraDBF=F KetDBF=T FulRan=T
         wScrn=  0.000000 ICntrl=       500 IOpCl=  0 I1Cent=   200000004 NGrid=           0
         NMat0=    1 NMatS0=      1 NMatT0=    0 NMatD0=    1 NMtDS0=    0 NMtDT0=    0
 Petite list used in FoFCou.
 Requested convergence on RMS density matrix=1.00D-08 within 128 cycles.
 Requested convergence on MAX density matrix=1.00D-06.
 Requested convergence on             energy=1.00D-06.
 No special actions if energy rises.
 EnCoef did     4 forward-backward iterations
 SCF Done:  E(RB3LYP) =  -5333.61441956     A.U. after   19 cycles
            NFock= 19  Conv=0.33D-08     -V/T= 2.0081
 SCF density gives NOpUse=  1 NOpAll=  1.
 Hyperfine terms turned off by default for NAtoms > 100.

 **********************************************************************

            Population analysis using the SCF density.

 **********************************************************************

 Orbital symmetries:
 BldTbl:  Degeneracy threshold= 1.00D-02
       Occupied  (A) (A) (A) (A) (A) (A) (A) (A) (A) (A) (A) (A)
                 (A) (A) (A) (A) (A) (A) (A) (A) (A) (A) (A) (A)
                 (A) (A) (A) (A) (A) (A) (A) (A) (A) (A) (A) (A)
                 (A) (A) (A) (A) (A) (A) (A) (A) (A) (A) (A) (A)
                 (A) (A) (A) (A) (A) (A) (A) (A) (A) (A) (A) (A)
                 (A) (A) (A) (A) (A) (A) (A) (A) (A) (A) (A) (A)
                 (A) (A) (A) (A) (A) (A) (A) (A) (A) (A) (A) (A)
                 (A) (A) (A) (A) (A) (A) (A) (A) (A) (A) (A) (A)
                 (A) (A) (A) (A) (A) (A) (A) (A) (A) (A) (A) (A)
                 (A) (A) (A) (A) (A) (A) (A) (A) (A) (A) (A) (A)
                 (A) (A) (A) (A) (A) (A) (A) (A) (A) (A) (A) (A)
                 (A) (A) (A) (A) (A) (A) (A) (A) (A) (A) (A) (A)
                 (A) (A) (A) (A) (A) (A) (A) (A) (A) (A) (A) (A)
                 (A) (A) (A) (A) (A) (A) (A) (A) (A) (A) (A) (A)
                 (A) (A) (A) (A) (A) (A) (A) (A) (A) (A) (A) (A)
                 (A) (A) (A) (A) (A) (A) (A) (A) (A) (A) (A) (A)
                 (A) (A) (A) (A) (A) (A) (A) (A) (A) (A) (A) (A)
                 (A) (A) (A) (A) (A) (A) (A) (A) (A) (A) (A) (A)
                 (A) (A) (A) (A) (A) (A) (A) (A) (A) (A) (A) (A)
                 (A) (A) (A) (A) (A) (A) (A) (A) (A) (A) (A) (A)
                 (A) (A) (A) (A) (A) (A) (A) (A) (A) (A) (A) (A)
                 (A) (A) (A) (A) (A) (A) (A) (A) (A) (A) (A) (A)
                 (A) (A) (A) (A) (A) (A) (A) (A) (A) (A) (A) (A)
                 (A) (A) (A) (A) (A) (A) (A) (A) (A) (A) (A) (A)
                 (A) (A) (A) (A) (A) (A) (A) (A) (A) (A) (A) (A)
                 (A) (A) (A) (A) (A) (A) (A) (A) (A) (A) (A) (A)
                 (A) (A) (A) (A) (A) (A) (A) (A) (A) (A) (A) (A)
                 (A) (A) (A) (A) (A) (A) (A) (A) (A) (A) (A) (A)
                 (A) (A) (A) (A) (A) (A) (A) (A) (A) (A) (A) (A)
                 (A) (A) (A) (A) (A) (A) (A) (A) (A) (A)
       Virtual   (A) (A) (A) (A) (A) (A) (A) (A) (A) (A) (A) (A)
                 (A) (A) (A) (A) (A) (A) (A) (A) (A) (A) (A) (A)
                 (A) (A) (A) (A) (A) (A) (A) (A) (A) (A) (A) (A)
                 (A) (A) (A) (A) (A) (A) (A) (A) (A) (A) (A) (A)
                 (A) (A) (A) (A) (A) (A) (A) (A) (A) (A) (A) (A)
                 (A) (A) (A) (A) (A) (A) (A) (A) (A) (A) (A) (A)
                 (A) (A) (A) (A) (A) (A) (A) (A) (A) (A) (A) (A)
                 (A) (A) (A) (A) (A) (A) (A) (A) (A) (A) (A) (A)
                 (A) (A) (A) (A) (A) (A) (A) (A) (A) (A) (A) (A)
                 (A) (A) (A) (A) (A) (A) (A) (A) (A) (A) (A) (A)
                 (A) (A) (A) (A) (A) (A) (A) (A) (A) (A) (A) (A)
                 (A) (A) (A) (A) (A) (A) (A) (A) (A) (A) (A) (A)
                 (A) (A) (A) (A) (A) (A) (A) (A) (A) (A) (A) (A)
                 (A) (A) (A) (A) (A) (A) (A) (A) (A) (A) (A) (A)
                 (A) (A) (A) (A) (A) (A) (A) (A) (A) (A) (A) (A)
                 (A) (A) (A) (A) (A) (A) (A) (A) (A) (A) (A) (A)
                 (A) (A) (A) (A) (A) (A) (A) (A) (A) (A) (A) (A)
                 (A) (A) (A) (A) (A) (A) (A) (A) (A) (A) (A) (A)
                 (A) (A) (A) (A) (A) (A) (A) (A) (A) (A) (A) (A)
                 (A) (A) (A) (A) (A) (A) (A) (A) (A) (A) (A) (A)
                 (A) (A) (A) (A) (A) (A) (A) (A) (A) (A) (A) (A)
                 (A) (A) (A) (A) (A) (A) (A) (A) (A) (A) (A) (A)
                 (A) (A) (A) (A) (A) (A) (A) (A) (A) (A) (A) (A)
                 (A) (A) (A) (A) (A) (A) (A) (A) (A) (A) (A) (A)
                 (A) (A) (A) (A) (A) (A) (A) (A) (A) (A) (A) (A)
                 (A) (A) (A) (A) (A) (A) (A) (A) (A) (A) (A) (A)
                 (A) (A) (A) (A) (A) (A) (A) (A) (A) (A) (A) (A)
                 (A) (A) (A) (A) (A) (A) (A) (A) (A) (A) (A) (A)
                 (A) (A) (A) (A) (A) (A) (A) (A) (A) (A) (A) (A)
                 (A) (A) (A) (A) (A) (A) (A) (A) (A) (A) (A) (A)
                 (A) (A) (A) (A) (A) (A) (A) (A) (A) (A) (A) (A)
                 (A) (A) (A) (A) (A) (A) (A) (A) (A) (A) (A) (A)
                 (A) (A) (A) (A) (A) (A) (A) (A) (A) (A) (A) (A)
                 (A) (A) (A) (A) (A) (A) (A) (A) (A) (A) (A) (A)
                 (A) (A) (A) (A) (A) (A) (A) (A) (A) (A) (A) (A)
                 (A) (A) (A) (A) (A) (A) (A) (A) (A) (A) (A) (A)
                 (A) (A) (A) (A) (A) (A) (A) (A) (A) (A) (A) (A)
                 (A) (A) (A) (A) (A) (A) (A) (A) (A) (A) (A) (A)
                 (A) (A) (A) (A) (A) (A) (A) (A) (A) (A) (A) (A)
                 (A) (A) (A) (A) (A) (A) (A) (A) (A) (A) (A) (A)
                 (A) (A) (A) (A) (A) (A) (A) (A) (A) (A) (A) (A)
                 (A) (A) (A) (A) (A) (A) (A) (A) (A) (A) (A) (A)
                 (A) (A) (A) (A) (A) (A) (A) (A) (A) (A) (A) (A)
                 (A) (A) (A) (A) (A) (A) (A) (A) (A) (A) (A) (A)
                 (A) (A) (A) (A) (A) (A) (A) (A) (A) (A) (A) (A)
                 (A) (A) (A) (A) (A) (A) (A) (A) (A) (A) (A) (A)
                 (A) (A) (A) (A) (A) (A) (A) (A) (A) (A) (A) (A)
                 (A) (A) (A) (A) (A) (A) (A) (A) (A) (A) (A) (A)
                 (A) (A) (A) (A) (A) (A) (A) (A) (A) (A) (A) (A)
                 (A) (A) (A) (A) (A) (A) (A) (A) (A) (A) (A) (A)
                 (A) (A) (A) (A) (A) (A) (A) (A) (A) (A) (A) (A)
                 (A) (A) (A) (A) (A) (A) (A) (A) (A) (A) (A) (A)
                 (A) (A) (A) (A) (A) (A) (A) (A) (A) (A) (A) (A)
                 (A) (A) (A) (A) (A) (A) (A) (A) (A) (A) (A) (A)
                 (A) (A) (A) (A) (A) (A) (A) (A) (A) (A) (A) (A)
                 (A) (A) (A) (A) (A) (A) (A) (A) (A) (A) (A) (A)
                 (A) (A) (A) (A) (A) (A) (A) (A) (A) (A) (A) (A)
                 (A) (A) (A) (A) (A) (A) (A) (A) (A) (A) (A) (A)
                 (A) (A) (A) (A) (A) (A) (A) (A) (A) (A) (A) (A)
                 (A) (A) (A) (A) (A) (A) (A) (A) (A) (A) (A) (A)
                 (A) (A) (A) (A) (A) (A) (A) (A) (A) (A) (A) (A)
                 (A) (A) (A) (A) (A) (A) (A) (A) (A) (A) (A) (A)
                 (A) (A) (A) (A) (A) (A) (A) (A) (A) (A) (A) (A)
                 (A) (A) (A) (A) (A) (A) (A) (A) (A) (A) (A) (A)
                 (A) (A) (A) (A) (A) (A) (A) (A) (A) (A) (A) (A)
                 (A) (A) (A) (A) (A) (A) (A) (A) (A) (A) (A) (A)
                 (A) (A) (A) (A) (A) (A) (A) (A) (A) (A) (A) (A)
                 (A) (A) (A) (A) (A) (A) (A) (A) (A) (A) (A) (A)
                 (A) (A) (A) (A) (A) (A) (A) (A) (A) (A) (A) (A)
                 (A) (A) (A) (A) (A) (A) (A) (A) (A) (A) (A) (A)
                 (A) (A) (A) (A) (A) (A) (A) (A) (A) (A) (A) (A)
                 (A) (A) (A) (A) (A) (A) (A) (A) (A) (A) (A) (A)
                 (A) (A) (A) (A) (A) (A) (A) (A) (A) (A) (A) (A)
                 (A) (A) (A) (A) (A) (A) (A) (A) (A) (A) (A) (A)
                 (A) (A) (A) (A) (A) (A) (A) (A) (A) (A) (A) (A)
                 (A) (A) (A) (A) (A) (A) (A) (A) (A) (A) (A) (A)
                 (A) (A) (A) (A) (A) (A) (A) (A) (A) (A) (A) (A)
                 (A) (A) (A) (A) (A) (A) (A) (A) (A) (A) (A) (A)
                 (A) (A) (A) (A) (A) (A) (A) (A) (A) (A) (A) (A)
                 (A) (A) (A) (A) (A) (A) (A) (A) (A) (A) (A) (A)
                 (A) (A) (A) (A) (A) (A) (A) (A) (A) (A) (A) (A)
                 (A) (A) (A) (A) (A) (A) (A) (A) (A) (A) (A) (A)
                 (A) (A) (A) (A) (A) (A) (A) (A) (A) (A) (A) (A)
                 (A) (A) (A) (A) (A) (A) (A) (A) (A) (A) (A) (A)
                 (A) (A) (A) (A) (A) (A) (A) (A) (A) (A) (A) (A)
                 (A) (A) (A) (A) (A) (A) (A) (A) (A) (A) (A) (A)
                 (A) (A) (A) (A) (A) (A) (A) (A) (A) (A) (A) (A)
                 (A) (A) (A) (A) (A) (A) (A) (A) (A) (A) (A) (A)
                 (A) (A) (A) (A) (A) (A) (A) (A) (A) (A) (A) (A)
                 (A) (A) (A) (A) (A) (A) (A) (A) (A) (A) (A) (A)
                 (A) (A) (A) (A) (A) (A) (A) (A) (A) (A) (A) (A)
                 (A) (A) (A) (A) (A) (A) (A) (A) (A) (A) (A) (A)
                 (A) (A) (A) (A) (A) (A) (A) (A) (A) (A) (A) (A)
                 (A) (A) (A) (A) (A) (A) (A) (A) (A) (A) (A) (A)
                 (A) (A) (A) (A) (A) (A) (A) (A) (A) (A) (A) (A)
                 (A) (A) (A) (A) (A) (A) (A) (A) (A) (A) (A) (A)
                 (A) (A) (A) (A) (A) (A) (A) (A) (A) (A) (A) (A)
                 (A) (A) (A) (A) (A) (A) (A) (A) (A) (A) (A) (A)
                 (A) (A) (A) (A) (A) (A) (A) (A) (A) (A) (A) (A)
                 (A) (A) (A) (A) (A) (A) (A) (A) (A) (A) (A) (A)
                 (A) (A) (A) (A) (A) (A) (A) (A) (A) (A) (A) (A)
                 (A) (A) (A) (A) (A) (A) (A) (A) (A) (A) (A) (A)
                 (A) (A) (A) (A) (A) (A) (A) (A) (A) (A) (A) (A)
                 (A) (A) (A) (A) (A) (A) (A) (A) (A) (A) (A) (A)
                 (A) (A) (A) (A) (A) (A) (A) (A) (A) (A) (A) (A)
                 (A) (A) (A) (A) (A) (A) (A) (A) (A) (A) (A) (A)
                 (A) (A) (A) (A) (A) (A) (A) (A) (A) (A) (A) (A)
                 (A) (A) (A) (A) (A) (A) (A) (A) (A) (A) (A) (A)
                 (A) (A) (A) (A) (A) (A) (A) (A) (A) (A) (A) (A)
                 (A) (A) (A) (A) (A) (A) (A) (A) (A) (A) (A) (A)
                 (A) (A) (A) (A) (A) (A) (A) (A) (A) (A) (A) (A)
                 (A) (A) (A) (A) (A) (A) (A) (A) (A) (A) (A) (A)
                 (A) (A) (A) (A) (A) (A) (A) (A) (A) (A) (A) (A)
                 (A) (A) (A)
 The electronic state is 1-A.
 Alpha  occ. eigenvalues -- -145.36473 -19.18232 -19.14906 -19.14148 -19.13681
 Alpha  occ. eigenvalues --  -19.12012 -19.10843 -19.10608 -19.10495 -19.10438
 Alpha  occ. eigenvalues --  -19.09810 -19.09579 -19.08849 -19.07979 -19.07974
 Alpha  occ. eigenvalues --  -19.07499 -19.06557 -19.06207 -19.04955 -19.04857
 Alpha  occ. eigenvalues --  -19.04107 -19.03483 -19.03313 -19.02870 -15.42245
 Alpha  occ. eigenvalues --  -14.58881 -14.39456 -14.37528 -14.37466 -14.36389
 Alpha  occ. eigenvalues --  -14.36069 -14.36032 -14.35705 -14.35172 -14.33178
 Alpha  occ. eigenvalues --  -14.32316 -14.30472 -14.30430 -14.29940 -14.28574
 Alpha  occ. eigenvalues --  -12.55865 -12.55813 -12.55800 -10.35969 -10.32018
 Alpha  occ. eigenvalues --  -10.30676 -10.29667 -10.29550 -10.28829 -10.28735
 Alpha  occ. eigenvalues --  -10.28716 -10.28099 -10.27950 -10.27847 -10.26735
 Alpha  occ. eigenvalues --  -10.26568 -10.26490 -10.26021 -10.25684 -10.25470
 Alpha  occ. eigenvalues --  -10.25385 -10.24531 -10.24343 -10.23508 -10.23459
 Alpha  occ. eigenvalues --  -10.23313 -10.23154 -10.23083 -10.23056 -10.22679
 Alpha  occ. eigenvalues --  -10.22481 -10.22399 -10.22118 -10.21952 -10.21923
 Alpha  occ. eigenvalues --  -10.21101 -10.21060 -10.20471 -10.20383 -10.20375
 Alpha  occ. eigenvalues --  -10.19422 -10.18985 -10.18983 -10.18852 -10.18219
 Alpha  occ. eigenvalues --  -10.17992 -10.17592 -10.17472 -10.17178 -10.17160
 Alpha  occ. eigenvalues --  -10.16882 -10.16807 -10.16796 -10.16762 -10.16507
 Alpha  occ. eigenvalues --  -10.16485 -10.16176  -1.79210  -1.14244  -1.07007
 Alpha  occ. eigenvalues --   -1.06826  -1.06719  -1.06680  -1.04728  -1.04584
 Alpha  occ. eigenvalues --   -1.04478  -1.04217  -1.04088  -1.03618  -1.03232
 Alpha  occ. eigenvalues --   -1.02960  -1.02637  -1.02500  -1.02330  -1.01888
 Alpha  occ. eigenvalues --   -1.00480  -1.00362  -0.98280  -0.98044  -0.97705
 Alpha  occ. eigenvalues --   -0.97285  -0.96516  -0.96460  -0.94473  -0.94212
 Alpha  occ. eigenvalues --   -0.93391  -0.93283  -0.93000  -0.92762  -0.92026
 Alpha  occ. eigenvalues --   -0.91046  -0.90062  -0.89821  -0.89656  -0.89345
 Alpha  occ. eigenvalues --   -0.88495  -0.87589  -0.87380  -0.86667  -0.85258
 Alpha  occ. eigenvalues --   -0.83760  -0.82429  -0.82326  -0.81408  -0.80017
 Alpha  occ. eigenvalues --   -0.79038  -0.78494  -0.77464  -0.77371  -0.76367
 Alpha  occ. eigenvalues --   -0.76095  -0.75765  -0.74461  -0.73929  -0.73492
 Alpha  occ. eigenvalues --   -0.73084  -0.72711  -0.72077  -0.71477  -0.69988
 Alpha  occ. eigenvalues --   -0.69900  -0.69174  -0.68988  -0.68353  -0.67765
 Alpha  occ. eigenvalues --   -0.67418  -0.66576  -0.66092  -0.65249  -0.64664
 Alpha  occ. eigenvalues --   -0.64096  -0.63442  -0.62837  -0.62270  -0.62130
 Alpha  occ. eigenvalues --   -0.61721  -0.61457  -0.61330  -0.60360  -0.59980
 Alpha  occ. eigenvalues --   -0.59807  -0.59349  -0.59325  -0.58887  -0.58208
 Alpha  occ. eigenvalues --   -0.57673  -0.57513  -0.57278  -0.56772  -0.56580
 Alpha  occ. eigenvalues --   -0.56266  -0.55533  -0.55271  -0.54929  -0.54688
 Alpha  occ. eigenvalues --   -0.54588  -0.54452  -0.53628  -0.53493  -0.53234
 Alpha  occ. eigenvalues --   -0.53060  -0.52868  -0.52509  -0.52185  -0.51951
 Alpha  occ. eigenvalues --   -0.51744  -0.51042  -0.50837  -0.50581  -0.50518
 Alpha  occ. eigenvalues --   -0.50026  -0.49892  -0.49637  -0.49406  -0.49098
 Alpha  occ. eigenvalues --   -0.48964  -0.48751  -0.48411  -0.48258  -0.47879
 Alpha  occ. eigenvalues --   -0.47703  -0.47222  -0.47013  -0.46824  -0.46729
 Alpha  occ. eigenvalues --   -0.46532  -0.46506  -0.46235  -0.46112  -0.45755
 Alpha  occ. eigenvalues --   -0.45586  -0.45435  -0.45185  -0.45129  -0.44993
 Alpha  occ. eigenvalues --   -0.44901  -0.44698  -0.44621  -0.44310  -0.44199
 Alpha  occ. eigenvalues --   -0.44068  -0.43770  -0.43443  -0.43355  -0.43260
 Alpha  occ. eigenvalues --   -0.43197  -0.42827  -0.42693  -0.42603  -0.42403
 Alpha  occ. eigenvalues --   -0.42274  -0.42207  -0.42102  -0.41848  -0.41725
 Alpha  occ. eigenvalues --   -0.41591  -0.41540  -0.41359  -0.41176  -0.40999
 Alpha  occ. eigenvalues --   -0.40947  -0.40790  -0.40625  -0.40511  -0.40473
 Alpha  occ. eigenvalues --   -0.40340  -0.40227  -0.39853  -0.39768  -0.39638
 Alpha  occ. eigenvalues --   -0.39571  -0.39367  -0.39258  -0.39209  -0.39018
 Alpha  occ. eigenvalues --   -0.38975  -0.38871  -0.38777  -0.38636  -0.38405
 Alpha  occ. eigenvalues --   -0.38369  -0.38150  -0.38050  -0.37850  -0.37652
 Alpha  occ. eigenvalues --   -0.37579  -0.37440  -0.37357  -0.36898  -0.36766
 Alpha  occ. eigenvalues --   -0.36757  -0.36506  -0.36418  -0.36288  -0.36101
 Alpha  occ. eigenvalues --   -0.35984  -0.35733  -0.35641  -0.35499  -0.35475
 Alpha  occ. eigenvalues --   -0.34890  -0.34565  -0.34466  -0.34398  -0.34112
 Alpha  occ. eigenvalues --   -0.33981  -0.33891  -0.33499  -0.33273  -0.32623
 Alpha  occ. eigenvalues --   -0.32281  -0.32218  -0.31957  -0.31699  -0.31484
 Alpha  occ. eigenvalues --   -0.31125  -0.30860  -0.30738  -0.30632  -0.30302
 Alpha  occ. eigenvalues --   -0.29467  -0.29110  -0.28985  -0.28609  -0.27853
 Alpha  occ. eigenvalues --   -0.27751  -0.27605  -0.27512  -0.27411  -0.26722
 Alpha  occ. eigenvalues --   -0.26591  -0.26419  -0.26155  -0.25982  -0.25390
 Alpha  occ. eigenvalues --   -0.25326  -0.25182  -0.24464  -0.24171  -0.24149
 Alpha  occ. eigenvalues --   -0.23949  -0.23656  -0.23480  -0.23411  -0.23310
 Alpha  occ. eigenvalues --   -0.23282  -0.22813  -0.22260  -0.21862  -0.21770
 Alpha  occ. eigenvalues --   -0.21325  -0.20850  -0.19972  -0.19790  -0.19103
 Alpha  occ. eigenvalues --   -0.19004  -0.18457  -0.18365
 Alpha virt. eigenvalues --   -0.10642  -0.05354  -0.04433  -0.02127  -0.01977
 Alpha virt. eigenvalues --   -0.01537  -0.00644   0.00008   0.00238   0.00302
 Alpha virt. eigenvalues --    0.00428   0.00590   0.00873   0.00997   0.01051
 Alpha virt. eigenvalues --    0.01352   0.01997   0.02424   0.02485   0.02792
 Alpha virt. eigenvalues --    0.02923   0.03363   0.03669   0.03993   0.04632
 Alpha virt. eigenvalues --    0.04674   0.04853   0.05281   0.05456   0.05844
 Alpha virt. eigenvalues --    0.05891   0.06120   0.06339   0.06586   0.06764
 Alpha virt. eigenvalues --    0.06880   0.07072   0.07335   0.07583   0.07652
 Alpha virt. eigenvalues --    0.07776   0.08000   0.08219   0.08375   0.08462
 Alpha virt. eigenvalues --    0.08866   0.09167   0.09360   0.09484   0.09767
 Alpha virt. eigenvalues --    0.09898   0.10021   0.10153   0.10363   0.10415
 Alpha virt. eigenvalues --    0.10843   0.11077   0.11213   0.11379   0.11687
 Alpha virt. eigenvalues --    0.11772   0.11835   0.11975   0.12236   0.12343
 Alpha virt. eigenvalues --    0.12599   0.12784   0.12944   0.13232   0.13424
 Alpha virt. eigenvalues --    0.13565   0.13745   0.13960   0.14051   0.14132
 Alpha virt. eigenvalues --    0.14207   0.14432   0.14567   0.14717   0.14913
 Alpha virt. eigenvalues --    0.15135   0.15299   0.15561   0.15656   0.15710
 Alpha virt. eigenvalues --    0.15975   0.16032   0.16189   0.16225   0.16539
 Alpha virt. eigenvalues --    0.16777   0.16907   0.17092   0.17251   0.17483
 Alpha virt. eigenvalues --    0.17602   0.17863   0.17945   0.18012   0.18198
 Alpha virt. eigenvalues --    0.18398   0.18448   0.18647   0.18902   0.19018
 Alpha virt. eigenvalues --    0.19269   0.19456   0.19614   0.19818   0.19995
 Alpha virt. eigenvalues --    0.20097   0.20430   0.20639   0.20756   0.21243
 Alpha virt. eigenvalues --    0.21274   0.21393   0.21774   0.22097   0.22283
 Alpha virt. eigenvalues --    0.22646   0.22744   0.23059   0.23123   0.23444
 Alpha virt. eigenvalues --    0.23777   0.23840   0.24090   0.24209   0.24307
 Alpha virt. eigenvalues --    0.24491   0.24624   0.24953   0.25127   0.25406
 Alpha virt. eigenvalues --    0.25550   0.25801   0.25868   0.25960   0.26320
 Alpha virt. eigenvalues --    0.26504   0.26679   0.26931   0.27083   0.27466
 Alpha virt. eigenvalues --    0.27648   0.27778   0.27889   0.27967   0.28467
 Alpha virt. eigenvalues --    0.28878   0.29225   0.29409   0.29745   0.29864
 Alpha virt. eigenvalues --    0.30226   0.30339   0.30583   0.30780   0.31169
 Alpha virt. eigenvalues --    0.31259   0.31740   0.31949   0.32161   0.32363
 Alpha virt. eigenvalues --    0.32536   0.32644   0.33089   0.33171   0.33360
 Alpha virt. eigenvalues --    0.33827   0.34208   0.34464   0.34548   0.34733
 Alpha virt. eigenvalues --    0.35250   0.35671   0.36034   0.36471   0.36760
 Alpha virt. eigenvalues --    0.36774   0.36973   0.37167   0.37556   0.37864
 Alpha virt. eigenvalues --    0.38140   0.38308   0.38492   0.38695   0.39191
 Alpha virt. eigenvalues --    0.39403   0.39668   0.39747   0.39904   0.40207
 Alpha virt. eigenvalues --    0.40572   0.40628   0.40829   0.41049   0.41331
 Alpha virt. eigenvalues --    0.41686   0.41866   0.42088   0.42291   0.42599
 Alpha virt. eigenvalues --    0.42697   0.43095   0.43202   0.43479   0.43681
 Alpha virt. eigenvalues --    0.43782   0.43893   0.44272   0.44592   0.44918
 Alpha virt. eigenvalues --    0.45072   0.45461   0.45800   0.45995   0.46037
 Alpha virt. eigenvalues --    0.46271   0.46489   0.46624   0.46646   0.46942
 Alpha virt. eigenvalues --    0.47109   0.47302   0.47392   0.47582   0.47779
 Alpha virt. eigenvalues --    0.47886   0.48103   0.48159   0.48379   0.48520
 Alpha virt. eigenvalues --    0.48924   0.49006   0.49259   0.49335   0.49754
 Alpha virt. eigenvalues --    0.49777   0.50018   0.50180   0.50328   0.50641
 Alpha virt. eigenvalues --    0.50905   0.51245   0.51654   0.51729   0.51855
 Alpha virt. eigenvalues --    0.52115   0.52228   0.52352   0.52639   0.52789
 Alpha virt. eigenvalues --    0.52900   0.53120   0.53318   0.53617   0.53722
 Alpha virt. eigenvalues --    0.54000   0.54165   0.54325   0.54410   0.54619
 Alpha virt. eigenvalues --    0.55098   0.55271   0.55362   0.55745   0.55756
 Alpha virt. eigenvalues --    0.55993   0.56316   0.56448   0.56510   0.56775
 Alpha virt. eigenvalues --    0.56845   0.56951   0.57214   0.57291   0.57396
 Alpha virt. eigenvalues --    0.57592   0.57804   0.57850   0.58115   0.58270
 Alpha virt. eigenvalues --    0.58420   0.58622   0.58906   0.59012   0.59232
 Alpha virt. eigenvalues --    0.59288   0.59601   0.59626   0.59811   0.59977
 Alpha virt. eigenvalues --    0.60052   0.60089   0.60310   0.60338   0.60554
 Alpha virt. eigenvalues --    0.60765   0.60794   0.60897   0.61127   0.61259
 Alpha virt. eigenvalues --    0.61335   0.61503   0.61689   0.61740   0.61839
 Alpha virt. eigenvalues --    0.61898   0.62116   0.62201   0.62606   0.62722
 Alpha virt. eigenvalues --    0.62780   0.62949   0.63042   0.63072   0.63310
 Alpha virt. eigenvalues --    0.63474   0.63667   0.63785   0.63924   0.63965
 Alpha virt. eigenvalues --    0.64040   0.64176   0.64276   0.64432   0.64574
 Alpha virt. eigenvalues --    0.64765   0.64797   0.64894   0.65067   0.65134
 Alpha virt. eigenvalues --    0.65275   0.65362   0.65444   0.65543   0.65718
 Alpha virt. eigenvalues --    0.65934   0.66038   0.66159   0.66291   0.66371
 Alpha virt. eigenvalues --    0.66485   0.66532   0.66662   0.66789   0.66855
 Alpha virt. eigenvalues --    0.66948   0.67049   0.67118   0.67321   0.67410
 Alpha virt. eigenvalues --    0.67563   0.67625   0.67706   0.67889   0.67958
 Alpha virt. eigenvalues --    0.68150   0.68263   0.68384   0.68545   0.68618
 Alpha virt. eigenvalues --    0.68665   0.68779   0.68939   0.69097   0.69127
 Alpha virt. eigenvalues --    0.69231   0.69382   0.69476   0.69774   0.69927
 Alpha virt. eigenvalues --    0.70140   0.70173   0.70429   0.70538   0.70583
 Alpha virt. eigenvalues --    0.70679   0.70759   0.71007   0.71166   0.71204
 Alpha virt. eigenvalues --    0.71450   0.71593   0.71771   0.71910   0.71994
 Alpha virt. eigenvalues --    0.72246   0.72283   0.72385   0.72541   0.72572
 Alpha virt. eigenvalues --    0.72795   0.73039   0.73241   0.73577   0.73686
 Alpha virt. eigenvalues --    0.74010   0.74276   0.74453   0.74508   0.74760
 Alpha virt. eigenvalues --    0.74863   0.75063   0.75255   0.75368   0.75469
 Alpha virt. eigenvalues --    0.75690   0.75757   0.75960   0.76292   0.76492
 Alpha virt. eigenvalues --    0.76831   0.76943   0.77201   0.77345   0.77516
 Alpha virt. eigenvalues --    0.77552   0.78051   0.78179   0.78390   0.78519
 Alpha virt. eigenvalues --    0.78622   0.78896   0.78989   0.79171   0.79442
 Alpha virt. eigenvalues --    0.79524   0.80055   0.80456   0.80746   0.80823
 Alpha virt. eigenvalues --    0.81170   0.81351   0.81613   0.81806   0.81999
 Alpha virt. eigenvalues --    0.82411   0.82582   0.83023   0.83191   0.83584
 Alpha virt. eigenvalues --    0.83909   0.84332   0.84695   0.84935   0.85201
 Alpha virt. eigenvalues --    0.85358   0.85737   0.86046   0.86380   0.86483
 Alpha virt. eigenvalues --    0.86673   0.86903   0.87022   0.87412   0.87720
 Alpha virt. eigenvalues --    0.87754   0.88435   0.88985   0.89103   0.89701
 Alpha virt. eigenvalues --    0.89836   0.90308   0.90401   0.91077   0.91418
 Alpha virt. eigenvalues --    0.91675   0.92005   0.92087   0.92285   0.92439
 Alpha virt. eigenvalues --    0.92924   0.93190   0.93359   0.93434   0.93677
 Alpha virt. eigenvalues --    0.93918   0.94401   0.94941   0.95049   0.95232
 Alpha virt. eigenvalues --    0.95508   0.95623   0.96259   0.96358   0.96444
 Alpha virt. eigenvalues --    0.97114   0.97274   0.97594   0.97762   0.98195
 Alpha virt. eigenvalues --    0.98459   0.98654   0.99054   0.99089   0.99648
 Alpha virt. eigenvalues --    0.99745   1.00193   1.00315   1.00553   1.01172
 Alpha virt. eigenvalues --    1.01545   1.01879   1.02041   1.02279   1.02450
 Alpha virt. eigenvalues --    1.03079   1.03382   1.03922   1.04012   1.04223
 Alpha virt. eigenvalues --    1.04882   1.05434   1.05549   1.05713   1.06021
 Alpha virt. eigenvalues --    1.06126   1.06505   1.06686   1.06920   1.07140
 Alpha virt. eigenvalues --    1.07326   1.08007   1.08378   1.08470   1.08950
 Alpha virt. eigenvalues --    1.09087   1.09394   1.09686   1.09869   1.10221
 Alpha virt. eigenvalues --    1.10547   1.10824   1.11140   1.11476   1.11881
 Alpha virt. eigenvalues --    1.12067   1.12255   1.12351   1.12703   1.13112
 Alpha virt. eigenvalues --    1.13190   1.13633   1.13705   1.14280   1.14422
 Alpha virt. eigenvalues --    1.14930   1.15110   1.15635   1.15877   1.16099
 Alpha virt. eigenvalues --    1.16324   1.16883   1.17139   1.17358   1.17486
 Alpha virt. eigenvalues --    1.17872   1.18187   1.18507   1.18698   1.19017
 Alpha virt. eigenvalues --    1.19163   1.19248   1.19594   1.19703   1.19859
 Alpha virt. eigenvalues --    1.20330   1.20461   1.20674   1.21016   1.21233
 Alpha virt. eigenvalues --    1.21274   1.21618   1.21939   1.22215   1.22360
 Alpha virt. eigenvalues --    1.22791   1.23087   1.23290   1.23414   1.23701
 Alpha virt. eigenvalues --    1.23800   1.24004   1.24213   1.24300   1.24761
 Alpha virt. eigenvalues --    1.25296   1.25561   1.25772   1.25972   1.26226
 Alpha virt. eigenvalues --    1.26460   1.26760   1.26890   1.27133   1.27298
 Alpha virt. eigenvalues --    1.27453   1.27732   1.27846   1.28426   1.28531
 Alpha virt. eigenvalues --    1.28865   1.29079   1.29435   1.29670   1.29939
 Alpha virt. eigenvalues --    1.30128   1.30403   1.30743   1.31077   1.31459
 Alpha virt. eigenvalues --    1.31617   1.31790   1.32017   1.32311   1.32592
 Alpha virt. eigenvalues --    1.33055   1.33473   1.33794   1.33989   1.34445
 Alpha virt. eigenvalues --    1.34529   1.34689   1.35104   1.35306   1.36015
 Alpha virt. eigenvalues --    1.36082   1.36393   1.36705   1.36957   1.37058
 Alpha virt. eigenvalues --    1.37296   1.37473   1.37752   1.37894   1.38348
 Alpha virt. eigenvalues --    1.38574   1.38835   1.39116   1.39553   1.39580
 Alpha virt. eigenvalues --    1.39991   1.40138   1.40303   1.40930   1.40977
 Alpha virt. eigenvalues --    1.41149   1.41525   1.41770   1.42134   1.42435
 Alpha virt. eigenvalues --    1.42593   1.42859   1.43169   1.43519   1.44103
 Alpha virt. eigenvalues --    1.44305   1.44728   1.45298   1.45609   1.45727
 Alpha virt. eigenvalues --    1.45965   1.46243   1.46583   1.46771   1.46910
 Alpha virt. eigenvalues --    1.47139   1.47380   1.47641   1.47792   1.48197
 Alpha virt. eigenvalues --    1.48824   1.48865   1.49157   1.49236   1.49440
 Alpha virt. eigenvalues --    1.49718   1.50112   1.50448   1.50576   1.50900
 Alpha virt. eigenvalues --    1.51011   1.51223   1.51415   1.51846   1.52186
 Alpha virt. eigenvalues --    1.52934   1.53234   1.53484   1.53700   1.54078
 Alpha virt. eigenvalues --    1.54446   1.54578   1.54836   1.55314   1.55563
 Alpha virt. eigenvalues --    1.55679   1.56039   1.57044   1.57255   1.57348
 Alpha virt. eigenvalues --    1.57445   1.57886   1.58298   1.58644   1.58704
 Alpha virt. eigenvalues --    1.59251   1.59377   1.59617   1.59991   1.60261
 Alpha virt. eigenvalues --    1.60759   1.61216   1.61668   1.61875   1.62211
 Alpha virt. eigenvalues --    1.62502   1.62585   1.62845   1.62895   1.63133
 Alpha virt. eigenvalues --    1.63604   1.63812   1.64015   1.64249   1.64550
 Alpha virt. eigenvalues --    1.65075   1.65323   1.65493   1.65850   1.66055
 Alpha virt. eigenvalues --    1.66400   1.66772   1.66972   1.67265   1.67392
 Alpha virt. eigenvalues --    1.67469   1.68210   1.68374   1.68737   1.68839
 Alpha virt. eigenvalues --    1.69091   1.69295   1.69532   1.69881   1.70018
 Alpha virt. eigenvalues --    1.70206   1.70730   1.71142   1.71379   1.71635
 Alpha virt. eigenvalues --    1.71900   1.72333   1.72363   1.72462   1.72611
 Alpha virt. eigenvalues --    1.73194   1.73453   1.73613   1.73639   1.73771
 Alpha virt. eigenvalues --    1.73842   1.74132   1.74229   1.74359   1.74801
 Alpha virt. eigenvalues --    1.75142   1.75266   1.75374   1.75623   1.75909
 Alpha virt. eigenvalues --    1.76079   1.76125   1.76151   1.76295   1.76435
 Alpha virt. eigenvalues --    1.76457   1.76802   1.76841   1.77074   1.77248
 Alpha virt. eigenvalues --    1.77615   1.77693   1.77919   1.78038   1.78153
 Alpha virt. eigenvalues --    1.78190   1.78356   1.78713   1.78876   1.79002
 Alpha virt. eigenvalues --    1.79171   1.79374   1.79456   1.79845   1.80018
 Alpha virt. eigenvalues --    1.80147   1.80381   1.80476   1.80634   1.80865
 Alpha virt. eigenvalues --    1.80989   1.81241   1.81328   1.81352   1.81706
 Alpha virt. eigenvalues --    1.82012   1.82255   1.82459   1.82519   1.82599
 Alpha virt. eigenvalues --    1.82760   1.82871   1.83132   1.83395   1.83495
 Alpha virt. eigenvalues --    1.83748   1.83886   1.83928   1.84236   1.84382
 Alpha virt. eigenvalues --    1.84712   1.85013   1.85077   1.85484   1.85591
 Alpha virt. eigenvalues --    1.85762   1.85783   1.86158   1.86235   1.86416
 Alpha virt. eigenvalues --    1.86711   1.86869   1.87125   1.87249   1.87716
 Alpha virt. eigenvalues --    1.87831   1.88118   1.88220   1.88593   1.88851
 Alpha virt. eigenvalues --    1.88970   1.89105   1.89495   1.89817   1.89917
 Alpha virt. eigenvalues --    1.90116   1.90278   1.90368   1.90619   1.90751
 Alpha virt. eigenvalues --    1.91047   1.91205   1.91375   1.91675   1.91768
 Alpha virt. eigenvalues --    1.91878   1.92143   1.92319   1.92734   1.92912
 Alpha virt. eigenvalues --    1.93205   1.93402   1.93556   1.93722   1.93953
 Alpha virt. eigenvalues --    1.94119   1.94300   1.94449   1.94590   1.94809
 Alpha virt. eigenvalues --    1.95168   1.95277   1.95458   1.95748   1.95946
 Alpha virt. eigenvalues --    1.96087   1.96321   1.96612   1.96839   1.97030
 Alpha virt. eigenvalues --    1.97222   1.97382   1.97652   1.97943   1.98385
 Alpha virt. eigenvalues --    1.98478   1.98834   1.98931   1.99080   1.99624
 Alpha virt. eigenvalues --    1.99735   1.99896   2.00083   2.00330   2.00500
 Alpha virt. eigenvalues --    2.00649   2.00798   2.00995   2.01231   2.01560
 Alpha virt. eigenvalues --    2.01682   2.01981   2.02109   2.02464   2.02687
 Alpha virt. eigenvalues --    2.02828   2.02964   2.03220   2.03416   2.03880
 Alpha virt. eigenvalues --    2.04119   2.04272   2.04525   2.04669   2.04991
 Alpha virt. eigenvalues --    2.05344   2.05491   2.05809   2.06100   2.06177
 Alpha virt. eigenvalues --    2.06653   2.07042   2.07233   2.07613   2.07882
 Alpha virt. eigenvalues --    2.08125   2.08422   2.08624   2.08801   2.09037
 Alpha virt. eigenvalues --    2.09276   2.09813   2.10038   2.10330   2.10373
 Alpha virt. eigenvalues --    2.10633   2.10994   2.11258   2.11359   2.11594
 Alpha virt. eigenvalues --    2.11754   2.12312   2.12603   2.12937   2.12997
 Alpha virt. eigenvalues --    2.13389   2.13839   2.13901   2.14136   2.14891
 Alpha virt. eigenvalues --    2.15295   2.15627   2.15936   2.16064   2.16379
 Alpha virt. eigenvalues --    2.16622   2.16832   2.17604   2.17688   2.17735
 Alpha virt. eigenvalues --    2.18449   2.18811   2.19201   2.19483   2.19817
 Alpha virt. eigenvalues --    2.19898   2.20380   2.20924   2.21365   2.21470
 Alpha virt. eigenvalues --    2.22091   2.22253   2.22415   2.22983   2.23458
 Alpha virt. eigenvalues --    2.23510   2.23797   2.23943   2.24287   2.24467
 Alpha virt. eigenvalues --    2.24661   2.24924   2.25346   2.25546   2.25888
 Alpha virt. eigenvalues --    2.26005   2.26430   2.26551   2.26727   2.27250
 Alpha virt. eigenvalues --    2.27537   2.27921   2.28474   2.28664   2.28748
 Alpha virt. eigenvalues --    2.29157   2.29333   2.30225   2.30590   2.31203
 Alpha virt. eigenvalues --    2.31730   2.31948   2.32021   2.32256   2.32402
 Alpha virt. eigenvalues --    2.32627   2.33048   2.33437   2.33942   2.34533
 Alpha virt. eigenvalues --    2.34782   2.35478   2.35811   2.35853   2.36180
 Alpha virt. eigenvalues --    2.36331   2.36686   2.37245   2.37298   2.37619
 Alpha virt. eigenvalues --    2.38047   2.38252   2.38409   2.38720   2.39384
 Alpha virt. eigenvalues --    2.39452   2.39537   2.39711   2.39841   2.40515
 Alpha virt. eigenvalues --    2.40692   2.40889   2.41056   2.41288   2.41463
 Alpha virt. eigenvalues --    2.41747   2.42182   2.42532   2.42807   2.43015
 Alpha virt. eigenvalues --    2.43599   2.43788   2.44118   2.44466   2.44799
 Alpha virt. eigenvalues --    2.44883   2.45333   2.45858   2.46401   2.46659
 Alpha virt. eigenvalues --    2.46813   2.46951   2.47037   2.47245   2.47290
 Alpha virt. eigenvalues --    2.47663   2.48089   2.48720   2.48956   2.49054
 Alpha virt. eigenvalues --    2.49332   2.49572   2.49791   2.50957   2.51216
 Alpha virt. eigenvalues --    2.51993   2.52294   2.52820   2.53696   2.53833
 Alpha virt. eigenvalues --    2.53951   2.54231   2.54716   2.54954   2.55542
 Alpha virt. eigenvalues --    2.56179   2.56620   2.56873   2.57018   2.57320
 Alpha virt. eigenvalues --    2.57513   2.57868   2.57977   2.58105   2.58739
 Alpha virt. eigenvalues --    2.58887   2.59493   2.59567   2.59770   2.60460
 Alpha virt. eigenvalues --    2.60668   2.61300   2.61539   2.61743   2.62018
 Alpha virt. eigenvalues --    2.62122   2.62175   2.62691   2.63233   2.63363
 Alpha virt. eigenvalues --    2.63604   2.63986   2.64163   2.64742   2.65141
 Alpha virt. eigenvalues --    2.65343   2.65837   2.66083   2.66347   2.66435
 Alpha virt. eigenvalues --    2.66657   2.66781   2.67034   2.67284   2.67714
 Alpha virt. eigenvalues --    2.68027   2.68141   2.68508   2.68699   2.68866
 Alpha virt. eigenvalues --    2.69710   2.69863   2.70170   2.70224   2.70376
 Alpha virt. eigenvalues --    2.70721   2.70857   2.70906   2.71022   2.71550
 Alpha virt. eigenvalues --    2.72237   2.72336   2.72628   2.72700   2.72922
 Alpha virt. eigenvalues --    2.73246   2.73427   2.73628   2.73864   2.74255
 Alpha virt. eigenvalues --    2.74768   2.74941   2.75078   2.75523   2.75838
 Alpha virt. eigenvalues --    2.76043   2.76099   2.76636   2.76915   2.76954
 Alpha virt. eigenvalues --    2.77519   2.77660   2.77885   2.78374   2.78492
 Alpha virt. eigenvalues --    2.78669   2.78695   2.78881   2.78949   2.79388
 Alpha virt. eigenvalues --    2.79864   2.80592   2.80887   2.81016   2.81163
 Alpha virt. eigenvalues --    2.81464   2.81531   2.81724   2.82003   2.82182
 Alpha virt. eigenvalues --    2.82472   2.82898   2.83199   2.83233   2.83696
 Alpha virt. eigenvalues --    2.83982   2.84921   2.85264   2.85497   2.85828
 Alpha virt. eigenvalues --    2.86392   2.86579   2.86744   2.86932   2.87209
 Alpha virt. eigenvalues --    2.87451   2.87952   2.88119   2.88249   2.88356
 Alpha virt. eigenvalues --    2.88866   2.89013   2.89062   2.89686   2.89807
 Alpha virt. eigenvalues --    2.90515   2.90580   2.90704   2.90844   2.91292
 Alpha virt. eigenvalues --    2.91790   2.92071   2.92621   2.92961   2.93077
 Alpha virt. eigenvalues --    2.93562   2.93682   2.94413   2.94521   2.94814
 Alpha virt. eigenvalues --    2.95096   2.95242   2.95855   2.96246   2.96468
 Alpha virt. eigenvalues --    2.96581   2.96897   2.97062   2.97486   2.98062
 Alpha virt. eigenvalues --    2.98132   2.98299   2.98428   2.98570   2.98711
 Alpha virt. eigenvalues --    2.99796   3.00122   3.00819   3.01015   3.01256
 Alpha virt. eigenvalues --    3.01275   3.01965   3.02132   3.02499   3.02767
 Alpha virt. eigenvalues --    3.02905   3.03588   3.03745   3.04197   3.04473
 Alpha virt. eigenvalues --    3.05171   3.05270   3.05550   3.06272   3.06895
 Alpha virt. eigenvalues --    3.07219   3.07661   3.08381   3.09219   3.09439
 Alpha virt. eigenvalues --    3.09631   3.09979   3.10295   3.11259   3.11687
 Alpha virt. eigenvalues --    3.12668   3.12860   3.13155   3.13789   3.14008
 Alpha virt. eigenvalues --    3.14289   3.14523   3.14825   3.14933   3.15431
 Alpha virt. eigenvalues --    3.15788   3.15878   3.16157   3.16305   3.16847
 Alpha virt. eigenvalues --    3.17064   3.17591   3.17756   3.18450   3.18950
 Alpha virt. eigenvalues --    3.19339   3.19863   3.20129   3.20417   3.20475
 Alpha virt. eigenvalues --    3.20803   3.21095   3.22222   3.22310   3.22656
 Alpha virt. eigenvalues --    3.22807   3.23423   3.23768   3.24223   3.24663
 Alpha virt. eigenvalues --    3.24973   3.25930   3.26073   3.26735   3.27281
 Alpha virt. eigenvalues --    3.28436   3.28468   3.29432   3.29658   3.30875
 Alpha virt. eigenvalues --    3.31436   3.31738   3.32123   3.34867   3.35899
 Alpha virt. eigenvalues --    3.36350   3.36471   3.37281   3.37580   3.42426
 Alpha virt. eigenvalues --    3.43864   3.45696   3.48631   3.49747   3.50854
 Alpha virt. eigenvalues --    3.52093   3.52322   3.53491   3.54410   3.55460
 Alpha virt. eigenvalues --    3.56291   3.57101   3.57538   3.57896   3.59265
 Alpha virt. eigenvalues --    3.59427   3.60113   3.61078   3.63911   3.64226
 Alpha virt. eigenvalues --    3.65193   3.66767   3.66943   3.67446   3.67848
 Alpha virt. eigenvalues --    3.68022   3.68447   3.68902   3.69448   3.69780
 Alpha virt. eigenvalues --    3.70501   3.70608   3.71111   3.72519   3.72698
 Alpha virt. eigenvalues --    3.72919   3.73350   3.73571   3.74093   3.74174
 Alpha virt. eigenvalues --    3.78471   3.81615   3.84310   3.85120
          Condensed to atoms (all electrons):
 Mulliken charges:
               1
     1  C    0.036855
     2  C    0.025989
     3  O   -0.306127
     4  H    0.028476
     5  H    0.013567
     6  H    0.042778
     7  N   -0.121061
     8  C    0.080902
     9  C    0.089424
    10  O   -0.261115
    11  C    0.073800
    12  C    0.160023
    13  O   -0.474819
    14  O   -0.367867
    15  H    0.119076
    16  H    0.045953
    17  H    0.001654
    18  H    0.005817
    19  N   -0.149841
    20  C    0.159820
    21  C    0.072903
    22  O   -0.286351
    23  C   -0.014999
    24  C    0.001950
    25  C   -0.057977
    26  C    0.050459
    27  N    0.065545
    28  H    0.137886
    29  H    0.008266
    30  H    0.023726
    31  H    0.018566
    32  H   -0.008640
    33  H    0.017478
    34  H    0.055676
    35  H    0.029206
    36  H    0.081911
    37  H    0.065250
    38  H    0.208476
    39  H    0.202647
    40  H    0.202315
    41  N   -0.143367
    42  C    0.059073
    43  C    0.049954
    44  O   -0.265517
    45  C    0.171194
    46  C    0.058516
    47  O   -0.416610
    48  O   -0.434334
    49  H    0.125892
    50  H    0.015579
    51  H    0.003744
    52  H    0.025164
    53  N   -0.166325
    54  C    0.236666
    55  C    0.036144
    56  O   -0.303351
    57  H    0.144126
    58  H    0.024312
    59  H    0.032310
    60  N   -0.150489
    61  C    0.184634
    62  C    0.056424
    63  O   -0.314364
    64  C    0.073140
    65  C    0.055109
    66  N   -0.053383
    67  O   -0.349651
    68  H    0.140310
    69  H    0.021609
    70  H    0.057964
    71  H    0.018280
    72  H    0.123883
    73  H    0.124924
    74  N   -0.140910
    75  C    0.217023
    76  C    0.032716
    77  O   -0.305136
    78  H    0.153552
    79  H    0.030938
    80  H    0.028746
    81  N   -0.174909
    82  C    0.118074
    83  C    0.139309
    84  O   -0.342540
    85  C    0.184321
    86  C   -0.050617
    87  C    0.017511
    88  C    0.028928
    89  C   -0.005217
    90  C   -0.019221
    91  C    0.125687
    92  O   -0.192623
    93  H    0.177620
    94  H   -0.009863
    95  H   -0.029018
    96  H   -0.062891
    97  H   -0.034578
    98  H   -0.056279
    99  H   -0.032648
   100  H   -0.029568
   101  H    0.169064
   102  N   -0.112249
   103  C    0.119230
   104  C    0.083731
   105  O   -0.295142
   106  C   -0.075299
   107  C   -0.038985
   108  C    0.071301
   109  C    0.058803
   110  H    0.129398
   111  H    0.014890
   112  H   -0.022558
   113  H    0.025251
   114  H   -0.019765
   115  H   -0.003894
   116  H    0.039329
   117  H   -0.012453
   118  H    0.001872
   119  H    0.024253
   120  H   -0.000109
   121  N   -0.139628
   122  C    0.071842
   123  C    0.104764
   124  O   -0.280739
   125  C    0.256676
   126  O   -0.340252
   127  H    0.142156
   128  H    0.035636
   129  H   -0.002773
   130  H   -0.022968
   131  H    0.153932
   132  N   -0.138457
   133  C    0.080361
   134  C    0.074079
   135  O   -0.264532
   136  C    0.049920
   137  H    0.115394
   138  H    0.021913
   139  H   -0.000168
   140  H    0.046860
   141  H    0.031717
   142  N   -0.170296
   143  C    0.098561
   144  C    0.061724
   145  O   -0.273463
   146  C    0.053912
   147  H    0.118352
   148  H    0.033352
   149  H    0.010752
   150  H    0.034923
   151  H    0.024469
   152  N   -0.154362
   153  C    0.149551
   154  C    0.082246
   155  O   -0.296036
   156  C   -0.039282
   157  C    0.112739
   158  C    0.124872
   159  O   -0.432720
   160  O   -0.410834
   161  H    0.108693
   162  H   -0.028469
   163  H    0.034672
   164  H    0.008413
   165  H   -0.013158
   166  H   -0.005685
   167  N   -0.178015
   168  C    0.145901
   169  H    0.028626
   170  H    0.009190
   171  H    0.010435
   172  H    0.141197
   173  Ca   1.297594
   174  O   -0.284492
   175  H    0.184578
   176  H    0.172093
 Sum of Mulliken charges =  -0.00000
 Mulliken charges with hydrogens summed into heavy atoms:
               1
     1  C    0.121676
     2  C    0.025989
     3  O   -0.306127
     7  N   -0.001984
     8  C    0.126855
     9  C    0.089424
    10  O   -0.261115
    11  C    0.081271
    12  C    0.160023
    13  O   -0.474819
    14  O   -0.367867
    19  N   -0.011955
    20  C    0.168086
    21  C    0.072903
    22  O   -0.286351
    23  C    0.027294
    24  C    0.010788
    25  C    0.026905
    26  C    0.197621
    27  N    0.678983
    41  N   -0.017474
    42  C    0.074653
    43  C    0.049954
    44  O   -0.265517
    45  C    0.200101
    46  C    0.058516
    47  O   -0.416610
    48  O   -0.434334
    53  N   -0.022199
    54  C    0.293288
    55  C    0.036144
    56  O   -0.303351
    60  N   -0.010180
    61  C    0.206243
    62  C    0.056424
    63  O   -0.314364
    64  C    0.149384
    65  C    0.055109
    66  N    0.195424
    67  O   -0.349651
    74  N    0.012642
    75  C    0.276708
    76  C    0.032716
    77  O   -0.305136
    81  N    0.002711
    82  C    0.108210
    83  C    0.139309
    84  O   -0.342540
    85  C    0.092411
    86  C   -0.050617
    87  C   -0.017067
    88  C   -0.027351
    89  C   -0.037866
    90  C   -0.048788
    91  C    0.125687
    92  O   -0.023560
   102  N    0.017149
   103  C    0.134120
   104  C    0.083731
   105  O   -0.295142
   106  C   -0.097857
   107  C   -0.033499
   108  C    0.094284
   109  C    0.084819
   121  N    0.002527
   122  C    0.107478
   123  C    0.104764
   124  O   -0.280739
   125  C    0.230936
   126  O   -0.186320
   132  N   -0.023063
   133  C    0.102274
   134  C    0.074079
   135  O   -0.264532
   136  C    0.128329
   142  N   -0.051945
   143  C    0.131913
   144  C    0.061724
   145  O   -0.273463
   146  C    0.124056
   152  N   -0.045669
   153  C    0.121081
   154  C    0.082246
   155  O   -0.296036
   156  C    0.003803
   157  C    0.093895
   158  C    0.124872
   159  O   -0.432720
   160  O   -0.410834
   167  N   -0.036818
   168  C    0.194153
   173  Ca   1.297594
   174  O    0.072178
 DipInt: DoE/N= T F RetVal/Mat= T F Init=T NMatP=  1 IDeriv=0 Min/MaxMlt=  0  4
 Entering OneElI...
 OneElI was handed  1333951383 working-precision words.
 Multipole integrals L=0 to 4 MinM= 0 MaxM= 0.
 Requested accuracy = 0.1000D-12
 ShPair: Thresh= 1.00D-13 NBox=     0 BxSize= 0.00D+00 RnKept= 2.55D+01
         NSMCal=               327645 NSMKep=              157298
 PrmmSu-InSpLW:  IPartL=    0 NPrtUS=    1 NPrtUL=    1 DoSpLW=F IThBeg=    0 IThEnd=    0 NThAct=    1.
 PrsmSu:  NPrtUS=   1 ThrOK=F IAlg=1 NPAlg=1 LenDen=           0 ISkipM=0 DoSpLW=F IThBeg=    0 IThEnd=    0.
 Prism:   IPart=     0 DynPar=F LinDyn=F Incr=         512.
 PRISM was handed  1324000857 working-precision words and157298 shell-pairs
 IPart=  0 NShTot=      157298 NBatch=         360 AvBLen=       436.9
 PrsmSu-ThDecC:  IPartSL=    0    0 NPrtUSL=    1    1 IThBeg=    0 IThEnd=    0 CPU=   -1 GPU=   -1 NThAct=    1.
 PrSmSu:  NxtVal=            513.
 Electronic moments (au):
       -716.00000000         13.02443443          4.64928056         -0.99307385
     -54289.48710475     -34466.73653999     -10238.42255134         90.91499755
         25.06901286         73.68947628    -108648.60277699     -70792.24920865
      -9709.89485358      30502.20524308     112425.44414244      44567.83965319
     -10780.68085510       -750.43019861      -3080.14434627     -30546.54644294
   -8152094.88420882   -4110316.46882589    -411959.33346793     166321.00990672
     438144.73655580    -840768.22693943     -41687.73915030      -9967.33739299
      28690.26800379   -2370810.20103961    -648117.62138677    -292271.24778550
    -135271.75578406    -116911.13825042      49906.31780507
 Electronic spatial extent (au):  <R**2>=          98994.6462
 DipInt: DoE/N= F T RetVal/Mat= T F Init=T NMatP=  1 IDeriv=0 Min/MaxMlt=  0  4
 Nuclear    moments (au):
        716.00000000          0.00000000         -0.00000000         -0.00000000
      53782.32954394      34166.28782563       9852.88697134          0.00000000
         -0.00000000         -0.00000000     109409.70402593      72725.20915091
       9642.57945103     -28189.01215749    -112427.95956731     -44923.66006602
      11052.53144992        846.65275416       3407.72247192      30710.80265895
    7937486.01930276    4013393.25554946     377308.98839120    -161287.40952581
    -436607.58032160     861361.00040341      50831.56755116      10898.14069038
     -26388.41787345    2328966.27311141     612911.13318508     268131.47869039
     142450.68456809     120098.84452228     -48879.78382052
 Total      moments (au):
         -0.00000000         13.02443443          4.64928056         -0.99307385
       -507.15756081       -300.44871436       -385.53558000         90.91499755
         25.06901286         73.68947628        761.10124894       1932.95994225
        -67.31540256       2313.19308559         -2.51542487       -355.82041283
        271.85059482         96.22255554        327.57812565        164.25621601
    -214608.86490605     -96923.21327643     -34650.34507673       5033.60038091
       1537.15623420      20592.77346398       9143.82840086        930.80329739
       2301.85013034     -41843.92792820     -35206.48820169     -24139.76909510
       7178.92878403       3187.70627186       1026.53398455
 Traceless Quadrup. (au):
       -109.44360909         97.26523736         12.17837172         90.91499755
         25.06901286         73.68947628
 Charge=             -0.0000 electrons
 Dipole moment (field-independent basis, Debye):
    X=             33.1048    Y=             11.8173    Z=             -2.5241  Tot=             35.2413
 Quadrupole moment (field-independent basis, Debye-Ang):
   XX=           -682.1443   YY=           -404.1138   ZZ=           -518.5586
   XY=            122.2838   XZ=             33.7187   YZ=             99.1149
 Traceless Quadrupole moment (field-independent basis, Debye-Ang):
   XX=           -147.2054   YY=            130.8251   ZZ=             16.3803
   XY=            122.2838   XZ=             33.7187   YZ=             99.1149
 Octapole moment (field-independent basis, Debye-Ang**2):
  XXX=            541.7225  YYY=           1375.8064  ZZZ=            -47.9125  XYY=           1646.4417
  XXY=             -1.7904  XXZ=           -253.2593  XZZ=            193.4928  YZZ=             68.4875
  YYZ=            233.1575  XYZ=            116.9112
 Hexadecapole moment (field-independent basis, Debye-Ang**3):
 XXXX=         -80831.9894 YYYY=         -36505.9297 ZZZZ=         -13050.9815 XXXY=           1895.8953
 XXXZ=            578.9667 YYYX=           7756.2259 YYYZ=           3444.0042 ZZZX=            350.5852
 ZZZY=            866.9871 XXYY=         -15760.4297 XXZZ=         -13260.4517 YYZZ=          -9092.1946
 XXYZ=           2703.9288 YYXZ=           1200.6430 ZZXY=            386.6419
 N-N= 2.153927896295D+04 E-N=-5.555906152203D+04  KE= 5.290587146750D+03
 Leave Link  601 at Wed Sep 18 17:27:17 2019, MaxMem=  1342177280 cpu:              41.7 elap:               1.1
 FitSet:  NAtFit=   176 NAtPot=   176 NAtFrz=     0 MDM=   180 TotChg=   0.00000
 Merz-Kollman atomic radii used.
 Read replacement radii for each type of atom:
 Rad(20) =   1.700000000000D+00
 Atom Element Radius
    1     6    1.50
    2     6    1.50
    3     8    1.40
    4     1    1.20
    5     1    1.20
    6     1    1.20
    7     7    1.50
    8     6    1.50
    9     6    1.50
   10     8    1.40
   11     6    1.50
   12     6    1.50
   13     8    1.40
   14     8    1.40
   15     1    1.20
   16     1    1.20
   17     1    1.20
   18     1    1.20
   19     7    1.50
   20     6    1.50
   21     6    1.50
   22     8    1.40
   23     6    1.50
   24     6    1.50
   25     6    1.50
   26     6    1.50
   27     7    1.50
   28     1    1.20
   29     1    1.20
   30     1    1.20
   31     1    1.20
   32     1    1.20
   33     1    1.20
   34     1    1.20
   35     1    1.20
   36     1    1.20
   37     1    1.20
   38     1    1.20
   39     1    1.20
   40     1    1.20
   41     7    1.50
   42     6    1.50
   43     6    1.50
   44     8    1.40
   45     6    1.50
   46     6    1.50
   47     8    1.40
   48     8    1.40
   49     1    1.20
   50     1    1.20
   51     1    1.20
   52     1    1.20
   53     7    1.50
   54     6    1.50
   55     6    1.50
   56     8    1.40
   57     1    1.20
   58     1    1.20
   59     1    1.20
   60     7    1.50
   61     6    1.50
   62     6    1.50
   63     8    1.40
   64     6    1.50
   65     6    1.50
   66     7    1.50
   67     8    1.40
   68     1    1.20
   69     1    1.20
   70     1    1.20
   71     1    1.20
   72     1    1.20
   73     1    1.20
   74     7    1.50
   75     6    1.50
   76     6    1.50
   77     8    1.40
   78     1    1.20
   79     1    1.20
   80     1    1.20
   81     7    1.50
   82     6    1.50
   83     6    1.50
   84     8    1.40
   85     6    1.50
   86     6    1.50
   87     6    1.50
   88     6    1.50
   89     6    1.50
   90     6    1.50
   91     6    1.50
   92     8    1.40
   93     1    1.20
   94     1    1.20
   95     1    1.20
   96     1    1.20
   97     1    1.20
   98     1    1.20
   99     1    1.20
  100     1    1.20
  101     1    1.20
  102     7    1.50
  103     6    1.50
  104     6    1.50
  105     8    1.40
  106     6    1.50
  107     6    1.50
  108     6    1.50
  109     6    1.50
  110     1    1.20
  111     1    1.20
  112     1    1.20
  113     1    1.20
  114     1    1.20
  115     1    1.20
  116     1    1.20
  117     1    1.20
  118     1    1.20
  119     1    1.20
  120     1    1.20
  121     7    1.50
  122     6    1.50
  123     6    1.50
  124     8    1.40
  125     6    1.50
  126     8    1.40
  127     1    1.20
  128     1    1.20
  129     1    1.20
  130     1    1.20
  131     1    1.20
  132     7    1.50
  133     6    1.50
  134     6    1.50
  135     8    1.40
  136     6    1.50
  137     1    1.20
  138     1    1.20
  139     1    1.20
  140     1    1.20
  141     1    1.20
  142     7    1.50
  143     6    1.50
  144     6    1.50
  145     8    1.40
  146     6    1.50
  147     1    1.20
  148     1    1.20
  149     1    1.20
  150     1    1.20
  151     1    1.20
  152     7    1.50
  153     6    1.50
  154     6    1.50
  155     8    1.40
  156     6    1.50
  157     6    1.50
  158     6    1.50
  159     8    1.40
  160     8    1.40
  161     1    1.20
  162     1    1.20
  163     1    1.20
  164     1    1.20
  165     1    1.20
  166     1    1.20
  167     7    1.50
  168     6    1.50
  169     1    1.20
  170     1    1.20
  171     1    1.20
  172     1    1.20
  173    20    1.70
  174     8    1.40
[...]
 **** Fit       0.036392
 **** Fit       0.039698
 **** Fit       0.037324
 **** Fit       0.030363
 **** Fit       0.020820
 **** Fit       0.001062
 **** Fit       0.014369
 **** Fit       0.025570
 **** Fit       0.033751
 **** Fit       0.037906
 **** Fit       0.037579
 **** Fit       0.033331
 **** Fit       0.026538
 **** Fit       0.003305
 **** Fit       0.015292
 **** Fit       0.024802
 **** Fit       0.031252
 **** Fit       0.034090
 **** Fit       0.033292
 **** Fit       0.029584
 **** Fit       0.005950
 **** Fit       0.016193
 **** Fit       0.023627
 **** Fit       0.027963
 **** Fit       0.029111
 **** Fit       0.027508
 **** Fit       0.007336
 **** Fit       0.015578
 **** Fit       0.021035
 **** Fit       0.023708
 **** Fit       0.023876
 **** Fit       0.002637
 **** Fit       0.010966
 **** Fit       0.016388
 **** Fit       0.019087
 **** Fit       0.019515
 **** Fit       0.007154
 **** Fit       0.012487
 **** Fit       0.015211
 **** Fit       0.005809
 **** Fit       0.010454
 **** Fit       0.012608
 **** Fit       0.006620
 **** Fit       0.009918
 **** Fit       0.012207
 **** Fit       0.013946
 **** Fit       0.012728
 **** Fit       0.015407
 **** Fit       0.013663
 **** Fit       0.012520
 **** Fit       0.014266
 **** Fit       0.014558
 **** Fit       0.016028
 **** Fit       0.014188
 **** Fit       0.012977
 **** Fit       0.012489
 **** Fit       0.012857
 **** Fit       0.013550
 **** Fit       0.013419
 **** Fit       0.012212
 **** Fit       0.014282
 **** Fit       0.015546
 **** Fit       0.014375
 **** Fit       0.013443
 **** Fit       0.013505
 **** Fit       0.013453
 **** Fit       0.014508
 **** Fit       0.014152
 **** Fit       0.021137
 **** Fit       0.026892
 **** Fit       0.024269
 **** Fit       0.018830
 **** Fit       0.029042
 **** Fit       0.028367
 **** Fit       0.025025
 **** Fit       0.019095
 **** Fit      -0.002036
 **** Fit       0.027855
 **** Fit       0.027861
 **** Fit       0.025485
 **** Fit       0.020659
 **** Fit       0.013159
 **** Fit       0.002555
 **** Fit      -0.011479
 **** Fit       0.023852
 **** Fit       0.025338
 **** Fit       0.024776
 **** Fit       0.021927
 **** Fit       0.016642
 **** Fit       0.008690
 **** Fit      -0.002171
 **** Fit      -0.015935
 **** Fit       0.019434
 **** Fit       0.021490
 **** Fit       0.021884
 **** Fit       0.020238
 **** Fit       0.016349
 **** Fit       0.010081
 **** Fit       0.001356
 **** Fit      -0.009672
 **** Fit       0.012886
 **** Fit       0.015503
 **** Fit       0.017609
 **** Fit       0.018563
 **** Fit       0.017900
 **** Fit       0.015346
 **** Fit       0.010789
 **** Fit       0.004270
 **** Fit      -0.003910
 **** Fit      -0.012863
 **** Fit       0.011487
 **** Fit       0.013221
 **** Fit       0.014856
 **** Fit       0.015633
 **** Fit       0.014988
 **** Fit       0.012601
 **** Fit       0.008422
 **** Fit       0.002718
 **** Fit      -0.003742
 **** Fit      -0.009371
 **** Fit       0.011947
 **** Fit       0.012880
 **** Fit       0.013357
 **** Fit       0.012713
 **** Fit       0.010590
 **** Fit       0.007036
 **** Fit       0.002608
 **** Fit      -0.001470
 **** Fit      -0.003366
 **** Fit       0.011733
 **** Fit       0.011741
 **** Fit       0.010830
 **** Fit       0.008671
 **** Fit       0.005648
 **** Fit       0.002956
 **** Fit       0.010605
 **** Fit       0.009251
 **** Fit       0.007137
 **** Fit       0.006068
 **** Fit       0.005488
 **** Fit       0.006126
 **** Fit       0.006564
 **** Fit       0.005945
 **** Fit       0.005501
 **** Fit       0.004809
 **** Fit       0.005220
 **** Fit       0.006990
 **** Fit       0.006319
 **** Fit       0.005823
 **** Fit       0.005439
 **** Fit       0.005055
 **** Fit       0.004786
 **** Fit       0.004021
 **** Fit       0.004261
 **** Fit       0.004791
 **** Fit       0.006615
 **** Fit       0.006052
 **** Fit       0.004686
 **** Fit       0.004270
 **** Fit       0.004031
 **** Fit       0.003118
 **** Fit       0.003240
 **** Fit       0.003556
 **** Fit       0.007253
 **** Fit       0.006476
 **** Fit       0.003848
 **** Fit       0.003406
 **** Fit       0.003167
 **** Fit       0.002104
 **** Fit       0.002128
 **** Fit       0.002240
 **** Fit       0.002486
 **** Fit       0.007510
 **** Fit       0.002753
 **** Fit       0.002372
 **** Fit       0.002172
 **** Fit       0.000992
 **** Fit       0.000948
 **** Fit       0.000909
 **** Fit       0.000905
 **** Fit       0.001006
 **** Fit       0.002155
 **** Fit       0.001579
 **** Fit       0.001234
 **** Fit       0.001065
 **** Fit      -0.000715
 **** Fit      -0.000980
 **** Fit      -0.001186
 **** Fit       0.000710
 **** Fit       0.000201
 **** Fit      -0.000060
 **** Fit      -0.003030
 **** Fit      -0.003750
 **** Fit      -0.004499
 **** Fit      -0.000187
 **** Fit      -0.000958
 **** Fit      -0.001384
 **** Fit      -0.007837
 **** Fit      -0.009518
 **** Fit      -0.002320
 **** Fit      -0.003016
 **** Fit      -0.014264
 **** Fit      -0.003782
 **** Fit      -0.004979
 **** Fit      -0.004677
 **** Fit      -0.006908
 **** Fit      -0.008404
 **** Fit      -0.008422
 **** Fit      -0.011493
 **** Fit      -0.000622
 **** Fit      -0.000694
 **** Fit      -0.000854
 **** Fit      -0.000555
 **** Fit      -0.001848
 **** Fit      -0.001894
 **** Fit      -0.002085
 **** Fit      -0.002495
 **** Fit      -0.003176
 **** Fit      -0.001610
 **** Fit      -0.001818
 **** Fit      -0.001857
 **** Fit      -0.003324
 **** Fit      -0.003330
 **** Fit      -0.003516
 **** Fit      -0.003965
 **** Fit      -0.004770
 **** Fit      -0.006031
 **** Fit      -0.003205
 **** Fit      -0.003471
 **** Fit      -0.003500
 **** Fit      -0.003414
 **** Fit      -0.005168
 **** Fit      -0.005115
 **** Fit      -0.005304
 **** Fit      -0.005830
 **** Fit      -0.006816
 **** Fit      -0.008429
 **** Fit      -0.010900
 **** Fit      -0.005183
 **** Fit      -0.005662
 **** Fit      -0.005751
 **** Fit      -0.005603
 **** Fit      -0.005366
 **** Fit      -0.007510
 **** Fit      -0.007365
 **** Fit      -0.007525
 **** Fit      -0.008093
 **** Fit      -0.009202
 **** Fit      -0.011059
 **** Fit      -0.013989
 **** Fit      -0.008684
 **** Fit      -0.008912
 **** Fit      -0.008722
 **** Fit      -0.008313
 **** Fit      -0.007863
 **** Fit      -0.010502
 **** Fit      -0.010212
 **** Fit      -0.010325
 **** Fit      -0.010945
 **** Fit      -0.012222
 **** Fit      -0.014394
 **** Fit      -0.017875
 **** Fit      -0.012901
 **** Fit      -0.013517
 **** Fit      -0.013349
 **** Fit      -0.012711
 **** Fit      -0.011888
 **** Fit      -0.011099
 **** Fit      -0.014325
 **** Fit      -0.013794
 **** Fit      -0.013856
 **** Fit      -0.014623
 **** Fit      -0.016273
 **** Fit      -0.019130
 **** Fit      -0.023788
 **** Fit      -0.019788
 **** Fit      -0.018336
 **** Fit      -0.016752
 **** Fit      -0.015351
 **** Fit      -0.019180
 **** Fit      -0.018256
 **** Fit      -0.018241
 **** Fit      -0.019241
 **** Fit      -0.021467
 **** Fit      -0.025352
 **** Fit      -0.023439
 **** Fit      -0.020941
 **** Fit      -0.025268
 **** Fit      -0.023742
 **** Fit      -0.023575
 **** Fit      -0.024813
 **** Fit      -0.027645
 **** Fit      -0.030222
 **** Fit      -0.029979
 **** Fit      -0.031859
 **** Fit      -0.035953
 **** Fit      -0.037211
 **** Fit      -0.039811
 **** Fit       0.007835
 **** Fit       0.006978
 **** Fit       0.007979
 **** Fit       0.008911
 **** Fit       0.008594
 **** Fit       0.007511
 **** Fit       0.006832
 **** Fit       0.006002
 **** Fit       0.006699
 **** Fit       0.007849
 **** Fit       0.009113
 **** Fit       0.009964
 **** Fit       0.010009
 **** Fit       0.009264
 **** Fit       0.008121
 **** Fit       0.007079
 **** Fit       0.005307
 **** Fit       0.006136
 **** Fit       0.007323
 **** Fit       0.008701
 **** Fit       0.009987
 **** Fit       0.010868
 **** Fit       0.011131
 **** Fit       0.010742
 **** Fit       0.009834
 **** Fit       0.008650
 **** Fit       0.007486
 **** Fit       0.003773
 **** Fit       0.004304
 **** Fit       0.005212
 **** Fit       0.006467
 **** Fit       0.007959
 **** Fit       0.009492
 **** Fit       0.010807
 **** Fit       0.011663
 **** Fit       0.011928
 **** Fit       0.011604
 **** Fit       0.010787
 **** Fit       0.009635
 **** Fit       0.008356
 **** Fit       0.002231
 **** Fit       0.002795
 **** Fit       0.003743
 **** Fit       0.005063
 **** Fit       0.006682
 **** Fit       0.008439
 **** Fit       0.010098
 **** Fit       0.011400
 **** Fit       0.012137
 **** Fit       0.012245
 **** Fit       0.011798
 **** Fit       0.010902
 **** Fit       0.009700
 **** Fit       0.008386
 **** Fit      -0.000075
 **** Fit       0.000362
 **** Fit       0.001187
 **** Fit       0.002425
 **** Fit       0.004051
 **** Fit       0.005960
 **** Fit       0.007958
 **** Fit       0.009787
 **** Fit       0.011153
 **** Fit       0.011829
 **** Fit       0.011827
 **** Fit       0.011318
 **** Fit       0.010399
 **** Fit       0.009195
 **** Fit      -0.003633
 **** Fit      -0.003456
 **** Fit      -0.002820
 **** Fit      -0.001638
 **** Fit       0.000119
 **** Fit       0.002371
 **** Fit       0.004909
 **** Fit       0.007401
 **** Fit       0.009901
 **** Fit       0.009003
 **** Fit       0.007755
 **** Fit      -0.009508
 **** Fit       0.006503
 **** Fit       0.005523
 **** Fit       0.005764
 **** Fit       0.005422
 **** Fit       0.005190
 **** Fit       0.005918
 **** Fit       0.005490
 **** Fit       0.005177
 **** Fit       0.005018
 **** Fit       0.004856
 **** Fit       0.004684
 **** Fit       0.006014
 **** Fit       0.005456
 **** Fit       0.004956
 **** Fit       0.004736
 **** Fit       0.004711
 **** Fit       0.004676
 **** Fit       0.004511
 **** Fit       0.004252
 **** Fit       0.004033
 **** Fit       0.004219
 **** Fit       0.004014
 **** Fit       0.004140
 **** Fit       0.004324
 **** Fit       0.004367
 **** Fit       0.004193
 **** Fit       0.003848
 **** Fit       0.003461
 **** Fit       0.002763
 **** Fit       0.002992
 **** Fit       0.003473
 **** Fit       0.003893
 **** Fit       0.004066
 **** Fit       0.003922
 **** Fit       0.003509
 **** Fit       0.002957
 **** Fit       0.002432
 **** Fit       0.001007
 **** Fit       0.001837
 **** Fit       0.002730
 **** Fit       0.003423
 **** Fit       0.003753
 **** Fit       0.003659
 **** Fit       0.003193
 **** Fit       0.002487
 **** Fit       0.001722
 **** Fit      -0.000433
 **** Fit       0.001104
 **** Fit       0.002412
 **** Fit       0.003253
 **** Fit       0.003492
 **** Fit       0.003138
 **** Fit       0.002323
 **** Fit       0.001265
 **** Fit       0.000210
 **** Fit      -0.001551
 **** Fit       0.000661
 **** Fit       0.002321
 **** Fit       0.003180
 **** Fit       0.003158
 **** Fit       0.002365
 **** Fit       0.001052
 **** Fit      -0.000461
 **** Fit      -0.000225
 **** Fit       0.002095
 **** Fit       0.003122
 **** Fit       0.002826
 **** Fit       0.001457
 **** Fit      -0.000551
 **** Fit      -0.002713
 **** Fit       0.001035
 **** Fit      -0.002022
 **** Fit       0.003453
 **** Fit       0.020860
 **** Fit       0.013528
 **** Fit       0.005534
 **** Fit       0.028500
 **** Fit       0.021409
 **** Fit       0.013934
 **** Fit       0.006032
 **** Fit       0.027464
 **** Fit       0.020548
 **** Fit       0.013084
 **** Fit       0.024771
 **** Fit       0.017828
 **** Fit       0.009923
 **** Fit       0.029939
 **** Fit       0.020608
 **** Fit       0.013272
 **** Fit       0.010236
 **** Fit       0.017986
 **** Fit       0.023397
 **** Fit       0.024525
 **** Fit       0.015062
 **** Fit       0.006290
 **** Fit       0.009541
 **** Fit       0.016540
 **** Fit       0.008119
 **** Fit       0.023935
 **** Fit       0.023242
 **** Fit       0.024427
 **** Fit       0.022083
 **** Fit       0.022599
 **** Fit       0.024380
 **** Fit       0.026802
 **** Fit       0.029350
 **** Fit       0.031646
 **** Fit       0.033435
 **** Fit       0.034561
 **** Fit       0.020688
 **** Fit       0.020878
 **** Fit       0.022268
 **** Fit       0.024355
 **** Fit       0.026650
 **** Fit       0.028775
 **** Fit       0.030491
 **** Fit       0.026092
 **** Fit       0.021164
 **** Fit       0.015748
 **** Fit       0.019088
 **** Fit       0.020055
 **** Fit       0.021836
 **** Fit       0.023998
 **** Fit       0.026131
 **** Fit       0.027980
 **** Fit       0.020587
 **** Fit       0.016155
 **** Fit       0.017137
 **** Fit       0.017912
 **** Fit       0.019353
 **** Fit       0.021423
 **** Fit       0.023687
 **** Fit       0.025769
 **** Fit       0.020659
 **** Fit       0.016869
 **** Fit       0.014609
 **** Fit       0.014769
 **** Fit       0.015967
 **** Fit       0.017355
 **** Fit       0.019314
 **** Fit       0.021700
 **** Fit       0.023897
 **** Fit       0.021907
 **** Fit       0.020938
 **** Fit       0.017752
 **** Fit       0.016343
 **** Fit       0.017619
 **** Fit       0.020099
 **** Fit       0.018808
 **** Fit       0.023830
 **** Fit       0.025982
 **** Fit       0.026434
 **** Fit       0.028958
 **** Fit       0.021153
 **** Fit       0.022838
 **** Fit       0.024962
 **** Fit       0.027325
 **** Fit       0.029958
 **** Fit       0.033074
 **** Fit       0.022577
 **** Fit       0.023281
 **** Fit       0.024942
 **** Fit       0.027105
 **** Fit       0.029591
 **** Fit       0.032412
 **** Fit       0.023996
 **** Fit       0.024887
 **** Fit       0.026597
 **** Fit       0.028776
 **** Fit       0.031263
 **** Fit       0.034010
 **** Fit       0.024995
 **** Fit       0.026560
 **** Fit       0.028677
 **** Fit       0.031100
 **** Fit       0.033668
 **** Fit       0.036209
 **** Fit       0.025956
 **** Fit       0.028070
 **** Fit       0.030430
 **** Fit       0.032814
 **** Fit       0.034998
 **** Fit       0.024126
 **** Fit       0.024556
 **** Fit       0.025593
 **** Fit       0.027162
 **** Fit       0.029256
 **** Fit       0.032570
 **** Fit       0.030573
 **** Fit       0.026245
 **** Fit       0.026057
 **** Fit       0.026443
 **** Fit       0.027264
 **** Fit       0.028395
 **** Fit       0.029633
 **** Fit       0.030487
 **** Fit       0.030314
 **** Fit       0.029883
 **** Fit       0.028576
 **** Fit       0.027139
 **** Fit       0.027141
 **** Fit       0.027028
 **** Fit       0.027306
 **** Fit       0.027774
 **** Fit       0.028084
 **** Fit       0.027666
 **** Fit       0.025937
 **** Fit       0.028248
 **** Fit       0.028273
 **** Fit       0.027674
 **** Fit       0.027112
 **** Fit       0.027054
 **** Fit       0.027007
 **** Fit       0.026443
 **** Fit       0.024755
 **** Fit       0.026697
 **** Fit       0.027198
 **** Fit       0.026296
 **** Fit       0.025993
 **** Fit       0.024501
 **** Fit       0.025567
 **** Fit       0.024822
 -----------------------------------------------------------------
 Leave Link  602 at Wed Sep 18 17:27:21 2019, MaxMem=  1342177280 cpu:             111.5 elap:               2.4

 Test job not archived.
 1\1\GINC-C504-031\SP\RB3LYP\SVP\C54H83Ca1N15O23\JAEBEOMH\18-Sep-2019\0
 \\#b3lyp/svp scf=(tight,noincore) Test #IOP(5/87=12) Density=Current P
 op=(MK,readradii) iop(6/33=2) iop(6/42=6)\\CaMKII_loop3_60.0\\0,1\C,0,
 81.76,46.42,37.2\C,0,81.,45.8,38.36\O,0,81.56,44.92,39.02\H,0,82.755,4
 5.978,37.14\H,0,81.223,46.231,36.271\H,0,81.849,47.495,37.357\N,0,79.7
 4,46.2,38.54\C,0,78.88,45.78,39.63\C,0,78.08,44.56,39.22\O,0,76.87,44.
 67,39.03\C,0,78.06,46.97,40.14\C,0,77.3,46.84,41.45\O,0,77.58,45.86,42
 .18\O,0,76.42,47.63,41.84\H,0,79.45,46.99,37.98\H,0,79.54,45.46,40.44\
 H,0,77.4,47.27,39.33\H,0,78.71,47.83,40.33\N,0,78.81,43.47,38.99\C,0,7
 8.18,42.24,38.53\C,0,77.1,41.63,39.41\O,0,76.22,40.95,38.88\C,0,79.29,
 41.23,38.25\C,0,80.14,41.61,37.04\C,0,80.93,40.36,36.66\C,0,81.84,40.4
 8,35.44\N,0,82.73,41.64,35.56\H,0,79.81,43.47,39.12\H,0,77.68,42.49,37
 .59\H,0,78.79,40.28,38.09\H,0,80.02,41.14,39.05\H,0,80.73,42.46,37.38\
 H,0,79.48,41.89,36.21\H,0,80.25,39.52,36.48\H,0,81.54,39.99,37.48\H,0,
 81.33,40.5,34.48\H,0,82.5,39.61,35.51\H,0,82.31,42.53,35.31\H,0,82.99,
 41.72,36.54\H,0,83.56,41.4,35.03\N,0,77.12,41.8,40.74\C,0,76.14,41.35,
 41.71\C,0,75.01,42.36,41.92\O,0,73.92,42.02,42.36\C,0,76.83,41.19,43.0
 5\C,0,77.6,42.43,43.47\O,0,77.25,43.13,44.45\O,0,78.56,42.84,42.79\H,0
 ,77.87,42.33,41.15\H,0,75.72,40.39,41.41\H,0,77.58,40.41,42.91\H,0,76.
 05,41.11,43.81\N,0,75.3,43.59,41.5\C,0,74.31,44.64,41.41\C,0,73.94,45.
 44,42.66\O,0,72.87,46.03,42.61\H,0,76.28,43.72,41.29\H,0,73.39,44.23,4
 0.98\H,0,74.69,45.31,40.65\N,0,74.68,45.46,43.77\C,0,74.24,46.1,44.99\
 C,0,74.27,47.62,45.01\O,0,73.91,48.23,46.02\C,0,75.1,45.55,46.13\C,0,7
 6.58,45.89,46.2\N,0,77.37,45.63,47.24\O,0,77.18,46.42,45.27\H,0,75.61,
 45.09,43.63\H,0,73.19,45.86,45.14\H,0,75.03,44.46,46.05\H,0,74.64,45.8
 5,47.07\H,0,77.05,45.44,48.18\H,0,78.29,46.02,47.09\N,0,74.81,48.29,43
 .99\C,0,75.01,49.71,43.83\C,0,76.41,50.24,44.09\O,0,76.65,51.44,43.94\
 H,0,75.29,47.83,43.23\H,0,74.32,50.34,44.39\H,0,74.91,49.97,42.77\N,0,
 77.32,49.3,44.34\C,0,78.67,49.6,44.77\C,0,79.7,48.88,43.92\O,0,79.51,4
 7.68,43.68\C,0,78.8,49.21,46.24\C,0,77.84,49.94,47.15\C,0,78.03,51.31,
 47.36\C,0,76.73,49.27,47.68\C,0,77.2,52.01,48.24\C,0,75.96,49.94,48.63
 \C,0,76.18,51.31,48.91\O,0,75.4,51.99,49.8\H,0,77.17,48.32,44.12\H,0,7
 8.75,50.68,44.67\H,0,79.81,49.29,46.63\H,0,78.63,48.14,46.39\H,0,78.82
 ,51.86,46.88\H,0,76.56,48.28,47.27\H,0,77.28,53.04,48.55\H,0,75.04,49.
 48,48.97\H,0,74.67,51.41,50.02\N,0,80.8,49.56,43.56\C,0,82.03,48.97,43
 .09\C,0,83.07,48.97,44.2\O,0,83.31,50.02,44.8\C,0,82.51,49.74,41.86\C,
 0,81.49,49.67,40.73\C,0,83.91,49.33,41.41\C,0,81.58,50.57,39.5\H,0,80.
 85,50.52,43.85\H,0,81.83,47.96,42.74\H,0,82.66,50.77,42.18\H,0,80.48,4
 9.8,41.14\H,0,81.54,48.66,40.32\H,0,84.19,49.75,40.44\H,0,84.62,49.56,
 42.2\H,0,83.77,48.27,41.2\H,0,80.76,50.17,38.9\H,0,81.51,51.61,39.79\H
 ,0,82.49,50.33,38.94\N,0,83.89,47.92,44.18\C,0,85.13,47.83,44.93\C,0,8
 6.35,47.67,44.04\O,0,86.27,47.72,42.81\C,0,84.9,46.75,45.98\O,0,84.79,
 45.46,45.42\H,0,83.55,47.13,43.65\H,0,85.41,48.75,45.46\H,0,83.97,46.9
 7,46.5\H,0,85.75,46.8,46.66\H,0,83.85,45.41,45.21\N,0,87.48,47.4,44.68
 \C,0,88.74,47.16,44.\C,0,88.87,45.81,43.3\O,0,89.58,45.79,42.3\C,0,89.
 9,47.46,44.95\H,0,87.45,47.41,45.69\H,0,88.74,47.93,43.23\H,0,89.86,46
 .7,45.74\H,0,90.89,47.37,44.51\H,0,89.67,48.46,45.31\N,0,88.29,44.75,4
 3.86\C,0,88.47,43.43,43.28\C,0,87.45,43.37,42.15\O,0,87.75,42.74,41.14
 \C,0,88.4,42.41,44.42\H,0,87.78,44.87,44.73\H,0,89.45,43.38,42.81\H,0,
 87.35,42.37,44.71\H,0,88.71,41.43,44.05\H,0,89.03,42.64,45.28\N,0,86.3
 5,44.13,42.16\C,0,85.45,44.34,41.04\C,0,86.14,45.14,39.94\O,0,86.19,44
 .73,38.78\C,0,84.15,44.95,41.54\C,0,83.46,44.09,42.59\C,0,82.23,44.78,
 43.18\O,0,82.26,45.49,44.21\O,0,81.12,44.69,42.61\H,0,86.09,44.5,43.06
 \H,0,85.3,43.32,40.67\H,0,83.52,44.95,40.65\H,0,84.31,45.96,41.89\H,0,
 84.16,43.77,43.36\H,0,83.09,43.22,42.06\N,0,86.71,46.28,40.33\C,0,87.3
 5,47.13,39.34\H,0,88.351,46.753,39.131\H,0,86.762,47.126,38.422\H,0,87
 .419,48.148,39.724\H,0,86.67,46.63,41.28\Ca,0,79.11,45.01,44.04\O,0,80
 .45,45.8,46.19\H,0,80.93,46.55,46.52\H,0,81.13,45.16,45.98\\Version=ES
 64L-G16RevA.03\State=1-A\HF=-5333.6144196\RMSD=3.260e-09\Dipole=11.142
 8414,-5.9547384,-5.7110484\Quadrupole=-142.3502923,-9.992401,152.34269
 34,-13.8643316,-5.1542552,55.7928437\PG=C01 [X(C54H83Ca1N15O23)]\\@


 MISERY NO LONGER LOVES COMPANY.  NOWADAYS IT INSISTS ON IT.

                                              -- BAKER'S LAW
 Job cpu time:       0 days  8 hours 55 minutes 31.7 seconds.
 Elapsed time:       0 days  0 hours 11 minutes 16.9 seconds.
 File lengths (MBytes):  RWF=   1517 Int=      0 D2E=      0 Chk=    171 Scr=      1
 Normal termination of Gaussian 16 at Wed Sep 18 17:27:22 2019.
