 Entering Gaussian System, Link 0=g16
 Initial command:
 /home1/apps/gaussian/16rA.03/g16/l1.exe "/scratch/04905/jaebeomh/4356891/Gau-132907.inp" -scrdir="/scratch/04905/jaebeomh/4356891/"
 Entering Link 1 = /home1/apps/gaussian/16rA.03/g16/l1.exe PID=    132908.
  
 Copyright (c) 1988,1990,1992,1993,1995,1998,2003,2009,2016,
            Gaussian, Inc.  All Rights Reserved.
  
 This is part of the Gaussian(R) 16 program.  It is based on
 the Gaussian(R) 09 system (copyright 2009, Gaussian, Inc.),
 the Gaussian(R) 03 system (copyright 2003, Gaussian, Inc.),
 the Gaussian(R) 98 system (copyright 1998, Gaussian, Inc.),
 the Gaussian(R) 94 system (copyright 1995, Gaussian, Inc.),
 the Gaussian 92(TM) system (copyright 1992, Gaussian, Inc.),
 the Gaussian 90(TM) system (copyright 1990, Gaussian, Inc.),
 the Gaussian 88(TM) system (copyright 1988, Gaussian, Inc.),
 the Gaussian 86(TM) system (copyright 1986, Carnegie Mellon
 University), and the Gaussian 82(TM) system (copyright 1983,
 Carnegie Mellon University). Gaussian is a federally registered
 trademark of Gaussian, Inc.
  
 This software contains proprietary and confidential information,
 including trade secrets, belonging to Gaussian, Inc.
  
 This software is provided under written license and may be
 used, copied, transmitted, or stored only in accord with that
 written license.
  
 The following legend is applicable only to US Government
 contracts under FAR:
  
                    RESTRICTED RIGHTS LEGEND
  
 Use, reproduction and disclosure by the US Government is
 subject to restrictions as set forth in subparagraphs (a)
 and (c) of the Commercial Computer Software - Restricted
 Rights clause in FAR 52.227-19.
  
 Gaussian, Inc.
 340 Quinnipiac St., Bldg. 40, Wallingford CT 06492
  
  
 ---------------------------------------------------------------
 Warning -- This program may not be used in any manner that
 competes with the business of Gaussian, Inc. or will provide
 assistance to any competitor of Gaussian, Inc.  The licensee
 of this program is prohibited from giving any competitor of
 Gaussian, Inc. access to this program.  By using this program,
 the user acknowledges that Gaussian, Inc. is engaged in the
 business of creating and licensing software in the field of
 computational chemistry and represents and warrants to the
 licensee that it is not a competitor of Gaussian, Inc. and that
 it will not use this program in any manner prohibited above.
 ---------------------------------------------------------------
  

 Cite this work as:
 Gaussian 16, Revision A.03,
 M. J. Frisch, G. W. Trucks, H. B. Schlegel, G. E. Scuseria, 
 M. A. Robb, J. R. Cheeseman, G. Scalmani, V. Barone, 
 G. A. Petersson, H. Nakatsuji, X. Li, M. Caricato, A. V. Marenich, 
 J. Bloino, B. G. Janesko, R. Gomperts, B. Mennucci, H. P. Hratchian, 
 J. V. Ortiz, A. F. Izmaylov, J. L. Sonnenberg, D. Williams-Young, 
 F. Ding, F. Lipparini, F. Egidi, J. Goings, B. Peng, A. Petrone, 
 T. Henderson, D. Ranasinghe, V. G. Zakrzewski, J. Gao, N. Rega, 
 G. Zheng, W. Liang, M. Hada, M. Ehara, K. Toyota, R. Fukuda, 
 J. Hasegawa, M. Ishida, T. Nakajima, Y. Honda, O. Kitao, H. Nakai, 
 T. Vreven, K. Throssell, J. A. Montgomery, Jr., J. E. Peralta, 
 F. Ogliaro, M. J. Bearpark, J. J. Heyd, E. N. Brothers, K. N. Kudin, 
 V. N. Staroverov, T. A. Keith, R. Kobayashi, J. Normand, 
 K. Raghavachari, A. P. Rendell, J. C. Burant, S. S. Iyengar, 
 J. Tomasi, M. Cossi, J. M. Millam, M. Klene, C. Adamo, R. Cammi, 
 J. W. Ochterski, R. L. Martin, K. Morokuma, O. Farkas, 
 J. B. Foresman, and D. J. Fox, Gaussian, Inc., Wallingford CT, 2016.
 
 ******************************************
 Gaussian 16:  ES64L-G16RevA.03 25-Dec-2016
                18-Sep-2019 
 ******************************************
 %chk=CaMKII_loop3_41.0.chk
 %nprocshared=48
 Will use up to   48 processors via shared memory.
 %mem=10GB
 %nosave
 ----------------------------------------------------------------------
 #b3lyp/svp scf=(tight,noincore) Test #IOP(5/87=12) Density=Current Pop
 =(MK,readradii) iop(6/33=2) iop(6/42=6)
 ----------------------------------------------------------------------
 1/30=1,38=1,172=1/1;
 2/12=2,17=6,18=5,40=1/2;
 3/5=18,7=101,11=2,25=1,30=1,74=-5/1,2,3;
 4//1;
 5/5=4,32=2,38=5,87=12/2;
 6/7=2,8=2,9=2,10=2,15=8,20=101,22=-1,28=1,33=2,42=6/1,2;
 99/5=1,9=1/99;
 -----------------
 CaMKII_loop3_41.0
 -----------------
 Symbolic Z-matrix:
 Charge =  0 Multiplicity = 1
 C                     72.83     48.59     30.84 
 C                     72.46     47.48     31.81 
 O                     73.       46.38     31.84 
 H                     73.845    48.43     30.475 
 H                     72.137    48.584    29.999 
 H                     72.776    49.552    31.35 
 N                     71.51     47.83     32.68 
 C                     70.92     46.89     33.61 
 C                     69.76     46.11     33.01 
 O                     68.6      46.51     33.14 
 C                     70.6      47.46     34.99 
 C                     70.13     46.38     35.96 
 O                     69.6      46.78     37.01 
 O                     70.38     45.19     35.67 
 H                     71.15     48.77     32.65 
 H                     71.71     46.19     33.89 
 H                     69.82     48.21     34.92 
 H                     71.54     47.86     35.38 
 N                     70.1      45.07     32.24 
 C                     69.2      44.35     31.35 
 C                     68.18     43.52     32.11 
 O                     66.96     43.62     31.95 
 C                     70.       43.46     30.4 
 C                     70.63     44.28     29.28 
 C                     71.37     43.37     28.3 
 C                     70.52     42.28     27.66 
 N                     71.39     41.5      26.76 
 H                     71.09     44.88     32.15 
 H                     68.66     45.11     30.79 
 H                     69.37     42.67     29.98 
 H                     70.81     42.99     30.96 
 H                     71.43     44.9      29.69 
 H                     69.91     44.84     28.7 
 H                     72.16     42.78     28.78 
 H                     71.82     43.99     27.53 
 H                     69.72     42.76     27.09 
 H                     70.07     41.72     28.47 
 H                     70.94     40.67     26.41 
 H                     71.76     42.11     26.05 
 H                     72.2      41.14     27.24 
 N                     68.67     42.73     33.07 
 C                     67.79     41.93     33.89 
 C                     67.17     42.7      35.05 
 O                     66.41     42.15     35.84 
 C                     68.43     40.6      34.27 
 C                     69.55     40.75     35.28 
 O                     69.93     39.74     35.91 
 O                     70.11     41.85     35.5 
 H                     69.65     42.81     33.32 
 H                     66.95     41.6      33.29 
 H                     68.86     40.13     33.38 
 H                     67.6      39.94     34.56 
 N                     67.46     44.       35.18 
 C                     66.92     44.93     36.14 
 C                     67.25     44.7      37.61 
 O                     66.51     45.16     38.48 
 H                     68.2      44.35     34.59 
 H                     65.84     44.93     35.99 
 H                     67.23     45.9      35.76 
 N                     68.39     44.11     37.98 
 C                     68.7      43.6      39.3 
 C                     69.42     44.64     40.15 
 O                     69.9      44.27     41.22 
 C                     69.39     42.25     39.15 
 C                     70.89     42.32     38.9 
 N                     71.64     41.36     39.43 
 O                     71.38     43.18     38.16 
 H                     68.97     43.83     37.2 
 H                     67.73     43.45     39.78 
 H                     68.97     41.68     38.32 
 H                     69.36     41.74     40.12 
 H                     71.23     40.62     39.98 
 H                     72.64     41.26     39.33 
 N                     69.57     45.88     39.67 
 C                     70.29     46.94     40.34 
 C                     71.74     47.21     39.96 
 O                     72.35     48.08     40.58 
 H                     69.22     46.08     38.74 
 H                     70.24     46.79     41.41 
 H                     69.88     47.92     40.08 
 N                     72.24     46.59     38.89 
 C                     73.64     46.52     38.53 
 C                     73.91     46.31     37.04 
 O                     73.15     45.58     36.41 
 C                     74.2      45.34     39.32 
 C                     74.15     45.39     40.82 
 C                     75.       46.26     41.51 
 C                     73.39     44.47     41.55 
 C                     75.16     46.11     42.9 
 C                     73.48     44.33     42.94 
 C                     74.35     45.21     43.62 
 O                     74.48     45.2      44.98 
 H                     71.54     46.11     38.34 
 H                     74.09     47.46     38.83 
 H                     75.27     45.23     39.11 
 H                     73.7      44.42     39.02 
 H                     75.74     46.86     40.99 
 H                     72.75     43.72     41.09 
 H                     75.86     46.72     43.44 
 H                     72.98     43.58     43.53 
 H                     73.73     44.83     45.44 
 N                     74.98     46.97     36.6 
 C                     75.72     46.65     35.39 
 C                     76.74     45.55     35.6 
 O                     77.55     45.62     36.52 
 C                     76.22     47.89     34.65 
 C                     75.21     49.03     34.68 
 C                     76.78     47.51     33.28 
 C                     75.64     50.43     34.25 
 H                     75.41     47.57     37.29 
 H                     74.92     46.18     34.82 
 H                     77.07     48.3      35.19 
 H                     74.77     49.2      35.67 
 H                     74.39     48.69     34.04 
 H                     75.97     47.15     32.64 
 H                     77.14     48.39     32.75 
 H                     77.55     46.74     33.29 
 H                     76.17     50.94     35.05 
 H                     76.28     50.42     33.37 
 H                     74.8      51.06     33.97 
 N                     76.73     44.6      34.66 
 C                     77.75     43.58     34.48 
 C                     78.45     43.57     33.13 
 O                     77.92     44.11     32.17 
 C                     77.28     42.22     34.98 
 O                     75.96     41.93     34.59 
 H                     75.91     44.55     34.08 
 H                     78.62     43.81     35.1 
 H                     77.36     42.3      36.06 
 H                     77.85     41.39     34.57 
 H                     75.46     42.75     34.53 
 N                     79.61     42.91     33. 
 C                     80.38     42.97     31.78 
 C                     79.76     42.43     30.5 
 O                     79.87     43.02     29.43 
 C                     81.71     42.27     32.01 
 H                     80.01     42.24     33.64 
 H                     80.69     44.01     31.63 
 H                     82.31     42.47     31.12 
 H                     82.31     42.58     32.87 
 H                     81.58     41.19     31.95 
 N                     79.17     41.25     30.65 
 C                     78.25     40.69     29.67 
 C                     77.08     41.58     29.25 
 O                     76.55     41.47     28.16 
 C                     77.75     39.35     30.18 
 H                     79.4      40.66     31.44 
 H                     78.85     40.53     28.77 
 H                     77.42     38.76     29.32 
 H                     78.55     38.81     30.7 
 H                     76.99     39.48     30.95 
 N                     76.66     42.49     30.13 
 C                     75.62     43.44     29.78 
 C                     76.14     44.61     28.95 
 O                     75.53     44.96     27.94 
 C                     74.85     43.81     31.05 
 C                     74.2      42.63     31.78 
 C                     73.42     43.12     32.99 
 O                     74.04     43.78     33.86 
 O                     72.21     42.88     33.15 
 H                     76.92     42.39     31.1 
 H                     74.89     42.94     29.14 
 H                     74.11     44.53     30.73 
 H                     75.52     44.3      31.75 
 H                     75.07     42.1      32.17 
 H                     73.57     42.07     31.1 
 N                     77.22     45.23     29.43 
 C                     77.86     46.36     28.8 
 H                     78.847    46.065    28.443 
 H                     77.256    46.698    27.958 
 H                     77.962    47.17     29.522 
 H                     77.52     44.93     30.35 
 Ca                    72.2      43.32     35.72 
 O                     74.42     42.68     37.04 
 H                     75.19     42.98     37.52 
 H                     74.34     41.76     37.28 
 
 Stoichiometry    C54H83CaN15O23
 Framework group  C1[X(C54H83CaN15O23)]
 Deg. of freedom   522
 Full point group                 C1      NOp   1
 Largest Abelian subgroup         C1      NOp   1
 Largest concise Abelian subgroup C1      NOp   1
                         Standard orientation:                         
 ---------------------------------------------------------------------
 Center     Atomic      Atomic             Coordinates (Angstroms)
 Number     Number       Type             X           Y           Z
 ---------------------------------------------------------------------
      1          6           0        2.420307    1.486961    4.974510
      2          6           0        1.572668    1.471903    3.713090
      3          8           0        1.999833    1.200617    2.596652
      4          1           0        3.305299    0.867745    4.824814
      5          1           0        2.726137    2.509429    5.194951
      6          1           0        1.839146    1.092510    5.808248
      7          7           0        0.283333    1.735592    3.936663
      8          6           0       -0.677129    1.894424    2.864802
      9          6           0       -0.721311    3.311053    2.312344
     10          8           0       -1.527225    4.133434    2.755844
     11          6           0       -2.065361    1.326427    3.150966
     12          6           0       -2.972665    1.389004    1.925779
     13          8           0       -4.183351    1.200182    2.130682
     14          8           0       -2.431623    1.543901    0.809544
     15          1           0       -0.021793    1.885655    4.884544
     16          1           0       -0.371462    1.213152    2.067973
     17          1           0       -2.544618    1.879038    3.951425
     18          1           0       -1.918594    0.270162    3.392757
     19          7           0        0.242655    3.620320    1.437574
     20          6           0        0.572384    4.965148    0.986779
     21          6           0       -0.502583    5.551507    0.088153
     22          8           0       -1.062518    6.630197    0.304718
     23          6           0        1.918650    4.962657    0.264172
     24          6           0        3.073729    4.892645    1.256438
     25          6           0        4.414051    4.959323    0.524871
     26          6           0        4.617614    6.194462   -0.342997
     27          7           0        5.946540    6.088156   -0.973833
     28          1           0        0.892368    2.880874    1.202215
     29          1           0        0.626874    5.577591    1.883854
     30          1           0        2.022478    5.846094   -0.373134
     31          1           0        1.974002    4.075774   -0.369053
     32          1           0        3.095973    3.903336    1.718253
     33          1           0        3.072316    5.699845    1.975344
     34          1           0        4.540489    4.152511   -0.207022
     35          1           0        5.209766    4.887376    1.260712
     36          1           0        4.574634    7.076626    0.301393
     37          1           0        3.780804    6.234661   -1.028806
     38          1           0        6.098418    6.792190   -1.677516
     39          1           0        6.650010    6.052362   -0.254842
     40          1           0        6.052308    5.224581   -1.482902
     41          7           0       -0.908754    4.773104   -0.919277
     42          6           0       -1.959348    5.206296   -1.811128
     43          6           0       -3.361334    4.968938   -1.262498
     44          8           0       -4.355235    5.274943   -1.912669
     45          6           0       -1.731945    4.706259   -3.232800
     46          6           0       -1.959205    3.214902   -3.378436
     47          8           0       -2.125402    2.741534   -4.522857
     48          8           0       -1.980689    2.441635   -2.391726
     49          1           0       -0.580749    3.814025   -0.962631
     50          1           0       -1.888031    6.279089   -1.947249
     51          1           0       -0.698334    4.905133   -3.532798
     52          1           0       -2.339432    5.355299   -3.879566
     53          7           0       -3.486538    4.432338   -0.042914
     54          6           0       -4.702179    4.207043    0.698407
     55          6           0       -5.692828    3.192279    0.140222
     56          8           0       -6.880766    3.262705    0.456359
     57          1           0       -2.640144    4.071534    0.371378
     58          1           0       -5.178773    5.181861    0.805588
     59          1           0       -4.352407    3.982644    1.702751
     60          7           0       -5.281851    2.153871   -0.592859
     61          6           0       -6.121898    1.284348   -1.390888
     62          6           0       -6.562963    0.054050   -0.607096
     63          8           0       -7.122926   -0.847927   -1.227644
     64          6           0       -5.429286    1.028116   -2.723455
     65          6           0       -4.401113   -0.094379   -2.707137
     66          7           0       -4.286776   -0.829971   -3.807515
     67          8           0       -3.640950   -0.257360   -1.746465
     68          1           0       -4.281426    2.136755   -0.741376
     69          1           0       -7.033399    1.859301   -1.570870
     70          1           0       -4.902992    1.917026   -3.074244
     71          1           0       -6.171045    0.626436   -3.423703
     72          1           0       -4.863270   -0.653255   -4.616605
     73          1           0       -3.635744   -1.588114   -3.953719
     74          7           0       -6.257307   -0.031760    0.692793
     75          6           0       -6.553506   -1.169864    1.534152
     76          6           0       -5.474102   -2.216757    1.776434
     77          8           0       -5.764117   -3.203916    2.450827
     78          1           0       -5.716506    0.717756    1.108918
     79          1           0       -7.438118   -1.671029    1.165107
     80          1           0       -6.703281   -0.863082    2.573168
     81          7           0       -4.233276   -1.953999    1.363384
     82          6           0       -3.151065   -2.910678    1.273471
     83          6           0       -1.750107   -2.305668    1.365021
     84          8           0       -1.554511   -1.213338    0.839705
     85          6           0       -3.325066   -3.588579   -0.083096
     86          6           0       -4.589978   -4.353279   -0.348112
     87          6           0       -4.804156   -5.576557    0.294708
     88          6           0       -5.483554   -3.950729   -1.346297
     89          6           0       -5.834627   -6.421879   -0.156690
     90          6           0       -6.554271   -4.739783   -1.783056
     91          6           0       -6.750525   -5.976068   -1.129769
     92          8           0       -7.792389   -6.805041   -1.436243
     93          1           0       -4.104517   -0.997606    1.060676
     94          1           0       -3.277131   -3.607352    2.094965
     95          1           0       -2.543570   -4.344513   -0.220674
     96          1           0       -3.229524   -2.853961   -0.881599
     97          1           0       -4.049710   -6.018256    0.937915
     98          1           0       -5.357999   -3.044730   -1.935450
     99          1           0       -5.973143   -7.395671    0.274868
    100          1           0       -7.212158   -4.507994   -2.604067
    101          1           0       -8.534950   -6.363346   -1.841839
    102          7           0       -0.886347   -3.073874    2.026744
    103          6           0        0.561106   -2.988017    1.919000
    104          6           0        1.107139   -3.752804    0.730956
    105          8           0        0.792633   -4.925417    0.548024
    106          6           0        1.274325   -3.225682    3.249426
    107          6           0        0.531479   -2.603757    4.425006
    108          6           0        2.761356   -2.895106    3.129606
    109          6           0        0.929480   -2.976161    5.850737
    110          1           0       -1.296410   -3.901890    2.435691
    111          1           0        0.649366   -1.939861    1.637257
    112          1           0        1.246719   -4.288845    3.475528
    113          1           0       -0.548256   -2.795085    4.412089
    114          1           0        0.648087   -1.524528    4.286199
    115          1           0        2.886280   -1.820670    2.970603
    116          1           0        3.274346   -3.065477    4.074442
    117          1           0        3.287033   -3.404039    2.323038
    118          1           0        0.497152   -3.929805    6.141694
    119          1           0        2.007933   -3.037021    5.982396
    120          1           0        0.605723   -2.241219    6.582818
    121          7           0        2.003780   -3.078819    0.004333
    122          6           0        2.858625   -3.650260   -1.023235
    123          6           0        4.355867   -3.510993   -0.796362
    124          8           0        4.774366   -2.655757   -0.029857
    125          6           0        2.375478   -3.288906   -2.421982
    126          8           0        2.002538   -1.936925   -2.529987
    127          1           0        2.031116   -2.082157    0.135551
    128          1           0        2.801376   -4.741075   -0.990928
    129          1           0        1.523067   -3.943316   -2.578003
    130          1           0        3.142872   -3.398327   -3.184237
    131          1           0        1.660866   -1.633918   -1.682964
    132          7           0        5.197699   -4.287944   -1.493330
    133          6           0        6.617513   -4.288031   -1.230602
    134          6           0        7.397695   -2.999387   -1.442996
    135          8           0        8.254835   -2.624828   -0.649196
    136          6           0        7.263997   -5.390262   -2.054584
    137          1           0        4.987434   -4.842612   -2.309806
    138          1           0        6.768978   -4.646929   -0.206663
    139          1           0        8.299434   -5.449348   -1.713291
    140          1           0        6.848953   -6.398871   -1.976183
    141          1           0        7.390230   -5.061919   -3.085678
    142          7           0        7.110115   -2.383970   -2.583855
    143          6           0        7.480451   -1.002679   -2.858237
    144          6           0        7.052382    0.034754   -1.820022
    145          8           0        7.667299    1.072671   -1.659692
    146          6           0        6.969684   -0.625272   -4.237506
    147          1           0        6.671390   -2.891465   -3.342189
    148          1           0        8.573822   -0.993546   -2.865786
    149          1           0        7.573314    0.208491   -4.607736
    150          1           0        7.061961   -1.470373   -4.929814
    151          1           0        5.898247   -0.427450   -4.220530
    152          7           0        5.971741   -0.243972   -1.089662
    153          6           0        5.550148    0.638024   -0.016842
    154          6           0        6.357956    0.443858    1.262980
    155          8           0        6.799296    1.425174    1.860423
    156          6           0        4.029922    0.536398    0.129052
    157          6           0        3.233336    0.893212   -1.130287
    158          6           0        1.740190    0.810802   -0.854019
    159          8           0        1.279697   -0.280853   -0.437924
    160          8           0        0.970325    1.770499   -1.037292
    161          1           0        5.334351   -0.957635   -1.410472
    162          1           0        5.738828    1.670619   -0.317917
    163          1           0        3.782059    1.194000    0.950345
    164          1           0        3.760102   -0.476620    0.411880
    165          1           0        3.469716    0.057458   -1.790241
    166          1           0        3.518632    1.874678   -1.488381
    167          7           0        6.478245   -0.814720    1.690428
    168          6           0        7.194171   -1.207671    2.880571
    169          1           0        8.075706   -1.784346    2.599530
    170          1           0        7.502712   -0.318539    3.430363
    171          1           0        6.546745   -1.817552    3.510391
    172          1           0        5.931701   -1.500008    1.182423
    173         20           0       -1.203829    0.335690   -1.151208
    174          8           0       -0.965481   -2.094081   -2.209415
    175          1           0       -0.973098   -3.039826   -2.072270
    176          1           0       -1.079641   -1.994613   -3.151473
 ---------------------------------------------------------------------
 Rotational constants (GHZ):           0.0243510           0.0154889           0.0121917
 Standard basis: SVP (5D, 7F)
 There are  1809 symmetry adapted cartesian basis functions of A   symmetry.
 There are  1717 symmetry adapted basis functions of A   symmetry.
  1717 basis functions,  2922 primitive gaussians,  1809 cartesian basis functions
   358 alpha electrons      358 beta electrons
       nuclear repulsion energy     21946.9619189833 Hartrees.
 NAtoms=  176 NActive=  176 NUniq=  176 SFac= 1.00D+00 NAtFMM=   60 NAOKFM=T Big=T
 Integral buffers will be    131072 words long.
 Raffenetti 2 integral format.
 Two-electron integral symmetry is turned on.
 One-electron integrals computed using PRISM.
 NBasis=  1717 RedAO= T EigKep=  3.15D-04  NBF=  1717
 NBsUse=  1717 1.00D-06 EigRej= -1.00D+00 NBFU=  1717
 ExpMin= 1.98D-02 ExpMax= 3.51D+04 ExpMxC= 5.28D+03 IAcc=3 IRadAn=         5 AccDes= 0.00D+00
 Harris functional with IExCor=  402 and IRadAn=       5 diagonalized for initial guess.
 HarFok:  IExCor=  402 AccDes= 0.00D+00 IRadAn=         5 IDoV= 1 UseB2=F ITyADJ=14
 ICtDFT=  3500011 ScaDFX=  1.000000  1.000000  1.000000  1.000000
 FoFCou: FMM=F IPFlag=           0 FMFlag=      100000 FMFlg1=        2001
         NFxFlg=           0 DoJE=T BraDBF=F KetDBF=T FulRan=T
         wScrn=  0.000000 ICntrl=       500 IOpCl=  0 I1Cent=   200000004 NGrid=           0
         NMat0=    1 NMatS0=      1 NMatT0=    0 NMatD0=    1 NMtDS0=    0 NMtDT0=    0
 Petite list used in FoFCou.
 Requested convergence on RMS density matrix=1.00D-08 within 128 cycles.
 Requested convergence on MAX density matrix=1.00D-06.
 Requested convergence on             energy=1.00D-06.
 No special actions if energy rises.
 EnCoef did     4 forward-backward iterations
 EnCoef did     6 forward-backward iterations
 SCF Done:  E(RB3LYP) =  -5333.61829019     A.U. after   20 cycles
            NFock= 20  Conv=0.33D-08     -V/T= 2.0082
 SCF density gives NOpUse=  1 NOpAll=  1.
 Hyperfine terms turned off by default for NAtoms > 100.

 **********************************************************************

            Population analysis using the SCF density.

 **********************************************************************

 Orbital symmetries:
 BldTbl:  Degeneracy threshold= 1.00D-02
       Occupied  (A) (A) (A) (A) (A) (A) (A) (A) (A) (A) (A) (A)
                 (A) (A) (A) (A) (A) (A) (A) (A) (A) (A) (A) (A)
                 (A) (A) (A) (A) (A) (A) (A) (A) (A) (A) (A) (A)
                 (A) (A) (A) (A) (A) (A) (A) (A) (A) (A) (A) (A)
                 (A) (A) (A) (A) (A) (A) (A) (A) (A) (A) (A) (A)
                 (A) (A) (A) (A) (A) (A) (A) (A) (A) (A) (A) (A)
                 (A) (A) (A) (A) (A) (A) (A) (A) (A) (A) (A) (A)
                 (A) (A) (A) (A) (A) (A) (A) (A) (A) (A) (A) (A)
                 (A) (A) (A) (A) (A) (A) (A) (A) (A) (A) (A) (A)
                 (A) (A) (A) (A) (A) (A) (A) (A) (A) (A) (A) (A)
                 (A) (A) (A) (A) (A) (A) (A) (A) (A) (A) (A) (A)
                 (A) (A) (A) (A) (A) (A) (A) (A) (A) (A) (A) (A)
                 (A) (A) (A) (A) (A) (A) (A) (A) (A) (A) (A) (A)
                 (A) (A) (A) (A) (A) (A) (A) (A) (A) (A) (A) (A)
                 (A) (A) (A) (A) (A) (A) (A) (A) (A) (A) (A) (A)
                 (A) (A) (A) (A) (A) (A) (A) (A) (A) (A) (A) (A)
                 (A) (A) (A) (A) (A) (A) (A) (A) (A) (A) (A) (A)
                 (A) (A) (A) (A) (A) (A) (A) (A) (A) (A) (A) (A)
                 (A) (A) (A) (A) (A) (A) (A) (A) (A) (A) (A) (A)
                 (A) (A) (A) (A) (A) (A) (A) (A) (A) (A) (A) (A)
                 (A) (A) (A) (A) (A) (A) (A) (A) (A) (A) (A) (A)
                 (A) (A) (A) (A) (A) (A) (A) (A) (A) (A) (A) (A)
                 (A) (A) (A) (A) (A) (A) (A) (A) (A) (A) (A) (A)
                 (A) (A) (A) (A) (A) (A) (A) (A) (A) (A) (A) (A)
                 (A) (A) (A) (A) (A) (A) (A) (A) (A) (A) (A) (A)
                 (A) (A) (A) (A) (A) (A) (A) (A) (A) (A) (A) (A)
                 (A) (A) (A) (A) (A) (A) (A) (A) (A) (A) (A) (A)
                 (A) (A) (A) (A) (A) (A) (A) (A) (A) (A) (A) (A)
                 (A) (A) (A) (A) (A) (A) (A) (A) (A) (A) (A) (A)
                 (A) (A) (A) (A) (A) (A) (A) (A) (A) (A)
       Virtual   (A) (A) (A) (A) (A) (A) (A) (A) (A) (A) (A) (A)
                 (A) (A) (A) (A) (A) (A) (A) (A) (A) (A) (A) (A)
                 (A) (A) (A) (A) (A) (A) (A) (A) (A) (A) (A) (A)
                 (A) (A) (A) (A) (A) (A) (A) (A) (A) (A) (A) (A)
                 (A) (A) (A) (A) (A) (A) (A) (A) (A) (A) (A) (A)
                 (A) (A) (A) (A) (A) (A) (A) (A) (A) (A) (A) (A)
                 (A) (A) (A) (A) (A) (A) (A) (A) (A) (A) (A) (A)
                 (A) (A) (A) (A) (A) (A) (A) (A) (A) (A) (A) (A)
                 (A) (A) (A) (A) (A) (A) (A) (A) (A) (A) (A) (A)
                 (A) (A) (A) (A) (A) (A) (A) (A) (A) (A) (A) (A)
                 (A) (A) (A) (A) (A) (A) (A) (A) (A) (A) (A) (A)
                 (A) (A) (A) (A) (A) (A) (A) (A) (A) (A) (A) (A)
                 (A) (A) (A) (A) (A) (A) (A) (A) (A) (A) (A) (A)
                 (A) (A) (A) (A) (A) (A) (A) (A) (A) (A) (A) (A)
                 (A) (A) (A) (A) (A) (A) (A) (A) (A) (A) (A) (A)
                 (A) (A) (A) (A) (A) (A) (A) (A) (A) (A) (A) (A)
                 (A) (A) (A) (A) (A) (A) (A) (A) (A) (A) (A) (A)
                 (A) (A) (A) (A) (A) (A) (A) (A) (A) (A) (A) (A)
                 (A) (A) (A) (A) (A) (A) (A) (A) (A) (A) (A) (A)
                 (A) (A) (A) (A) (A) (A) (A) (A) (A) (A) (A) (A)
                 (A) (A) (A) (A) (A) (A) (A) (A) (A) (A) (A) (A)
                 (A) (A) (A) (A) (A) (A) (A) (A) (A) (A) (A) (A)
                 (A) (A) (A) (A) (A) (A) (A) (A) (A) (A) (A) (A)
                 (A) (A) (A) (A) (A) (A) (A) (A) (A) (A) (A) (A)
                 (A) (A) (A) (A) (A) (A) (A) (A) (A) (A) (A) (A)
                 (A) (A) (A) (A) (A) (A) (A) (A) (A) (A) (A) (A)
                 (A) (A) (A) (A) (A) (A) (A) (A) (A) (A) (A) (A)
                 (A) (A) (A) (A) (A) (A) (A) (A) (A) (A) (A) (A)
                 (A) (A) (A) (A) (A) (A) (A) (A) (A) (A) (A) (A)
                 (A) (A) (A) (A) (A) (A) (A) (A) (A) (A) (A) (A)
                 (A) (A) (A) (A) (A) (A) (A) (A) (A) (A) (A) (A)
                 (A) (A) (A) (A) (A) (A) (A) (A) (A) (A) (A) (A)
                 (A) (A) (A) (A) (A) (A) (A) (A) (A) (A) (A) (A)
                 (A) (A) (A) (A) (A) (A) (A) (A) (A) (A) (A) (A)
                 (A) (A) (A) (A) (A) (A) (A) (A) (A) (A) (A) (A)
                 (A) (A) (A) (A) (A) (A) (A) (A) (A) (A) (A) (A)
                 (A) (A) (A) (A) (A) (A) (A) (A) (A) (A) (A) (A)
                 (A) (A) (A) (A) (A) (A) (A) (A) (A) (A) (A) (A)
                 (A) (A) (A) (A) (A) (A) (A) (A) (A) (A) (A) (A)
                 (A) (A) (A) (A) (A) (A) (A) (A) (A) (A) (A) (A)
                 (A) (A) (A) (A) (A) (A) (A) (A) (A) (A) (A) (A)
                 (A) (A) (A) (A) (A) (A) (A) (A) (A) (A) (A) (A)
                 (A) (A) (A) (A) (A) (A) (A) (A) (A) (A) (A) (A)
                 (A) (A) (A) (A) (A) (A) (A) (A) (A) (A) (A) (A)
                 (A) (A) (A) (A) (A) (A) (A) (A) (A) (A) (A) (A)
                 (A) (A) (A) (A) (A) (A) (A) (A) (A) (A) (A) (A)
                 (A) (A) (A) (A) (A) (A) (A) (A) (A) (A) (A) (A)
                 (A) (A) (A) (A) (A) (A) (A) (A) (A) (A) (A) (A)
                 (A) (A) (A) (A) (A) (A) (A) (A) (A) (A) (A) (A)
                 (A) (A) (A) (A) (A) (A) (A) (A) (A) (A) (A) (A)
                 (A) (A) (A) (A) (A) (A) (A) (A) (A) (A) (A) (A)
                 (A) (A) (A) (A) (A) (A) (A) (A) (A) (A) (A) (A)
                 (A) (A) (A) (A) (A) (A) (A) (A) (A) (A) (A) (A)
                 (A) (A) (A) (A) (A) (A) (A) (A) (A) (A) (A) (A)
                 (A) (A) (A) (A) (A) (A) (A) (A) (A) (A) (A) (A)
                 (A) (A) (A) (A) (A) (A) (A) (A) (A) (A) (A) (A)
                 (A) (A) (A) (A) (A) (A) (A) (A) (A) (A) (A) (A)
                 (A) (A) (A) (A) (A) (A) (A) (A) (A) (A) (A) (A)
                 (A) (A) (A) (A) (A) (A) (A) (A) (A) (A) (A) (A)
                 (A) (A) (A) (A) (A) (A) (A) (A) (A) (A) (A) (A)
                 (A) (A) (A) (A) (A) (A) (A) (A) (A) (A) (A) (A)
                 (A) (A) (A) (A) (A) (A) (A) (A) (A) (A) (A) (A)
                 (A) (A) (A) (A) (A) (A) (A) (A) (A) (A) (A) (A)
                 (A) (A) (A) (A) (A) (A) (A) (A) (A) (A) (A) (A)
                 (A) (A) (A) (A) (A) (A) (A) (A) (A) (A) (A) (A)
                 (A) (A) (A) (A) (A) (A) (A) (A) (A) (A) (A) (A)
                 (A) (A) (A) (A) (A) (A) (A) (A) (A) (A) (A) (A)
                 (A) (A) (A) (A) (A) (A) (A) (A) (A) (A) (A) (A)
                 (A) (A) (A) (A) (A) (A) (A) (A) (A) (A) (A) (A)
                 (A) (A) (A) (A) (A) (A) (A) (A) (A) (A) (A) (A)
                 (A) (A) (A) (A) (A) (A) (A) (A) (A) (A) (A) (A)
                 (A) (A) (A) (A) (A) (A) (A) (A) (A) (A) (A) (A)
                 (A) (A) (A) (A) (A) (A) (A) (A) (A) (A) (A) (A)
                 (A) (A) (A) (A) (A) (A) (A) (A) (A) (A) (A) (A)
                 (A) (A) (A) (A) (A) (A) (A) (A) (A) (A) (A) (A)
                 (A) (A) (A) (A) (A) (A) (A) (A) (A) (A) (A) (A)
                 (A) (A) (A) (A) (A) (A) (A) (A) (A) (A) (A) (A)
                 (A) (A) (A) (A) (A) (A) (A) (A) (A) (A) (A) (A)
                 (A) (A) (A) (A) (A) (A) (A) (A) (A) (A) (A) (A)
                 (A) (A) (A) (A) (A) (A) (A) (A) (A) (A) (A) (A)
                 (A) (A) (A) (A) (A) (A) (A) (A) (A) (A) (A) (A)
                 (A) (A) (A) (A) (A) (A) (A) (A) (A) (A) (A) (A)
                 (A) (A) (A) (A) (A) (A) (A) (A) (A) (A) (A) (A)
                 (A) (A) (A) (A) (A) (A) (A) (A) (A) (A) (A) (A)
                 (A) (A) (A) (A) (A) (A) (A) (A) (A) (A) (A) (A)
                 (A) (A) (A) (A) (A) (A) (A) (A) (A) (A) (A) (A)
                 (A) (A) (A) (A) (A) (A) (A) (A) (A) (A) (A) (A)
                 (A) (A) (A) (A) (A) (A) (A) (A) (A) (A) (A) (A)
                 (A) (A) (A) (A) (A) (A) (A) (A) (A) (A) (A) (A)
                 (A) (A) (A) (A) (A) (A) (A) (A) (A) (A) (A) (A)
                 (A) (A) (A) (A) (A) (A) (A) (A) (A) (A) (A) (A)
                 (A) (A) (A) (A) (A) (A) (A) (A) (A) (A) (A) (A)
                 (A) (A) (A) (A) (A) (A) (A) (A) (A) (A) (A) (A)
                 (A) (A) (A) (A) (A) (A) (A) (A) (A) (A) (A) (A)
                 (A) (A) (A) (A) (A) (A) (A) (A) (A) (A) (A) (A)
                 (A) (A) (A) (A) (A) (A) (A) (A) (A) (A) (A) (A)
                 (A) (A) (A) (A) (A) (A) (A) (A) (A) (A) (A) (A)
                 (A) (A) (A) (A) (A) (A) (A) (A) (A) (A) (A) (A)
                 (A) (A) (A) (A) (A) (A) (A) (A) (A) (A) (A) (A)
                 (A) (A) (A) (A) (A) (A) (A) (A) (A) (A) (A) (A)
                 (A) (A) (A) (A) (A) (A) (A) (A) (A) (A) (A) (A)
                 (A) (A) (A) (A) (A) (A) (A) (A) (A) (A) (A) (A)
                 (A) (A) (A) (A) (A) (A) (A) (A) (A) (A) (A) (A)
                 (A) (A) (A) (A) (A) (A) (A) (A) (A) (A) (A) (A)
                 (A) (A) (A) (A) (A) (A) (A) (A) (A) (A) (A) (A)
                 (A) (A) (A) (A) (A) (A) (A) (A) (A) (A) (A) (A)
                 (A) (A) (A) (A) (A) (A) (A) (A) (A) (A) (A) (A)
                 (A) (A) (A) (A) (A) (A) (A) (A) (A) (A) (A) (A)
                 (A) (A) (A) (A) (A) (A) (A) (A) (A) (A) (A) (A)
                 (A) (A) (A) (A) (A) (A) (A) (A) (A) (A) (A) (A)
                 (A) (A) (A) (A) (A) (A) (A) (A) (A) (A) (A) (A)
                 (A) (A) (A) (A) (A) (A) (A) (A) (A) (A) (A) (A)
                 (A) (A) (A) (A) (A) (A) (A) (A) (A) (A) (A) (A)
                 (A) (A) (A)
 The electronic state is 1-A.
 Alpha  occ. eigenvalues -- -145.37089 -19.19964 -19.15531 -19.14610 -19.13914
 Alpha  occ. eigenvalues --  -19.13085 -19.12864 -19.12101 -19.11271 -19.10766
 Alpha  occ. eigenvalues --  -19.10716 -19.10532 -19.10075 -19.08842 -19.07979
 Alpha  occ. eigenvalues --  -19.06447 -19.05021 -19.04750 -19.04529 -19.03250
 Alpha  occ. eigenvalues --  -19.02978 -19.02964 -19.02614 -18.99639 -15.42812
 Alpha  occ. eigenvalues --  -14.58374 -14.40920 -14.39019 -14.38053 -14.37997
 Alpha  occ. eigenvalues --  -14.36438 -14.36354 -14.35923 -14.34352 -14.34177
 Alpha  occ. eigenvalues --  -14.31726 -14.31510 -14.29580 -14.28797 -14.28593
 Alpha  occ. eigenvalues --  -12.56441 -12.56388 -12.56370 -10.34277 -10.33825
 Alpha  occ. eigenvalues --  -10.31439 -10.30907 -10.30559 -10.29803 -10.29508
 Alpha  occ. eigenvalues --  -10.29220 -10.29213 -10.27454 -10.27100 -10.27002
 Alpha  occ. eigenvalues --  -10.27000 -10.26898 -10.26456 -10.26019 -10.25193
 Alpha  occ. eigenvalues --  -10.24501 -10.24035 -10.23507 -10.23394 -10.23357
 Alpha  occ. eigenvalues --  -10.23271 -10.23247 -10.22888 -10.22786 -10.22698
 Alpha  occ. eigenvalues --  -10.22645 -10.22118 -10.21985 -10.21834 -10.21563
 Alpha  occ. eigenvalues --  -10.21039 -10.20894 -10.20569 -10.20294 -10.19784
 Alpha  occ. eigenvalues --  -10.19483 -10.19312 -10.19135 -10.18849 -10.18646
 Alpha  occ. eigenvalues --  -10.18335 -10.18220 -10.18025 -10.17823 -10.17174
 Alpha  occ. eigenvalues --  -10.17133 -10.16910 -10.16731 -10.16664 -10.16402
 Alpha  occ. eigenvalues --  -10.15273 -10.14235  -1.79702  -1.13683  -1.08965
 Alpha  occ. eigenvalues --   -1.07682  -1.07538  -1.07185  -1.05859  -1.05838
 Alpha  occ. eigenvalues --   -1.05532  -1.05053  -1.04733  -1.04642  -1.03604
 Alpha  occ. eigenvalues --   -1.03380  -1.03007  -1.02540  -1.01406  -1.00793
 Alpha  occ. eigenvalues --   -0.99284  -0.98401  -0.98204  -0.97932  -0.97568
 Alpha  occ. eigenvalues --   -0.96607  -0.96103  -0.95941  -0.95644  -0.95313
 Alpha  occ. eigenvalues --   -0.94945  -0.94636  -0.93450  -0.92451  -0.91421
 Alpha  occ. eigenvalues --   -0.91097  -0.90715  -0.89275  -0.88954  -0.88843
 Alpha  occ. eigenvalues --   -0.88376  -0.86909  -0.85716  -0.85276  -0.84996
 Alpha  occ. eigenvalues --   -0.83799  -0.82946  -0.82687  -0.81574  -0.80991
 Alpha  occ. eigenvalues --   -0.79797  -0.79000  -0.77668  -0.77404  -0.76110
 Alpha  occ. eigenvalues --   -0.75382  -0.74958  -0.74139  -0.74037  -0.72960
 Alpha  occ. eigenvalues --   -0.72774  -0.72465  -0.71995  -0.71517  -0.70966
 Alpha  occ. eigenvalues --   -0.70227  -0.69818  -0.69101  -0.68729  -0.67860
 Alpha  occ. eigenvalues --   -0.67573  -0.67384  -0.66644  -0.65098  -0.64780
 Alpha  occ. eigenvalues --   -0.64051  -0.63862  -0.63600  -0.63071  -0.62304
 Alpha  occ. eigenvalues --   -0.62080  -0.61523  -0.61029  -0.60952  -0.60741
 Alpha  occ. eigenvalues --   -0.59860  -0.59759  -0.59606  -0.59371  -0.58903
 Alpha  occ. eigenvalues --   -0.58347  -0.58052  -0.57398  -0.57114  -0.56999
 Alpha  occ. eigenvalues --   -0.56232  -0.55758  -0.55673  -0.55076  -0.54719
 Alpha  occ. eigenvalues --   -0.54508  -0.54124  -0.53802  -0.53328  -0.53045
 Alpha  occ. eigenvalues --   -0.52878  -0.52739  -0.52486  -0.52098  -0.51942
 Alpha  occ. eigenvalues --   -0.51501  -0.51341  -0.51057  -0.50731  -0.50529
 Alpha  occ. eigenvalues --   -0.49987  -0.49933  -0.49691  -0.49470  -0.49136
 Alpha  occ. eigenvalues --   -0.48983  -0.48811  -0.48295  -0.48089  -0.47860
 Alpha  occ. eigenvalues --   -0.47624  -0.47559  -0.47298  -0.47177  -0.46916
 Alpha  occ. eigenvalues --   -0.46833  -0.46586  -0.46423  -0.46396  -0.46335
 Alpha  occ. eigenvalues --   -0.46214  -0.45876  -0.45629  -0.45517  -0.45399
 Alpha  occ. eigenvalues --   -0.45081  -0.44855  -0.44616  -0.44436  -0.44349
 Alpha  occ. eigenvalues --   -0.44225  -0.43991  -0.43635  -0.43599  -0.43544
 Alpha  occ. eigenvalues --   -0.43365  -0.43196  -0.43085  -0.42922  -0.42893
 Alpha  occ. eigenvalues --   -0.42809  -0.42425  -0.42391  -0.42040  -0.41884
 Alpha  occ. eigenvalues --   -0.41719  -0.41448  -0.41405  -0.41286  -0.41268
 Alpha  occ. eigenvalues --   -0.41149  -0.40795  -0.40665  -0.40482  -0.40420
 Alpha  occ. eigenvalues --   -0.40251  -0.40202  -0.40090  -0.39934  -0.39835
 Alpha  occ. eigenvalues --   -0.39727  -0.39661  -0.39277  -0.39115  -0.39045
 Alpha  occ. eigenvalues --   -0.38820  -0.38786  -0.38688  -0.38522  -0.38276
 Alpha  occ. eigenvalues --   -0.38195  -0.38051  -0.37956  -0.37837  -0.37541
 Alpha  occ. eigenvalues --   -0.37371  -0.37230  -0.37104  -0.36979  -0.36676
 Alpha  occ. eigenvalues --   -0.36567  -0.36460  -0.36359  -0.36169  -0.36112
 Alpha  occ. eigenvalues --   -0.36004  -0.35887  -0.35106  -0.35051  -0.34819
 Alpha  occ. eigenvalues --   -0.34802  -0.34547  -0.34498  -0.34365  -0.34288
 Alpha  occ. eigenvalues --   -0.34017  -0.33179  -0.32931  -0.32813  -0.32678
 Alpha  occ. eigenvalues --   -0.32462  -0.32147  -0.32012  -0.31619  -0.31359
 Alpha  occ. eigenvalues --   -0.31342  -0.30798  -0.30557  -0.30428  -0.30325
 Alpha  occ. eigenvalues --   -0.30077  -0.30021  -0.29569  -0.29091  -0.28691
 Alpha  occ. eigenvalues --   -0.28621  -0.28297  -0.28263  -0.27967  -0.27916
 Alpha  occ. eigenvalues --   -0.27792  -0.26914  -0.26863  -0.26498  -0.26185
 Alpha  occ. eigenvalues --   -0.26057  -0.25791  -0.24959  -0.24222  -0.24065
 Alpha  occ. eigenvalues --   -0.23820  -0.23426  -0.22975  -0.22393  -0.22303
 Alpha  occ. eigenvalues --   -0.22085  -0.21712  -0.21133  -0.20687  -0.20331
 Alpha  occ. eigenvalues --   -0.19976  -0.19677  -0.19244  -0.18998  -0.18630
 Alpha  occ. eigenvalues --   -0.18362  -0.17864  -0.15609
 Alpha virt. eigenvalues --   -0.09890  -0.04196  -0.03887  -0.03877  -0.03028
 Alpha virt. eigenvalues --   -0.02009  -0.01399  -0.01050  -0.00990  -0.00406
 Alpha virt. eigenvalues --    0.00374   0.00604   0.00776   0.01531   0.01658
 Alpha virt. eigenvalues --    0.01876   0.02233   0.02363   0.02712   0.02728
 Alpha virt. eigenvalues --    0.03289   0.03674   0.03718   0.04071   0.04240
 Alpha virt. eigenvalues --    0.04340   0.04475   0.04901   0.05564   0.05965
 Alpha virt. eigenvalues --    0.06278   0.06533   0.06606   0.06660   0.06731
 Alpha virt. eigenvalues --    0.06965   0.07128   0.07149   0.07409   0.07611
 Alpha virt. eigenvalues --    0.07907   0.08038   0.08231   0.08374   0.08818
 Alpha virt. eigenvalues --    0.09012   0.09247   0.09410   0.09508   0.09600
 Alpha virt. eigenvalues --    0.09667   0.09839   0.10086   0.10222   0.10365
 Alpha virt. eigenvalues --    0.10677   0.10763   0.10869   0.10989   0.11294
 Alpha virt. eigenvalues --    0.11304   0.11632   0.11813   0.11983   0.12216
 Alpha virt. eigenvalues --    0.12250   0.12390   0.12588   0.12734   0.12893
 Alpha virt. eigenvalues --    0.13116   0.13324   0.13658   0.13749   0.14089
 Alpha virt. eigenvalues --    0.14142   0.14394   0.14521   0.14686   0.14890
 Alpha virt. eigenvalues --    0.14965   0.15233   0.15382   0.15610   0.15924
 Alpha virt. eigenvalues --    0.16052   0.16164   0.16277   0.16425   0.16781
 Alpha virt. eigenvalues --    0.16923   0.17077   0.17166   0.17404   0.17683
 Alpha virt. eigenvalues --    0.17865   0.17983   0.18165   0.18291   0.18312
 Alpha virt. eigenvalues --    0.18455   0.18602   0.18737   0.18820   0.19042
 Alpha virt. eigenvalues --    0.19342   0.19435   0.19675   0.19880   0.20130
 Alpha virt. eigenvalues --    0.20315   0.20400   0.20570   0.20782   0.21076
 Alpha virt. eigenvalues --    0.21133   0.21359   0.21771   0.21877   0.22090
 Alpha virt. eigenvalues --    0.22238   0.22434   0.22506   0.23057   0.23197
 Alpha virt. eigenvalues --    0.23611   0.23849   0.24168   0.24316   0.24511
 Alpha virt. eigenvalues --    0.24617   0.24707   0.25128   0.25269   0.25399
 Alpha virt. eigenvalues --    0.25476   0.25762   0.25915   0.26205   0.26441
 Alpha virt. eigenvalues --    0.26613   0.26734   0.26965   0.27295   0.27589
 Alpha virt. eigenvalues --    0.27959   0.28051   0.28103   0.28517   0.28908
 Alpha virt. eigenvalues --    0.29107   0.29419   0.29548   0.29768   0.29927
 Alpha virt. eigenvalues --    0.30167   0.30557   0.30891   0.31206   0.31251
 Alpha virt. eigenvalues --    0.31520   0.31773   0.32170   0.32350   0.32753
 Alpha virt. eigenvalues --    0.33056   0.33181   0.33444   0.33912   0.34195
 Alpha virt. eigenvalues --    0.34223   0.34731   0.34949   0.34965   0.35265
 Alpha virt. eigenvalues --    0.35414   0.35967   0.36213   0.36439   0.36808
 Alpha virt. eigenvalues --    0.36899   0.37106   0.37295   0.37677   0.37812
 Alpha virt. eigenvalues --    0.38205   0.38381   0.38524   0.38823   0.39218
 Alpha virt. eigenvalues --    0.39330   0.39950   0.40001   0.40157   0.40403
 Alpha virt. eigenvalues --    0.40663   0.40779   0.41207   0.41293   0.41593
 Alpha virt. eigenvalues --    0.41636   0.41931   0.42055   0.42228   0.42539
 Alpha virt. eigenvalues --    0.42808   0.42872   0.43328   0.43432   0.43633
 Alpha virt. eigenvalues --    0.43739   0.43977   0.44272   0.44562   0.44758
 Alpha virt. eigenvalues --    0.45072   0.45174   0.45366   0.45616   0.45809
 Alpha virt. eigenvalues --    0.45965   0.46063   0.46501   0.46653   0.46941
 Alpha virt. eigenvalues --    0.47160   0.47286   0.47326   0.47524   0.47782
 Alpha virt. eigenvalues --    0.48046   0.48315   0.48557   0.48749   0.48878
 Alpha virt. eigenvalues --    0.48985   0.49333   0.49423   0.49598   0.49945
 Alpha virt. eigenvalues --    0.50002   0.50382   0.50614   0.50720   0.50943
 Alpha virt. eigenvalues --    0.51011   0.51406   0.51723   0.51821   0.52046
 Alpha virt. eigenvalues --    0.52108   0.52317   0.52682   0.52801   0.52962
 Alpha virt. eigenvalues --    0.53159   0.53370   0.53812   0.53896   0.54081
 Alpha virt. eigenvalues --    0.54213   0.54395   0.54537   0.54668   0.54868
 Alpha virt. eigenvalues --    0.55049   0.55112   0.55323   0.55492   0.55735
 Alpha virt. eigenvalues --    0.55916   0.56042   0.56310   0.56486   0.56630
 Alpha virt. eigenvalues --    0.56787   0.56847   0.56974   0.56985   0.57235
 Alpha virt. eigenvalues --    0.57516   0.57719   0.57890   0.58110   0.58173
 Alpha virt. eigenvalues --    0.58274   0.58356   0.58521   0.58681   0.59051
 Alpha virt. eigenvalues --    0.59185   0.59468   0.59580   0.59729   0.59770
 Alpha virt. eigenvalues --    0.60182   0.60266   0.60430   0.60496   0.60723
 Alpha virt. eigenvalues --    0.60856   0.60985   0.61128   0.61274   0.61417
 Alpha virt. eigenvalues --    0.61471   0.61791   0.62005   0.62101   0.62290
 Alpha virt. eigenvalues --    0.62367   0.62602   0.62762   0.62861   0.62918
 Alpha virt. eigenvalues --    0.63110   0.63324   0.63397   0.63439   0.63445
 Alpha virt. eigenvalues --    0.63664   0.63699   0.63801   0.63897   0.63964
 Alpha virt. eigenvalues --    0.64138   0.64272   0.64322   0.64433   0.64506
 Alpha virt. eigenvalues --    0.64692   0.64788   0.64925   0.64970   0.65133
 Alpha virt. eigenvalues --    0.65180   0.65271   0.65434   0.65500   0.65592
 Alpha virt. eigenvalues --    0.65683   0.65854   0.65935   0.66048   0.66153
 Alpha virt. eigenvalues --    0.66278   0.66396   0.66411   0.66560   0.66800
 Alpha virt. eigenvalues --    0.66943   0.67148   0.67245   0.67383   0.67521
 Alpha virt. eigenvalues --    0.67638   0.67766   0.67946   0.68103   0.68164
 Alpha virt. eigenvalues --    0.68208   0.68387   0.68503   0.68639   0.68804
 Alpha virt. eigenvalues --    0.69053   0.69088   0.69129   0.69330   0.69381
 Alpha virt. eigenvalues --    0.69453   0.69585   0.69628   0.69789   0.69971
 Alpha virt. eigenvalues --    0.70134   0.70258   0.70525   0.70649   0.70739
 Alpha virt. eigenvalues --    0.70882   0.71078   0.71157   0.71304   0.71504
 Alpha virt. eigenvalues --    0.71545   0.71719   0.71809   0.71981   0.72174
 Alpha virt. eigenvalues --    0.72293   0.72477   0.72507   0.72695   0.72867
 Alpha virt. eigenvalues --    0.73234   0.73416   0.73505   0.73579   0.73823
 Alpha virt. eigenvalues --    0.73933   0.73975   0.74248   0.74440   0.74478
 Alpha virt. eigenvalues --    0.74766   0.74999   0.75083   0.75336   0.75577
 Alpha virt. eigenvalues --    0.75816   0.76006   0.76310   0.76454   0.76595
 Alpha virt. eigenvalues --    0.76729   0.77094   0.77258   0.77759   0.77944
 Alpha virt. eigenvalues --    0.78093   0.78334   0.78672   0.78973   0.79179
 Alpha virt. eigenvalues --    0.79591   0.79707   0.79954   0.80127   0.80510
 Alpha virt. eigenvalues --    0.80692   0.80910   0.81153   0.81238   0.81562
 Alpha virt. eigenvalues --    0.81864   0.82112   0.82444   0.82505   0.82993
 Alpha virt. eigenvalues --    0.83401   0.83515   0.83815   0.83975   0.84009
 Alpha virt. eigenvalues --    0.84548   0.84789   0.85008   0.85053   0.85461
 Alpha virt. eigenvalues --    0.85665   0.86296   0.86486   0.86685   0.87058
 Alpha virt. eigenvalues --    0.87436   0.87720   0.88108   0.88445   0.88606
 Alpha virt. eigenvalues --    0.89025   0.89423   0.89525   0.89830   0.90019
 Alpha virt. eigenvalues --    0.90258   0.90767   0.91368   0.91485   0.91836
 Alpha virt. eigenvalues --    0.91949   0.92308   0.92584   0.92999   0.93200
 Alpha virt. eigenvalues --    0.93592   0.93878   0.94152   0.94501   0.94657
 Alpha virt. eigenvalues --    0.94922   0.95183   0.95345   0.95559   0.95792
 Alpha virt. eigenvalues --    0.96020   0.96302   0.96652   0.96905   0.97208
 Alpha virt. eigenvalues --    0.97480   0.97706   0.98181   0.98732   0.98924
 Alpha virt. eigenvalues --    0.98974   0.99189   0.99530   0.99638   0.99905
 Alpha virt. eigenvalues --    1.00243   1.00467   1.00565   1.01149   1.01215
 Alpha virt. eigenvalues --    1.01678   1.01874   1.02086   1.02345   1.02380
 Alpha virt. eigenvalues --    1.02904   1.03191   1.03671   1.03794   1.04244
 Alpha virt. eigenvalues --    1.04615   1.04800   1.05020   1.05229   1.05489
 Alpha virt. eigenvalues --    1.05586   1.06259   1.06551   1.06786   1.06810
 Alpha virt. eigenvalues --    1.07106   1.07271   1.07477   1.07837   1.08009
 Alpha virt. eigenvalues --    1.08363   1.08930   1.09473   1.09703   1.09951
 Alpha virt. eigenvalues --    1.10301   1.10466   1.10641   1.11011   1.11207
 Alpha virt. eigenvalues --    1.11346   1.11450   1.11723   1.11792   1.12044
 Alpha virt. eigenvalues --    1.12459   1.12811   1.13018   1.13596   1.13872
 Alpha virt. eigenvalues --    1.14042   1.14373   1.14411   1.14805   1.15123
 Alpha virt. eigenvalues --    1.15626   1.15866   1.16160   1.16292   1.16345
 Alpha virt. eigenvalues --    1.16746   1.17051   1.17247   1.17439   1.18079
 Alpha virt. eigenvalues --    1.18145   1.18417   1.19071   1.19190   1.19632
 Alpha virt. eigenvalues --    1.20166   1.20255   1.20810   1.20850   1.21088
 Alpha virt. eigenvalues --    1.21304   1.21534   1.21987   1.22139   1.22278
 Alpha virt. eigenvalues --    1.22540   1.22748   1.23144   1.23207   1.23322
 Alpha virt. eigenvalues --    1.23543   1.23685   1.23920   1.24052   1.24809
 Alpha virt. eigenvalues --    1.24827   1.25215   1.25240   1.25670   1.25765
 Alpha virt. eigenvalues --    1.25998   1.26372   1.26523   1.26615   1.26796
 Alpha virt. eigenvalues --    1.27046   1.27399   1.27831   1.28084   1.28340
 Alpha virt. eigenvalues --    1.28530   1.28664   1.28890   1.29395   1.29439
 Alpha virt. eigenvalues --    1.29608   1.29682   1.30031   1.30412   1.30686
 Alpha virt. eigenvalues --    1.30798   1.31309   1.31494   1.31717   1.32174
 Alpha virt. eigenvalues --    1.32604   1.32624   1.32781   1.32975   1.33283
 Alpha virt. eigenvalues --    1.33561   1.33904   1.34239   1.34512   1.34824
 Alpha virt. eigenvalues --    1.35331   1.35592   1.35950   1.36221   1.36531
 Alpha virt. eigenvalues --    1.36724   1.37050   1.37460   1.37678   1.38030
 Alpha virt. eigenvalues --    1.38430   1.38503   1.38748   1.38897   1.39154
 Alpha virt. eigenvalues --    1.39359   1.39788   1.39884   1.40039   1.40194
 Alpha virt. eigenvalues --    1.40675   1.41049   1.41175   1.41523   1.41802
 Alpha virt. eigenvalues --    1.42222   1.42542   1.42605   1.43148   1.43379
 Alpha virt. eigenvalues --    1.43689   1.44060   1.44313   1.44751   1.44941
 Alpha virt. eigenvalues --    1.45287   1.45632   1.45998   1.46321   1.46830
 Alpha virt. eigenvalues --    1.46941   1.47140   1.47654   1.47878   1.48240
 Alpha virt. eigenvalues --    1.48330   1.48916   1.49282   1.49456   1.49697
 Alpha virt. eigenvalues --    1.49922   1.50046   1.50316   1.50578   1.50760
 Alpha virt. eigenvalues --    1.51508   1.51813   1.52076   1.52231   1.52429
 Alpha virt. eigenvalues --    1.52978   1.53183   1.53690   1.53875   1.54071
 Alpha virt. eigenvalues --    1.54370   1.54612   1.54885   1.55284   1.55361
 Alpha virt. eigenvalues --    1.55690   1.56203   1.56292   1.56904   1.57564
 Alpha virt. eigenvalues --    1.58165   1.58524   1.58689   1.59152   1.59671
 Alpha virt. eigenvalues --    1.59863   1.59939   1.60426   1.60766   1.61108
 Alpha virt. eigenvalues --    1.61320   1.62040   1.62068   1.62199   1.62484
 Alpha virt. eigenvalues --    1.63492   1.63547   1.63892   1.63997   1.64060
 Alpha virt. eigenvalues --    1.64402   1.64522   1.64709   1.64923   1.65786
 Alpha virt. eigenvalues --    1.66035   1.66254   1.66835   1.66924   1.67619
 Alpha virt. eigenvalues --    1.67657   1.67831   1.68109   1.68671   1.68856
 Alpha virt. eigenvalues --    1.69142   1.69293   1.69535   1.69740   1.69979
 Alpha virt. eigenvalues --    1.70270   1.70560   1.70924   1.71075   1.71516
 Alpha virt. eigenvalues --    1.71615   1.71811   1.71913   1.72157   1.72432
 Alpha virt. eigenvalues --    1.72707   1.72872   1.73226   1.73384   1.73569
 Alpha virt. eigenvalues --    1.73694   1.73873   1.74004   1.74126   1.74365
 Alpha virt. eigenvalues --    1.74617   1.74816   1.74909   1.74997   1.75234
 Alpha virt. eigenvalues --    1.75336   1.75647   1.75801   1.75902   1.76259
 Alpha virt. eigenvalues --    1.76353   1.76507   1.76730   1.76852   1.77011
 Alpha virt. eigenvalues --    1.77162   1.77281   1.77311   1.77395   1.77636
 Alpha virt. eigenvalues --    1.77717   1.77830   1.78032   1.78303   1.78469
 Alpha virt. eigenvalues --    1.78553   1.78696   1.78782   1.78987   1.79159
 Alpha virt. eigenvalues --    1.79451   1.79508   1.79898   1.80144   1.80196
 Alpha virt. eigenvalues --    1.80396   1.80558   1.80723   1.80868   1.81036
 Alpha virt. eigenvalues --    1.81178   1.81230   1.81287   1.81473   1.81528
 Alpha virt. eigenvalues --    1.81617   1.81765   1.81842   1.82002   1.82122
 Alpha virt. eigenvalues --    1.82558   1.82675   1.83142   1.83369   1.83520
 Alpha virt. eigenvalues --    1.83756   1.83948   1.84018   1.84276   1.84415
 Alpha virt. eigenvalues --    1.84490   1.84738   1.84849   1.85165   1.85346
 Alpha virt. eigenvalues --    1.85650   1.85766   1.85986   1.86156   1.86410
 Alpha virt. eigenvalues --    1.86668   1.86770   1.86838   1.87291   1.87345
 Alpha virt. eigenvalues --    1.87487   1.87645   1.87784   1.88129   1.88199
 Alpha virt. eigenvalues --    1.88702   1.88831   1.89066   1.89158   1.89193
 Alpha virt. eigenvalues --    1.89419   1.89661   1.89972   1.90270   1.90672
 Alpha virt. eigenvalues --    1.90845   1.90928   1.91151   1.91535   1.91754
 Alpha virt. eigenvalues --    1.92140   1.92304   1.92351   1.92625   1.92828
 Alpha virt. eigenvalues --    1.93210   1.93422   1.93593   1.93932   1.94106
 Alpha virt. eigenvalues --    1.94169   1.94293   1.94438   1.94626   1.94803
 Alpha virt. eigenvalues --    1.94966   1.95143   1.95326   1.95470   1.96127
 Alpha virt. eigenvalues --    1.96426   1.96490   1.96736   1.96930   1.96969
 Alpha virt. eigenvalues --    1.97310   1.97346   1.97495   1.97751   1.97795
 Alpha virt. eigenvalues --    1.97844   1.98076   1.98403   1.98655   1.99251
 Alpha virt. eigenvalues --    1.99352   1.99415   1.99725   1.99990   2.00148
 Alpha virt. eigenvalues --    2.00336   2.00528   2.00752   2.01197   2.01313
 Alpha virt. eigenvalues --    2.01597   2.01666   2.02044   2.02078   2.02478
 Alpha virt. eigenvalues --    2.02687   2.03179   2.03528   2.03734   2.03988
 Alpha virt. eigenvalues --    2.04217   2.04523   2.04805   2.05220   2.05380
 Alpha virt. eigenvalues --    2.05534   2.05605   2.06038   2.06300   2.06632
 Alpha virt. eigenvalues --    2.06717   2.07045   2.07374   2.07725   2.07892
 Alpha virt. eigenvalues --    2.08163   2.08303   2.08442   2.08731   2.09015
 Alpha virt. eigenvalues --    2.09186   2.09324   2.09596   2.09902   2.10206
 Alpha virt. eigenvalues --    2.10498   2.10631   2.11061   2.11502   2.11841
 Alpha virt. eigenvalues --    2.12210   2.12514   2.13068   2.13127   2.13574
 Alpha virt. eigenvalues --    2.13729   2.14408   2.14575   2.14829   2.15042
 Alpha virt. eigenvalues --    2.15182   2.15271   2.15758   2.15925   2.16115
 Alpha virt. eigenvalues --    2.16233   2.16736   2.16770   2.17174   2.17841
 Alpha virt. eigenvalues --    2.17929   2.18129   2.18347   2.18950   2.19343
 Alpha virt. eigenvalues --    2.19814   2.20260   2.20411   2.20746   2.20831
 Alpha virt. eigenvalues --    2.21352   2.21744   2.21985   2.22285   2.22408
 Alpha virt. eigenvalues --    2.22688   2.23010   2.23044   2.23668   2.23904
 Alpha virt. eigenvalues --    2.24461   2.24778   2.25154   2.25347   2.25613
 Alpha virt. eigenvalues --    2.25891   2.26112   2.26443   2.26764   2.27356
 Alpha virt. eigenvalues --    2.27681   2.27904   2.28427   2.28792   2.28965
 Alpha virt. eigenvalues --    2.29160   2.29364   2.30113   2.30732   2.31287
 Alpha virt. eigenvalues --    2.31424   2.32109   2.32229   2.32497   2.32649
 Alpha virt. eigenvalues --    2.32838   2.33134   2.33481   2.33723   2.34228
 Alpha virt. eigenvalues --    2.34672   2.35067   2.35207   2.35456   2.35590
 Alpha virt. eigenvalues --    2.35709   2.35968   2.36306   2.36870   2.37024
 Alpha virt. eigenvalues --    2.37464   2.37651   2.38078   2.38242   2.38607
 Alpha virt. eigenvalues --    2.38971   2.39158   2.39505   2.39953   2.40297
 Alpha virt. eigenvalues --    2.40544   2.40645   2.40932   2.41008   2.41370
 Alpha virt. eigenvalues --    2.41420   2.41771   2.42056   2.42183   2.42884
 Alpha virt. eigenvalues --    2.43239   2.43581   2.43859   2.43952   2.44386
 Alpha virt. eigenvalues --    2.44902   2.44925   2.45620   2.45805   2.46257
 Alpha virt. eigenvalues --    2.46938   2.47237   2.47547   2.47695   2.47960
 Alpha virt. eigenvalues --    2.48270   2.48834   2.48975   2.49274   2.49909
 Alpha virt. eigenvalues --    2.50027   2.50221   2.50681   2.51292   2.51558
 Alpha virt. eigenvalues --    2.51852   2.53009   2.53109   2.53557   2.53687
 Alpha virt. eigenvalues --    2.54067   2.54217   2.54744   2.55195   2.55260
 Alpha virt. eigenvalues --    2.55298   2.55452   2.55793   2.56071   2.56349
 Alpha virt. eigenvalues --    2.56641   2.56932   2.57052   2.57513   2.58078
 Alpha virt. eigenvalues --    2.58301   2.58594   2.58774   2.59329   2.60046
 Alpha virt. eigenvalues --    2.60188   2.60444   2.60833   2.61488   2.61879
 Alpha virt. eigenvalues --    2.62108   2.62238   2.62454   2.62718   2.63168
 Alpha virt. eigenvalues --    2.63418   2.63603   2.63711   2.64150   2.64298
 Alpha virt. eigenvalues --    2.64660   2.65385   2.65510   2.65687   2.65907
 Alpha virt. eigenvalues --    2.66260   2.66483   2.66823   2.67052   2.67165
 Alpha virt. eigenvalues --    2.67407   2.67970   2.68392   2.68692   2.69003
 Alpha virt. eigenvalues --    2.69461   2.69595   2.69763   2.69925   2.70124
 Alpha virt. eigenvalues --    2.70546   2.70775   2.71050   2.71339   2.71662
 Alpha virt. eigenvalues --    2.72033   2.72082   2.72375   2.72560   2.72651
 Alpha virt. eigenvalues --    2.73177   2.73224   2.74008   2.74114   2.74403
 Alpha virt. eigenvalues --    2.74990   2.75194   2.75462   2.75605   2.75905
 Alpha virt. eigenvalues --    2.76179   2.76261   2.76620   2.76686   2.77203
 Alpha virt. eigenvalues --    2.77333   2.77784   2.78095   2.78269   2.78405
 Alpha virt. eigenvalues --    2.78453   2.78519   2.78772   2.79208   2.79773
 Alpha virt. eigenvalues --    2.80269   2.80459   2.80583   2.81073   2.81162
 Alpha virt. eigenvalues --    2.81407   2.81820   2.82055   2.82508   2.82690
 Alpha virt. eigenvalues --    2.82920   2.83059   2.83377   2.83844   2.83938
 Alpha virt. eigenvalues --    2.84199   2.84608   2.84703   2.85393   2.85624
 Alpha virt. eigenvalues --    2.85787   2.86232   2.86632   2.87141   2.87431
 Alpha virt. eigenvalues --    2.87602   2.87854   2.88128   2.88461   2.88792
 Alpha virt. eigenvalues --    2.88996   2.89373   2.89536   2.89707   2.90021
 Alpha virt. eigenvalues --    2.90212   2.90511   2.90708   2.90960   2.91597
 Alpha virt. eigenvalues --    2.91684   2.92215   2.92286   2.92829   2.93013
 Alpha virt. eigenvalues --    2.93571   2.93750   2.93818   2.93985   2.94141
 Alpha virt. eigenvalues --    2.94454   2.94924   2.95122   2.95481   2.95659
 Alpha virt. eigenvalues --    2.96093   2.96496   2.97580   2.98043   2.98218
 Alpha virt. eigenvalues --    2.98586   2.98798   2.98910   2.99403   2.99915
 Alpha virt. eigenvalues --    3.00160   3.00669   3.01107   3.01538   3.01963
 Alpha virt. eigenvalues --    3.02236   3.02515   3.02711   3.03370   3.03486
 Alpha virt. eigenvalues --    3.03749   3.03804   3.03992   3.04204   3.04758
 Alpha virt. eigenvalues --    3.05386   3.05832   3.06050   3.06279   3.06682
 Alpha virt. eigenvalues --    3.06741   3.07034   3.07438   3.07496   3.08276
 Alpha virt. eigenvalues --    3.08682   3.08991   3.09398   3.10327   3.10890
 Alpha virt. eigenvalues --    3.11034   3.11257   3.11522   3.11826   3.12401
 Alpha virt. eigenvalues --    3.13006   3.13149   3.14454   3.14976   3.15922
 Alpha virt. eigenvalues --    3.16114   3.16314   3.16587   3.16909   3.16941
 Alpha virt. eigenvalues --    3.18075   3.18558   3.19241   3.19283   3.19420
 Alpha virt. eigenvalues --    3.20051   3.20454   3.20599   3.20798   3.21207
 Alpha virt. eigenvalues --    3.21214   3.22087   3.22222   3.22752   3.23289
 Alpha virt. eigenvalues --    3.23676   3.23864   3.24247   3.25068   3.25427
 Alpha virt. eigenvalues --    3.26040   3.27197   3.27543   3.28694   3.29054
 Alpha virt. eigenvalues --    3.29507   3.29578   3.30190   3.30663   3.31566
 Alpha virt. eigenvalues --    3.31863   3.31978   3.32714   3.32960   3.33696
 Alpha virt. eigenvalues --    3.34568   3.34766   3.35523   3.37272   3.39621
 Alpha virt. eigenvalues --    3.40636   3.41511   3.47328   3.48241   3.50886
 Alpha virt. eigenvalues --    3.51417   3.51728   3.52863   3.53491   3.55237
 Alpha virt. eigenvalues --    3.55694   3.56042   3.56236   3.57178   3.60309
 Alpha virt. eigenvalues --    3.60825   3.61926   3.62304   3.63552   3.65131
 Alpha virt. eigenvalues --    3.65617   3.66376   3.66628   3.66968   3.67440
 Alpha virt. eigenvalues --    3.67564   3.69220   3.70006   3.70337   3.70580
 Alpha virt. eigenvalues --    3.70879   3.71110   3.71314   3.72133   3.72427
 Alpha virt. eigenvalues --    3.72592   3.73538   3.74579   3.75592   3.76305
 Alpha virt. eigenvalues --    3.79265   3.81248   3.82169   3.84409
          Condensed to atoms (all electrons):
 Mulliken charges:
               1
     1  C    0.046080
     2  C    0.039214
     3  O   -0.290564
     4  H    0.033822
     5  H    0.039236
     6  H    0.019137
     7  N   -0.121233
     8  C    0.060621
     9  C    0.079848
    10  O   -0.281448
    11  C    0.097155
    12  C    0.157126
    13  O   -0.374359
    14  O   -0.468535
    15  H    0.117512
    16  H    0.015349
    17  H    0.006104
    18  H   -0.001735
    19  N   -0.148748
    20  C    0.188276
    21  C    0.037610
    22  O   -0.261772
    23  C   -0.069759
    24  C    0.071932
    25  C   -0.064725
    26  C    0.005161
    27  N    0.094777
    28  H    0.141435
    29  H   -0.009412
    30  H    0.011758
    31  H    0.030408
    32  H    0.041781
    33  H    0.011560
    34  H    0.020169
    35  H    0.034884
    36  H    0.072230
    37  H    0.088930
    38  H    0.189885
    39  H    0.196792
    40  H    0.186818
    41  N   -0.182727
    42  C    0.152119
    43  C    0.050321
    44  O   -0.287194
    45  C    0.067881
    46  C    0.112138
    47  O   -0.375475
    48  O   -0.482401
    49  H    0.142327
    50  H    0.001461
    51  H   -0.018337
    52  H    0.019853
    53  N   -0.161924
    54  C    0.231892
    55  C    0.052950
    56  O   -0.309302
    57  H    0.144617
    58  H    0.010981
    59  H    0.034079
    60  N   -0.177058
    61  C    0.167680
    62  C    0.048072
    63  O   -0.315151
    64  C    0.079306
    65  C    0.093201
    66  N   -0.031410
    67  O   -0.367074
    68  H    0.142203
    69  H    0.030017
    70  H    0.094641
    71  H    0.000054
    72  H    0.131053
    73  H    0.101690
    74  N   -0.146487
    75  C    0.227627
    76  C    0.022249
    77  O   -0.306403
    78  H    0.167920
    79  H    0.032197
    80  H    0.031151
    81  N   -0.149492
    82  C    0.120484
    83  C    0.134536
    84  O   -0.349204
    85  C    0.127553
    86  C   -0.004576
    87  C    0.036975
    88  C    0.009989
    89  C   -0.031011
    90  C   -0.035920
    91  C    0.148830
    92  O   -0.216510
    93  H    0.153219
    94  H   -0.009173
    95  H   -0.017670
    96  H   -0.021639
    97  H   -0.036992
    98  H   -0.036388
    99  H   -0.034037
   100  H   -0.046981
   101  H    0.174521
   102  N   -0.121016
   103  C    0.126222
   104  C    0.066459
   105  O   -0.272898
   106  C   -0.047347
   107  C   -0.000648
   108  C    0.037087
   109  C    0.039124
   110  H    0.136384
   111  H    0.025285
   112  H   -0.017169
   113  H    0.004036
   114  H   -0.001218
   115  H    0.018865
   116  H    0.001509
   117  H    0.016898
   118  H    0.011020
   119  H   -0.003093
   120  H    0.008753
   121  N   -0.164406
   122  C    0.060244
   123  C    0.119608
   124  O   -0.276578
   125  C    0.272166
   126  O   -0.331538
   127  H    0.174664
   128  H    0.017387
   129  H   -0.014622
   130  H   -0.022453
   131  H    0.171862
   132  N   -0.113609
   133  C    0.043093
   134  C    0.080011
   135  O   -0.236192
   136  C    0.017913
   137  H    0.122585
   138  H    0.020871
   139  H    0.038870
   140  H    0.044712
   141  H   -0.001872
   142  N   -0.152205
   143  C    0.077215
   144  C    0.072738
   145  O   -0.270669
   146  C    0.041776
   147  H    0.108633
   148  H    0.025412
   149  H    0.042244
   150  H    0.009704
   151  H    0.018246
   152  N   -0.152243
   153  C    0.149227
   154  C    0.066914
   155  O   -0.292666
   156  C   -0.039480
   157  C    0.126824
   158  C    0.143828
   159  O   -0.454196
   160  O   -0.381968
   161  H    0.130907
   162  H   -0.052007
   163  H    0.018417
   164  H    0.011290
   165  H   -0.024903
   166  H   -0.034949
   167  N   -0.156713
   168  C    0.128990
   169  H    0.030538
   170  H    0.032557
   171  H    0.011814
   172  H    0.133643
   173  Ca   1.293953
   174  O   -0.273153
   175  H    0.192782
   176  H    0.177963
 Sum of Mulliken charges =  -0.00000
 Mulliken charges with hydrogens summed into heavy atoms:
               1
     1  C    0.138276
     2  C    0.039214
     3  O   -0.290564
     7  N   -0.003721
     8  C    0.075971
     9  C    0.079848
    10  O   -0.281448
    11  C    0.101524
    12  C    0.157126
    13  O   -0.374359
    14  O   -0.468535
    19  N   -0.007313
    20  C    0.178864
    21  C    0.037610
    22  O   -0.261772
    23  C   -0.027593
    24  C    0.125273
    25  C   -0.009672
    26  C    0.166321
    27  N    0.668272
    41  N   -0.040400
    42  C    0.153580
    43  C    0.050321
    44  O   -0.287194
    45  C    0.069397
    46  C    0.112138
    47  O   -0.375475
    48  O   -0.482401
    53  N   -0.017307
    54  C    0.276952
    55  C    0.052950
    56  O   -0.309302
    60  N   -0.034855
    61  C    0.197697
    62  C    0.048072
    63  O   -0.315151
    64  C    0.174001
    65  C    0.093201
    66  N    0.201333
    67  O   -0.367074
    74  N    0.021433
    75  C    0.290975
    76  C    0.022249
    77  O   -0.306403
    81  N    0.003728
    82  C    0.111311
    83  C    0.134536
    84  O   -0.349204
    85  C    0.088243
    86  C   -0.004576
    87  C   -0.000018
    88  C   -0.026399
    89  C   -0.065048
    90  C   -0.082901
    91  C    0.148830
    92  O   -0.041989
   102  N    0.015367
   103  C    0.151507
   104  C    0.066459
   105  O   -0.272898
   106  C   -0.064516
   107  C    0.002171
   108  C    0.074359
   109  C    0.055803
   121  N    0.010258
   122  C    0.077631
   123  C    0.119608
   124  O   -0.276578
   125  C    0.235091
   126  O   -0.159676
   132  N    0.008976
   133  C    0.063965
   134  C    0.080011
   135  O   -0.236192
   136  C    0.099622
   142  N   -0.043572
   143  C    0.102627
   144  C    0.072738
   145  O   -0.270669
   146  C    0.111970
   152  N   -0.021336
   153  C    0.097220
   154  C    0.066914
   155  O   -0.292666
   156  C   -0.009773
   157  C    0.066972
   158  C    0.143828
   159  O   -0.454196
   160  O   -0.381968
   167  N   -0.023071
   168  C    0.203899
   173  Ca   1.293953
   174  O    0.097592
 DipInt: DoE/N= T F RetVal/Mat= T F Init=T NMatP=  1 IDeriv=0 Min/MaxMlt=  0  4
 Entering OneElI...
 OneElI was handed  1333951383 working-precision words.
 Multipole integrals L=0 to 4 MinM= 0 MaxM= 0.
 Requested accuracy = 0.1000D-12
 ShPair: Thresh= 1.00D-13 NBox=     0 BxSize= 0.00D+00 RnKept= 2.55D+01
         NSMCal=               327645 NSMKep=              164702
 PrmmSu-InSpLW:  IPartL=    0 NPrtUS=    1 NPrtUL=    1 DoSpLW=F IThBeg=    0 IThEnd=    0 NThAct=    1.
 PrsmSu:  NPrtUS=   1 ThrOK=F IAlg=1 NPAlg=1 LenDen=           0 ISkipM=0 DoSpLW=F IThBeg=    0 IThEnd=    0.
 Prism:   IPart=     0 DynPar=F LinDyn=F Incr=         512.
 PRISM was handed  1323713881 working-precision words and164702 shell-pairs
 IPart=  0 NShTot=      164702 NBatch=         378 AvBLen=       435.7
 PrsmSu-ThDecC:  IPartSL=    0    0 NPrtUSL=    1    1 IThBeg=    0 IThEnd=    0 CPU=   -1 GPU=   -1 NThAct=    1.
 PrSmSu:  NxtVal=            513.
 Electronic moments (au):
       -716.00000000         14.97054205         -0.65948077         -2.91816393
     -51176.48305004     -28762.15029043     -12232.22785544        101.12100154
        -18.89640365         21.20099772     -69013.56746111     -17439.24390680
     -17298.70519154      30492.39330089      87380.09133271      54081.63585874
     -11685.54137683       4141.69413427      12443.45411912     -12566.28708723
   -7218758.70628390   -2539976.37890762    -615657.93488000    -147786.46770247
     290745.80733355    -499009.67177023     -27246.37302934     -63734.13977467
      87515.74464097   -2094254.29105372    -681207.39212100    -332350.33273690
    -233578.55363299     -39199.12529124      81821.88053701
 Electronic spatial extent (au):  <R**2>=          92170.8612
 DipInt: DoE/N= F T RetVal/Mat= T F Init=T NMatP=  1 IDeriv=0 Min/MaxMlt=  0  4
 Nuclear    moments (au):
        716.00000000          0.00000000          0.00000000          0.00000000
      50731.95930901      28400.07880029      11843.83740526         -0.00000000
         -0.00000000         -0.00000000      70191.68708120      18169.48583175
      17410.18584893     -28365.75714060     -86958.18475726     -54884.69630010
      11960.95476998      -4401.02952531     -12765.08238469      12336.18422102
    7029167.73012734    2445467.48897137     574696.85969651     159799.99472292
    -292369.70728346     513284.59851746      25845.73868594      63825.48336198
     -84909.09220642    2059726.78807161     647833.62449639     309274.76227188
     235232.27717619      35736.45052597     -81105.19104496
 Total      moments (au):
         -0.00000000         14.97054205         -0.65948077         -2.91816393
       -444.52374103       -362.07149014       -388.39045018        101.12100154
        -18.89640365         21.20099772       1178.11962009        730.24192495
        111.48065739       2126.63616029        421.90657545       -803.06044136
        275.41339315       -259.33539104       -321.62826557       -230.10286621
    -189590.97615656     -94508.88993626     -40961.07518349      12013.52702046
      -1623.89994992      14274.92674723      -1400.63434340         91.34358732
       2606.65243455     -34527.50298211     -33373.76762461     -23075.57046502
       1653.72354320      -3462.67476527        716.68949206
 Traceless Quadrup. (au):
        -46.19518058         36.25707031          9.93811026        101.12100154
        -18.89640365         21.20099772
 Charge=             -0.0000 electrons
 Dipole moment (field-independent basis, Debye):
    X=             38.0513    Y=             -1.6762    Z=             -7.4172  Tot=             38.8037
 Quadrupole moment (field-independent basis, Debye-Ang):
   XX=           -597.8997   YY=           -486.9986   ZZ=           -522.3985
   XY=            136.0112   XZ=            -25.4163   YZ=             28.5161
 Traceless Quadrupole moment (field-independent basis, Debye-Ang):
   XX=            -62.1341   YY=             48.7670   ZZ=             13.3671
   XY=            136.0112   XZ=            -25.4163   YZ=             28.5161
 Octapole moment (field-independent basis, Debye-Ang**2):
  XXX=            838.5402  YYY=            519.7581  ZZZ=             79.3476  XYY=           1513.6577
  XXY=            300.2968  XXZ=           -571.5875  XZZ=            196.0286  YZZ=           -184.5849
  YYZ=           -228.9226  XYZ=           -163.7784
 Hexadecapole moment (field-independent basis, Debye-Ang**3):
 XXXX=         -71409.0528 YYYY=         -35596.5798 ZZZZ=         -15427.9051 XXXY=           4524.8703
 XXXZ=           -611.6386 YYYX=           5376.6219 YYYZ=           -527.5461 ZZZX=             34.4044
 ZZZY=            981.7903 XXYY=         -13004.7133 XXZZ=         -12570.1612 YYZZ=          -8691.3663
 XXYZ=            622.8716 YYXZ=          -1304.2094 ZZXY=            269.9396
 N-N= 2.194696191898D+04 E-N=-5.637362079582D+04  KE= 5.290315459183D+03
 Leave Link  601 at Wed Sep 18 16:11:25 2019, MaxMem=  1342177280 cpu:              49.0 elap:               1.2
 FitSet:  NAtFit=   176 NAtPot=   176 NAtFrz=     0 MDM=   180 TotChg=   0.00000
 Merz-Kollman atomic radii used.
 Read replacement radii for each type of atom:
 Rad(20) =   1.700000000000D+00
 Atom Element Radius
    1     6    1.50
    2     6    1.50
    3     8    1.40
    4     1    1.20
    5     1    1.20
    6     1    1.20
    7     7    1.50
    8     6    1.50
    9     6    1.50
   10     8    1.40
   11     6    1.50
   12     6    1.50
   13     8    1.40
   14     8    1.40
   15     1    1.20
   16     1    1.20
   17     1    1.20
   18     1    1.20
   19     7    1.50
   20     6    1.50
   21     6    1.50
   22     8    1.40
   23     6    1.50
   24     6    1.50
   25     6    1.50
   26     6    1.50
   27     7    1.50
   28     1    1.20
   29     1    1.20
   30     1    1.20
   31     1    1.20
   32     1    1.20
   33     1    1.20
   34     1    1.20
   35     1    1.20
   36     1    1.20
   37     1    1.20
   38     1    1.20
   39     1    1.20
   40     1    1.20
   41     7    1.50
   42     6    1.50
   43     6    1.50
   44     8    1.40
   45     6    1.50
   46     6    1.50
   47     8    1.40
   48     8    1.40
   49     1    1.20
   50     1    1.20
   51     1    1.20
   52     1    1.20
   53     7    1.50
   54     6    1.50
   55     6    1.50
   56     8    1.40
   57     1    1.20
   58     1    1.20
   59     1    1.20
   60     7    1.50
   61     6    1.50
   62     6    1.50
   63     8    1.40
   64     6    1.50
   65     6    1.50
   66     7    1.50
   67     8    1.40
   68     1    1.20
   69     1    1.20
   70     1    1.20
   71     1    1.20
   72     1    1.20
   73     1    1.20
   74     7    1.50
   75     6    1.50
   76     6    1.50
   77     8    1.40
   78     1    1.20
   79     1    1.20
   80     1    1.20
   81     7    1.50
   82     6    1.50
   83     6    1.50
   84     8    1.40
   85     6    1.50
   86     6    1.50
   87     6    1.50
   88     6    1.50
   89     6    1.50
   90     6    1.50
   91     6    1.50
   92     8    1.40
   93     1    1.20
   94     1    1.20
   95     1    1.20
   96     1    1.20
   97     1    1.20
   98     1    1.20
   99     1    1.20
  100     1    1.20
  101     1    1.20
  102     7    1.50
  103     6    1.50
  104     6    1.50
  105     8    1.40
  106     6    1.50
  107     6    1.50
  108     6    1.50
  109     6    1.50
  110     1    1.20
  111     1    1.20
  112     1    1.20
  113     1    1.20
  114     1    1.20
  115     1    1.20
  116     1    1.20
  117     1    1.20
  118     1    1.20
  119     1    1.20
  120     1    1.20
  121     7    1.50
  122     6    1.50
  123     6    1.50
  124     8    1.40
  125     6    1.50
  126     8    1.40
  127     1    1.20
  128     1    1.20
  129     1    1.20
  130     1    1.20
  131     1    1.20
  132     7    1.50
  133     6    1.50
  134     6    1.50
  135     8    1.40
  136     6    1.50
  137     1    1.20
  138     1    1.20
  139     1    1.20
  140     1    1.20
  141     1    1.20
  142     7    1.50
  143     6    1.50
  144     6    1.50
  145     8    1.40
  146     6    1.50
  147     1    1.20
  148     1    1.20
  149     1    1.20
  150     1    1.20
  151     1    1.20
  152     7    1.50
  153     6    1.50
  154     6    1.50
  155     8    1.40
  156     6    1.50
  157     6    1.50
  158     6    1.50
  159     8    1.40
  160     8    1.40
  161     1    1.20
  162     1    1.20
  163     1    1.20
  164     1    1.20
  165     1    1.20
  166     1    1.20
  167     7    1.50
  168     6    1.50
  169     1    1.20
  170     1    1.20
  171     1    1.20
  172     1    1.20
[...]
 **** Fit       0.013605
 **** Fit       0.019001
 **** Fit      -0.015522
 **** Fit      -0.016612
 **** Fit      -0.015298
 **** Fit      -0.013080
 **** Fit      -0.009935
 **** Fit      -0.005848
 **** Fit      -0.000823
 **** Fit       0.005082
 **** Fit       0.011708
 **** Fit       0.018731
 **** Fit       0.025647
 **** Fit      -0.016598
 **** Fit      -0.017042
 **** Fit      -0.017875
 **** Fit      -0.016135
 **** Fit      -0.013428
 **** Fit      -0.009686
 **** Fit      -0.004849
 **** Fit       0.001125
 **** Fit       0.008222
 **** Fit       0.016306
 **** Fit       0.025000
 **** Fit      -0.018769
 **** Fit      -0.018726
 **** Fit      -0.019615
 **** Fit      -0.017423
 **** Fit      -0.014129
 **** Fit      -0.009625
 **** Fit      -0.003809
 **** Fit       0.003398
 **** Fit       0.012017
 **** Fit       0.021892
 **** Fit       0.032490
 **** Fit      -0.021281
 **** Fit      -0.020841
 **** Fit      -0.022252
 **** Fit      -0.019644
 **** Fit      -0.015752
 **** Fit      -0.010450
 **** Fit      -0.003630
 **** Fit       0.004800
 **** Fit       0.014858
 **** Fit       0.026324
 **** Fit       0.038442
 **** Fit      -0.023742
 **** Fit      -0.018410
 **** Fit      -0.011696
 **** Fit      -0.003110
 **** Fit       0.007383
 **** Fit       0.019657
 **** Fit       0.033116
 **** Fit       0.046229
 **** Fit       0.010358
 **** Fit       0.025006
 **** Fit       0.039550
 **** Fit       0.030226
 **** Fit       0.028021
 **** Fit       0.000667
 **** Fit      -0.004645
 **** Fit       0.023997
 **** Fit       0.021929
 **** Fit       0.017890
 **** Fit       0.011982
 **** Fit       0.005590
 **** Fit       0.000724
 **** Fit      -0.001225
 **** Fit      -0.000990
 **** Fit       0.020721
 **** Fit       0.018019
 **** Fit       0.013377
 **** Fit       0.007804
 **** Fit       0.003802
 **** Fit       0.002440
 **** Fit       0.002318
 **** Fit       0.016978
 **** Fit       0.014785
 **** Fit       0.009806
 **** Fit       0.006838
 **** Fit       0.008450
 **** Fit       0.011792
 **** Fit      -0.007542
 **** Fit       0.001813
 **** Fit      -0.002504
 **** Fit      -0.005936
 **** Fit      -0.003585
 **** Fit      -0.002569
 **** Fit       0.008596
 **** Fit       0.002517
 **** Fit      -0.004521
 **** Fit       0.002917
 **** Fit      -0.002398
 **** Fit      -0.008774
 **** Fit      -0.002635
 **** Fit      -0.007698
 **** Fit      -0.014009
 **** Fit      -0.007577
 **** Fit      -0.012989
 **** Fit      -0.019989
 **** Fit      -0.007760
 **** Fit      -0.011154
 **** Fit      -0.017043
 **** Fit      -0.024968
 **** Fit      -0.013341
 **** Fit      -0.019380
 **** Fit      -0.015513
 **** Fit      -0.011703
 **** Fit      -0.019227
 **** Fit       0.053431
 **** Fit       0.011476
 **** Fit       0.014364
 **** Fit       0.047021
 **** Fit       0.058958
 **** Fit       0.068125
 **** Fit       0.071729
 **** Fit       0.068989
 **** Fit       0.061169
 **** Fit       0.050063
 **** Fit       0.037034
 **** Fit       0.022900
 **** Fit       0.037242
 **** Fit       0.045533
 **** Fit       0.053282
 **** Fit       0.057580
 **** Fit       0.056747
 **** Fit       0.050957
 **** Fit       0.041519
 **** Fit       0.029844
 **** Fit       0.017039
 **** Fit       0.031766
 **** Fit       0.036329
 **** Fit       0.041786
 **** Fit       0.045690
 **** Fit       0.045919
 **** Fit       0.041776
 **** Fit       0.033978
 **** Fit       0.023876
 **** Fit       0.012900
 **** Fit       0.002578
 **** Fit       0.030205
 **** Fit       0.033626
 **** Fit       0.036532
 **** Fit       0.036690
 **** Fit       0.032874
 **** Fit       0.025582
 **** Fit       0.016474
 **** Fit       0.007710
 **** Fit       0.027089
 **** Fit       0.029379
 **** Fit       0.029023
 **** Fit       0.024358
 **** Fit       0.016685
 **** Fit       0.022835
 **** Fit       0.017138
 **** Fit       0.009602
 **** Fit       0.009133
 **** Fit       0.008832
 **** Fit       0.009225
 **** Fit       0.010156
 **** Fit       0.009870
 **** Fit       0.008697
 **** Fit       0.008328
 **** Fit       0.008700
 **** Fit       0.009719
 **** Fit       0.010040
 **** Fit       0.009276
 **** Fit       0.008237
 **** Fit       0.009070
 **** Fit       0.010381
 **** Fit       0.010111
 **** Fit       0.009354
 **** Fit       0.008727
 **** Fit       0.007705
 **** Fit       0.008779
 **** Fit       0.010371
 **** Fit       0.010227
 **** Fit       0.009440
 **** Fit       0.008764
 **** Fit       0.008182
 **** Fit       0.007069
 **** Fit       0.006687
 **** Fit       0.007597
 **** Fit       0.009605
 **** Fit       0.010112
 **** Fit       0.009365
 **** Fit       0.008705
 **** Fit       0.008100
 **** Fit       0.007548
 **** Fit       0.006318
 **** Fit       0.005848
 **** Fit       0.004974
 **** Fit       0.010212
 **** Fit       0.009436
 **** Fit       0.008746
 **** Fit       0.008099
 **** Fit       0.007471
 **** Fit       0.006868
 **** Fit       0.005454
 **** Fit       0.004864
 **** Fit       0.010265
 **** Fit       0.009474
 **** Fit       0.008775
 **** Fit       0.008116
 **** Fit       0.007455
 **** Fit       0.006777
 **** Fit       0.006100
 **** Fit       0.004478
 **** Fit       0.003733
 **** Fit       0.011440
 **** Fit       0.010453
 **** Fit       0.009605
 **** Fit       0.005257
 **** Fit       0.003375
 **** Fit       0.002469
 **** Fit       0.001540
 **** Fit       0.011684
 **** Fit       0.010631
 **** Fit       0.009701
 **** Fit       0.001023
 **** Fit      -0.000103
 **** Fit       0.012234
 **** Fit       0.011050
 **** Fit      -0.002047
 **** Fit      -0.003676
 **** Fit       0.013515
 **** Fit       0.012219
 **** Fit       0.010790
 **** Fit      -0.004271
 **** Fit      -0.006127
 **** Fit      -0.008756
 **** Fit       0.014748
 **** Fit       0.013684
 **** Fit       0.012118
 **** Fit      -0.006877
 **** Fit      -0.008819
 **** Fit      -0.011682
 **** Fit       0.015063
 **** Fit       0.014883
 **** Fit       0.013739
 **** Fit       0.011713
 **** Fit      -0.010146
 **** Fit      -0.012154
 **** Fit      -0.015359
 **** Fit      -0.014103
 **** Fit      -0.016051
 **** Fit      -0.018670
 **** Fit      -0.020217
 **** Fit       0.008084
 **** Fit       0.007379
 **** Fit       0.006732
 **** Fit       0.005152
 **** Fit       0.008721
 **** Fit       0.007915
 **** Fit       0.007173
 **** Fit       0.006474
 **** Fit       0.005804
 **** Fit       0.004081
 **** Fit       0.003364
 **** Fit       0.009440
 **** Fit       0.008512
 **** Fit       0.007659
 **** Fit       0.006875
 **** Fit       0.006144
 **** Fit       0.005450
 **** Fit       0.004770
 **** Fit       0.002827
 **** Fit       0.002029
 **** Fit       0.001124
 **** Fit       0.009666
 **** Fit       0.008564
 **** Fit       0.007539
 **** Fit       0.006603
 **** Fit       0.005758
 **** Fit       0.004989
 **** Fit       0.004267
 **** Fit       0.003559
 **** Fit       0.001257
 **** Fit       0.000439
 **** Fit      -0.000537
 **** Fit       0.009859
 **** Fit       0.008523
 **** Fit       0.007249
 **** Fit       0.006088
 **** Fit       0.005065
 **** Fit       0.004176
 **** Fit       0.003395
 **** Fit       0.002680
 **** Fit       0.001985
 **** Fit      -0.000800
 **** Fit      -0.001593
 **** Fit      -0.002585
 **** Fit      -0.003889
 **** Fit       0.008667
 **** Fit       0.006982
 **** Fit       0.005414
 **** Fit       0.004048
 **** Fit       0.002908
 **** Fit       0.001975
 **** Fit       0.001201
 **** Fit       0.000526
 **** Fit      -0.000118
 **** Fit      -0.003573
 **** Fit      -0.004297
 **** Fit      -0.005280
 **** Fit      -0.006669
 **** Fit       0.007501
 **** Fit       0.005163
 **** Fit       0.003026
 **** Fit       0.001254
 **** Fit      -0.000115
 **** Fit      -0.001129
 **** Fit      -0.001877
 **** Fit      -0.002464
 **** Fit      -0.002996
 **** Fit      -0.007390
 **** Fit      -0.007916
 **** Fit      -0.008793
 **** Fit      -0.010191
 **** Fit       0.002458
 **** Fit      -0.000666
 **** Fit      -0.003124
 **** Fit      -0.004829
 **** Fit      -0.005887
 **** Fit      -0.006485
 **** Fit      -0.006821
 **** Fit      -0.007072
 **** Fit      -0.012737
 **** Fit      -0.012802
 **** Fit      -0.013339
 **** Fit      -0.014507
 **** Fit       0.007790
 **** Fit       0.007481
 **** Fit       0.006864
 **** Fit       0.007076
 **** Fit       0.008055
 **** Fit       0.008310
 **** Fit       0.007093
 **** Fit       0.006358
 **** Fit       0.005774
 **** Fit       0.005578
 **** Fit       0.006041
 **** Fit       0.007102
 **** Fit       0.007899
 **** Fit       0.006589
 **** Fit       0.005849
 **** Fit       0.005106
 **** Fit       0.004403
 **** Fit       0.003910
 **** Fit       0.003879
 **** Fit       0.004496
 **** Fit       0.005706
 **** Fit       0.007185
 **** Fit       0.007358
 **** Fit       0.005937
 **** Fit       0.005163
 **** Fit       0.004330
 **** Fit       0.003411
 **** Fit       0.002464
 **** Fit       0.001660
 **** Fit       0.001263
 **** Fit       0.001536
 **** Fit       0.002589
 **** Fit       0.004285
 **** Fit       0.006243
 **** Fit       0.006719
 **** Fit       0.005104
 **** Fit       0.004265
 **** Fit       0.003327
 **** Fit       0.002222
 **** Fit       0.000941
 **** Fit      -0.000430
 **** Fit      -0.001675
 **** Fit      -0.002464
 **** Fit      -0.002448
 **** Fit      -0.001421
 **** Fit       0.000557
 **** Fit       0.003155
 **** Fit       0.004061
 **** Fit       0.003150
 **** Fit       0.002110
 **** Fit       0.000843
 **** Fit      -0.000713
 **** Fit      -0.002557
 **** Fit      -0.004578
 **** Fit      -0.006511
 **** Fit      -0.007937
 **** Fit      -0.005304
 **** Fit      -0.002105
 **** Fit       0.002774
 **** Fit       0.001714
 **** Fit       0.000472
 **** Fit      -0.001093
 **** Fit      -0.003099
 **** Fit      -0.005620
 **** Fit      -0.008623
 **** Fit      -0.000025
 **** Fit      -0.001495
 **** Fit      -0.003390
 **** Fit      -0.005898
 **** Fit      -0.009187
 **** Fit      -0.002155
 **** Fit      -0.003940
 **** Fit      -0.006306
 **** Fit      -0.009532
 **** Fit      -0.007098
 **** Fit      -0.010294
 **** Fit       0.011434
 **** Fit       0.010844
 **** Fit       0.010631
 **** Fit       0.011247
 **** Fit       0.012142
 **** Fit       0.012225
 **** Fit       0.011549
 **** Fit       0.010967
 **** Fit       0.012086
 **** Fit       0.012950
 **** Fit       0.013266
 **** Fit       0.012992
 **** Fit       0.012355
 **** Fit       0.011605
 **** Fit       0.010916
 **** Fit       0.010557
 **** Fit       0.011853
 **** Fit       0.012979
 **** Fit       0.013812
 **** Fit       0.014258
 **** Fit       0.014191
 **** Fit       0.013717
 **** Fit       0.013055
 **** Fit       0.012329
 **** Fit       0.011611
 **** Fit       0.010966
 **** Fit       0.012047
 **** Fit       0.013254
 **** Fit       0.014202
 **** Fit       0.015224
 **** Fit       0.014605
 **** Fit       0.013883
 **** Fit       0.013149
 **** Fit       0.012412
 **** Fit       0.011692
 **** Fit       0.011039
 **** Fit       0.012710
 **** Fit       0.013710
 **** Fit       0.014879
 **** Fit       0.014098
 **** Fit       0.013363
 **** Fit       0.012618
 **** Fit       0.011870
 **** Fit       0.011170
 **** Fit       0.014893
 **** Fit       0.014209
 **** Fit       0.013536
 **** Fit       0.012810
 **** Fit       0.012045
 **** Fit       0.011298
 **** Fit       0.014593
 **** Fit       0.014041
 **** Fit       0.013363
 **** Fit       0.012566
 **** Fit       0.011715
 **** Fit       0.014775
 **** Fit       0.014482
 **** Fit       0.013942
 **** Fit       0.013177
 **** Fit       0.012256
 **** Fit       0.014863
 **** Fit       0.014642
 **** Fit       0.014051
 **** Fit       0.013144
 **** Fit       0.015043
 **** Fit       0.015059
 **** Fit       0.014555
 **** Fit       0.015216
 **** Fit       0.015106
 **** Fit       0.003344
 **** Fit      -0.003216
 **** Fit      -0.012524
 **** Fit       0.002929
 **** Fit      -0.006698
 **** Fit      -0.019353
 **** Fit       0.011003
 **** Fit       0.000740
 **** Fit      -0.013114
 **** Fit       0.012562
 **** Fit      -0.003476
 **** Fit       0.001469
 **** Fit       0.005733
 **** Fit       0.022943
 **** Fit       0.023728
 **** Fit       0.024378
 **** Fit       0.024716
 **** Fit       0.026707
 **** Fit       0.028331
 **** Fit       0.029915
 **** Fit       0.025898
 **** Fit       0.027758
 **** Fit       0.029721
 **** Fit       0.031592
 **** Fit       0.033450
 **** Fit       0.032956
 **** Fit       0.031741
 **** Fit       0.032035
 **** Fit       0.033134
 **** Fit       0.034591
 **** Fit       0.036224
 **** Fit       0.038074
 **** Fit       0.039904
 **** Fit       0.038021
 **** Fit       0.037787
 **** Fit       0.038469
 **** Fit       0.039648
 **** Fit       0.041147
 **** Fit       0.045447
 **** Fit       0.043235
 **** Fit       0.042690
 **** Fit       0.043081
 **** Fit       0.043942
 **** Fit       0.046971
 **** Fit       0.046888
 **** Fit       0.047067
 **** Fit       0.045884
 **** Fit       0.013643
 **** Fit       0.014857
 **** Fit       0.047530
 **** Fit       0.046391
 **** Fit       0.046496
 **** Fit       0.046819
 **** Fit       0.046677
 **** Fit       0.045628
 **** Fit       0.015286
 **** Fit       0.015253
 **** Fit       0.013315
 **** Fit       0.009840
 **** Fit       0.006733
 **** Fit       0.046831
 **** Fit       0.045760
 **** Fit       0.045262
 **** Fit       0.044534
 **** Fit       0.043022
 **** Fit       0.040324
 **** Fit       0.036130
 **** Fit       0.024182
 **** Fit       0.021185
 **** Fit       0.019685
 **** Fit       0.018517
 **** Fit       0.016676
 **** Fit       0.014309
 **** Fit       0.013008
 **** Fit       0.047085
 **** Fit       0.045189
 **** Fit       0.044019
 **** Fit       0.042763
 **** Fit       0.040822
 **** Fit       0.037817
 **** Fit       0.033646
 **** Fit       0.028725
 **** Fit       0.028237
 **** Fit       0.025193
 **** Fit       0.022990
 **** Fit       0.021087
 **** Fit       0.019726
 **** Fit       0.020483
 **** Fit       0.044856
 **** Fit       0.043122
 **** Fit       0.041458
 **** Fit       0.039221
 **** Fit       0.036057
 **** Fit       0.032135
 **** Fit       0.030900
 **** Fit       0.027782
 **** Fit       0.025806
 **** Fit       0.025861
 **** Fit       0.029655
 **** Fit       0.043664
 **** Fit       0.042441
 **** Fit       0.040589
 **** Fit       0.038087
 **** Fit       0.034669
 **** Fit       0.032995
 **** Fit       0.030619
 **** Fit       0.032881
 **** Fit       0.038006
 **** Fit       0.039158
 **** Fit       0.036803
 **** Fit       0.035154
 -----------------------------------------------------------------
 Leave Link  602 at Wed Sep 18 16:11:28 2019, MaxMem=  1342177280 cpu:             109.4 elap:               2.3

 Test job not archived.
 1\1\GINC-C488-022\SP\RB3LYP\SVP\C54H83Ca1N15O23\JAEBEOMH\18-Sep-2019\0
 \\#b3lyp/svp scf=(tight,noincore) Test #IOP(5/87=12) Density=Current P
 op=(MK,readradii) iop(6/33=2) iop(6/42=6)\\CaMKII_loop3_41.0\\0,1\C,0,
 72.83,48.59,30.84\C,0,72.46,47.48,31.81\O,0,73.,46.38,31.84\H,0,73.845
 ,48.43,30.475\H,0,72.137,48.584,29.999\H,0,72.776,49.552,31.35\N,0,71.
 51,47.83,32.68\C,0,70.92,46.89,33.61\C,0,69.76,46.11,33.01\O,0,68.6,46
 .51,33.14\C,0,70.6,47.46,34.99\C,0,70.13,46.38,35.96\O,0,69.6,46.78,37
 .01\O,0,70.38,45.19,35.67\H,0,71.15,48.77,32.65\H,0,71.71,46.19,33.89\
 H,0,69.82,48.21,34.92\H,0,71.54,47.86,35.38\N,0,70.1,45.07,32.24\C,0,6
 9.2,44.35,31.35\C,0,68.18,43.52,32.11\O,0,66.96,43.62,31.95\C,0,70.,43
 .46,30.4\C,0,70.63,44.28,29.28\C,0,71.37,43.37,28.3\C,0,70.52,42.28,27
 .66\N,0,71.39,41.5,26.76\H,0,71.09,44.88,32.15\H,0,68.66,45.11,30.79\H
 ,0,69.37,42.67,29.98\H,0,70.81,42.99,30.96\H,0,71.43,44.9,29.69\H,0,69
 .91,44.84,28.7\H,0,72.16,42.78,28.78\H,0,71.82,43.99,27.53\H,0,69.72,4
 2.76,27.09\H,0,70.07,41.72,28.47\H,0,70.94,40.67,26.41\H,0,71.76,42.11
 ,26.05\H,0,72.2,41.14,27.24\N,0,68.67,42.73,33.07\C,0,67.79,41.93,33.8
 9\C,0,67.17,42.7,35.05\O,0,66.41,42.15,35.84\C,0,68.43,40.6,34.27\C,0,
 69.55,40.75,35.28\O,0,69.93,39.74,35.91\O,0,70.11,41.85,35.5\H,0,69.65
 ,42.81,33.32\H,0,66.95,41.6,33.29\H,0,68.86,40.13,33.38\H,0,67.6,39.94
 ,34.56\N,0,67.46,44.,35.18\C,0,66.92,44.93,36.14\C,0,67.25,44.7,37.61\
 O,0,66.51,45.16,38.48\H,0,68.2,44.35,34.59\H,0,65.84,44.93,35.99\H,0,6
 7.23,45.9,35.76\N,0,68.39,44.11,37.98\C,0,68.7,43.6,39.3\C,0,69.42,44.
 64,40.15\O,0,69.9,44.27,41.22\C,0,69.39,42.25,39.15\C,0,70.89,42.32,38
 .9\N,0,71.64,41.36,39.43\O,0,71.38,43.18,38.16\H,0,68.97,43.83,37.2\H,
 0,67.73,43.45,39.78\H,0,68.97,41.68,38.32\H,0,69.36,41.74,40.12\H,0,71
 .23,40.62,39.98\H,0,72.64,41.26,39.33\N,0,69.57,45.88,39.67\C,0,70.29,
 46.94,40.34\C,0,71.74,47.21,39.96\O,0,72.35,48.08,40.58\H,0,69.22,46.0
 8,38.74\H,0,70.24,46.79,41.41\H,0,69.88,47.92,40.08\N,0,72.24,46.59,38
 .89\C,0,73.64,46.52,38.53\C,0,73.91,46.31,37.04\O,0,73.15,45.58,36.41\
 C,0,74.2,45.34,39.32\C,0,74.15,45.39,40.82\C,0,75.,46.26,41.51\C,0,73.
 39,44.47,41.55\C,0,75.16,46.11,42.9\C,0,73.48,44.33,42.94\C,0,74.35,45
 .21,43.62\O,0,74.48,45.2,44.98\H,0,71.54,46.11,38.34\H,0,74.09,47.46,3
 8.83\H,0,75.27,45.23,39.11\H,0,73.7,44.42,39.02\H,0,75.74,46.86,40.99\
 H,0,72.75,43.72,41.09\H,0,75.86,46.72,43.44\H,0,72.98,43.58,43.53\H,0,
 73.73,44.83,45.44\N,0,74.98,46.97,36.6\C,0,75.72,46.65,35.39\C,0,76.74
 ,45.55,35.6\O,0,77.55,45.62,36.52\C,0,76.22,47.89,34.65\C,0,75.21,49.0
 3,34.68\C,0,76.78,47.51,33.28\C,0,75.64,50.43,34.25\H,0,75.41,47.57,37
 .29\H,0,74.92,46.18,34.82\H,0,77.07,48.3,35.19\H,0,74.77,49.2,35.67\H,
 0,74.39,48.69,34.04\H,0,75.97,47.15,32.64\H,0,77.14,48.39,32.75\H,0,77
 .55,46.74,33.29\H,0,76.17,50.94,35.05\H,0,76.28,50.42,33.37\H,0,74.8,5
 1.06,33.97\N,0,76.73,44.6,34.66\C,0,77.75,43.58,34.48\C,0,78.45,43.57,
 33.13\O,0,77.92,44.11,32.17\C,0,77.28,42.22,34.98\O,0,75.96,41.93,34.5
 9\H,0,75.91,44.55,34.08\H,0,78.62,43.81,35.1\H,0,77.36,42.3,36.06\H,0,
 77.85,41.39,34.57\H,0,75.46,42.75,34.53\N,0,79.61,42.91,33.\C,0,80.38,
 42.97,31.78\C,0,79.76,42.43,30.5\O,0,79.87,43.02,29.43\C,0,81.71,42.27
 ,32.01\H,0,80.01,42.24,33.64\H,0,80.69,44.01,31.63\H,0,82.31,42.47,31.
 12\H,0,82.31,42.58,32.87\H,0,81.58,41.19,31.95\N,0,79.17,41.25,30.65\C
 ,0,78.25,40.69,29.67\C,0,77.08,41.58,29.25\O,0,76.55,41.47,28.16\C,0,7
 7.75,39.35,30.18\H,0,79.4,40.66,31.44\H,0,78.85,40.53,28.77\H,0,77.42,
 38.76,29.32\H,0,78.55,38.81,30.7\H,0,76.99,39.48,30.95\N,0,76.66,42.49
 ,30.13\C,0,75.62,43.44,29.78\C,0,76.14,44.61,28.95\O,0,75.53,44.96,27.
 94\C,0,74.85,43.81,31.05\C,0,74.2,42.63,31.78\C,0,73.42,43.12,32.99\O,
 0,74.04,43.78,33.86\O,0,72.21,42.88,33.15\H,0,76.92,42.39,31.1\H,0,74.
 89,42.94,29.14\H,0,74.11,44.53,30.73\H,0,75.52,44.3,31.75\H,0,75.07,42
 .1,32.17\H,0,73.57,42.07,31.1\N,0,77.22,45.23,29.43\C,0,77.86,46.36,28
 .8\H,0,78.847,46.065,28.443\H,0,77.256,46.698,27.958\H,0,77.962,47.17,
 29.522\H,0,77.52,44.93,30.35\Ca,0,72.2,43.32,35.72\O,0,74.42,42.68,37.
 04\H,0,75.19,42.98,37.52\H,0,74.34,41.76,37.28\\Version=ES64L-G16RevA.
 03\State=1-A\HF=-5333.6182902\RMSD=3.305e-09\Dipole=9.0621154,-4.79775
 54,-11.3104965\Quadrupole=-78.425252,12.4191967,66.0060553,-17.3961688
 ,81.6856133,22.3548026\PG=C01 [X(C54H83Ca1N15O23)]\\@


 THERE IS AN OLD, OLD RECIPE IN MAINE FOR STEWING COOT. PLACE THE
 BIRD IN A KETTLE OF WATER WITH A RED BUILDING BRICK FREE OF MORTAR AND
 BLEMISHES. PARBOIL THE COOT AND BRICK TOGETHER FOR THREE HOURS.
 POUR OFF THE WATER, REFILL THE KETTLE, AND AGAIN PARBOIL FOR THREE HOURS.
 ONCE AGAIN POUR OFF THE WATER, FOR THE LAST TIME ADD FRESH WATER,
 AND LET THE COOT AND BRICK SIMMER TOGETHER OVERNIGHT. IN THE MORNING,
 THROW AWAY THE COOT AND EAT THE BRICK.
 Job cpu time:       0 days 10 hours 12 minutes 55.6 seconds.
 Elapsed time:       0 days  0 hours 12 minutes 54.7 seconds.
 File lengths (MBytes):  RWF=   1517 Int=      0 D2E=      0 Chk=    171 Scr=      1
 Normal termination of Gaussian 16 at Wed Sep 18 16:11:29 2019.
