 Entering Gaussian System, Link 0=g16
 Initial command:
 /home1/apps/gaussian/16rA.03/g16/l1.exe "/scratch/04905/jaebeomh/4358715/Gau-90361.inp" -scrdir="/scratch/04905/jaebeomh/4358715/"
 Entering Link 1 = /home1/apps/gaussian/16rA.03/g16/l1.exe PID=     90362.
  
 Copyright (c) 1988,1990,1992,1993,1995,1998,2003,2009,2016,
            Gaussian, Inc.  All Rights Reserved.
  
 This is part of the Gaussian(R) 16 program.  It is based on
 the Gaussian(R) 09 system (copyright 2009, Gaussian, Inc.),
 the Gaussian(R) 03 system (copyright 2003, Gaussian, Inc.),
 the Gaussian(R) 98 system (copyright 1998, Gaussian, Inc.),
 the Gaussian(R) 94 system (copyright 1995, Gaussian, Inc.),
 the Gaussian 92(TM) system (copyright 1992, Gaussian, Inc.),
 the Gaussian 90(TM) system (copyright 1990, Gaussian, Inc.),
 the Gaussian 88(TM) system (copyright 1988, Gaussian, Inc.),
 the Gaussian 86(TM) system (copyright 1986, Carnegie Mellon
 University), and the Gaussian 82(TM) system (copyright 1983,
 Carnegie Mellon University). Gaussian is a federally registered
 trademark of Gaussian, Inc.
  
 This software contains proprietary and confidential information,
 including trade secrets, belonging to Gaussian, Inc.
  
 This software is provided under written license and may be
 used, copied, transmitted, or stored only in accord with that
 written license.
  
 The following legend is applicable only to US Government
 contracts under FAR:
  
                    RESTRICTED RIGHTS LEGEND
  
 Use, reproduction and disclosure by the US Government is
 subject to restrictions as set forth in subparagraphs (a)
 and (c) of the Commercial Computer Software - Restricted
 Rights clause in FAR 52.227-19.
  
 Gaussian, Inc.
 340 Quinnipiac St., Bldg. 40, Wallingford CT 06492
  
  
 ---------------------------------------------------------------
 Warning -- This program may not be used in any manner that
 competes with the business of Gaussian, Inc. or will provide
 assistance to any competitor of Gaussian, Inc.  The licensee
 of this program is prohibited from giving any competitor of
 Gaussian, Inc. access to this program.  By using this program,
 the user acknowledges that Gaussian, Inc. is engaged in the
 business of creating and licensing software in the field of
 computational chemistry and represents and warrants to the
 licensee that it is not a competitor of Gaussian, Inc. and that
 it will not use this program in any manner prohibited above.
 ---------------------------------------------------------------
  

 Cite this work as:
 Gaussian 16, Revision A.03,
 M. J. Frisch, G. W. Trucks, H. B. Schlegel, G. E. Scuseria, 
 M. A. Robb, J. R. Cheeseman, G. Scalmani, V. Barone, 
 G. A. Petersson, H. Nakatsuji, X. Li, M. Caricato, A. V. Marenich, 
 J. Bloino, B. G. Janesko, R. Gomperts, B. Mennucci, H. P. Hratchian, 
 J. V. Ortiz, A. F. Izmaylov, J. L. Sonnenberg, D. Williams-Young, 
 F. Ding, F. Lipparini, F. Egidi, J. Goings, B. Peng, A. Petrone, 
 T. Henderson, D. Ranasinghe, V. G. Zakrzewski, J. Gao, N. Rega, 
 G. Zheng, W. Liang, M. Hada, M. Ehara, K. Toyota, R. Fukuda, 
 J. Hasegawa, M. Ishida, T. Nakajima, Y. Honda, O. Kitao, H. Nakai, 
 T. Vreven, K. Throssell, J. A. Montgomery, Jr., J. E. Peralta, 
 F. Ogliaro, M. J. Bearpark, J. J. Heyd, E. N. Brothers, K. N. Kudin, 
 V. N. Staroverov, T. A. Keith, R. Kobayashi, J. Normand, 
 K. Raghavachari, A. P. Rendell, J. C. Burant, S. S. Iyengar, 
 J. Tomasi, M. Cossi, J. M. Millam, M. Klene, C. Adamo, R. Cammi, 
 J. W. Ochterski, R. L. Martin, K. Morokuma, O. Farkas, 
 J. B. Foresman, and D. J. Fox, Gaussian, Inc., Wallingford CT, 2016.
 
 ******************************************
 Gaussian 16:  ES64L-G16RevA.03 25-Dec-2016
                18-Sep-2019 
 ******************************************
 %chk=holoCaM_loop3_49.0.chk
 %nprocshared=48
 Will use up to   48 processors via shared memory.
 %mem=10GB
 %nosave
 ----------------------------------------------------------------------
 #b3lyp/svp scf=(tight,noincore) Test #IOP(5/87=12) Density=Current Pop
 =(MK,readradii) iop(6/33=2) iop(6/42=6)
 ----------------------------------------------------------------------
 1/30=1,38=1,172=1/1;
 2/12=2,17=6,18=5,40=1/2;
 3/5=18,7=101,11=2,25=1,30=1,74=-5/1,2,3;
 4//1;
 5/5=4,32=2,38=5,87=12/2;
 6/7=2,8=2,9=2,10=2,15=8,20=101,22=-1,28=1,33=2,42=6/1,2;
 99/5=1,9=1/99;
 ------------------
 holoCaM_loop3_49.0
 ------------------
 Symbolic Z-matrix:
 Charge =  0 Multiplicity = 1
 C                     81.46     37.91     6.2 
 C                     82.55     37.84     5.13 
 O                     83.1      36.79     4.84 
 H                     80.544    37.462    5.815 
 H                     81.785    37.366    7.087 
 H                     81.272    38.952    6.461 
 N                     83.01     38.99     4.63 
 C                     84.32     39.17     4.04 
 C                     85.38     39.15     5.13 
 O                     85.35     39.94     6.07 
 C                     84.24     40.45     3.2 
 C                     85.67     40.93     2.97 
 O                     86.11     40.49     1.89 
 O                     86.33     41.5      3.87 
 H                     82.46     39.81     4.82 
 H                     84.53     38.26     3.48 
 H                     83.64     41.3      3.54 
 H                     83.78     40.28     2.23 
 N                     86.43     38.33     4.98 
 C                     87.24     37.87     6.09 
 C                     88.57     38.59     6.26 
 O                     89.48     38.08     6.91 
 C                     87.38     36.36     5.9 
 C                     87.67     35.52     7.14 
 C                     86.38     35.31     7.94 
 C                     86.64     34.28     9.03 
 N                     85.6      34.17     10.07 
 H                     86.45     37.73     4.17 
 H                     86.61     38.08     6.95 
 H                     88.27     36.24     5.29 
 H                     86.51     35.97     5.36 
 H                     88.54     35.8      7.74 
 H                     88.       34.61     6.65 
 H                     85.49     34.99     7.41 
 H                     86.16     36.3      8.34 
 H                     87.42     34.66     9.69 
 H                     86.97     33.32     8.65 
 H                     85.18     35.05     10.34 
 H                     84.8      33.71     9.66 
 H                     86.02     33.64     10.82 
 N                     88.57     39.81     5.72 
 C                     89.77     40.62     5.75 
 C                     89.66     42.13     5.7 
 O                     90.58     42.82     6.15 
 C                     90.69     40.31     4.57 
 C                     90.01     40.02     3.24 
 O                     89.84     40.83     2.3 
 O                     89.59     38.85     3.09 
 H                     87.81     40.21     5.19 
 H                     90.38     40.23     6.56 
 H                     91.23     39.39     4.77 
 H                     91.43     41.09     4.41 
 N                     88.56     42.55     5.09 
 C                     88.27     43.96     4.9 
 C                     88.3      44.52     3.49 
 O                     88.3      45.75     3.44 
 H                     88.01     41.84     4.61 
 H                     88.99     44.6      5.41 
 H                     87.31     44.16     5.38 
 N                     88.17     43.71     2.44 
 C                     88.07     44.39     1.17 
 C                     86.63     44.52     0.69 
 O                     86.44     45.35    -0.2 
 C                     88.99     43.88     0.06 
 C                     88.79     42.42    -0.32 
 N                     89.7      41.87    -1.13 
 O                     87.84     41.72     0.05 
 H                     88.29     42.72     2.6 
 H                     88.42     45.42     1.21 
 H                     90.01     44.02     0.41 
 H                     88.79     44.55    -0.77 
 H                     90.49     42.42    -1.44 
 H                     89.55     40.9     -1.36 
 N                     85.68     43.82     1.3 
 C                     84.31     43.65     0.85 
 C                     84.07     42.73    -0.34 
 O                     83.12     42.97    -1.08 
 H                     85.96     43.12     1.97 
 H                     83.88     44.61     0.56 
 H                     83.86     43.18     1.72 
 N                     84.88     41.69    -0.56 
 C                     84.64     40.64    -1.53 
 C                     84.89     39.25    -0.98 
 O                     86.02     38.91    -0.63 
 C                     85.48     40.81    -2.79 
 C                     85.4      42.18    -3.43 
 C                     86.57     42.93    -3.61 
 C                     84.16     42.53    -3.98 
 C                     86.45     44.16    -4.28 
 C                     84.02     43.79    -4.56 
 C                     85.18     44.57    -4.75 
 O                     85.11     45.85    -5.21 
 H                     85.6      41.51     0.12 
 H                     83.63     40.68    -1.93 
 H                     85.16     40.14    -3.59 
 H                     86.5      40.56    -2.51 
 H                     87.5      42.61    -3.18 
 H                     83.37     41.79    -3.89 
 H                     87.28     44.8     -4.53 
 H                     83.09     44.12    -5.01 
 H                     84.19     46.09    -5.36 
 N                     83.96     38.31    -1.16 
 C                     84.05     36.99    -0.56 
 C                     84.68     36.13    -1.64 
 O                     84.1      36.1     -2.72 
 C                     82.66     36.58    -0.09 
 C                     82.43     37.38     1.2 
 C                     82.54     35.09     0.17 
 C                     80.97     37.24     1.59 
 H                     83.11     38.62    -1.61 
 H                     84.71     36.89     0.31 
 H                     81.92     36.86    -0.85 
 H                     82.59     38.45     1.13 
 H                     83.12     37.01     1.96 
 H                     81.56     34.64     0.3 
 H                     82.83     34.53    -0.72 
 H                     83.16     34.75     1.01 
 H                     80.95     36.23     2.01 
 H                     80.72     37.9      2.42 
 H                     80.29     37.46     0.77 
 N                     85.74     35.39    -1.32 
 C                     86.28     34.22    -1.98 
 C                     85.79     32.95    -1.29 
 O                     85.12     33.05    -0.26 
 C                     87.8      34.32    -2.03 
 O                     88.27     34.24    -0.7 
 H                     86.03     35.46    -0.35 
 H                     85.9      34.17    -3. 
 H                     88.05     35.32    -2.39 
 H                     88.28     33.56    -2.65 
 H                     88.38     35.14    -0.39 
 N                     86.06     31.79    -1.88 
 C                     85.5      30.53    -1.43 
 C                     86.       30.03    -0.09 
 O                     85.22     29.4      0.63 
 C                     85.74     29.56    -2.58 
 H                     86.54     31.83    -2.77 
 H                     84.41     30.61    -1.39 
 H                     86.8      29.28    -2.58 
 H                     85.21     28.63    -2.36 
 H                     85.55     29.96    -3.58 
 N                     87.21     30.35     0.37 
 C                     87.62     30.06     1.73 
 C                     87.03     31.05     2.72 
 O                     86.74     30.78     3.88 
 C                     89.13     30.13     1.9 
 H                     87.85     30.87    -0.21 
 H                     87.33     29.05     2.03 
 H                     89.52     31.1      1.57 
 H                     89.38     30.13     2.96 
 H                     89.59     29.25     1.44 
 N                     86.62     32.21     2.2 
 C                     85.91     33.16     3.03 
 C                     84.41     32.89     3.12 
 O                     83.79     33.02     4.17 
 C                     86.17     34.61     2.62 
 C                     87.63     35.01     2.48 
 C                     87.66     36.38     1.83 
 O                     87.09     37.34     2.39 
 O                     88.24     36.48     0.73 
 H                     86.84     32.48     1.25 
 H                     86.34     33.14     4.03 
 H                     85.65     35.28     3.31 
 H                     85.68     34.67     1.65 
 H                     88.17     34.27     1.88 
 H                     88.03     35.09     3.49 
 N                     83.8      32.4      2.04 
 C                     82.46     31.86     1.98 
 H                     81.792    32.596    1.533 
 H                     82.46     30.954    1.374 
 H                     82.117    31.624    2.987 
 H                     84.31     32.5      1.18 
 Ca                    88.07     39.17     1.01 
 O                     90.67     38.82     0.19 
 H                     91.35     39.49     0.11 
 H                     91.13     38.       0.01 
 
 Stoichiometry    C54H83CaN15O23
 Framework group  C1[X(C54H83CaN15O23)]
 Deg. of freedom   522
 Full point group                 C1      NOp   1
 Largest Abelian subgroup         C1      NOp   1
 Largest concise Abelian subgroup C1      NOp   1
                         Standard orientation:                         
 ---------------------------------------------------------------------
 Center     Atomic      Atomic             Coordinates (Angstroms)
 Number     Number       Type             X           Y           Z
 ---------------------------------------------------------------------
      1          6           0        1.325388    2.952258    5.760962
      2          6           0        1.122985    2.219246    4.434453
      3          8           0        2.057834    1.957914    3.694950
      4          1           0        1.790183    2.278605    6.480783
      5          1           0        1.970348    3.817039    5.604403
      6          1           0        0.360044    3.283367    6.145288
      7          7           0       -0.129540    2.014609    4.018034
      8          6           0       -0.522144    1.831223    2.636429
      9          6           0       -0.428639    3.156566    1.896955
     10          8           0       -1.053427    4.146011    2.270104
     11          6           0       -1.905960    1.172067    2.667531
     12          6           0       -2.547598    1.403054    1.302561
     13          8           0       -2.327268    0.436376    0.547187
     14          8           0       -3.026833    2.513872    0.975579
     15          1           0       -0.854155    2.151140    4.701622
     16          1           0        0.264022    1.237812    2.172093
     17          1           0       -2.631632    1.441900    3.441282
     18          1           0       -1.849652    0.100058    2.837902
     19          7           0        0.255678    3.194179    0.744699
     20          6           0        0.808168    4.414309    0.191672
     21          6           0        0.003329    5.030305   -0.943662
     22          8           0        0.522751    5.832508   -1.716560
     23          6           0        2.249260    4.077987   -0.190349
     24          6           0        3.244372    5.232056   -0.262312
     25          6           0        3.697873    5.617333    1.149813
     26          6           0        4.858776    6.595870    1.043180
     27          7           0        5.228693    7.290840    2.290368
     28          1           0        0.715237    2.350312    0.439423
     29          1           0        0.796778    5.090057    1.042457
     30          1           0        2.187547    3.722910   -1.214415
     31          1           0        2.628193    3.276433    0.453485
     32          1           0        2.983071    6.076762   -0.905347
     33          1           0        4.030436    4.738046   -0.823701
     34          1           0        4.011450    4.828833    1.824600
     35          1           0        2.808652    6.065658    1.593424
     36          1           0        4.517081    7.486117    0.514875
     37          1           0        5.711418    6.200377    0.503285
     38          1           0        4.445652    7.546706    2.877803
     39          1           0        5.690502    6.623358    2.891118
     40          1           0        5.829323    8.052586    2.009678
     41          7           0       -1.281436    4.671360   -0.920480
     42          6           0       -2.184799    5.129986   -1.955177
     43          6           0       -3.666718    5.245566   -1.663189
     44          8           0       -4.359461    6.013262   -2.338282
     45          6           0       -2.152867    4.215118   -3.178654
     46          6           0       -2.015128    2.724566   -2.905370
     47          8           0       -2.944408    1.885425   -2.875676
     48          8           0       -0.849669    2.317581   -2.695924
     49          1           0       -1.687710    4.010333   -0.275123
     50          1           0       -1.729997    6.018546   -2.384031
     51          1           0       -1.267228    4.435039   -3.766257
     52          1           0       -3.013942    4.363578   -3.825267
     53          7           0       -4.073615    4.418322   -0.709983
     54          6           0       -5.462634    4.338624   -0.294561
     55          6           0       -6.239302    3.073629   -0.609480
     56          8           0       -7.456255    3.183305   -0.459823
     57          1           0       -3.400477    3.720089   -0.399568
     58          1           0       -6.078067    5.102751   -0.769377
     59          1           0       -5.493626    4.560909    0.773910
     60          7           0       -5.597361    1.933195   -0.860122
     61          6           0       -6.457675    0.781721   -0.998926
     62          6           0       -6.527205   -0.051112    0.274830
     63          8           0       -7.466356   -0.845446    0.339091
     64          6           0       -6.218062   -0.091972   -2.230936
     65          6           0       -4.824511   -0.695587   -2.329241
     66          7           0       -4.497111   -1.290989   -3.480329
     67          8           0       -3.989210   -0.690640   -1.417293
     68          1           0       -4.610080    1.991776   -1.064923
     69          1           0       -7.496422    1.046842   -1.187912
     70          1           0       -6.395354    0.537181   -3.099978
     71          1           0       -6.989501   -0.852270   -2.162900
     72          1           0       -5.160539   -1.301419   -4.243516
     73          1           0       -3.566101   -1.675251   -3.523503
     74          7           0       -5.653876    0.182737    1.248077
     75          6           0       -5.430296   -0.640825    2.422835
     76          6           0       -4.692154   -1.958777    2.227264
     77          8           0       -4.956709   -2.892241    2.979830
     78          1           0       -4.885763    0.808355    1.058592
     79          1           0       -6.379773   -0.911549    2.887379
     80          1           0       -4.788483    0.006420    3.013978
     81          7           0       -3.780294   -2.081350    1.257941
     82          6           0       -2.879508   -3.206108    1.101393
     83          6           0       -1.449375   -2.791378    0.818873
     84          8           0       -1.165110   -2.193716   -0.218910
     85          6           0       -3.324608   -4.157625   -0.002509
     86          6           0       -4.765199   -4.614515    0.091562
     87          6           0       -5.640061   -4.372014   -0.975963
     88          6           0       -5.080724   -5.431567    1.184937
     89          6           0       -6.944062   -4.886307   -0.869732
     90          6           0       -6.398087   -5.861623    1.337273
     91          6           0       -7.303090   -5.627542    0.280733
     92          8           0       -8.627627   -5.921549    0.399317
     93          1           0       -3.562770   -1.259993    0.718259
     94          1           0       -2.888003   -3.857200    1.971857
     95          1           0       -2.762945   -5.093386    0.011167
     96          1           0       -3.129640   -3.645131   -0.940932
     97          1           0       -5.344125   -3.749890   -1.799118
     98          1           0       -4.265395   -5.655272    1.866842
     99          1           0       -7.690179   -4.817117   -1.644020
    100          1           0       -6.707022   -6.501543    2.156640
    101          1           0       -8.801493   -6.284135    1.273846
    102          7           0       -0.467180   -3.336263    1.539492
    103          6           0        0.916993   -2.908407    1.432230
    104          6           0        1.532442   -3.877141    0.439417
    105          8           0        1.444899   -5.068791    0.715113
    106          6           0        1.524123   -2.890656    2.829434
    107          6           0        0.963618   -1.620515    3.484853
    108          6           0        3.041110   -2.865945    2.814012
    109          6           0        1.299203   -1.663560    4.964322
    110          1           0       -0.763918   -3.956982    2.279597
    111          1           0        1.091582   -1.911920    1.009109
    112          1           0        1.197494   -3.780960    3.381043
    113          1           0       -0.114155   -1.506866    3.455029
    114          1           0        1.383376   -0.755324    2.969247
    115          1           0        3.595443   -3.066075    3.726406
    116          1           0        3.423492   -3.707559    2.234987
    117          1           0        3.450586   -1.939655    2.389846
    118          1           0        2.360400   -1.397639    4.957376
    119          1           0        0.805289   -0.855498    5.502917
    120          1           0        1.016448   -2.602447    5.435216
    121          7           0        2.211663   -3.378307   -0.591807
    122          6           0        3.206771   -4.010602   -1.432082
    123          6           0        4.610154   -3.648263   -0.954247
    124          8           0        4.737556   -2.835329   -0.036257
    125          6           0        2.958780   -3.632077   -2.887458
    126          8           0        3.204320   -2.245979   -3.008471
    127          1           0        2.269506   -2.365329   -0.612562
    128          1           0        3.129740   -5.093188   -1.335257
    129          1           0        1.895468   -3.779495   -3.086795
    130          1           0        3.562813   -4.190086   -3.605908
    131          1           0        2.358525   -1.805252   -2.915796
    132          7           0        5.631707   -4.285952   -1.516725
    133          6           0        6.993761   -4.170275   -1.031826
    134          6           0        7.650928   -2.820214   -1.234481
    135          8           0        8.457024   -2.426259   -0.386715
    136          6           0        7.742619   -5.325920   -1.683514
    137          1           0        5.406596   -4.999126   -2.198494
    138          1           0        7.023129   -4.418355    0.032924
    139          1           0        7.918978   -5.073437   -2.735726
    140          1           0        8.741057   -5.379228   -1.242515
    141          1           0        7.208708   -6.280181   -1.704132
    142          7           0        7.296413   -2.011442   -2.233633
    143          6           0        7.758723   -0.639918   -2.317249
    144          6           0        6.997499    0.270490   -1.368567
    145          8           0        7.473749    1.263430   -0.830186
    146          6           0        7.576013   -0.058123   -3.710817
    147          1           0        6.633682   -2.324023   -2.926079
    148          1           0        8.826088   -0.561883   -2.096246
    149          1           0        6.533885   -0.142689   -4.040541
    150          1           0        7.720655    1.020857   -3.679518
    151          1           0        8.325217   -0.484324   -4.385092
    152          7           0        5.813121   -0.188571   -0.955514
    153          6           0        5.077056    0.531479    0.061951
    154          6           0        5.496620    0.174794    1.485939
    155          8           0        5.593040    1.024241    2.365111
    156          6           0        3.562560    0.396664   -0.100310
    157          6           0        3.011020    0.711413   -1.481590
    158          6           0        1.558585    0.274905   -1.495429
    159          8           0        0.756849    0.776798   -0.679693
    160          8           0        1.231894   -0.603684   -2.318688
    161          1           0        5.376675   -1.000262   -1.373214
    162          1           0        5.215060    1.599633   -0.097115
    163          1           0        3.061816    0.999043    0.662445
    164          1           0        3.395587   -0.654079    0.129167
    165          1           0        3.592966    0.191357   -2.249757
    166          1           0        3.055112    1.793739   -1.596163
    167          7           0        5.864033   -1.083866    1.729622
    168          6           0        6.510304   -1.574640    2.926399
    169          1           0        5.778329   -2.088495    3.549211
    170          1           0        7.304835   -2.268530    2.651975
    171          1           0        6.933834   -0.737690    3.480954
    172          1           0        5.581901   -1.752592    1.034706
    173         20           0       -1.352022   -0.038716   -1.729122
    174          8           0       -1.380425   -0.158411   -4.474985
    175          1           0       -2.115104    0.035957   -5.058225
    176          1           0       -0.645832   -0.309883   -5.069820
 ---------------------------------------------------------------------
 Rotational constants (GHZ):           0.0245076           0.0152880           0.0120969
 Standard basis: SVP (5D, 7F)
 There are  1809 symmetry adapted cartesian basis functions of A   symmetry.
 There are  1717 symmetry adapted basis functions of A   symmetry.
  1717 basis functions,  2922 primitive gaussians,  1809 cartesian basis functions
   358 alpha electrons      358 beta electrons
       nuclear repulsion energy     21938.8595768329 Hartrees.
 NAtoms=  176 NActive=  176 NUniq=  176 SFac= 1.00D+00 NAtFMM=   60 NAOKFM=T Big=T
 Integral buffers will be    131072 words long.
 Raffenetti 2 integral format.
 Two-electron integral symmetry is turned on.
 One-electron integrals computed using PRISM.
 NBasis=  1717 RedAO= T EigKep=  3.19D-04  NBF=  1717
 NBsUse=  1717 1.00D-06 EigRej= -1.00D+00 NBFU=  1717
 ExpMin= 1.98D-02 ExpMax= 3.51D+04 ExpMxC= 5.28D+03 IAcc=3 IRadAn=         5 AccDes= 0.00D+00
 Harris functional with IExCor=  402 and IRadAn=       5 diagonalized for initial guess.
 HarFok:  IExCor=  402 AccDes= 0.00D+00 IRadAn=         5 IDoV= 1 UseB2=F ITyADJ=14
 ICtDFT=  3500011 ScaDFX=  1.000000  1.000000  1.000000  1.000000
 FoFCou: FMM=F IPFlag=           0 FMFlag=      100000 FMFlg1=        2001
         NFxFlg=           0 DoJE=T BraDBF=F KetDBF=T FulRan=T
         wScrn=  0.000000 ICntrl=       500 IOpCl=  0 I1Cent=   200000004 NGrid=           0
         NMat0=    1 NMatS0=      1 NMatT0=    0 NMatD0=    1 NMtDS0=    0 NMtDT0=    0
 Petite list used in FoFCou.
 Requested convergence on RMS density matrix=1.00D-08 within 128 cycles.
 Requested convergence on MAX density matrix=1.00D-06.
 Requested convergence on             energy=1.00D-06.
 No special actions if energy rises.
 EnCoef did     2 forward-backward iterations
 EnCoef did     1 forward-backward iterations
 EnCoef did     4 forward-backward iterations
 SCF Done:  E(RB3LYP) =  -5333.57604827     A.U. after   20 cycles
            NFock= 20  Conv=0.66D-08     -V/T= 2.0081
 SCF density gives NOpUse=  1 NOpAll=  1.
 Hyperfine terms turned off by default for NAtoms > 100.

 **********************************************************************

            Population analysis using the SCF density.

 **********************************************************************

 Orbital symmetries:
 BldTbl:  Degeneracy threshold= 1.00D-02
       Occupied  (A) (A) (A) (A) (A) (A) (A) (A) (A) (A) (A) (A)
                 (A) (A) (A) (A) (A) (A) (A) (A) (A) (A) (A) (A)
                 (A) (A) (A) (A) (A) (A) (A) (A) (A) (A) (A) (A)
                 (A) (A) (A) (A) (A) (A) (A) (A) (A) (A) (A) (A)
                 (A) (A) (A) (A) (A) (A) (A) (A) (A) (A) (A) (A)
                 (A) (A) (A) (A) (A) (A) (A) (A) (A) (A) (A) (A)
                 (A) (A) (A) (A) (A) (A) (A) (A) (A) (A) (A) (A)
                 (A) (A) (A) (A) (A) (A) (A) (A) (A) (A) (A) (A)
                 (A) (A) (A) (A) (A) (A) (A) (A) (A) (A) (A) (A)
                 (A) (A) (A) (A) (A) (A) (A) (A) (A) (A) (A) (A)
                 (A) (A) (A) (A) (A) (A) (A) (A) (A) (A) (A) (A)
                 (A) (A) (A) (A) (A) (A) (A) (A) (A) (A) (A) (A)
                 (A) (A) (A) (A) (A) (A) (A) (A) (A) (A) (A) (A)
                 (A) (A) (A) (A) (A) (A) (A) (A) (A) (A) (A) (A)
                 (A) (A) (A) (A) (A) (A) (A) (A) (A) (A) (A) (A)
                 (A) (A) (A) (A) (A) (A) (A) (A) (A) (A) (A) (A)
                 (A) (A) (A) (A) (A) (A) (A) (A) (A) (A) (A) (A)
                 (A) (A) (A) (A) (A) (A) (A) (A) (A) (A) (A) (A)
                 (A) (A) (A) (A) (A) (A) (A) (A) (A) (A) (A) (A)
                 (A) (A) (A) (A) (A) (A) (A) (A) (A) (A) (A) (A)
                 (A) (A) (A) (A) (A) (A) (A) (A) (A) (A) (A) (A)
                 (A) (A) (A) (A) (A) (A) (A) (A) (A) (A) (A) (A)
                 (A) (A) (A) (A) (A) (A) (A) (A) (A) (A) (A) (A)
                 (A) (A) (A) (A) (A) (A) (A) (A) (A) (A) (A) (A)
                 (A) (A) (A) (A) (A) (A) (A) (A) (A) (A) (A) (A)
                 (A) (A) (A) (A) (A) (A) (A) (A) (A) (A) (A) (A)
                 (A) (A) (A) (A) (A) (A) (A) (A) (A) (A) (A) (A)
                 (A) (A) (A) (A) (A) (A) (A) (A) (A) (A) (A) (A)
                 (A) (A) (A) (A) (A) (A) (A) (A) (A) (A) (A) (A)
                 (A) (A) (A) (A) (A) (A) (A) (A) (A) (A)
       Virtual   (A) (A) (A) (A) (A) (A) (A) (A) (A) (A) (A) (A)
                 (A) (A) (A) (A) (A) (A) (A) (A) (A) (A) (A) (A)
                 (A) (A) (A) (A) (A) (A) (A) (A) (A) (A) (A) (A)
                 (A) (A) (A) (A) (A) (A) (A) (A) (A) (A) (A) (A)
                 (A) (A) (A) (A) (A) (A) (A) (A) (A) (A) (A) (A)
                 (A) (A) (A) (A) (A) (A) (A) (A) (A) (A) (A) (A)
                 (A) (A) (A) (A) (A) (A) (A) (A) (A) (A) (A) (A)
                 (A) (A) (A) (A) (A) (A) (A) (A) (A) (A) (A) (A)
                 (A) (A) (A) (A) (A) (A) (A) (A) (A) (A) (A) (A)
                 (A) (A) (A) (A) (A) (A) (A) (A) (A) (A) (A) (A)
                 (A) (A) (A) (A) (A) (A) (A) (A) (A) (A) (A) (A)
                 (A) (A) (A) (A) (A) (A) (A) (A) (A) (A) (A) (A)
                 (A) (A) (A) (A) (A) (A) (A) (A) (A) (A) (A) (A)
                 (A) (A) (A) (A) (A) (A) (A) (A) (A) (A) (A) (A)
                 (A) (A) (A) (A) (A) (A) (A) (A) (A) (A) (A) (A)
                 (A) (A) (A) (A) (A) (A) (A) (A) (A) (A) (A) (A)
                 (A) (A) (A) (A) (A) (A) (A) (A) (A) (A) (A) (A)
                 (A) (A) (A) (A) (A) (A) (A) (A) (A) (A) (A) (A)
                 (A) (A) (A) (A) (A) (A) (A) (A) (A) (A) (A) (A)
                 (A) (A) (A) (A) (A) (A) (A) (A) (A) (A) (A) (A)
                 (A) (A) (A) (A) (A) (A) (A) (A) (A) (A) (A) (A)
                 (A) (A) (A) (A) (A) (A) (A) (A) (A) (A) (A) (A)
                 (A) (A) (A) (A) (A) (A) (A) (A) (A) (A) (A) (A)
                 (A) (A) (A) (A) (A) (A) (A) (A) (A) (A) (A) (A)
                 (A) (A) (A) (A) (A) (A) (A) (A) (A) (A) (A) (A)
                 (A) (A) (A) (A) (A) (A) (A) (A) (A) (A) (A) (A)
                 (A) (A) (A) (A) (A) (A) (A) (A) (A) (A) (A) (A)
                 (A) (A) (A) (A) (A) (A) (A) (A) (A) (A) (A) (A)
                 (A) (A) (A) (A) (A) (A) (A) (A) (A) (A) (A) (A)
                 (A) (A) (A) (A) (A) (A) (A) (A) (A) (A) (A) (A)
                 (A) (A) (A) (A) (A) (A) (A) (A) (A) (A) (A) (A)
                 (A) (A) (A) (A) (A) (A) (A) (A) (A) (A) (A) (A)
                 (A) (A) (A) (A) (A) (A) (A) (A) (A) (A) (A) (A)
                 (A) (A) (A) (A) (A) (A) (A) (A) (A) (A) (A) (A)
                 (A) (A) (A) (A) (A) (A) (A) (A) (A) (A) (A) (A)
                 (A) (A) (A) (A) (A) (A) (A) (A) (A) (A) (A) (A)
                 (A) (A) (A) (A) (A) (A) (A) (A) (A) (A) (A) (A)
                 (A) (A) (A) (A) (A) (A) (A) (A) (A) (A) (A) (A)
                 (A) (A) (A) (A) (A) (A) (A) (A) (A) (A) (A) (A)
                 (A) (A) (A) (A) (A) (A) (A) (A) (A) (A) (A) (A)
                 (A) (A) (A) (A) (A) (A) (A) (A) (A) (A) (A) (A)
                 (A) (A) (A) (A) (A) (A) (A) (A) (A) (A) (A) (A)
                 (A) (A) (A) (A) (A) (A) (A) (A) (A) (A) (A) (A)
                 (A) (A) (A) (A) (A) (A) (A) (A) (A) (A) (A) (A)
                 (A) (A) (A) (A) (A) (A) (A) (A) (A) (A) (A) (A)
                 (A) (A) (A) (A) (A) (A) (A) (A) (A) (A) (A) (A)
                 (A) (A) (A) (A) (A) (A) (A) (A) (A) (A) (A) (A)
                 (A) (A) (A) (A) (A) (A) (A) (A) (A) (A) (A) (A)
                 (A) (A) (A) (A) (A) (A) (A) (A) (A) (A) (A) (A)
                 (A) (A) (A) (A) (A) (A) (A) (A) (A) (A) (A) (A)
                 (A) (A) (A) (A) (A) (A) (A) (A) (A) (A) (A) (A)
                 (A) (A) (A) (A) (A) (A) (A) (A) (A) (A) (A) (A)
                 (A) (A) (A) (A) (A) (A) (A) (A) (A) (A) (A) (A)
                 (A) (A) (A) (A) (A) (A) (A) (A) (A) (A) (A) (A)
                 (A) (A) (A) (A) (A) (A) (A) (A) (A) (A) (A) (A)
                 (A) (A) (A) (A) (A) (A) (A) (A) (A) (A) (A) (A)
                 (A) (A) (A) (A) (A) (A) (A) (A) (A) (A) (A) (A)
                 (A) (A) (A) (A) (A) (A) (A) (A) (A) (A) (A) (A)
                 (A) (A) (A) (A) (A) (A) (A) (A) (A) (A) (A) (A)
                 (A) (A) (A) (A) (A) (A) (A) (A) (A) (A) (A) (A)
                 (A) (A) (A) (A) (A) (A) (A) (A) (A) (A) (A) (A)
                 (A) (A) (A) (A) (A) (A) (A) (A) (A) (A) (A) (A)
                 (A) (A) (A) (A) (A) (A) (A) (A) (A) (A) (A) (A)
                 (A) (A) (A) (A) (A) (A) (A) (A) (A) (A) (A) (A)
                 (A) (A) (A) (A) (A) (A) (A) (A) (A) (A) (A) (A)
                 (A) (A) (A) (A) (A) (A) (A) (A) (A) (A) (A) (A)
                 (A) (A) (A) (A) (A) (A) (A) (A) (A) (A) (A) (A)
                 (A) (A) (A) (A) (A) (A) (A) (A) (A) (A) (A) (A)
                 (A) (A) (A) (A) (A) (A) (A) (A) (A) (A) (A) (A)
                 (A) (A) (A) (A) (A) (A) (A) (A) (A) (A) (A) (A)
                 (A) (A) (A) (A) (A) (A) (A) (A) (A) (A) (A) (A)
                 (A) (A) (A) (A) (A) (A) (A) (A) (A) (A) (A) (A)
                 (A) (A) (A) (A) (A) (A) (A) (A) (A) (A) (A) (A)
                 (A) (A) (A) (A) (A) (A) (A) (A) (A) (A) (A) (A)
                 (A) (A) (A) (A) (A) (A) (A) (A) (A) (A) (A) (A)
                 (A) (A) (A) (A) (A) (A) (A) (A) (A) (A) (A) (A)
                 (A) (A) (A) (A) (A) (A) (A) (A) (A) (A) (A) (A)
                 (A) (A) (A) (A) (A) (A) (A) (A) (A) (A) (A) (A)
                 (A) (A) (A) (A) (A) (A) (A) (A) (A) (A) (A) (A)
                 (A) (A) (A) (A) (A) (A) (A) (A) (A) (A) (A) (A)
                 (A) (A) (A) (A) (A) (A) (A) (A) (A) (A) (A) (A)
                 (A) (A) (A) (A) (A) (A) (A) (A) (A) (A) (A) (A)
                 (A) (A) (A) (A) (A) (A) (A) (A) (A) (A) (A) (A)
                 (A) (A) (A) (A) (A) (A) (A) (A) (A) (A) (A) (A)
                 (A) (A) (A) (A) (A) (A) (A) (A) (A) (A) (A) (A)
                 (A) (A) (A) (A) (A) (A) (A) (A) (A) (A) (A) (A)
                 (A) (A) (A) (A) (A) (A) (A) (A) (A) (A) (A) (A)
                 (A) (A) (A) (A) (A) (A) (A) (A) (A) (A) (A) (A)
                 (A) (A) (A) (A) (A) (A) (A) (A) (A) (A) (A) (A)
                 (A) (A) (A) (A) (A) (A) (A) (A) (A) (A) (A) (A)
                 (A) (A) (A) (A) (A) (A) (A) (A) (A) (A) (A) (A)
                 (A) (A) (A) (A) (A) (A) (A) (A) (A) (A) (A) (A)
                 (A) (A) (A) (A) (A) (A) (A) (A) (A) (A) (A) (A)
                 (A) (A) (A) (A) (A) (A) (A) (A) (A) (A) (A) (A)
                 (A) (A) (A) (A) (A) (A) (A) (A) (A) (A) (A) (A)
                 (A) (A) (A) (A) (A) (A) (A) (A) (A) (A) (A) (A)
                 (A) (A) (A) (A) (A) (A) (A) (A) (A) (A) (A) (A)
                 (A) (A) (A) (A) (A) (A) (A) (A) (A) (A) (A) (A)
                 (A) (A) (A) (A) (A) (A) (A) (A) (A) (A) (A) (A)
                 (A) (A) (A) (A) (A) (A) (A) (A) (A) (A) (A) (A)
                 (A) (A) (A) (A) (A) (A) (A) (A) (A) (A) (A) (A)
                 (A) (A) (A) (A) (A) (A) (A) (A) (A) (A) (A) (A)
                 (A) (A) (A) (A) (A) (A) (A) (A) (A) (A) (A) (A)
                 (A) (A) (A) (A) (A) (A) (A) (A) (A) (A) (A) (A)
                 (A) (A) (A) (A) (A) (A) (A) (A) (A) (A) (A) (A)
                 (A) (A) (A) (A) (A) (A) (A) (A) (A) (A) (A) (A)
                 (A) (A) (A) (A) (A) (A) (A) (A) (A) (A) (A) (A)
                 (A) (A) (A) (A) (A) (A) (A) (A) (A) (A) (A) (A)
                 (A) (A) (A) (A) (A) (A) (A) (A) (A) (A) (A) (A)
                 (A) (A) (A) (A) (A) (A) (A) (A) (A) (A) (A) (A)
                 (A) (A) (A) (A) (A) (A) (A) (A) (A) (A) (A) (A)
                 (A) (A) (A) (A) (A) (A) (A) (A) (A) (A) (A) (A)
                 (A) (A) (A) (A) (A) (A) (A) (A) (A) (A) (A) (A)
                 (A) (A) (A)
 The electronic state is 1-A.
 Alpha  occ. eigenvalues -- -145.34696 -19.16282 -19.13998 -19.13882 -19.12793
 Alpha  occ. eigenvalues --  -19.11390 -19.11127 -19.10775 -19.09084 -19.09054
 Alpha  occ. eigenvalues --  -19.08591 -19.08383 -19.08236 -19.07397 -19.06505
 Alpha  occ. eigenvalues --  -19.06276 -19.05896 -19.05789 -19.05721 -19.05666
 Alpha  occ. eigenvalues --  -19.04941 -19.04385 -19.03428 -19.02373 -15.40475
 Alpha  occ. eigenvalues --  -14.57589 -14.39855 -14.37588 -14.36759 -14.36258
 Alpha  occ. eigenvalues --  -14.35875 -14.34290 -14.33953 -14.32285 -14.32147
 Alpha  occ. eigenvalues --  -14.31885 -14.31756 -14.31604 -14.31055 -14.30333
 Alpha  occ. eigenvalues --  -12.54093 -12.54048 -12.54027 -10.33524 -10.32077
 Alpha  occ. eigenvalues --  -10.30008 -10.29844 -10.29190 -10.27711 -10.27330
 Alpha  occ. eigenvalues --  -10.27249 -10.27248 -10.26401 -10.25625 -10.25540
 Alpha  occ. eigenvalues --  -10.25526 -10.25284 -10.25233 -10.25097 -10.24965
 Alpha  occ. eigenvalues --  -10.24756 -10.24439 -10.24037 -10.23753 -10.23384
 Alpha  occ. eigenvalues --  -10.22873 -10.22589 -10.22286 -10.22138 -10.22077
 Alpha  occ. eigenvalues --  -10.21826 -10.21489 -10.21107 -10.21067 -10.20348
 Alpha  occ. eigenvalues --  -10.20267 -10.20135 -10.19539 -10.19362 -10.19239
 Alpha  occ. eigenvalues --  -10.19153 -10.18968 -10.18344 -10.17945 -10.17787
 Alpha  occ. eigenvalues --  -10.17309 -10.17180 -10.17070 -10.17007 -10.16922
 Alpha  occ. eigenvalues --  -10.16791 -10.16782 -10.16666 -10.16549 -10.16383
 Alpha  occ. eigenvalues --  -10.16354 -10.13567  -1.77474  -1.12971  -1.07124
 Alpha  occ. eigenvalues --   -1.05725  -1.05180  -1.04993  -1.04136  -1.04010
 Alpha  occ. eigenvalues --   -1.03884  -1.02989  -1.02680  -1.02327  -1.02195
 Alpha  occ. eigenvalues --   -1.01966  -1.01894  -1.01588  -1.00497  -1.00032
 Alpha  occ. eigenvalues --   -0.99622  -0.99307  -0.99029  -0.98922  -0.98067
 Alpha  occ. eigenvalues --   -0.97964  -0.96952  -0.96812  -0.93910  -0.93701
 Alpha  occ. eigenvalues --   -0.92914  -0.92537  -0.91276  -0.91042  -0.90841
 Alpha  occ. eigenvalues --   -0.90836  -0.90159  -0.89793  -0.89143  -0.88892
 Alpha  occ. eigenvalues --   -0.88112  -0.87779  -0.87090  -0.87050  -0.86681
 Alpha  occ. eigenvalues --   -0.82610  -0.82094  -0.81353  -0.80032  -0.79291
 Alpha  occ. eigenvalues --   -0.77870  -0.77445  -0.77116  -0.77020  -0.76801
 Alpha  occ. eigenvalues --   -0.75343  -0.74221  -0.73569  -0.72215  -0.72163
 Alpha  occ. eigenvalues --   -0.71806  -0.71712  -0.71551  -0.70614  -0.70570
 Alpha  occ. eigenvalues --   -0.69193  -0.69060  -0.68642  -0.67666  -0.67630
 Alpha  occ. eigenvalues --   -0.66713  -0.65388  -0.65265  -0.64595  -0.64146
 Alpha  occ. eigenvalues --   -0.63497  -0.62720  -0.61976  -0.61612  -0.60879
 Alpha  occ. eigenvalues --   -0.60364  -0.60326  -0.60062  -0.59449  -0.59154
 Alpha  occ. eigenvalues --   -0.59014  -0.58849  -0.58570  -0.57525  -0.57211
 Alpha  occ. eigenvalues --   -0.56985  -0.56548  -0.56293  -0.55893  -0.55733
 Alpha  occ. eigenvalues --   -0.55693  -0.55424  -0.55361  -0.55141  -0.55114
 Alpha  occ. eigenvalues --   -0.54211  -0.54105  -0.53905  -0.53575  -0.53299
 Alpha  occ. eigenvalues --   -0.52792  -0.52255  -0.52235  -0.51569  -0.51047
 Alpha  occ. eigenvalues --   -0.50942  -0.50547  -0.49981  -0.49707  -0.49404
 Alpha  occ. eigenvalues --   -0.49201  -0.49010  -0.48564  -0.48500  -0.48303
 Alpha  occ. eigenvalues --   -0.48151  -0.47603  -0.47507  -0.47220  -0.47194
 Alpha  occ. eigenvalues --   -0.47050  -0.46886  -0.46244  -0.46173  -0.46052
 Alpha  occ. eigenvalues --   -0.45838  -0.45529  -0.45369  -0.45353  -0.45212
 Alpha  occ. eigenvalues --   -0.44994  -0.44677  -0.44438  -0.44409  -0.44295
 Alpha  occ. eigenvalues --   -0.43962  -0.43864  -0.43840  -0.43608  -0.43362
 Alpha  occ. eigenvalues --   -0.43137  -0.42990  -0.42837  -0.42740  -0.42541
 Alpha  occ. eigenvalues --   -0.42388  -0.42245  -0.42050  -0.41869  -0.41787
 Alpha  occ. eigenvalues --   -0.41618  -0.41583  -0.41443  -0.41273  -0.41192
 Alpha  occ. eigenvalues --   -0.41002  -0.40937  -0.40868  -0.40720  -0.40664
 Alpha  occ. eigenvalues --   -0.40366  -0.40262  -0.40162  -0.40006  -0.39916
 Alpha  occ. eigenvalues --   -0.39782  -0.39494  -0.39322  -0.39173  -0.38872
 Alpha  occ. eigenvalues --   -0.38830  -0.38689  -0.38611  -0.38529  -0.38479
 Alpha  occ. eigenvalues --   -0.38412  -0.38200  -0.37886  -0.37707  -0.37659
 Alpha  occ. eigenvalues --   -0.37395  -0.37278  -0.37188  -0.37024  -0.36898
 Alpha  occ. eigenvalues --   -0.36779  -0.36367  -0.36293  -0.36042  -0.35999
 Alpha  occ. eigenvalues --   -0.35905  -0.35802  -0.35657  -0.35454  -0.35162
 Alpha  occ. eigenvalues --   -0.35081  -0.34866  -0.34806  -0.34639  -0.34602
 Alpha  occ. eigenvalues --   -0.34540  -0.33917  -0.33735  -0.33638  -0.33343
 Alpha  occ. eigenvalues --   -0.33284  -0.33172  -0.32873  -0.32787  -0.32228
 Alpha  occ. eigenvalues --   -0.32155  -0.32007  -0.31962  -0.31760  -0.31214
 Alpha  occ. eigenvalues --   -0.31202  -0.30928  -0.30597  -0.30348  -0.29799
 Alpha  occ. eigenvalues --   -0.29134  -0.28946  -0.28761  -0.27752  -0.27597
 Alpha  occ. eigenvalues --   -0.27298  -0.26732  -0.26513  -0.26357  -0.26275
 Alpha  occ. eigenvalues --   -0.26006  -0.25876  -0.25176  -0.24959  -0.24803
 Alpha  occ. eigenvalues --   -0.24513  -0.24367  -0.24281  -0.24042  -0.23853
 Alpha  occ. eigenvalues --   -0.23815  -0.23651  -0.23168  -0.22710  -0.22357
 Alpha  occ. eigenvalues --   -0.22213  -0.21911  -0.21845  -0.21372  -0.21260
 Alpha  occ. eigenvalues --   -0.21258  -0.20992  -0.20588  -0.20277  -0.19696
 Alpha  occ. eigenvalues --   -0.19649  -0.19430  -0.18160
 Alpha virt. eigenvalues --   -0.09949  -0.03652  -0.03205  -0.01928  -0.01003
 Alpha virt. eigenvalues --   -0.00764   0.00021   0.00526   0.00577   0.00672
 Alpha virt. eigenvalues --    0.01105   0.01761   0.01828   0.02100   0.02699
 Alpha virt. eigenvalues --    0.02892   0.03348   0.03702   0.04111   0.04261
 Alpha virt. eigenvalues --    0.04379   0.04458   0.04859   0.04923   0.05270
 Alpha virt. eigenvalues --    0.05379   0.05833   0.05970   0.06042   0.06117
 Alpha virt. eigenvalues --    0.06299   0.06470   0.06704   0.06884   0.07049
 Alpha virt. eigenvalues --    0.07133   0.07327   0.07832   0.07951   0.08255
 Alpha virt. eigenvalues --    0.08502   0.08616   0.08764   0.08931   0.09169
 Alpha virt. eigenvalues --    0.09315   0.09852   0.10048   0.10308   0.10571
 Alpha virt. eigenvalues --    0.10799   0.10912   0.11139   0.11215   0.11444
 Alpha virt. eigenvalues --    0.11516   0.11747   0.11823   0.11988   0.12351
 Alpha virt. eigenvalues --    0.12662   0.12735   0.12837   0.12984   0.13321
 Alpha virt. eigenvalues --    0.13494   0.13752   0.13915   0.13945   0.14158
 Alpha virt. eigenvalues --    0.14325   0.14393   0.14543   0.14762   0.14976
 Alpha virt. eigenvalues --    0.15080   0.15301   0.15359   0.15427   0.15740
 Alpha virt. eigenvalues --    0.15996   0.16182   0.16237   0.16768   0.16856
 Alpha virt. eigenvalues --    0.16981   0.17202   0.17314   0.17374   0.17542
 Alpha virt. eigenvalues --    0.17728   0.18015   0.18201   0.18314   0.18574
 Alpha virt. eigenvalues --    0.18773   0.19104   0.19216   0.19352   0.19421
 Alpha virt. eigenvalues --    0.19574   0.19693   0.19846   0.20015   0.20121
 Alpha virt. eigenvalues --    0.20276   0.20597   0.20864   0.21149   0.21434
 Alpha virt. eigenvalues --    0.21497   0.21675   0.21795   0.22021   0.22472
 Alpha virt. eigenvalues --    0.22718   0.22783   0.22951   0.23032   0.23220
 Alpha virt. eigenvalues --    0.23484   0.23900   0.24115   0.24410   0.24697
 Alpha virt. eigenvalues --    0.24806   0.24856   0.25104   0.25357   0.25396
 Alpha virt. eigenvalues --    0.25614   0.26075   0.26181   0.26253   0.26452
 Alpha virt. eigenvalues --    0.26558   0.26770   0.27291   0.27310   0.27481
 Alpha virt. eigenvalues --    0.27670   0.27849   0.28003   0.28098   0.28465
 Alpha virt. eigenvalues --    0.28594   0.28804   0.28825   0.29169   0.29295
 Alpha virt. eigenvalues --    0.29581   0.29776   0.30069   0.30152   0.30890
 Alpha virt. eigenvalues --    0.31122   0.31429   0.31506   0.31563   0.31887
 Alpha virt. eigenvalues --    0.32034   0.32392   0.32747   0.32979   0.33237
 Alpha virt. eigenvalues --    0.33565   0.33722   0.34061   0.34399   0.34503
 Alpha virt. eigenvalues --    0.34674   0.34770   0.35168   0.35658   0.36005
 Alpha virt. eigenvalues --    0.36199   0.36620   0.37150   0.37403   0.37488
 Alpha virt. eigenvalues --    0.37769   0.38066   0.38253   0.38453   0.38532
 Alpha virt. eigenvalues --    0.38664   0.38966   0.39510   0.40005   0.40079
 Alpha virt. eigenvalues --    0.40274   0.40541   0.40937   0.41234   0.41414
 Alpha virt. eigenvalues --    0.41716   0.41824   0.42068   0.42440   0.42534
 Alpha virt. eigenvalues --    0.42826   0.43056   0.43188   0.43397   0.43651
 Alpha virt. eigenvalues --    0.43910   0.44025   0.44283   0.44320   0.44459
 Alpha virt. eigenvalues --    0.44928   0.44939   0.45072   0.45364   0.45674
 Alpha virt. eigenvalues --    0.45812   0.45933   0.46064   0.46182   0.46485
 Alpha virt. eigenvalues --    0.46665   0.47085   0.47211   0.47302   0.47591
 Alpha virt. eigenvalues --    0.47701   0.48026   0.48119   0.48408   0.48562
 Alpha virt. eigenvalues --    0.48690   0.48909   0.49165   0.49235   0.49489
 Alpha virt. eigenvalues --    0.49605   0.50012   0.50023   0.50250   0.50486
 Alpha virt. eigenvalues --    0.50817   0.50935   0.50991   0.51248   0.51342
 Alpha virt. eigenvalues --    0.51440   0.51934   0.52033   0.52193   0.52355
 Alpha virt. eigenvalues --    0.52733   0.52933   0.53162   0.53305   0.53513
 Alpha virt. eigenvalues --    0.53943   0.54059   0.54352   0.54473   0.54864
 Alpha virt. eigenvalues --    0.54970   0.55104   0.55198   0.55280   0.55658
 Alpha virt. eigenvalues --    0.55824   0.56038   0.56108   0.56291   0.56510
 Alpha virt. eigenvalues --    0.56684   0.56804   0.56907   0.57057   0.57253
 Alpha virt. eigenvalues --    0.57405   0.57784   0.57868   0.57904   0.58050
 Alpha virt. eigenvalues --    0.58223   0.58632   0.58856   0.58983   0.59370
 Alpha virt. eigenvalues --    0.59469   0.59704   0.59721   0.59954   0.60043
 Alpha virt. eigenvalues --    0.60145   0.60396   0.60641   0.60771   0.60828
 Alpha virt. eigenvalues --    0.60948   0.61022   0.61433   0.61523   0.61555
 Alpha virt. eigenvalues --    0.61805   0.61872   0.62082   0.62138   0.62320
 Alpha virt. eigenvalues --    0.62423   0.62539   0.62672   0.62873   0.63082
 Alpha virt. eigenvalues --    0.63250   0.63360   0.63450   0.63680   0.63849
 Alpha virt. eigenvalues --    0.63935   0.64136   0.64261   0.64309   0.64469
 Alpha virt. eigenvalues --    0.64629   0.64770   0.64882   0.64971   0.65172
 Alpha virt. eigenvalues --    0.65305   0.65336   0.65470   0.65589   0.65638
 Alpha virt. eigenvalues --    0.65809   0.65919   0.65956   0.65981   0.66171
 Alpha virt. eigenvalues --    0.66259   0.66413   0.66524   0.66745   0.66785
 Alpha virt. eigenvalues --    0.66856   0.67036   0.67129   0.67253   0.67266
 Alpha virt. eigenvalues --    0.67424   0.67502   0.67529   0.67567   0.67695
 Alpha virt. eigenvalues --    0.67780   0.67852   0.68062   0.68181   0.68261
 Alpha virt. eigenvalues --    0.68464   0.68468   0.68585   0.68663   0.68804
 Alpha virt. eigenvalues --    0.69020   0.69081   0.69219   0.69307   0.69496
 Alpha virt. eigenvalues --    0.69668   0.69843   0.69923   0.70057   0.70343
 Alpha virt. eigenvalues --    0.70439   0.70631   0.70773   0.70853   0.70900
 Alpha virt. eigenvalues --    0.71055   0.71192   0.71227   0.71485   0.71703
 Alpha virt. eigenvalues --    0.71833   0.72088   0.72166   0.72202   0.72420
 Alpha virt. eigenvalues --    0.72489   0.72778   0.72836   0.72942   0.73082
 Alpha virt. eigenvalues --    0.73189   0.73408   0.73616   0.73686   0.73908
 Alpha virt. eigenvalues --    0.74020   0.74178   0.74505   0.74635   0.74718
 Alpha virt. eigenvalues --    0.74817   0.75047   0.75238   0.75356   0.75640
 Alpha virt. eigenvalues --    0.75913   0.76096   0.76389   0.76694   0.76789
 Alpha virt. eigenvalues --    0.76958   0.77171   0.77275   0.77466   0.77529
 Alpha virt. eigenvalues --    0.77799   0.78149   0.78305   0.78563   0.78956
 Alpha virt. eigenvalues --    0.79061   0.79223   0.79614   0.79655   0.79924
 Alpha virt. eigenvalues --    0.80268   0.80358   0.80778   0.80820   0.81101
 Alpha virt. eigenvalues --    0.81276   0.81435   0.81782   0.81961   0.82393
 Alpha virt. eigenvalues --    0.82645   0.83062   0.83259   0.83513   0.83798
 Alpha virt. eigenvalues --    0.84248   0.84339   0.84532   0.85296   0.85341
 Alpha virt. eigenvalues --    0.85478   0.85937   0.86070   0.86332   0.86478
 Alpha virt. eigenvalues --    0.86674   0.87101   0.87253   0.87475   0.87949
 Alpha virt. eigenvalues --    0.88163   0.88335   0.88675   0.88741   0.89247
 Alpha virt. eigenvalues --    0.89548   0.89712   0.90050   0.90283   0.90745
 Alpha virt. eigenvalues --    0.90906   0.91214   0.91449   0.91876   0.92283
 Alpha virt. eigenvalues --    0.92413   0.92697   0.93253   0.93601   0.94099
 Alpha virt. eigenvalues --    0.94227   0.94282   0.94670   0.94929   0.95135
 Alpha virt. eigenvalues --    0.95380   0.95831   0.96100   0.96549   0.96767
 Alpha virt. eigenvalues --    0.97194   0.97248   0.97570   0.97805   0.98024
 Alpha virt. eigenvalues --    0.98364   0.98463   0.98761   0.98921   0.99062
 Alpha virt. eigenvalues --    0.99473   0.99547   0.99786   1.00153   1.00590
 Alpha virt. eigenvalues --    1.00625   1.00922   1.01260   1.01491   1.01796
 Alpha virt. eigenvalues --    1.02147   1.02335   1.02431   1.02943   1.03198
 Alpha virt. eigenvalues --    1.03590   1.03788   1.04077   1.04539   1.04655
 Alpha virt. eigenvalues --    1.05056   1.05305   1.05528   1.05663   1.06260
 Alpha virt. eigenvalues --    1.06968   1.07297   1.07853   1.08023   1.08220
 Alpha virt. eigenvalues --    1.08604   1.08752   1.09120   1.09369   1.09525
 Alpha virt. eigenvalues --    1.10206   1.10441   1.10488   1.11068   1.11162
 Alpha virt. eigenvalues --    1.11384   1.11546   1.11944   1.12101   1.12203
 Alpha virt. eigenvalues --    1.12825   1.13206   1.13343   1.13493   1.13593
 Alpha virt. eigenvalues --    1.13878   1.14271   1.14437   1.14841   1.14981
 Alpha virt. eigenvalues --    1.15478   1.15704   1.15896   1.16052   1.16219
 Alpha virt. eigenvalues --    1.16513   1.16767   1.16879   1.17124   1.17413
 Alpha virt. eigenvalues --    1.17420   1.17649   1.18219   1.18459   1.18943
 Alpha virt. eigenvalues --    1.19094   1.19188   1.19411   1.19890   1.20110
 Alpha virt. eigenvalues --    1.20393   1.20690   1.20791   1.20917   1.21488
 Alpha virt. eigenvalues --    1.21667   1.21885   1.22263   1.22821   1.22942
 Alpha virt. eigenvalues --    1.23180   1.23391   1.23689   1.24033   1.24244
 Alpha virt. eigenvalues --    1.24652   1.24937   1.25337   1.25498   1.25585
 Alpha virt. eigenvalues --    1.25636   1.26140   1.26329   1.26741   1.26994
 Alpha virt. eigenvalues --    1.27390   1.27630   1.27725   1.28215   1.28239
 Alpha virt. eigenvalues --    1.28408   1.28575   1.28747   1.28932   1.29149
 Alpha virt. eigenvalues --    1.29369   1.29704   1.30100   1.30292   1.30347
 Alpha virt. eigenvalues --    1.30500   1.30974   1.31229   1.31656   1.31982
 Alpha virt. eigenvalues --    1.32323   1.32478   1.32708   1.32882   1.32964
 Alpha virt. eigenvalues --    1.33241   1.33977   1.34115   1.34452   1.34849
 Alpha virt. eigenvalues --    1.35445   1.35691   1.36218   1.36299   1.36895
 Alpha virt. eigenvalues --    1.37115   1.37213   1.37396   1.37609   1.37815
 Alpha virt. eigenvalues --    1.38044   1.38208   1.38495   1.38969   1.39155
 Alpha virt. eigenvalues --    1.39534   1.39672   1.39786   1.40258   1.40435
 Alpha virt. eigenvalues --    1.40544   1.41120   1.41377   1.41397   1.41780
 Alpha virt. eigenvalues --    1.41861   1.42021   1.42369   1.42564   1.43061
 Alpha virt. eigenvalues --    1.43222   1.43413   1.43473   1.43986   1.44205
 Alpha virt. eigenvalues --    1.44617   1.44944   1.45137   1.45371   1.45840
 Alpha virt. eigenvalues --    1.46180   1.46467   1.46937   1.47302   1.47363
 Alpha virt. eigenvalues --    1.47655   1.47934   1.48371   1.48569   1.49037
 Alpha virt. eigenvalues --    1.49255   1.49341   1.49465   1.49821   1.50500
 Alpha virt. eigenvalues --    1.50647   1.50814   1.51340   1.51384   1.51481
 Alpha virt. eigenvalues --    1.51703   1.52526   1.52789   1.53045   1.53329
 Alpha virt. eigenvalues --    1.53620   1.53895   1.54271   1.54364   1.54816
 Alpha virt. eigenvalues --    1.54901   1.55030   1.55491   1.55571   1.55975
 Alpha virt. eigenvalues --    1.56302   1.56615   1.57073   1.57293   1.57738
 Alpha virt. eigenvalues --    1.57881   1.58282   1.58648   1.58754   1.59217
 Alpha virt. eigenvalues --    1.59559   1.59673   1.59911   1.60379   1.60986
 Alpha virt. eigenvalues --    1.61180   1.61794   1.62141   1.62508   1.62820
 Alpha virt. eigenvalues --    1.62920   1.63495   1.63730   1.63887   1.64114
 Alpha virt. eigenvalues --    1.64334   1.64559   1.64973   1.65482   1.65638
 Alpha virt. eigenvalues --    1.65831   1.66259   1.66450   1.66722   1.66979
 Alpha virt. eigenvalues --    1.67296   1.67525   1.68465   1.68577   1.68771
 Alpha virt. eigenvalues --    1.69584   1.69809   1.69931   1.70381   1.70598
 Alpha virt. eigenvalues --    1.70741   1.70972   1.71221   1.71412   1.71821
 Alpha virt. eigenvalues --    1.72025   1.72084   1.72380   1.72575   1.72761
 Alpha virt. eigenvalues --    1.73008   1.73395   1.73550   1.73856   1.74039
 Alpha virt. eigenvalues --    1.74208   1.74611   1.74920   1.75194   1.75314
 Alpha virt. eigenvalues --    1.75610   1.75818   1.76062   1.76262   1.76681
 Alpha virt. eigenvalues --    1.76713   1.76917   1.77024   1.77196   1.77284
 Alpha virt. eigenvalues --    1.77430   1.77661   1.77839   1.77937   1.78047
 Alpha virt. eigenvalues --    1.78140   1.78217   1.78482   1.78551   1.78590
 Alpha virt. eigenvalues --    1.78642   1.78852   1.78961   1.79198   1.79382
 Alpha virt. eigenvalues --    1.79659   1.79866   1.80073   1.80377   1.80620
 Alpha virt. eigenvalues --    1.80696   1.80784   1.80876   1.81304   1.81532
 Alpha virt. eigenvalues --    1.81604   1.81804   1.81962   1.82114   1.82224
 Alpha virt. eigenvalues --    1.82606   1.82702   1.83013   1.83050   1.83234
 Alpha virt. eigenvalues --    1.83313   1.83381   1.83453   1.83862   1.83902
 Alpha virt. eigenvalues --    1.83972   1.84248   1.84369   1.84521   1.84620
 Alpha virt. eigenvalues --    1.84892   1.85008   1.85194   1.85267   1.85677
 Alpha virt. eigenvalues --    1.85946   1.86175   1.86361   1.86545   1.86694
 Alpha virt. eigenvalues --    1.86822   1.86976   1.87237   1.87314   1.87564
 Alpha virt. eigenvalues --    1.87636   1.87926   1.88144   1.88259   1.88577
 Alpha virt. eigenvalues --    1.88843   1.89528   1.89571   1.89930   1.89990
 Alpha virt. eigenvalues --    1.90118   1.90267   1.90381   1.90593   1.90793
 Alpha virt. eigenvalues --    1.90905   1.91005   1.91089   1.91298   1.91358
 Alpha virt. eigenvalues --    1.91603   1.91758   1.92103   1.92387   1.92613
 Alpha virt. eigenvalues --    1.92721   1.92797   1.92884   1.93363   1.93514
 Alpha virt. eigenvalues --    1.93599   1.93896   1.94208   1.94421   1.94579
 Alpha virt. eigenvalues --    1.94901   1.95074   1.95307   1.95397   1.95800
 Alpha virt. eigenvalues --    1.96074   1.96258   1.96498   1.96571   1.96793
 Alpha virt. eigenvalues --    1.97193   1.97304   1.97396   1.97582   1.97854
 Alpha virt. eigenvalues --    1.98053   1.98160   1.98611   1.98675   1.98933
 Alpha virt. eigenvalues --    1.99081   1.99431   1.99591   1.99840   1.99985
 Alpha virt. eigenvalues --    2.00306   2.00886   2.01123   2.01331   2.01389
 Alpha virt. eigenvalues --    2.01575   2.01842   2.02014   2.02145   2.02542
 Alpha virt. eigenvalues --    2.02897   2.03138   2.03328   2.03400   2.03648
 Alpha virt. eigenvalues --    2.04086   2.04260   2.04465   2.04942   2.05198
 Alpha virt. eigenvalues --    2.05712   2.05789   2.05942   2.06071   2.06586
 Alpha virt. eigenvalues --    2.07019   2.07144   2.07227   2.07376   2.07433
 Alpha virt. eigenvalues --    2.07515   2.07935   2.08066   2.08756   2.08980
 Alpha virt. eigenvalues --    2.09167   2.09284   2.09751   2.09846   2.09931
 Alpha virt. eigenvalues --    2.10300   2.10548   2.10756   2.11148   2.11451
 Alpha virt. eigenvalues --    2.11760   2.12091   2.12479   2.12752   2.13083
 Alpha virt. eigenvalues --    2.13215   2.13472   2.13608   2.13752   2.14025
 Alpha virt. eigenvalues --    2.14321   2.14724   2.15419   2.16011   2.16179
 Alpha virt. eigenvalues --    2.16530   2.16753   2.16754   2.17106   2.17732
 Alpha virt. eigenvalues --    2.17956   2.18430   2.18561   2.18568   2.19097
 Alpha virt. eigenvalues --    2.19227   2.19512   2.19730   2.19944   2.20020
 Alpha virt. eigenvalues --    2.20236   2.20494   2.21105   2.21316   2.22191
 Alpha virt. eigenvalues --    2.22356   2.22690   2.22852   2.22924   2.23473
 Alpha virt. eigenvalues --    2.23620   2.24045   2.24207   2.24585   2.24805
 Alpha virt. eigenvalues --    2.24930   2.25042   2.25366   2.25994   2.26280
 Alpha virt. eigenvalues --    2.26691   2.26744   2.27787   2.27968   2.28257
 Alpha virt. eigenvalues --    2.28461   2.28564   2.28732   2.29455   2.29959
 Alpha virt. eigenvalues --    2.30014   2.30554   2.30614   2.30755   2.31309
 Alpha virt. eigenvalues --    2.31500   2.32494   2.32548   2.33193   2.33694
 Alpha virt. eigenvalues --    2.34081   2.34294   2.34431   2.35214   2.35842
 Alpha virt. eigenvalues --    2.36017   2.36162   2.36264   2.36484   2.37105
 Alpha virt. eigenvalues --    2.37370   2.37717   2.37840   2.38197   2.38264
 Alpha virt. eigenvalues --    2.38599   2.38810   2.38963   2.39536   2.39829
 Alpha virt. eigenvalues --    2.40064   2.40177   2.40350   2.40733   2.41056
 Alpha virt. eigenvalues --    2.41228   2.41606   2.42159   2.42455   2.42777
 Alpha virt. eigenvalues --    2.42908   2.43007   2.43444   2.43889   2.43992
 Alpha virt. eigenvalues --    2.44482   2.44785   2.45042   2.45260   2.45507
 Alpha virt. eigenvalues --    2.46357   2.46895   2.47049   2.47237   2.47574
 Alpha virt. eigenvalues --    2.47644   2.48283   2.48701   2.48891   2.49371
 Alpha virt. eigenvalues --    2.49524   2.49772   2.50295   2.50442   2.50977
 Alpha virt. eigenvalues --    2.51330   2.52158   2.52400   2.52591   2.52798
 Alpha virt. eigenvalues --    2.52930   2.53708   2.53958   2.54150   2.54496
 Alpha virt. eigenvalues --    2.54823   2.55146   2.55445   2.55892   2.55945
 Alpha virt. eigenvalues --    2.56289   2.56534   2.56784   2.56966   2.57482
 Alpha virt. eigenvalues --    2.57814   2.57948   2.58401   2.58729   2.58982
 Alpha virt. eigenvalues --    2.59448   2.59794   2.60550   2.60685   2.61158
 Alpha virt. eigenvalues --    2.61469   2.61931   2.62150   2.62434   2.62650
 Alpha virt. eigenvalues --    2.62727   2.63082   2.63296   2.63367   2.64425
 Alpha virt. eigenvalues --    2.64761   2.65307   2.65677   2.65985   2.66426
 Alpha virt. eigenvalues --    2.66512   2.66684   2.66765   2.66994   2.67445
 Alpha virt. eigenvalues --    2.67572   2.67992   2.68098   2.68664   2.68822
 Alpha virt. eigenvalues --    2.69121   2.69196   2.69278   2.69836   2.70083
 Alpha virt. eigenvalues --    2.70384   2.70669   2.71164   2.71378   2.71651
 Alpha virt. eigenvalues --    2.72001   2.72178   2.72244   2.72322   2.72799
 Alpha virt. eigenvalues --    2.72981   2.73105   2.73334   2.73561   2.74024
 Alpha virt. eigenvalues --    2.74521   2.74688   2.74929   2.75081   2.75293
 Alpha virt. eigenvalues --    2.75592   2.75650   2.75793   2.76219   2.76833
 Alpha virt. eigenvalues --    2.76919   2.77206   2.77313   2.77475   2.77693
 Alpha virt. eigenvalues --    2.77782   2.78109   2.78279   2.78651   2.78860
 Alpha virt. eigenvalues --    2.79277   2.79544   2.79906   2.80173   2.80727
 Alpha virt. eigenvalues --    2.80883   2.80995   2.81411   2.81571   2.81870
 Alpha virt. eigenvalues --    2.82183   2.82556   2.82610   2.82910   2.83221
 Alpha virt. eigenvalues --    2.83711   2.83812   2.83944   2.84217   2.84639
 Alpha virt. eigenvalues --    2.84992   2.85552   2.85793   2.86238   2.86678
 Alpha virt. eigenvalues --    2.87232   2.87390   2.87708   2.88241   2.88467
 Alpha virt. eigenvalues --    2.88735   2.88899   2.89009   2.89427   2.89905
 Alpha virt. eigenvalues --    2.90244   2.90395   2.90747   2.90987   2.91112
 Alpha virt. eigenvalues --    2.91561   2.91662   2.92020   2.92244   2.92577
 Alpha virt. eigenvalues --    2.92829   2.93090   2.93240   2.93529   2.93905
 Alpha virt. eigenvalues --    2.94087   2.94218   2.94480   2.94642   2.94857
 Alpha virt. eigenvalues --    2.94986   2.95217   2.95714   2.96961   2.97084
 Alpha virt. eigenvalues --    2.97280   2.97964   2.98141   2.98594   2.98761
 Alpha virt. eigenvalues --    2.99236   2.99855   3.00496   3.00746   3.01411
 Alpha virt. eigenvalues --    3.01895   3.01958   3.02441   3.02808   3.02888
 Alpha virt. eigenvalues --    3.02997   3.03225   3.03687   3.03922   3.04102
 Alpha virt. eigenvalues --    3.04186   3.04329   3.04759   3.05443   3.05576
 Alpha virt. eigenvalues --    3.05824   3.06125   3.06338   3.06708   3.07192
 Alpha virt. eigenvalues --    3.07651   3.08471   3.08858   3.09462   3.10127
 Alpha virt. eigenvalues --    3.10394   3.11013   3.11107   3.11905   3.12464
 Alpha virt. eigenvalues --    3.13307   3.13457   3.14261   3.14522   3.15199
 Alpha virt. eigenvalues --    3.15639   3.15730   3.16081   3.16909   3.17313
 Alpha virt. eigenvalues --    3.17794   3.18145   3.18202   3.18872   3.19090
 Alpha virt. eigenvalues --    3.19141   3.19227   3.19514   3.19679   3.19892
 Alpha virt. eigenvalues --    3.20159   3.20769   3.21167   3.21478   3.21904
 Alpha virt. eigenvalues --    3.21977   3.22269   3.22359   3.22539   3.22859
 Alpha virt. eigenvalues --    3.23224   3.23568   3.23669   3.24233   3.24865
 Alpha virt. eigenvalues --    3.25449   3.26010   3.26177   3.27060   3.27233
 Alpha virt. eigenvalues --    3.27773   3.28446   3.28989   3.30729   3.32538
 Alpha virt. eigenvalues --    3.32762   3.32951   3.33808   3.34064   3.34708
 Alpha virt. eigenvalues --    3.36504   3.36583   3.37194   3.39585   3.40826
 Alpha virt. eigenvalues --    3.43879   3.47074   3.48001   3.48899   3.50272
 Alpha virt. eigenvalues --    3.52607   3.53452   3.53846   3.55432   3.56528
 Alpha virt. eigenvalues --    3.57712   3.58658   3.59818   3.59944   3.60289
 Alpha virt. eigenvalues --    3.60374   3.60566   3.61047   3.62661   3.63356
 Alpha virt. eigenvalues --    3.64164   3.66194   3.67096   3.68063   3.68468
 Alpha virt. eigenvalues --    3.69756   3.70103   3.70252   3.71014   3.71098
 Alpha virt. eigenvalues --    3.71387   3.71957   3.72262   3.72483   3.73352
 Alpha virt. eigenvalues --    3.73442   3.73680   3.74627   3.75228   3.75846
 Alpha virt. eigenvalues --    3.81242   3.82329   3.83517   3.84910
          Condensed to atoms (all electrons):
 Mulliken charges:
               1
     1  C    0.071391
     2  C    0.014681
     3  O   -0.288604
     4  H    0.036916
     5  H    0.018694
     6  H    0.002238
     7  N   -0.133353
     8  C    0.159987
     9  C    0.025028
    10  O   -0.280180
    11  C    0.140169
    12  C    0.105559
    13  O   -0.452047
    14  O   -0.379436
    15  H    0.113768
    16  H    0.006517
    17  H   -0.010711
    18  H   -0.014314
    19  N   -0.169603
    20  C    0.124745
    21  C    0.116615
    22  O   -0.297271
    23  C   -0.016251
    24  C    0.026373
    25  C   -0.017251
    26  C    0.004371
    27  N    0.083834
    28  H    0.145875
    29  H   -0.008259
    30  H    0.052351
    31  H    0.030920
    32  H    0.030751
    33  H    0.003897
    34  H    0.049538
    35  H    0.021744
    36  H    0.039366
    37  H    0.090519
    38  H    0.190439
    39  H    0.190100
    40  H    0.200744
    41  N   -0.101651
    42  C    0.053296
    43  C    0.079840
    44  O   -0.289056
    45  C    0.156454
    46  C    0.041492
    47  O   -0.425410
    48  O   -0.438785
    49  H    0.151656
    50  H    0.001417
    51  H   -0.005909
    52  H   -0.001242
    53  N   -0.179027
    54  C    0.234106
    55  C    0.024281
    56  O   -0.301816
    57  H    0.147370
    58  H    0.031571
    59  H    0.033642
    60  N   -0.145408
    61  C    0.139393
    62  C    0.048347
    63  O   -0.283670
    64  C    0.044369
    65  C    0.086717
    66  N   -0.042207
    67  O   -0.330962
    68  H    0.151433
    69  H    0.028566
    70  H    0.031950
    71  H    0.050376
    72  H    0.126113
    73  H    0.114681
    74  N   -0.141150
    75  C    0.229738
    76  C    0.018723
    77  O   -0.288819
    78  H    0.139601
    79  H    0.039096
    80  H    0.011697
    81  N   -0.138615
    82  C    0.116468
    83  C    0.161638
    84  O   -0.379985
    85  C    0.137507
    86  C   -0.021789
    87  C    0.014276
    88  C    0.041438
    89  C    0.010298
    90  C   -0.019770
    91  C    0.128222
    92  O   -0.198918
    93  H    0.162547
    94  H   -0.024321
    95  H    0.001441
    96  H   -0.039782
    97  H   -0.058756
    98  H   -0.032289
    99  H   -0.033182
   100  H   -0.042035
   101  H    0.168970
   102  N   -0.105614
   103  C    0.132354
   104  C    0.069054
   105  O   -0.290039
   106  C   -0.079789
   107  C   -0.023565
   108  C    0.032065
   109  C    0.053231
   110  H    0.133099
   111  H    0.005612
   112  H   -0.017941
   113  H   -0.007412
   114  H    0.037348
   115  H    0.011848
   116  H    0.003064
   117  H    0.031749
   118  H    0.016326
   119  H   -0.012252
   120  H    0.004455
   121  N   -0.112692
   122  C    0.078635
   123  C    0.101154
   124  O   -0.288409
   125  C    0.252586
   126  O   -0.354615
   127  H    0.129193
   128  H    0.019624
   129  H    0.019127
   130  H   -0.011083
   131  H    0.176119
   132  N   -0.119210
   133  C    0.096242
   134  C    0.078544
   135  O   -0.266028
   136  C    0.016518
   137  H    0.123798
   138  H    0.033852
   139  H    0.002109
   140  H    0.046540
   141  H    0.033527
   142  N   -0.130531
   143  C    0.098035
   144  C    0.062274
   145  O   -0.275462
   146  C    0.036429
   147  H    0.114643
   148  H    0.028260
   149  H    0.015298
   150  H    0.025975
   151  H    0.026807
   152  N   -0.147766
   153  C    0.153074
   154  C    0.071687
   155  O   -0.289443
   156  C   -0.088586
   157  C    0.143672
   158  C    0.186831
   159  O   -0.426825
   160  O   -0.441197
   161  H    0.120101
   162  H   -0.024993
   163  H    0.047606
   164  H   -0.028786
   165  H   -0.015401
   166  H   -0.013827
   167  N   -0.166091
   168  C    0.144352
   169  H   -0.000965
   170  H    0.017814
   171  H    0.026002
   172  H    0.124073
   173  Ca   1.256772
   174  O   -0.269640
   175  H    0.169658
   176  H    0.176998
 Sum of Mulliken charges =  -0.00000
 Mulliken charges with hydrogens summed into heavy atoms:
               1
     1  C    0.129240
     2  C    0.014681
     3  O   -0.288604
     7  N   -0.019585
     8  C    0.166504
     9  C    0.025028
    10  O   -0.280180
    11  C    0.115144
    12  C    0.105559
    13  O   -0.452047
    14  O   -0.379436
    19  N   -0.023728
    20  C    0.116486
    21  C    0.116615
    22  O   -0.297271
    23  C    0.067020
    24  C    0.061021
    25  C    0.054030
    26  C    0.134256
    27  N    0.665117
    41  N    0.050005
    42  C    0.054713
    43  C    0.079840
    44  O   -0.289056
    45  C    0.149303
    46  C    0.041492
    47  O   -0.425410
    48  O   -0.438785
    53  N   -0.031657
    54  C    0.299318
    55  C    0.024281
    56  O   -0.301816
    60  N    0.006026
    61  C    0.167959
    62  C    0.048347
    63  O   -0.283670
    64  C    0.126694
    65  C    0.086717
    66  N    0.198587
    67  O   -0.330962
    74  N   -0.001549
    75  C    0.280531
    76  C    0.018723
    77  O   -0.288819
    81  N    0.023933
    82  C    0.092146
    83  C    0.161638
    84  O   -0.379985
    85  C    0.099167
    86  C   -0.021789
    87  C   -0.044480
    88  C    0.009149
    89  C   -0.022883
    90  C   -0.061805
    91  C    0.128222
    92  O   -0.029947
   102  N    0.027485
   103  C    0.137966
   104  C    0.069054
   105  O   -0.290039
   106  C   -0.097730
   107  C    0.006371
   108  C    0.078727
   109  C    0.061760
   121  N    0.016500
   122  C    0.098259
   123  C    0.101154
   124  O   -0.288409
   125  C    0.260631
   126  O   -0.178497
   132  N    0.004588
   133  C    0.130094
   134  C    0.078544
   135  O   -0.266028
   136  C    0.098694
   142  N   -0.015888
   143  C    0.126295
   144  C    0.062274
   145  O   -0.275462
   146  C    0.104509
   152  N   -0.027665
   153  C    0.128081
   154  C    0.071687
   155  O   -0.289443
   156  C   -0.069766
   157  C    0.114444
   158  C    0.186831
   159  O   -0.426825
   160  O   -0.441197
   167  N   -0.042018
   168  C    0.187203
   173  Ca   1.256772
   174  O    0.077015
 DipInt: DoE/N= T F RetVal/Mat= T F Init=T NMatP=  1 IDeriv=0 Min/MaxMlt=  0  4
 Entering OneElI...
 OneElI was handed  1333951383 working-precision words.
 Multipole integrals L=0 to 4 MinM= 0 MaxM= 0.
 Requested accuracy = 0.1000D-12
 ShPair: Thresh= 1.00D-13 NBox=     0 BxSize= 0.00D+00 RnKept= 2.55D+01
         NSMCal=               327645 NSMKep=              164250
 PrmmSu-InSpLW:  IPartL=    0 NPrtUS=    1 NPrtUL=    1 DoSpLW=F IThBeg=    0 IThEnd=    0 NThAct=    1.
 PrsmSu:  NPrtUS=   1 ThrOK=F IAlg=1 NPAlg=1 LenDen=           0 ISkipM=0 DoSpLW=F IThBeg=    0 IThEnd=    0.
 Prism:   IPart=     0 DynPar=F LinDyn=F Incr=         512.
 PRISM was handed  1323722623 working-precision words and164250 shell-pairs
 IPart=  0 NShTot=      164250 NBatch=         379 AvBLen=       433.4
 PrsmSu-ThDecC:  IPartSL=    0    0 NPrtUSL=    1    1 IThBeg=    0 IThEnd=    0 CPU=   -1 GPU=   -1 NThAct=    1.
 PrSmSu:  NxtVal=            513.
 Electronic moments (au):
       -716.00000000         11.03413864          1.92912018          0.15738534
     -52041.04430045     -28549.15088924     -12168.76990656        108.17614246
         10.43115572         83.71780521     -36518.36012773     -33134.85450559
     -17439.21986019      16488.52299790      95555.94093401      34596.24502877
     -12742.79410663      -8391.70250283      -2028.96702361     -38087.01325828
   -7672013.50306911   -2553277.66067737    -588364.53376617     -86894.35091609
     402134.21824026    -521638.60313459       1868.78833175     -71783.61789658
     -57008.94613527   -2232804.73221865    -609971.11446055    -340847.08780943
     -78134.91461467     -56071.93079084      30825.25224248
 Electronic spatial extent (au):  <R**2>=          92758.9651
 DipInt: DoE/N= F T RetVal/Mat= T F Init=T NMatP=  1 IDeriv=0 Min/MaxMlt=  0  4
 Nuclear    moments (au):
        716.00000000         -0.00000000          0.00000000          0.00000000
      51589.25941291      28236.02089705      11806.52969686         -0.00000000
          0.00000000          0.00000000      37884.03720299      34555.93474366
      17240.08493768     -14291.53722955     -95194.86905198     -34747.73256431
      12829.56219123       8409.69381585       2867.72556386      38577.28762163
    7470949.91937288    2478311.44095352     551489.12050937      98175.00339430
    -403433.76683221     546133.58742753      10694.89643126      73687.80704081
      60217.20130343    2201766.68951694     577426.06263364     320293.70049715
      84582.59917296      59003.93419694     -28337.08272598
 Total      moments (au):
         -0.00000000         11.03413864          1.92912018          0.15738534
       -451.78488755       -313.12999219       -362.24020970        108.17614246
         10.43115572         83.71780521       1365.67707526       1421.08023808
       -199.13492251       2196.98576835        361.07188202       -151.48753554
         86.76808460         17.99131302        838.75854025        490.27436335
    -201063.58369623     -74966.21972385     -36875.41325681      11280.65247822
      -1299.54859194      24494.98429293      12563.68476301       1904.18914423
       3208.25516816     -31038.04270171     -32545.05182690     -20553.38731228
       6447.68455829       2932.00340610       2488.16951650
 Traceless Quadrup. (au):
        -76.06652440         62.58837096         13.47815345        108.17614246
         10.43115572         83.71780521
 Charge=             -0.0000 electrons
 Dipole moment (field-independent basis, Debye):
    X=             28.0460    Y=              4.9033    Z=              0.4000  Tot=             28.4742
 Quadrupole moment (field-independent basis, Debye-Ang):
   XX=           -607.6661   YY=           -421.1706   ZZ=           -487.2255
   XY=            145.5006   XZ=             14.0303   YZ=            112.6033
 Traceless Quadrupole moment (field-independent basis, Debye-Ang):
   XX=           -102.3121   YY=             84.1835   ZZ=             18.1286
   XY=            145.5006   XZ=             14.0303   YZ=            112.6033
 Octapole moment (field-independent basis, Debye-Ang**2):
  XXX=            972.0363  YYY=           1011.4702  ZZZ=           -141.7366  XYY=           1563.7298
  XXY=            256.9971  XXZ=           -107.8230  XZZ=             61.7582  YZZ=             12.8055
  YYZ=            596.9960  XYZ=            348.9584
 Hexadecapole moment (field-independent basis, Debye-Ang**3):
 XXXX=         -75730.1869 YYYY=         -28235.8731 ZZZZ=         -13889.0489 XXXY=           4248.8346
 XXXZ=           -489.4723 YYYX=           9225.9857 YYYZ=           4732.0861 ZZZX=            717.2089
 ZZZY=           1208.3827 XXYY=         -11690.4152 XXZZ=         -12258.0271 YYZZ=          -7741.3912
 XXYZ=           2428.5072 YYXZ=           1104.3331 ZZXY=            937.1640
 N-N= 2.193885957683D+04 E-N=-5.636284665051D+04  KE= 5.290837133887D+03
 Leave Link  601 at Wed Sep 18 20:01:10 2019, MaxMem=  1342177280 cpu:              43.6 elap:               1.1
 FitSet:  NAtFit=   176 NAtPot=   176 NAtFrz=     0 MDM=   180 TotChg=   0.00000
 Merz-Kollman atomic radii used.
 Read replacement radii for each type of atom:
 Rad(20) =   1.700000000000D+00
 Atom Element Radius
    1     6    1.50
    2     6    1.50
    3     8    1.40
    4     1    1.20
    5     1    1.20
    6     1    1.20
    7     7    1.50
    8     6    1.50
    9     6    1.50
   10     8    1.40
   11     6    1.50
   12     6    1.50
   13     8    1.40
   14     8    1.40
   15     1    1.20
   16     1    1.20
   17     1    1.20
   18     1    1.20
   19     7    1.50
   20     6    1.50
   21     6    1.50
   22     8    1.40
   23     6    1.50
   24     6    1.50
   25     6    1.50
   26     6    1.50
   27     7    1.50
   28     1    1.20
   29     1    1.20
   30     1    1.20
   31     1    1.20
   32     1    1.20
   33     1    1.20
   34     1    1.20
   35     1    1.20
   36     1    1.20
   37     1    1.20
   38     1    1.20
   39     1    1.20
   40     1    1.20
   41     7    1.50
   42     6    1.50
   43     6    1.50
   44     8    1.40
   45     6    1.50
   46     6    1.50
   47     8    1.40
   48     8    1.40
   49     1    1.20
   50     1    1.20
   51     1    1.20
   52     1    1.20
   53     7    1.50
   54     6    1.50
   55     6    1.50
   56     8    1.40
   57     1    1.20
   58     1    1.20
   59     1    1.20
   60     7    1.50
   61     6    1.50
   62     6    1.50
   63     8    1.40
   64     6    1.50
   65     6    1.50
   66     7    1.50
   67     8    1.40
   68     1    1.20
   69     1    1.20
   70     1    1.20
   71     1    1.20
   72     1    1.20
   73     1    1.20
   74     7    1.50
   75     6    1.50
   76     6    1.50
   77     8    1.40
   78     1    1.20
   79     1    1.20
   80     1    1.20
   81     7    1.50
   82     6    1.50
   83     6    1.50
   84     8    1.40
   85     6    1.50
   86     6    1.50
   87     6    1.50
   88     6    1.50
   89     6    1.50
   90     6    1.50
   91     6    1.50
   92     8    1.40
   93     1    1.20
   94     1    1.20
   95     1    1.20
   96     1    1.20
   97     1    1.20
   98     1    1.20
   99     1    1.20
  100     1    1.20
  101     1    1.20
  102     7    1.50
  103     6    1.50
  104     6    1.50
  105     8    1.40
  106     6    1.50
  107     6    1.50
  108     6    1.50
  109     6    1.50
  110     1    1.20
  111     1    1.20
  112     1    1.20
  113     1    1.20
  114     1    1.20
  115     1    1.20
  116     1    1.20
  117     1    1.20
  118     1    1.20
  119     1    1.20
  120     1    1.20
  121     7    1.50
  122     6    1.50
  123     6    1.50
  124     8    1.40
  125     6    1.50
  126     8    1.40
  127     1    1.20
  128     1    1.20
  129     1    1.20
  130     1    1.20
  131     1    1.20
  132     7    1.50
  133     6    1.50
  134     6    1.50
  135     8    1.40
  136     6    1.50
  137     1    1.20
  138     1    1.20
  139     1    1.20
  140     1    1.20
  141     1    1.20
  142     7    1.50
  143     6    1.50
  144     6    1.50
  145     8    1.40
  146     6    1.50
  147     1    1.20
  148     1    1.20
  149     1    1.20
  150     1    1.20
  151     1    1.20
  152     7    1.50
  153     6    1.50
  154     6    1.50
  155     8    1.40
  156     6    1.50
  157     6    1.50
  158     6    1.50
  159     8    1.40
  160     8    1.40
  161     1    1.20
  162     1    1.20
  163     1    1.20
  164     1    1.20
  165     1    1.20
  166     1    1.20
  167     7    1.50
  168     6    1.50
  169     1    1.20
  170     1    1.20
  171     1    1.20
  172     1    1.20
  173    20    1.70
  174     8    1.40
  175     1    1.20
  176     1    1.20
[...]
 **** Fit      -0.021797
 **** Fit      -0.007300
 **** Fit      -0.011002
 **** Fit      -0.014882
 **** Fit      -0.017607
 **** Fit      -0.008777
 **** Fit      -0.012360
 **** Fit      -0.014315
 **** Fit      -0.027728
 **** Fit      -0.025930
 **** Fit      -0.032074
 **** Fit      -0.019317
 **** Fit      -0.023416
 **** Fit      -0.028232
 **** Fit      -0.012687
 **** Fit      -0.013788
 **** Fit      -0.015584
 **** Fit      -0.017597
 **** Fit      -0.009675
 **** Fit      -0.010143
 **** Fit      -0.010516
 **** Fit      -0.003965
 **** Fit      -0.004795
 **** Fit       0.006309
 **** Fit      -0.004760
 **** Fit       0.009324
 **** Fit       0.007057
 **** Fit       0.002876
 **** Fit       0.001341
 **** Fit       0.002431
 **** Fit      -0.000177
 **** Fit      -0.000344
 **** Fit      -0.003986
 **** Fit      -0.001536
 **** Fit      -0.005262
 **** Fit      -0.008875
 **** Fit      -0.011704
 **** Fit      -0.002161
 **** Fit      -0.003358
 **** Fit      -0.006991
 **** Fit      -0.009522
 **** Fit      -0.006046
 **** Fit       0.002686
 **** Fit       0.005739
 **** Fit       0.003046
 **** Fit       0.004630
 **** Fit       0.006016
 **** Fit       0.002370
 **** Fit       0.002804
 **** Fit       0.002575
 **** Fit       0.000971
 **** Fit       0.000491
 **** Fit      -0.000172
 **** Fit      -0.001927
 **** Fit      -0.005282
 **** Fit      -0.033660
 **** Fit      -0.002503
 **** Fit      -0.004498
 **** Fit      -0.008083
 **** Fit      -0.013339
 **** Fit      -0.019779
 **** Fit      -0.026213
 **** Fit      -0.007099
 **** Fit      -0.011310
 **** Fit      -0.041401
 **** Fit      -0.006757
 **** Fit      -0.006016
 **** Fit      -0.007441
 **** Fit      -0.008513
 **** Fit      -0.007572
 **** Fit      -0.005966
 **** Fit      -0.005428
 **** Fit      -0.005416
 **** Fit      -0.010866
 **** Fit      -0.010247
 **** Fit      -0.004415
 **** Fit      -0.004750
 **** Fit      -0.005027
 **** Fit      -0.014077
 **** Fit      -0.013537
 **** Fit      -0.003502
 **** Fit      -0.003644
 **** Fit      -0.003959
 **** Fit      -0.004430
 **** Fit      -0.004909
 **** Fit      -0.018505
 **** Fit      -0.017237
 **** Fit      -0.002783
 **** Fit      -0.003008
 **** Fit      -0.003345
 **** Fit      -0.003803
 **** Fit      -0.004341
 **** Fit      -0.005105
 **** Fit      -0.024690
 **** Fit      -0.023093
 **** Fit      -0.019991
 **** Fit      -0.002261
 **** Fit      -0.002541
 **** Fit      -0.002917
 **** Fit      -0.003404
 **** Fit      -0.003972
 **** Fit      -0.004558
 **** Fit      -0.005645
 **** Fit      -0.031936
 **** Fit      -0.028158
 **** Fit      -0.001723
 **** Fit      -0.002027
 **** Fit      -0.002432
 **** Fit      -0.002970
 **** Fit      -0.003627
 **** Fit      -0.004343
 **** Fit      -0.005039
 **** Fit      -0.006550
 **** Fit      -0.033160
 **** Fit      -0.001201
 **** Fit      -0.001509
 **** Fit      -0.001934
 **** Fit      -0.002519
 **** Fit      -0.003264
 **** Fit      -0.004124
 **** Fit      -0.005016
 **** Fit      -0.005848
 **** Fit      -0.007849
 **** Fit      -0.000588
 **** Fit      -0.000866
 **** Fit      -0.005979
 **** Fit      -0.007002
 **** Fit      -0.009596
 **** Fit      -0.010378
 **** Fit       0.000221
 **** Fit       0.000105
 **** Fit      -0.000116
 **** Fit      -0.011901
 **** Fit      -0.012803
 **** Fit      -0.013546
 **** Fit       0.000855
 **** Fit       0.000940
 **** Fit      -0.015946
 **** Fit      -0.016768
 **** Fit       0.001155
 **** Fit       0.001680
 **** Fit       0.001997
 **** Fit      -0.019990
 **** Fit      -0.020765
 **** Fit      -0.021664
 **** Fit       0.001791
 **** Fit       0.002853
 **** Fit      -0.025251
 **** Fit      -0.025745
 **** Fit      -0.026491
 **** Fit      -0.027821
 **** Fit      -0.030065
 **** Fit       0.002614
 **** Fit       0.004467
 **** Fit      -0.031973
 **** Fit      -0.032368
 **** Fit      -0.033698
 **** Fit      -0.036236
 **** Fit      -0.039131
 **** Fit      -0.040398
 **** Fit      -0.005827
 **** Fit      -0.005523
 **** Fit      -0.007093
 **** Fit      -0.007583
 **** Fit      -0.006164
 **** Fit      -0.004656
 **** Fit      -0.004489
 **** Fit      -0.009897
 **** Fit      -0.008530
 **** Fit      -0.006530
 **** Fit      -0.004656
 **** Fit      -0.003510
 **** Fit      -0.003198
 **** Fit      -0.003474
 **** Fit      -0.004167
 **** Fit      -0.012988
 **** Fit      -0.011360
 **** Fit      -0.009122
 **** Fit      -0.002291
 **** Fit      -0.002133
 **** Fit      -0.002311
 **** Fit      -0.002706
 **** Fit      -0.016555
 **** Fit      -0.000995
 **** Fit      -0.001271
 **** Fit      -0.001617
 **** Fit      -0.002044
 **** Fit      -0.000565
 **** Fit      -0.000995
 **** Fit      -0.001432
 **** Fit      -0.000044
 **** Fit      -0.000484
 **** Fit      -0.000899
 **** Fit       0.000116
 **** Fit      -0.000246
 **** Fit       0.000567
 **** Fit       0.000338
 **** Fit       0.000788
 **** Fit       0.001005
 **** Fit      -0.002765
 **** Fit      -0.003669
 **** Fit      -0.006718
 **** Fit      -0.000942
 **** Fit      -0.001447
 **** Fit      -0.002242
 **** Fit      -0.003258
 **** Fit      -0.004402
 **** Fit      -0.005582
 **** Fit      -0.008200
 **** Fit       0.000057
 **** Fit      -0.000195
 **** Fit      -0.000796
 **** Fit      -0.001719
 **** Fit      -0.002889
 **** Fit      -0.004210
 **** Fit      -0.005584
 **** Fit      -0.006933
 **** Fit      -0.010258
 **** Fit      -0.011571
 **** Fit       0.001053
 **** Fit       0.000909
 **** Fit       0.000304
 **** Fit      -0.000741
 **** Fit      -0.002135
 **** Fit      -0.003756
 **** Fit      -0.005477
 **** Fit      -0.007183
 **** Fit      -0.008792
 **** Fit      -0.013135
 **** Fit      -0.014566
 **** Fit      -0.015834
 **** Fit       0.002260
 **** Fit       0.002307
 **** Fit       0.001730
 **** Fit       0.000547
 **** Fit      -0.001130
 **** Fit      -0.003146
 **** Fit      -0.005332
 **** Fit      -0.007530
 **** Fit      -0.009610
 **** Fit      -0.011489
 **** Fit      -0.017202
 **** Fit      -0.018717
 **** Fit      -0.020007
 **** Fit       0.004137
 **** Fit       0.003889
 **** Fit       0.002717
 **** Fit       0.000749
 **** Fit      -0.001797
 **** Fit      -0.004678
 **** Fit      -0.007659
 **** Fit      -0.010529
 **** Fit      -0.013127
 **** Fit      -0.015357
 **** Fit      -0.023063
 **** Fit      -0.024603
 **** Fit      -0.025782
 **** Fit       0.001884
 **** Fit      -0.001967
 **** Fit      -0.006253
 **** Fit      -0.010591
 **** Fit      -0.014644
 **** Fit      -0.018145
 **** Fit      -0.020952
 **** Fit      -0.008153
 **** Fit      -0.006933
 **** Fit      -0.008414
 **** Fit      -0.010143
 **** Fit      -0.009812
 **** Fit      -0.006744
 **** Fit      -0.006147
 **** Fit      -0.007118
 **** Fit      -0.008814
 **** Fit      -0.011068
 **** Fit      -0.012971
 **** Fit      -0.013329
 **** Fit      -0.005718
 **** Fit      -0.005795
 **** Fit      -0.006485
 **** Fit      -0.007643
 **** Fit      -0.009458
 **** Fit      -0.011953
 **** Fit      -0.014753
 **** Fit      -0.017021
 **** Fit      -0.017820
 **** Fit      -0.005370
 **** Fit      -0.005882
 **** Fit      -0.006438
 **** Fit      -0.007315
 **** Fit      -0.008730
 **** Fit      -0.010884
 **** Fit      -0.013864
 **** Fit      -0.017459
 **** Fit      -0.021011
 **** Fit      -0.023500
 **** Fit      -0.024030
 **** Fit      -0.005470
 **** Fit      -0.006425
 **** Fit      -0.006915
 **** Fit      -0.007646
 **** Fit      -0.008828
 **** Fit      -0.010702
 **** Fit      -0.013511
 **** Fit      -0.017394
 **** Fit      -0.022194
 **** Fit      -0.006007
 **** Fit      -0.007452
 **** Fit      -0.007908
 **** Fit      -0.008541
 **** Fit      -0.009542
 **** Fit      -0.011142
 **** Fit      -0.013621
 **** Fit      -0.017281
 **** Fit      -0.022344
 **** Fit      -0.007018
 **** Fit      -0.009010
 **** Fit      -0.009486
 **** Fit      -0.010125
 **** Fit      -0.011132
 **** Fit      -0.012761
 **** Fit      -0.015342
 **** Fit      -0.019298
 **** Fit      -0.008518
 **** Fit      -0.011164
 **** Fit      -0.011672
 **** Fit      -0.012339
 **** Fit      -0.013379
 **** Fit      -0.015052
 **** Fit      -0.017713
 **** Fit      -0.021859
 **** Fit      -0.014558
 **** Fit      -0.015296
 **** Fit      -0.016458
 **** Fit      -0.018325
 **** Fit      -0.021288
 **** Fit      -0.018251
 **** Fit      -0.019134
 **** Fit      -0.020597
 **** Fit      -0.022987
 **** Fit      -0.026813
 **** Fit      -0.023886
 **** Fit      -0.025814
 **** Fit      -0.029023
 **** Fit      -0.031867
 **** Fit       0.020606
 **** Fit       0.016461
 **** Fit       0.013548
 **** Fit       0.011514
 **** Fit       0.024202
 **** Fit       0.020091
 **** Fit       0.017190
 **** Fit       0.014870
 **** Fit       0.022690
 **** Fit       0.019404
 **** Fit       0.016609
 **** Fit       0.023299
 **** Fit       0.020213
 **** Fit       0.018025
 **** Fit       0.015796
 **** Fit       0.025303
 **** Fit       0.022012
 **** Fit       0.020185
 **** Fit       0.019134
 **** Fit       0.018121
 **** Fit       0.024792
 **** Fit       0.022445
 **** Fit       0.021350
 **** Fit       0.020990
 **** Fit       0.029049
 **** Fit       0.025702
 **** Fit       0.023798
 **** Fit       0.023060
 **** Fit       0.023116
 **** Fit      -0.018186
 **** Fit      -0.022238
 **** Fit       0.029620
 **** Fit       0.026965
 **** Fit       0.025466
 **** Fit       0.025013
 **** Fit      -0.009176
 **** Fit      -0.012107
 **** Fit      -0.013243
 **** Fit      -0.012807
 **** Fit       0.035822
 **** Fit       0.032411
 **** Fit       0.029664
 **** Fit       0.027876
 **** Fit       0.027132
 **** Fit      -0.001624
 **** Fit      -0.003302
 **** Fit      -0.003270
 **** Fit       0.033355
 **** Fit       0.031041
 **** Fit       0.029621
 **** Fit       0.029229
 **** Fit       0.005700
 **** Fit       0.005504
 **** Fit       0.032600
 **** Fit       0.031459
 **** Fit       0.013479
 **** Fit       0.033314
 **** Fit      -0.008277
 **** Fit       0.000091
 **** Fit      -0.011374
 **** Fit      -0.011278
 **** Fit      -0.010698
 **** Fit      -0.009032
 **** Fit      -0.005742
 **** Fit      -0.000702
 **** Fit       0.005815
 **** Fit       0.013365
 **** Fit       0.036013
 **** Fit      -0.002914
 **** Fit      -0.003222
 **** Fit      -0.002738
 **** Fit      -0.001324
 **** Fit       0.001270
 **** Fit       0.005159
 **** Fit       0.010207
 **** Fit       0.016087
 **** Fit       0.022344
 **** Fit       0.028357
 **** Fit       0.036741
 **** Fit       0.035479
 **** Fit       0.034062
 **** Fit       0.006530
 **** Fit       0.004566
 **** Fit       0.003977
 **** Fit       0.004525
 **** Fit       0.006198
 **** Fit       0.009045
 **** Fit       0.012981
 **** Fit       0.017717
 **** Fit       0.022780
 **** Fit       0.027535
 **** Fit       0.031277
 **** Fit       0.033517
 **** Fit       0.034300
 **** Fit       0.034117
 **** Fit       0.033597
 **** Fit       0.033365
 **** Fit       0.013520
 **** Fit       0.011080
 **** Fit       0.010244
 **** Fit       0.010778
 **** Fit       0.012561
 **** Fit       0.015459
 **** Fit       0.019187
 **** Fit       0.023270
 **** Fit       0.027091
 **** Fit       0.030055
 **** Fit       0.031852
 **** Fit       0.032635
 **** Fit       0.032896
 **** Fit       0.033250
 **** Fit       0.023059
 **** Fit       0.018759
 **** Fit       0.016285
 **** Fit       0.015632
 **** Fit       0.016593
 **** Fit       0.018886
 **** Fit       0.022062
 **** Fit       0.025468
 **** Fit       0.028400
 **** Fit       0.030413
 **** Fit       0.031577
 **** Fit       0.032386
 **** Fit       0.033423
 **** Fit       0.026394
 **** Fit       0.022383
 **** Fit       0.020352
 **** Fit       0.020671
 **** Fit       0.022850
 **** Fit       0.025868
 **** Fit       0.028569
 **** Fit       0.030396
 **** Fit       0.031653
 **** Fit       0.032700
 **** Fit       0.028656
 **** Fit       0.025188
 **** Fit       0.024218
 **** Fit       0.026472
 **** Fit       0.029039
 **** Fit       0.030163
 **** Fit       0.027353
 **** Fit      -0.022718
 **** Fit       0.020435
 **** Fit       0.019144
 **** Fit      -0.000499
 **** Fit      -0.002793
 **** Fit      -0.005223
 **** Fit      -0.008450
 **** Fit      -0.012878
 **** Fit      -0.018523
 **** Fit       0.022951
 **** Fit       0.022412
 **** Fit       0.021194
 **** Fit       0.018852
 **** Fit       0.015225
 **** Fit       0.006635
 **** Fit       0.004269
 **** Fit       0.001658
 **** Fit      -0.001532
 **** Fit      -0.005442
 **** Fit      -0.009931
 **** Fit      -0.014518
 **** Fit       0.024787
 **** Fit       0.024288
 **** Fit       0.023319
 **** Fit       0.021537
 **** Fit       0.018840
 **** Fit       0.015514
 **** Fit       0.012135
 **** Fit       0.009160
 **** Fit       0.012029
 **** Fit       0.009646
 **** Fit       0.007018
 **** Fit       0.003989
 **** Fit       0.000574
 **** Fit      -0.002983
 **** Fit      -0.006193
 **** Fit       0.027279
 **** Fit       0.026565
 **** Fit       0.026019
 **** Fit       0.025260
 **** Fit       0.023979
 **** Fit       0.022043
 **** Fit       0.019582
 **** Fit       0.016936
 **** Fit       0.014402
 **** Fit       0.016120
 **** Fit       0.013840
 **** Fit       0.011367
 **** Fit       0.008669
 **** Fit       0.005858
 **** Fit       0.003224
 **** Fit       0.001220
 **** Fit       0.000387
 **** Fit       0.029330
 **** Fit       0.028268
 **** Fit       0.027550
 **** Fit       0.026838
 **** Fit       0.025850
 **** Fit       0.024426
 **** Fit       0.022583
 **** Fit       0.020485
 **** Fit       0.018312
 **** Fit       0.019221
 **** Fit       0.016995
 **** Fit       0.014633
 **** Fit       0.012219
 **** Fit       0.009992
 **** Fit       0.008360
 **** Fit       0.007848
 **** Fit       0.030607
 **** Fit       0.029364
 **** Fit       0.028474
 **** Fit       0.027608
 **** Fit       0.026507
 **** Fit       0.025055
 **** Fit       0.023288
 **** Fit       0.021319
 **** Fit       0.021588
 **** Fit       0.019511
 **** Fit       0.017407
 **** Fit       0.015489
 **** Fit       0.014130
 **** Fit       0.013840
 **** Fit       0.015164
 **** Fit       0.033420
 **** Fit       0.031460
 **** Fit       0.030096
 **** Fit       0.029056
 **** Fit       0.028040
 **** Fit       0.026820
 **** Fit       0.025310
 **** Fit       0.023542
 **** Fit       0.023445
 **** Fit       0.021527
 **** Fit       0.019798
 **** Fit       0.018691
 **** Fit       0.018788
 **** Fit       0.020641
 **** Fit       0.034171
 **** Fit       0.032294
 **** Fit       0.030751
 **** Fit       0.029510
 **** Fit       0.028316
 **** Fit       0.026939
 **** Fit       0.025296
 **** Fit       0.024990
 **** Fit       0.023272
 **** Fit       0.022378
 **** Fit       0.023186
 **** Fit       0.026072
 **** Fit       0.032566
 **** Fit       0.031367
 **** Fit       0.029935
 **** Fit       0.028485
 **** Fit       0.026839
 **** Fit       0.026419
 **** Fit       0.025445
 **** Fit       0.027204
 **** Fit       0.029835
 **** Fit       0.029917
 **** Fit       0.028365
 **** Fit       0.027947
 -----------------------------------------------------------------
 Leave Link  602 at Wed Sep 18 20:01:13 2019, MaxMem=  1342177280 cpu:             111.3 elap:               2.4

 Test job not archived.
 1\1\GINC-C506-101\SP\RB3LYP\SVP\C54H83Ca1N15O23\JAEBEOMH\18-Sep-2019\0
 \\#b3lyp/svp scf=(tight,noincore) Test #IOP(5/87=12) Density=Current P
 op=(MK,readradii) iop(6/33=2) iop(6/42=6)\\holoCaM_loop3_49.0\\0,1\C,0
 ,81.46,37.91,6.2\C,0,82.55,37.84,5.13\O,0,83.1,36.79,4.84\H,0,80.544,3
 7.462,5.815\H,0,81.785,37.366,7.087\H,0,81.272,38.952,6.461\N,0,83.01,
 38.99,4.63\C,0,84.32,39.17,4.04\C,0,85.38,39.15,5.13\O,0,85.35,39.94,6
 .07\C,0,84.24,40.45,3.2\C,0,85.67,40.93,2.97\O,0,86.11,40.49,1.89\O,0,
 86.33,41.5,3.87\H,0,82.46,39.81,4.82\H,0,84.53,38.26,3.48\H,0,83.64,41
 .3,3.54\H,0,83.78,40.28,2.23\N,0,86.43,38.33,4.98\C,0,87.24,37.87,6.09
 \C,0,88.57,38.59,6.26\O,0,89.48,38.08,6.91\C,0,87.38,36.36,5.9\C,0,87.
 67,35.52,7.14\C,0,86.38,35.31,7.94\C,0,86.64,34.28,9.03\N,0,85.6,34.17
 ,10.07\H,0,86.45,37.73,4.17\H,0,86.61,38.08,6.95\H,0,88.27,36.24,5.29\
 H,0,86.51,35.97,5.36\H,0,88.54,35.8,7.74\H,0,88.,34.61,6.65\H,0,85.49,
 34.99,7.41\H,0,86.16,36.3,8.34\H,0,87.42,34.66,9.69\H,0,86.97,33.32,8.
 65\H,0,85.18,35.05,10.34\H,0,84.8,33.71,9.66\H,0,86.02,33.64,10.82\N,0
 ,88.57,39.81,5.72\C,0,89.77,40.62,5.75\C,0,89.66,42.13,5.7\O,0,90.58,4
 2.82,6.15\C,0,90.69,40.31,4.57\C,0,90.01,40.02,3.24\O,0,89.84,40.83,2.
 3\O,0,89.59,38.85,3.09\H,0,87.81,40.21,5.19\H,0,90.38,40.23,6.56\H,0,9
 1.23,39.39,4.77\H,0,91.43,41.09,4.41\N,0,88.56,42.55,5.09\C,0,88.27,43
 .96,4.9\C,0,88.3,44.52,3.49\O,0,88.3,45.75,3.44\H,0,88.01,41.84,4.61\H
 ,0,88.99,44.6,5.41\H,0,87.31,44.16,5.38\N,0,88.17,43.71,2.44\C,0,88.07
 ,44.39,1.17\C,0,86.63,44.52,0.69\O,0,86.44,45.35,-0.2\C,0,88.99,43.88,
 0.06\C,0,88.79,42.42,-0.32\N,0,89.7,41.87,-1.13\O,0,87.84,41.72,0.05\H
 ,0,88.29,42.72,2.6\H,0,88.42,45.42,1.21\H,0,90.01,44.02,0.41\H,0,88.79
 ,44.55,-0.77\H,0,90.49,42.42,-1.44\H,0,89.55,40.9,-1.36\N,0,85.68,43.8
 2,1.3\C,0,84.31,43.65,0.85\C,0,84.07,42.73,-0.34\O,0,83.12,42.97,-1.08
 \H,0,85.96,43.12,1.97\H,0,83.88,44.61,0.56\H,0,83.86,43.18,1.72\N,0,84
 .88,41.69,-0.56\C,0,84.64,40.64,-1.53\C,0,84.89,39.25,-0.98\O,0,86.02,
 38.91,-0.63\C,0,85.48,40.81,-2.79\C,0,85.4,42.18,-3.43\C,0,86.57,42.93
 ,-3.61\C,0,84.16,42.53,-3.98\C,0,86.45,44.16,-4.28\C,0,84.02,43.79,-4.
 56\C,0,85.18,44.57,-4.75\O,0,85.11,45.85,-5.21\H,0,85.6,41.51,0.12\H,0
 ,83.63,40.68,-1.93\H,0,85.16,40.14,-3.59\H,0,86.5,40.56,-2.51\H,0,87.5
 ,42.61,-3.18\H,0,83.37,41.79,-3.89\H,0,87.28,44.8,-4.53\H,0,83.09,44.1
 2,-5.01\H,0,84.19,46.09,-5.36\N,0,83.96,38.31,-1.16\C,0,84.05,36.99,-0
 .56\C,0,84.68,36.13,-1.64\O,0,84.1,36.1,-2.72\C,0,82.66,36.58,-0.09\C,
 0,82.43,37.38,1.2\C,0,82.54,35.09,0.17\C,0,80.97,37.24,1.59\H,0,83.11,
 38.62,-1.61\H,0,84.71,36.89,0.31\H,0,81.92,36.86,-0.85\H,0,82.59,38.45
 ,1.13\H,0,83.12,37.01,1.96\H,0,81.56,34.64,0.3\H,0,82.83,34.53,-0.72\H
 ,0,83.16,34.75,1.01\H,0,80.95,36.23,2.01\H,0,80.72,37.9,2.42\H,0,80.29
 ,37.46,0.77\N,0,85.74,35.39,-1.32\C,0,86.28,34.22,-1.98\C,0,85.79,32.9
 5,-1.29\O,0,85.12,33.05,-0.26\C,0,87.8,34.32,-2.03\O,0,88.27,34.24,-0.
 7\H,0,86.03,35.46,-0.35\H,0,85.9,34.17,-3.\H,0,88.05,35.32,-2.39\H,0,8
 8.28,33.56,-2.65\H,0,88.38,35.14,-0.39\N,0,86.06,31.79,-1.88\C,0,85.5,
 30.53,-1.43\C,0,86.,30.03,-0.09\O,0,85.22,29.4,0.63\C,0,85.74,29.56,-2
 .58\H,0,86.54,31.83,-2.77\H,0,84.41,30.61,-1.39\H,0,86.8,29.28,-2.58\H
 ,0,85.21,28.63,-2.36\H,0,85.55,29.96,-3.58\N,0,87.21,30.35,0.37\C,0,87
 .62,30.06,1.73\C,0,87.03,31.05,2.72\O,0,86.74,30.78,3.88\C,0,89.13,30.
 13,1.9\H,0,87.85,30.87,-0.21\H,0,87.33,29.05,2.03\H,0,89.52,31.1,1.57\
 H,0,89.38,30.13,2.96\H,0,89.59,29.25,1.44\N,0,86.62,32.21,2.2\C,0,85.9
 1,33.16,3.03\C,0,84.41,32.89,3.12\O,0,83.79,33.02,4.17\C,0,86.17,34.61
 ,2.62\C,0,87.63,35.01,2.48\C,0,87.66,36.38,1.83\O,0,87.09,37.34,2.39\O
 ,0,88.24,36.48,0.73\H,0,86.84,32.48,1.25\H,0,86.34,33.14,4.03\H,0,85.6
 5,35.28,3.31\H,0,85.68,34.67,1.65\H,0,88.17,34.27,1.88\H,0,88.03,35.09
 ,3.49\N,0,83.8,32.4,2.04\C,0,82.46,31.86,1.98\H,0,81.792,32.596,1.533\
 H,0,82.46,30.954,1.374\H,0,82.117,31.624,2.987\H,0,84.31,32.5,1.18\Ca,
 0,88.07,39.17,1.01\O,0,90.67,38.82,0.19\H,0,91.35,39.49,0.11\H,0,91.13
 ,38.,0.01\\Version=ES64L-G16RevA.03\State=1-A\HF=-5333.5760483\RMSD=6.
 567e-09\Dipole=-0.6552139,-10.5784302,3.6284983\Quadrupole=-30.9097685
 ,-99.3224258,130.2321943,-34.2719668,-63.3884252,-68.4035582\PG=C01 [X
 (C54H83Ca1N15O23)]\\@


 WHEN IT COMES TO CASH FLOW, IT SEEMS LIKE THE TIDE IS ALWAYS GOING OUT.
 Job cpu time:       0 days 10 hours 20 minutes 59.6 seconds.
 Elapsed time:       0 days  0 hours 13 minutes  4.8 seconds.
 File lengths (MBytes):  RWF=   1517 Int=      0 D2E=      0 Chk=    171 Scr=      1
 Normal termination of Gaussian 16 at Wed Sep 18 20:01:14 2019.
