 Entering Gaussian System, Link 0=g16
 Initial command:
 /home1/apps/gaussian/16rA.03/g16/l1.exe "/scratch/04905/jaebeomh/4358717/Gau-252616.inp" -scrdir="/scratch/04905/jaebeomh/4358717/"
 Entering Link 1 = /home1/apps/gaussian/16rA.03/g16/l1.exe PID=    252617.
  
 Copyright (c) 1988,1990,1992,1993,1995,1998,2003,2009,2016,
            Gaussian, Inc.  All Rights Reserved.
  
 This is part of the Gaussian(R) 16 program.  It is based on
 the Gaussian(R) 09 system (copyright 2009, Gaussian, Inc.),
 the Gaussian(R) 03 system (copyright 2003, Gaussian, Inc.),
 the Gaussian(R) 98 system (copyright 1998, Gaussian, Inc.),
 the Gaussian(R) 94 system (copyright 1995, Gaussian, Inc.),
 the Gaussian 92(TM) system (copyright 1992, Gaussian, Inc.),
 the Gaussian 90(TM) system (copyright 1990, Gaussian, Inc.),
 the Gaussian 88(TM) system (copyright 1988, Gaussian, Inc.),
 the Gaussian 86(TM) system (copyright 1986, Carnegie Mellon
 University), and the Gaussian 82(TM) system (copyright 1983,
 Carnegie Mellon University). Gaussian is a federally registered
 trademark of Gaussian, Inc.
  
 This software contains proprietary and confidential information,
 including trade secrets, belonging to Gaussian, Inc.
  
 This software is provided under written license and may be
 used, copied, transmitted, or stored only in accord with that
 written license.
  
 The following legend is applicable only to US Government
 contracts under FAR:
  
                    RESTRICTED RIGHTS LEGEND
  
 Use, reproduction and disclosure by the US Government is
 subject to restrictions as set forth in subparagraphs (a)
 and (c) of the Commercial Computer Software - Restricted
 Rights clause in FAR 52.227-19.
  
 Gaussian, Inc.
 340 Quinnipiac St., Bldg. 40, Wallingford CT 06492
  
  
 ---------------------------------------------------------------
 Warning -- This program may not be used in any manner that
 competes with the business of Gaussian, Inc. or will provide
 assistance to any competitor of Gaussian, Inc.  The licensee
 of this program is prohibited from giving any competitor of
 Gaussian, Inc. access to this program.  By using this program,
 the user acknowledges that Gaussian, Inc. is engaged in the
 business of creating and licensing software in the field of
 computational chemistry and represents and warrants to the
 licensee that it is not a competitor of Gaussian, Inc. and that
 it will not use this program in any manner prohibited above.
 ---------------------------------------------------------------
  

 Cite this work as:
 Gaussian 16, Revision A.03,
 M. J. Frisch, G. W. Trucks, H. B. Schlegel, G. E. Scuseria, 
 M. A. Robb, J. R. Cheeseman, G. Scalmani, V. Barone, 
 G. A. Petersson, H. Nakatsuji, X. Li, M. Caricato, A. V. Marenich, 
 J. Bloino, B. G. Janesko, R. Gomperts, B. Mennucci, H. P. Hratchian, 
 J. V. Ortiz, A. F. Izmaylov, J. L. Sonnenberg, D. Williams-Young, 
 F. Ding, F. Lipparini, F. Egidi, J. Goings, B. Peng, A. Petrone, 
 T. Henderson, D. Ranasinghe, V. G. Zakrzewski, J. Gao, N. Rega, 
 G. Zheng, W. Liang, M. Hada, M. Ehara, K. Toyota, R. Fukuda, 
 J. Hasegawa, M. Ishida, T. Nakajima, Y. Honda, O. Kitao, H. Nakai, 
 T. Vreven, K. Throssell, J. A. Montgomery, Jr., J. E. Peralta, 
 F. Ogliaro, M. J. Bearpark, J. J. Heyd, E. N. Brothers, K. N. Kudin, 
 V. N. Staroverov, T. A. Keith, R. Kobayashi, J. Normand, 
 K. Raghavachari, A. P. Rendell, J. C. Burant, S. S. Iyengar, 
 J. Tomasi, M. Cossi, J. M. Millam, M. Klene, C. Adamo, R. Cammi, 
 J. W. Ochterski, R. L. Martin, K. Morokuma, O. Farkas, 
 J. B. Foresman, and D. J. Fox, Gaussian, Inc., Wallingford CT, 2016.
 
 ******************************************
 Gaussian 16:  ES64L-G16RevA.03 25-Dec-2016
                18-Sep-2019 
 ******************************************
 %chk=holoCaM_loop3_51.0.chk
 %nprocshared=48
 Will use up to   48 processors via shared memory.
 %mem=10GB
 %nosave
 ----------------------------------------------------------------------
 #b3lyp/svp scf=(tight,noincore) Test #IOP(5/87=12) Density=Current Pop
 =(MK,readradii) iop(6/33=2) iop(6/42=6)
 ----------------------------------------------------------------------
 1/30=1,38=1,172=1/1;
 2/12=2,17=6,18=5,40=1/2;
 3/5=18,7=101,11=2,25=1,30=1,74=-5/1,2,3;
 4//1;
 5/5=4,32=2,38=5,87=12/2;
 6/7=2,8=2,9=2,10=2,15=8,20=101,22=-1,28=1,33=2,42=6/1,2;
 99/5=1,9=1/99;
 ------------------
 holoCaM_loop3_51.0
 ------------------
 Symbolic Z-matrix:
 Charge =  0 Multiplicity = 1
 C                     69.91     52.46     91.24 
 C                     69.8      52.94     92.69 
 O                     70.05     52.13     93.58 
 H                     70.96     52.423    90.949 
 H                     69.474    51.465    91.152 
 H                     69.376    53.15     90.587 
 N                     69.29     54.13     92.98 
 C                     69.21     54.72     94.3 
 C                     68.03     54.19     95.1 
 O                     66.91     54.7      95.1 
 C                     69.12     56.24     94.17 
 C                     69.16     57.01     95.48 
 O                     69.14     58.26     95.37 
 O                     69.22     56.44     96.59 
 H                     68.94     54.64     92.17 
 H                     70.08     54.51     94.91 
 H                     68.21     56.5      93.62 
 H                     70.03     56.57     93.67 
 N                     68.17     53.02     95.74 
 C                     67.11     52.28     96.39 
 C                     66.38     52.85     97.6 
 O                     65.38     52.26     98.01 
 C                     67.59     50.89     96.79 
 C                     68.36     50.09     95.74 
 C                     67.57     49.89     94.46 
 C                     68.28     49.04     93.41 
 N                     67.32     48.77     92.33 
 H                     69.02     52.49     95.63 
 H                     66.22     52.24     95.77 
 H                     66.79     50.24     97.13 
 H                     68.29     51.03     97.62 
 H                     68.44     49.11     96.2 
 H                     69.39     50.4      95.52 
 H                     67.42     50.87     93.99 
 H                     66.59     49.5      94.73 
 H                     68.64     48.1      93.83 
 H                     69.15     49.56     93.01 
 H                     66.43     48.45     92.7 
 H                     67.11     49.52     91.69 
 H                     67.52     47.94     91.8 
 N                     66.87     53.95     98.18 
 C                     66.19     54.72     99.21 
 C                     66.04     56.16     98.76 
 O                     65.57     56.97     99.56 
 C                     66.96     54.57     100.52 
 C                     68.38     55.12     100.47 
 O                     69.08     55.11     101.51 
 O                     69.01     55.34     99.41 
 H                     67.76     54.31     97.87 
 H                     65.19     54.33     99.39 
 H                     67.11     53.51     100.69 
 H                     66.45     55.05     101.36 
 N                     66.37     56.54     97.52 
 C                     65.95     57.79     96.92 
 C                     66.66     59.04     97.42 
 O                     66.11     60.14     97.4 
 H                     66.78     55.79     96.99 
 H                     64.9      58.       97.11 
 H                     66.05     57.73     95.83 
 N                     67.86     58.88     97.98 
 C                     68.48     59.94     98.75 
 C                     69.45     60.85     98.03 
 O                     70.15     61.67     98.63 
 C                     69.07     59.34     100.03 
 C                     70.41     58.64     99.86 
 N                     71.16     58.27     100.9 
 O                     70.76     58.29     98.73 
 H                     68.34     58.       97.87 
 H                     67.7      60.64     99.04 
 H                     68.39     58.66     100.54 
 H                     69.29     60.13     100.74 
 H                     70.86     58.53     101.82 
 H                     72.06     57.82     100.74 
 N                     69.53     60.67     96.71 
 C                     70.34     61.39     95.74 
 C                     71.64     60.7      95.36 
 O                     72.26     61.33     94.51 
 H                     69.05     59.87     96.32 
 H                     70.47     62.44     96.02 
 H                     69.83     61.3      94.79 
 N                     72.06     59.6      95.99 
 C                     73.35     58.98     95.78 
 C                     73.14     57.49     95.54 
 O                     72.34     56.8      96.16 
 C                     74.27     59.33     96.94 
 C                     74.36     60.79     97.32 
 C                     73.67     61.14     98.49 
 C                     75.       61.74     96.53 
 C                     73.64     62.51     98.81 
 C                     74.99     63.1      96.86 
 C                     74.3      63.47     98.03 
 O                     74.2      64.79     98.38 
 H                     71.44     59.17     96.68 
 H                     73.79     59.43     94.88 
 H                     75.29     59.02     96.7 
 H                     74.02     58.66     97.76 
 H                     73.11     60.39     99.02 
 H                     75.57     61.44     95.66 
 H                     73.14     62.79     99.73 
 H                     75.47     63.75     96.14 
 H                     74.46     65.39     97.68 
 N                     74.06     56.9      94.76 
 C                     74.15     55.46     94.66 
 C                     75.41     54.96     95.36 
 O                     76.46     55.58     95.16 
 C                     74.05     54.93     93.24 
 C                     72.85     55.49     92.48 
 C                     74.13     53.41     93.15 
 C                     73.       55.63     90.96 
 H                     74.83     57.44     94.39 
 H                     73.25     55.06     95.12 
 H                     74.95     55.31     92.76 
 H                     72.6      56.52     92.72 
 H                     71.9      54.98     92.65 
 H                     74.24     53.2      92.09 
 H                     75.05     53.01     93.59 
 H                     73.24     52.93     93.56 
 H                     73.74     56.38     90.68 
 H                     73.5      54.72     90.61 
 H                     72.03     55.87     90.54 
 N                     75.34     53.85     96.1 
 C                     76.39     53.29     96.92 
 C                     76.76     51.87     96.5 
 O                     76.08     51.24     95.7 
 C                     75.88     53.29     98.36 
 O                     74.75     52.47     98.49 
 H                     74.51     53.28     96.03 
 H                     77.29     53.91     96.87 
 H                     75.55     54.26     98.73 
 H                     76.61     52.88     99.06 
 H                     74.03     52.88     98. 
 N                     77.81     51.33     97.13 
 C                     78.25     50.03     96.67 
 C                     77.23     48.91     96.76 
 O                     77.14     48.06     95.87 
 C                     79.58     49.82     97.4 
 H                     78.32     51.92     97.78 
 H                     78.49     50.1      95.61 
 H                     80.15     48.96     97.06 
 H                     80.09     50.73     97.09 
 H                     79.42     49.8      98.48 
 N                     76.36     48.91     97.77 
 C                     75.31     47.92     97.94 
 C                     74.3      47.91     96.81 
 O                     73.85     46.88     96.31 
 C                     74.67     48.15     99.31 
 H                     76.59     49.54     98.52 
 H                     75.82     46.96     97.88 
 H                     75.3      47.74     100.09 
 H                     74.49     49.22     99.44 
 H                     73.64     47.8      99.38 
 N                     74.06     49.18     96.46 
 C                     73.1      49.56     95.44 
 C                     73.52     49.27     94. 
 O                     72.72     48.8      93.19 
 C                     72.65     51.01     95.61 
 C                     72.01     51.3      96.96 
 C                     71.72     52.77     97.25 
 O                     72.58     53.66     97.41 
 O                     70.55     53.15     97.45 
 H                     74.6      49.92     96.88 
 H                     72.27     48.87     95.61 
 H                     72.08     51.32     94.73 
 H                     73.47     51.73     95.52 
 H                     72.6      50.92     97.79 
 H                     71.05     50.79     96.93 
 N                     74.81     49.42     93.71 
 C                     75.42     49.06     92.44 
 H                     76.432    48.694    92.614 
 H                     74.829    48.279    91.961 
 H                     75.457    49.936    91.793 
 H                     75.32     49.92     94.42 
 Ca                    71.12     55.62     98.17 
 O                     71.4      54.24     100.504 
 H                     71.94     54.08     101.284 
 H                     70.5      54.27     100.844 
 
 Stoichiometry    C54H83CaN15O23
 Framework group  C1[X(C54H83CaN15O23)]
 Deg. of freedom   522
 Full point group                 C1      NOp   1
 Largest Abelian subgroup         C1      NOp   1
 Largest concise Abelian subgroup C1      NOp   1
                         Standard orientation:                         
 ---------------------------------------------------------------------
 Center     Atomic      Atomic             Coordinates (Angstroms)
 Number     Number       Type             X           Y           Z
 ---------------------------------------------------------------------
      1          6           0        2.525430    2.423473    4.866360
      2          6           0        1.770021    2.336929    3.537124
      3          8           0        2.429355    2.390917    2.501236
      4          1           0        2.992489    1.462097    5.081214
      5          1           0        3.294191    3.193069    4.798581
      6          1           0        1.828209    2.675393    5.665161
      7          7           0        0.444335    2.375122    3.499757
      8          6           0       -0.375869    2.221789    2.316264
      9          6           0       -0.469255    3.506043    1.506776
     10          8           0       -1.337776    4.362938    1.667717
     11          6           0       -1.771529    1.752637    2.725445
     12          6           0       -2.711056    1.422037    1.577144
     13          8           0       -3.838788    0.985960    1.913382
     14          8           0       -2.381332    1.563314    0.380515
     15          1           0        0.007713    2.522858    4.408732
     16          1           0        0.012036    1.482418    1.626365
     17          1           0       -2.230964    2.510445    3.367977
     18          1           0       -1.649990    0.789818    3.220628
     19          7           0        0.527143    3.796118    0.657572
     20          6           0        0.697400    5.046649   -0.050159
     21          6           0       -0.317227    5.506889   -1.089683
     22          8           0       -0.216456    6.649173   -1.538273
     23          6           0        2.062910    5.102670   -0.724506
     24          6           0        3.271355    4.687505    0.113765
     25          6           0        3.414876    5.508324    1.381897
     26          6           0        4.647409    5.167256    2.214745
     27          7           0        4.755453    6.169962    3.284234
     28          1           0        1.337887    3.198973    0.617426
     29          1           0        0.532535    5.895890    0.605364
     30          1           0        2.303793    6.081281   -1.127488
     31          1           0        2.027937    4.391858   -1.556386
     32          1           0        4.107102    4.965903   -0.520603
     33          1           0        3.400729    3.617549    0.323185
     34          1           0        2.555871    5.295199    2.030348
     35          1           0        3.366976    6.560412    1.105822
     36          1           0        5.554967    5.170744    1.609826
     37          1           0        4.561905    4.171443    2.648733
     38          1           0        4.656851    7.111764    2.917239
     39          1           0        4.117458    6.098200    4.061416
     40          1           0        5.686814    6.291464    3.641452
     41          7           0       -1.256616    4.643995   -1.489009
     42          6           0       -2.401472    4.986490   -2.318588
     43          6           0       -3.684409    4.605454   -1.606210
     44          8           0       -4.746265    4.740045   -2.215592
     45          6           0       -2.238280    4.311617   -3.678520
     46          6           0       -2.220380    2.789386   -3.616139
     47          8           0       -2.158549    2.131244   -4.681375
     48          8           0       -1.991903    2.132774   -2.574238
     49          1           0       -1.206027    3.687030   -1.173636
     50          1           0       -2.439341    6.058066   -2.505111
     51          1           0       -1.248803    4.556797   -4.047062
     52          1           0       -3.020795    4.603388   -4.384665
     53          7           0       -3.675489    4.171571   -0.340285
     54          6           0       -4.853292    4.112653    0.501267
     55          6           0       -5.835250    2.990993    0.194290
     56          8           0       -7.033802    3.102229    0.447270
     57          1           0       -2.741675    4.068371    0.018658
     58          1           0       -5.459018    5.011925    0.416967
     59          1           0       -4.553945    4.051909    1.554074
     60          7           0       -5.364773    1.926606   -0.457578
     61          6           0       -6.257243    0.955423   -1.058578
     62          6           0       -6.601725   -0.272618   -0.245776
     63          8           0       -7.213709   -1.229149   -0.728398
     64          6           0       -5.742065    0.612512   -2.459829
     65          6           0       -4.588379   -0.378317   -2.501849
     66          7           0       -4.179790   -0.951756   -3.635525
     67          8           0       -3.926628   -0.565718   -1.477706
     68          1           0       -4.367435    1.801586   -0.538737
     69          1           0       -7.232517    1.423674   -1.168485
     70          1           0       -5.463165    1.488692   -3.042429
     71          1           0       -6.520309    0.112794   -3.026590
     72          1           0       -4.701178   -0.776074   -4.472956
     73          1           0       -3.414559   -1.624143   -3.615116
     74          7           0       -6.155963   -0.268774    1.012192
     75          6           0       -6.336618   -1.276155    2.045606
     76          6           0       -5.166261   -2.231365    2.213951
     77          8           0       -5.356009   -3.030175    3.124828
     78          1           0       -5.523320    0.473599    1.278922
     79          1           0       -7.302389   -1.782732    1.953594
     80          1           0       -6.256020   -0.759331    2.992758
     81          7           0       -4.131190   -2.227427    1.370201
     82          6           0       -3.060891   -3.200484    1.385021
     83          6           0       -1.729703   -2.459376    1.362730
     84          8           0       -1.505872   -1.468875    0.677669
     85          6           0       -3.271690   -4.195884    0.253985
     86          6           0       -4.645424   -4.815667    0.140739
     87          6           0       -5.437093   -4.312073   -0.901928
     88          6           0       -5.131709   -5.750352    1.049634
     89          6           0       -6.760301   -4.786731   -0.965315
     90          6           0       -6.440507   -6.240082    0.973396
     91          6           0       -7.250441   -5.743781   -0.065638
     92          8           0       -8.558899   -6.135319   -0.163283
     93          1           0       -4.093478   -1.499998    0.652689
     94          1           0       -3.141409   -3.765584    2.323253
     95          1           0       -2.575856   -5.030280    0.371024
     96          1           0       -2.906619   -3.726711   -0.657278
     97          1           0       -5.054938   -3.522296   -1.524190
     98          1           0       -4.486266   -6.163330    1.814260
     99          1           0       -7.371875   -4.432120   -1.786916
    100          1           0       -6.723742   -6.917081    1.768852
    101          1           0       -8.879410   -6.589435    0.616878
    102          7           0       -0.710774   -3.093374    1.965001
    103          6           0        0.655839   -2.651177    1.796091
    104          6           0        1.431614   -3.648812    0.941399
    105          8           0        1.281238   -4.850611    1.186280
    106          6           0        1.375655   -2.351158    3.099607
    107          6           0        0.578142   -1.430689    4.020427
    108          6           0        2.809820   -1.870578    2.906960
    109          6           0        0.795102   -1.606771    5.528546
    110          1           0       -0.856244   -4.003657    2.379276
    111          1           0        0.609480   -1.671761    1.326842
    112          1           0        1.444107   -3.323089    3.584853
    113          1           0       -0.498357   -1.575766    3.987214
    114          1           0        0.669759   -0.361819    3.818873
    115          1           0        3.244013   -1.886231    3.902466
    116          1           0        3.421760   -2.585593    2.346349
    117          1           0        2.849687   -0.870823    2.471643
    118          1           0        0.429834   -2.566554    5.894464
    119          1           0        1.872958   -1.737166    5.676272
    120          1           0        0.307479   -0.787056    6.043513
    121          7           0        2.278563   -3.186042    0.017753
    122          6           0        3.010654   -3.967422   -0.952808
    123          6           0        4.520927   -3.790149   -0.821090
    124          8           0        5.004855   -2.919591   -0.108881
    125          6           0        2.551690   -3.506414   -2.335025
    126          8           0        2.869348   -2.156531   -2.542653
    127          1           0        2.514057   -2.204720    0.033535
    128          1           0        2.777633   -5.030998   -0.846000
    129          1           0        1.476342   -3.556377   -2.501849
    130          1           0        3.054682   -4.043374   -3.141048
    131          1           0        2.329765   -1.630904   -1.943350
    132          7           0        5.271113   -4.576992   -1.601539
    133          6           0        6.704620   -4.508265   -1.413034
    134          6           0        7.343471   -3.151037   -1.642605
    135          8           0        8.257705   -2.748755   -0.918005
    136          6           0        7.234977   -5.677102   -2.248762
    137          1           0        4.791289   -5.273233   -2.163426
    138          1           0        6.929844   -4.747052   -0.374595
    139          1           0        8.290428   -5.891001   -2.106037
    140          1           0        6.646618   -6.480778   -1.810311
    141          1           0        6.989030   -5.531226   -3.302626
    142          7           0        6.837338   -2.350691   -2.580835
    143          6           0        7.331366   -1.013699   -2.863480
    144          6           0        7.193548   -0.058754   -1.694640
    145          8           0        8.068083    0.740604   -1.363556
    146          6           0        6.628997   -0.514832   -4.127288
    147          1           0        6.201159   -2.801767   -3.216528
    148          1           0        8.402986   -1.137965   -3.010073
    149          1           0        7.080720   -0.959451   -5.005730
    150          1           0        5.562190   -0.738613   -4.049542
    151          1           0        6.564859    0.571152   -4.196753
    152          7           0        6.014367   -0.294969   -1.105800
    153          6           0        5.517302    0.470164    0.022871
    154          6           0        6.208751    0.198692    1.357899
    155          8           0        6.505317    1.122743    2.116305
    156          6           0        3.998704    0.358848    0.146849
    157          6           0        3.245366    0.836031   -1.086431
    158          6           0        1.743075    0.567290   -1.086354
    159          8           0        1.208899   -0.559507   -1.134172
    160          8           0        0.937027    1.516215   -1.142272
    161          1           0        5.452354   -1.071621   -1.416532
    162          1           0        5.816460    1.492930   -0.218698
    163          1           0        3.679021    0.785023    1.101614
    164          1           0        3.653243   -0.666314    0.315959
    165          1           0        3.645739    0.417237   -2.006058
    166          1           0        3.371660    1.916136   -1.091081
    167          7           0        6.591140   -1.054342    1.591103
    168          6           0        7.382310   -1.478838    2.734979
    169          1           0        8.047185   -2.289352    2.436005
    170          1           0        7.974718   -0.639183    3.099281
    171          1           0        6.719403   -1.826458    3.526856
    172          1           0        6.182029   -1.718346    0.953979
    173         20           0       -1.251569    0.077972   -1.435029
    174          8           0       -0.337216    0.297955   -3.993529
    175          1           0       -0.146175   -0.154015   -4.821071
    176          1           0       -0.753319    1.121745   -4.266894
 ---------------------------------------------------------------------
 Rotational constants (GHZ):           0.0244963           0.0151878           0.0121585
 Standard basis: SVP (5D, 7F)
 There are  1809 symmetry adapted cartesian basis functions of A   symmetry.
 There are  1717 symmetry adapted basis functions of A   symmetry.
  1717 basis functions,  2922 primitive gaussians,  1809 cartesian basis functions
   358 alpha electrons      358 beta electrons
       nuclear repulsion energy     21942.5590383021 Hartrees.
 NAtoms=  176 NActive=  176 NUniq=  176 SFac= 1.00D+00 NAtFMM=   60 NAOKFM=T Big=T
 Integral buffers will be    131072 words long.
 Raffenetti 2 integral format.
 Two-electron integral symmetry is turned on.
 One-electron integrals computed using PRISM.
 NBasis=  1717 RedAO= T EigKep=  2.70D-04  NBF=  1717
 NBsUse=  1717 1.00D-06 EigRej= -1.00D+00 NBFU=  1717
 ExpMin= 1.98D-02 ExpMax= 3.51D+04 ExpMxC= 5.28D+03 IAcc=3 IRadAn=         5 AccDes= 0.00D+00
 Harris functional with IExCor=  402 and IRadAn=       5 diagonalized for initial guess.
 HarFok:  IExCor=  402 AccDes= 0.00D+00 IRadAn=         5 IDoV= 1 UseB2=F ITyADJ=14
 ICtDFT=  3500011 ScaDFX=  1.000000  1.000000  1.000000  1.000000
 FoFCou: FMM=F IPFlag=           0 FMFlag=      100000 FMFlg1=        2001
         NFxFlg=           0 DoJE=T BraDBF=F KetDBF=T FulRan=T
         wScrn=  0.000000 ICntrl=       500 IOpCl=  0 I1Cent=   200000004 NGrid=           0
         NMat0=    1 NMatS0=      1 NMatT0=    0 NMatD0=    1 NMtDS0=    0 NMtDT0=    0
 Petite list used in FoFCou.
 Requested convergence on RMS density matrix=1.00D-08 within 128 cycles.
 Requested convergence on MAX density matrix=1.00D-06.
 Requested convergence on             energy=1.00D-06.
 No special actions if energy rises.
 EnCoef did     4 forward-backward iterations
 EnCoef did     3 forward-backward iterations
 EnCoef did     7 forward-backward iterations
 EnCoef did     3 forward-backward iterations
 SCF Done:  E(RB3LYP) =  -5333.63302997     A.U. after   19 cycles
            NFock= 19  Conv=0.79D-08     -V/T= 2.0082
 SCF density gives NOpUse=  1 NOpAll=  1.
 Hyperfine terms turned off by default for NAtoms > 100.

 **********************************************************************

            Population analysis using the SCF density.

 **********************************************************************

 Orbital symmetries:
 BldTbl:  Degeneracy threshold= 1.00D-02
       Occupied  (A) (A) (A) (A) (A) (A) (A) (A) (A) (A) (A) (A)
                 (A) (A) (A) (A) (A) (A) (A) (A) (A) (A) (A) (A)
                 (A) (A) (A) (A) (A) (A) (A) (A) (A) (A) (A) (A)
                 (A) (A) (A) (A) (A) (A) (A) (A) (A) (A) (A) (A)
                 (A) (A) (A) (A) (A) (A) (A) (A) (A) (A) (A) (A)
                 (A) (A) (A) (A) (A) (A) (A) (A) (A) (A) (A) (A)
                 (A) (A) (A) (A) (A) (A) (A) (A) (A) (A) (A) (A)
                 (A) (A) (A) (A) (A) (A) (A) (A) (A) (A) (A) (A)
                 (A) (A) (A) (A) (A) (A) (A) (A) (A) (A) (A) (A)
                 (A) (A) (A) (A) (A) (A) (A) (A) (A) (A) (A) (A)
                 (A) (A) (A) (A) (A) (A) (A) (A) (A) (A) (A) (A)
                 (A) (A) (A) (A) (A) (A) (A) (A) (A) (A) (A) (A)
                 (A) (A) (A) (A) (A) (A) (A) (A) (A) (A) (A) (A)
                 (A) (A) (A) (A) (A) (A) (A) (A) (A) (A) (A) (A)
                 (A) (A) (A) (A) (A) (A) (A) (A) (A) (A) (A) (A)
                 (A) (A) (A) (A) (A) (A) (A) (A) (A) (A) (A) (A)
                 (A) (A) (A) (A) (A) (A) (A) (A) (A) (A) (A) (A)
                 (A) (A) (A) (A) (A) (A) (A) (A) (A) (A) (A) (A)
                 (A) (A) (A) (A) (A) (A) (A) (A) (A) (A) (A) (A)
                 (A) (A) (A) (A) (A) (A) (A) (A) (A) (A) (A) (A)
                 (A) (A) (A) (A) (A) (A) (A) (A) (A) (A) (A) (A)
                 (A) (A) (A) (A) (A) (A) (A) (A) (A) (A) (A) (A)
                 (A) (A) (A) (A) (A) (A) (A) (A) (A) (A) (A) (A)
                 (A) (A) (A) (A) (A) (A) (A) (A) (A) (A) (A) (A)
                 (A) (A) (A) (A) (A) (A) (A) (A) (A) (A) (A) (A)
                 (A) (A) (A) (A) (A) (A) (A) (A) (A) (A) (A) (A)
                 (A) (A) (A) (A) (A) (A) (A) (A) (A) (A) (A) (A)
                 (A) (A) (A) (A) (A) (A) (A) (A) (A) (A) (A) (A)
                 (A) (A) (A) (A) (A) (A) (A) (A) (A) (A) (A) (A)
                 (A) (A) (A) (A) (A) (A) (A) (A) (A) (A)
       Virtual   (A) (A) (A) (A) (A) (A) (A) (A) (A) (A) (A) (A)
                 (A) (A) (A) (A) (A) (A) (A) (A) (A) (A) (A) (A)
                 (A) (A) (A) (A) (A) (A) (A) (A) (A) (A) (A) (A)
                 (A) (A) (A) (A) (A) (A) (A) (A) (A) (A) (A) (A)
                 (A) (A) (A) (A) (A) (A) (A) (A) (A) (A) (A) (A)
                 (A) (A) (A) (A) (A) (A) (A) (A) (A) (A) (A) (A)
                 (A) (A) (A) (A) (A) (A) (A) (A) (A) (A) (A) (A)
                 (A) (A) (A) (A) (A) (A) (A) (A) (A) (A) (A) (A)
                 (A) (A) (A) (A) (A) (A) (A) (A) (A) (A) (A) (A)
                 (A) (A) (A) (A) (A) (A) (A) (A) (A) (A) (A) (A)
                 (A) (A) (A) (A) (A) (A) (A) (A) (A) (A) (A) (A)
                 (A) (A) (A) (A) (A) (A) (A) (A) (A) (A) (A) (A)
                 (A) (A) (A) (A) (A) (A) (A) (A) (A) (A) (A) (A)
                 (A) (A) (A) (A) (A) (A) (A) (A) (A) (A) (A) (A)
                 (A) (A) (A) (A) (A) (A) (A) (A) (A) (A) (A) (A)
                 (A) (A) (A) (A) (A) (A) (A) (A) (A) (A) (A) (A)
                 (A) (A) (A) (A) (A) (A) (A) (A) (A) (A) (A) (A)
                 (A) (A) (A) (A) (A) (A) (A) (A) (A) (A) (A) (A)
                 (A) (A) (A) (A) (A) (A) (A) (A) (A) (A) (A) (A)
                 (A) (A) (A) (A) (A) (A) (A) (A) (A) (A) (A) (A)
                 (A) (A) (A) (A) (A) (A) (A) (A) (A) (A) (A) (A)
                 (A) (A) (A) (A) (A) (A) (A) (A) (A) (A) (A) (A)
                 (A) (A) (A) (A) (A) (A) (A) (A) (A) (A) (A) (A)
                 (A) (A) (A) (A) (A) (A) (A) (A) (A) (A) (A) (A)
                 (A) (A) (A) (A) (A) (A) (A) (A) (A) (A) (A) (A)
                 (A) (A) (A) (A) (A) (A) (A) (A) (A) (A) (A) (A)
                 (A) (A) (A) (A) (A) (A) (A) (A) (A) (A) (A) (A)
                 (A) (A) (A) (A) (A) (A) (A) (A) (A) (A) (A) (A)
                 (A) (A) (A) (A) (A) (A) (A) (A) (A) (A) (A) (A)
                 (A) (A) (A) (A) (A) (A) (A) (A) (A) (A) (A) (A)
                 (A) (A) (A) (A) (A) (A) (A) (A) (A) (A) (A) (A)
                 (A) (A) (A) (A) (A) (A) (A) (A) (A) (A) (A) (A)
                 (A) (A) (A) (A) (A) (A) (A) (A) (A) (A) (A) (A)
                 (A) (A) (A) (A) (A) (A) (A) (A) (A) (A) (A) (A)
                 (A) (A) (A) (A) (A) (A) (A) (A) (A) (A) (A) (A)
                 (A) (A) (A) (A) (A) (A) (A) (A) (A) (A) (A) (A)
                 (A) (A) (A) (A) (A) (A) (A) (A) (A) (A) (A) (A)
                 (A) (A) (A) (A) (A) (A) (A) (A) (A) (A) (A) (A)
                 (A) (A) (A) (A) (A) (A) (A) (A) (A) (A) (A) (A)
                 (A) (A) (A) (A) (A) (A) (A) (A) (A) (A) (A) (A)
                 (A) (A) (A) (A) (A) (A) (A) (A) (A) (A) (A) (A)
                 (A) (A) (A) (A) (A) (A) (A) (A) (A) (A) (A) (A)
                 (A) (A) (A) (A) (A) (A) (A) (A) (A) (A) (A) (A)
                 (A) (A) (A) (A) (A) (A) (A) (A) (A) (A) (A) (A)
                 (A) (A) (A) (A) (A) (A) (A) (A) (A) (A) (A) (A)
                 (A) (A) (A) (A) (A) (A) (A) (A) (A) (A) (A) (A)
                 (A) (A) (A) (A) (A) (A) (A) (A) (A) (A) (A) (A)
                 (A) (A) (A) (A) (A) (A) (A) (A) (A) (A) (A) (A)
                 (A) (A) (A) (A) (A) (A) (A) (A) (A) (A) (A) (A)
                 (A) (A) (A) (A) (A) (A) (A) (A) (A) (A) (A) (A)
                 (A) (A) (A) (A) (A) (A) (A) (A) (A) (A) (A) (A)
                 (A) (A) (A) (A) (A) (A) (A) (A) (A) (A) (A) (A)
                 (A) (A) (A) (A) (A) (A) (A) (A) (A) (A) (A) (A)
                 (A) (A) (A) (A) (A) (A) (A) (A) (A) (A) (A) (A)
                 (A) (A) (A) (A) (A) (A) (A) (A) (A) (A) (A) (A)
                 (A) (A) (A) (A) (A) (A) (A) (A) (A) (A) (A) (A)
                 (A) (A) (A) (A) (A) (A) (A) (A) (A) (A) (A) (A)
                 (A) (A) (A) (A) (A) (A) (A) (A) (A) (A) (A) (A)
                 (A) (A) (A) (A) (A) (A) (A) (A) (A) (A) (A) (A)
                 (A) (A) (A) (A) (A) (A) (A) (A) (A) (A) (A) (A)
                 (A) (A) (A) (A) (A) (A) (A) (A) (A) (A) (A) (A)
                 (A) (A) (A) (A) (A) (A) (A) (A) (A) (A) (A) (A)
                 (A) (A) (A) (A) (A) (A) (A) (A) (A) (A) (A) (A)
                 (A) (A) (A) (A) (A) (A) (A) (A) (A) (A) (A) (A)
                 (A) (A) (A) (A) (A) (A) (A) (A) (A) (A) (A) (A)
                 (A) (A) (A) (A) (A) (A) (A) (A) (A) (A) (A) (A)
                 (A) (A) (A) (A) (A) (A) (A) (A) (A) (A) (A) (A)
                 (A) (A) (A) (A) (A) (A) (A) (A) (A) (A) (A) (A)
                 (A) (A) (A) (A) (A) (A) (A) (A) (A) (A) (A) (A)
                 (A) (A) (A) (A) (A) (A) (A) (A) (A) (A) (A) (A)
                 (A) (A) (A) (A) (A) (A) (A) (A) (A) (A) (A) (A)
                 (A) (A) (A) (A) (A) (A) (A) (A) (A) (A) (A) (A)
                 (A) (A) (A) (A) (A) (A) (A) (A) (A) (A) (A) (A)
                 (A) (A) (A) (A) (A) (A) (A) (A) (A) (A) (A) (A)
                 (A) (A) (A) (A) (A) (A) (A) (A) (A) (A) (A) (A)
                 (A) (A) (A) (A) (A) (A) (A) (A) (A) (A) (A) (A)
                 (A) (A) (A) (A) (A) (A) (A) (A) (A) (A) (A) (A)
                 (A) (A) (A) (A) (A) (A) (A) (A) (A) (A) (A) (A)
                 (A) (A) (A) (A) (A) (A) (A) (A) (A) (A) (A) (A)
                 (A) (A) (A) (A) (A) (A) (A) (A) (A) (A) (A) (A)
                 (A) (A) (A) (A) (A) (A) (A) (A) (A) (A) (A) (A)
                 (A) (A) (A) (A) (A) (A) (A) (A) (A) (A) (A) (A)
                 (A) (A) (A) (A) (A) (A) (A) (A) (A) (A) (A) (A)
                 (A) (A) (A) (A) (A) (A) (A) (A) (A) (A) (A) (A)
                 (A) (A) (A) (A) (A) (A) (A) (A) (A) (A) (A) (A)
                 (A) (A) (A) (A) (A) (A) (A) (A) (A) (A) (A) (A)
                 (A) (A) (A) (A) (A) (A) (A) (A) (A) (A) (A) (A)
                 (A) (A) (A) (A) (A) (A) (A) (A) (A) (A) (A) (A)
                 (A) (A) (A) (A) (A) (A) (A) (A) (A) (A) (A) (A)
                 (A) (A) (A) (A) (A) (A) (A) (A) (A) (A) (A) (A)
                 (A) (A) (A) (A) (A) (A) (A) (A) (A) (A) (A) (A)
                 (A) (A) (A) (A) (A) (A) (A) (A) (A) (A) (A) (A)
                 (A) (A) (A) (A) (A) (A) (A) (A) (A) (A) (A) (A)
                 (A) (A) (A) (A) (A) (A) (A) (A) (A) (A) (A) (A)
                 (A) (A) (A) (A) (A) (A) (A) (A) (A) (A) (A) (A)
                 (A) (A) (A) (A) (A) (A) (A) (A) (A) (A) (A) (A)
                 (A) (A) (A) (A) (A) (A) (A) (A) (A) (A) (A) (A)
                 (A) (A) (A) (A) (A) (A) (A) (A) (A) (A) (A) (A)
                 (A) (A) (A) (A) (A) (A) (A) (A) (A) (A) (A) (A)
                 (A) (A) (A) (A) (A) (A) (A) (A) (A) (A) (A) (A)
                 (A) (A) (A) (A) (A) (A) (A) (A) (A) (A) (A) (A)
                 (A) (A) (A) (A) (A) (A) (A) (A) (A) (A) (A) (A)
                 (A) (A) (A) (A) (A) (A) (A) (A) (A) (A) (A) (A)
                 (A) (A) (A) (A) (A) (A) (A) (A) (A) (A) (A) (A)
                 (A) (A) (A) (A) (A) (A) (A) (A) (A) (A) (A) (A)
                 (A) (A) (A) (A) (A) (A) (A) (A) (A) (A) (A) (A)
                 (A) (A) (A) (A) (A) (A) (A) (A) (A) (A) (A) (A)
                 (A) (A) (A) (A) (A) (A) (A) (A) (A) (A) (A) (A)
                 (A) (A) (A) (A) (A) (A) (A) (A) (A) (A) (A) (A)
                 (A) (A) (A) (A) (A) (A) (A) (A) (A) (A) (A) (A)
                 (A) (A) (A) (A) (A) (A) (A) (A) (A) (A) (A) (A)
                 (A) (A) (A) (A) (A) (A) (A) (A) (A) (A) (A) (A)
                 (A) (A) (A) (A) (A) (A) (A) (A) (A) (A) (A) (A)
                 (A) (A) (A)
 The electronic state is 1-A.
 Alpha  occ. eigenvalues -- -145.36985 -19.14849 -19.13733 -19.13183 -19.13021
 Alpha  occ. eigenvalues --  -19.12929 -19.11208 -19.11023 -19.11009 -19.10831
 Alpha  occ. eigenvalues --  -19.10015 -19.09670 -19.09254 -19.08104 -19.07651
 Alpha  occ. eigenvalues --  -19.06874 -19.05584 -19.05452 -19.04490 -19.04189
 Alpha  occ. eigenvalues --  -19.04038 -19.03717 -19.03373 -19.01950 -15.42735
 Alpha  occ. eigenvalues --  -14.57865 -14.40152 -14.39122 -14.37465 -14.37222
 Alpha  occ. eigenvalues --  -14.37070 -14.36392 -14.34919 -14.34588 -14.33518
 Alpha  occ. eigenvalues --  -14.32314 -14.31818 -14.30123 -14.29174 -14.28986
 Alpha  occ. eigenvalues --  -12.56364 -12.56300 -12.56291 -10.33302 -10.32642
 Alpha  occ. eigenvalues --  -10.31948 -10.30965 -10.29964 -10.29707 -10.29521
 Alpha  occ. eigenvalues --  -10.27969 -10.27965 -10.27920 -10.26607 -10.26442
 Alpha  occ. eigenvalues --  -10.26170 -10.25887 -10.25851 -10.25740 -10.24392
 Alpha  occ. eigenvalues --  -10.24362 -10.23814 -10.23782 -10.23723 -10.23697
 Alpha  occ. eigenvalues --  -10.23181 -10.23167 -10.23070 -10.23061 -10.22865
 Alpha  occ. eigenvalues --  -10.22834 -10.22537 -10.22521 -10.22488 -10.22303
 Alpha  occ. eigenvalues --  -10.21321 -10.20642 -10.20321 -10.20240 -10.19793
 Alpha  occ. eigenvalues --  -10.19419 -10.19289 -10.19232 -10.19170 -10.19160
 Alpha  occ. eigenvalues --  -10.19042 -10.18766 -10.18251 -10.18189 -10.17998
 Alpha  occ. eigenvalues --  -10.17662 -10.17255 -10.17157 -10.17143 -10.17018
 Alpha  occ. eigenvalues --  -10.16400 -10.14991  -1.79628  -1.13244  -1.08149
 Alpha  occ. eigenvalues --   -1.07538  -1.07117  -1.07086  -1.06243  -1.05929
 Alpha  occ. eigenvalues --   -1.04612  -1.04080  -1.03851  -1.03740  -1.02588
 Alpha  occ. eigenvalues --   -1.02277  -1.02276  -1.01799  -1.00693  -0.99812
 Alpha  occ. eigenvalues --   -0.99165  -0.98856  -0.98824  -0.97659  -0.97178
 Alpha  occ. eigenvalues --   -0.97164  -0.96797  -0.96385  -0.95155  -0.94216
 Alpha  occ. eigenvalues --   -0.94149  -0.93774  -0.92846  -0.92066  -0.91433
 Alpha  occ. eigenvalues --   -0.90820  -0.89858  -0.89728  -0.89213  -0.89100
 Alpha  occ. eigenvalues --   -0.87597  -0.87269  -0.86865  -0.86249  -0.85307
 Alpha  occ. eigenvalues --   -0.83187  -0.82921  -0.82175  -0.81133  -0.80312
 Alpha  occ. eigenvalues --   -0.79762  -0.78343  -0.77732  -0.77323  -0.76043
 Alpha  occ. eigenvalues --   -0.75371  -0.75302  -0.75193  -0.73628  -0.73209
 Alpha  occ. eigenvalues --   -0.72874  -0.72850  -0.72290  -0.70912  -0.70749
 Alpha  occ. eigenvalues --   -0.69579  -0.69499  -0.69136  -0.68384  -0.67850
 Alpha  occ. eigenvalues --   -0.67447  -0.66229  -0.66112  -0.65011  -0.64852
 Alpha  occ. eigenvalues --   -0.64352  -0.63003  -0.62773  -0.62589  -0.62512
 Alpha  occ. eigenvalues --   -0.61317  -0.61226  -0.61042  -0.60409  -0.60129
 Alpha  occ. eigenvalues --   -0.59689  -0.59324  -0.59264  -0.58864  -0.58526
 Alpha  occ. eigenvalues --   -0.58145  -0.57206  -0.56425  -0.55999  -0.55955
 Alpha  occ. eigenvalues --   -0.55677  -0.55349  -0.55279  -0.54968  -0.54670
 Alpha  occ. eigenvalues --   -0.54402  -0.54087  -0.53851  -0.53176  -0.53028
 Alpha  occ. eigenvalues --   -0.52772  -0.52542  -0.52405  -0.52223  -0.51831
 Alpha  occ. eigenvalues --   -0.51470  -0.50962  -0.50813  -0.50624  -0.50534
 Alpha  occ. eigenvalues --   -0.49821  -0.49677  -0.49545  -0.49345  -0.49240
 Alpha  occ. eigenvalues --   -0.49186  -0.48582  -0.48541  -0.48359  -0.47841
 Alpha  occ. eigenvalues --   -0.47649  -0.47450  -0.47334  -0.47172  -0.47070
 Alpha  occ. eigenvalues --   -0.46444  -0.46315  -0.46064  -0.45765  -0.45633
 Alpha  occ. eigenvalues --   -0.45367  -0.45347  -0.45087  -0.44954  -0.44769
 Alpha  occ. eigenvalues --   -0.44753  -0.44641  -0.44517  -0.44378  -0.44275
 Alpha  occ. eigenvalues --   -0.44245  -0.43969  -0.43744  -0.43457  -0.43283
 Alpha  occ. eigenvalues --   -0.43213  -0.43069  -0.43048  -0.42646  -0.42436
 Alpha  occ. eigenvalues --   -0.42331  -0.42101  -0.42032  -0.41946  -0.41893
 Alpha  occ. eigenvalues --   -0.41713  -0.41645  -0.41458  -0.41346  -0.41093
 Alpha  occ. eigenvalues --   -0.40867  -0.40677  -0.40547  -0.40500  -0.40485
 Alpha  occ. eigenvalues --   -0.40330  -0.40098  -0.39989  -0.39846  -0.39638
 Alpha  occ. eigenvalues --   -0.39489  -0.39401  -0.39345  -0.39228  -0.38874
 Alpha  occ. eigenvalues --   -0.38789  -0.38709  -0.38653  -0.38450  -0.38287
 Alpha  occ. eigenvalues --   -0.38221  -0.38111  -0.37903  -0.37820  -0.37586
 Alpha  occ. eigenvalues --   -0.37344  -0.37299  -0.37167  -0.37076  -0.36832
 Alpha  occ. eigenvalues --   -0.36716  -0.36446  -0.36165  -0.35680  -0.35617
 Alpha  occ. eigenvalues --   -0.35526  -0.35481  -0.35085  -0.34981  -0.34935
 Alpha  occ. eigenvalues --   -0.34757  -0.34694  -0.34310  -0.34120  -0.33961
 Alpha  occ. eigenvalues --   -0.33914  -0.33785  -0.33600  -0.33224  -0.32597
 Alpha  occ. eigenvalues --   -0.32255  -0.32032  -0.31946  -0.31727  -0.31654
 Alpha  occ. eigenvalues --   -0.31496  -0.30812  -0.30663  -0.30497  -0.30360
 Alpha  occ. eigenvalues --   -0.29760  -0.29382  -0.29048  -0.28947  -0.28843
 Alpha  occ. eigenvalues --   -0.28626  -0.28566  -0.28427  -0.27366  -0.27021
 Alpha  occ. eigenvalues --   -0.26932  -0.26712  -0.26589  -0.26476  -0.25982
 Alpha  occ. eigenvalues --   -0.25062  -0.24726  -0.24416  -0.24024  -0.23822
 Alpha  occ. eigenvalues --   -0.23746  -0.23673  -0.23288  -0.23182  -0.22887
 Alpha  occ. eigenvalues --   -0.22610  -0.22531  -0.22035  -0.21731  -0.21539
 Alpha  occ. eigenvalues --   -0.20856  -0.20297  -0.19925  -0.19699  -0.19333
 Alpha  occ. eigenvalues --   -0.19073  -0.18715  -0.17716
 Alpha virt. eigenvalues --   -0.10258  -0.04680  -0.04029  -0.02725  -0.01987
 Alpha virt. eigenvalues --   -0.01915  -0.00914  -0.00605   0.00239   0.00304
 Alpha virt. eigenvalues --    0.00509   0.00606   0.01176   0.01500   0.01903
 Alpha virt. eigenvalues --    0.02027   0.02600   0.02790   0.03550   0.03638
 Alpha virt. eigenvalues --    0.03824   0.04478   0.04671   0.04922   0.04993
 Alpha virt. eigenvalues --    0.05327   0.05496   0.05921   0.06034   0.06142
 Alpha virt. eigenvalues --    0.06298   0.06371   0.06606   0.06812   0.06887
 Alpha virt. eigenvalues --    0.07071   0.07266   0.07520   0.07544   0.07659
 Alpha virt. eigenvalues --    0.07857   0.08067   0.08221   0.08493   0.08554
 Alpha virt. eigenvalues --    0.08989   0.09140   0.09327   0.09701   0.09864
 Alpha virt. eigenvalues --    0.10018   0.10224   0.10436   0.10630   0.10819
 Alpha virt. eigenvalues --    0.11047   0.11166   0.11246   0.11429   0.11702
 Alpha virt. eigenvalues --    0.11798   0.12086   0.12181   0.12467   0.12629
 Alpha virt. eigenvalues --    0.12673   0.12870   0.12936   0.13114   0.13330
 Alpha virt. eigenvalues --    0.13396   0.13563   0.13655   0.13947   0.14115
 Alpha virt. eigenvalues --    0.14245   0.14439   0.14555   0.14855   0.14948
 Alpha virt. eigenvalues --    0.15112   0.15327   0.15489   0.15752   0.15978
 Alpha virt. eigenvalues --    0.16135   0.16218   0.16297   0.16475   0.16602
 Alpha virt. eigenvalues --    0.16897   0.17071   0.17203   0.17372   0.17616
 Alpha virt. eigenvalues --    0.17807   0.17886   0.18096   0.18374   0.18489
 Alpha virt. eigenvalues --    0.18938   0.19006   0.19020   0.19127   0.19503
 Alpha virt. eigenvalues --    0.19565   0.19668   0.19991   0.20248   0.20443
 Alpha virt. eigenvalues --    0.20553   0.20924   0.21246   0.21297   0.21467
 Alpha virt. eigenvalues --    0.21961   0.22110   0.22376   0.22484   0.22639
 Alpha virt. eigenvalues --    0.22794   0.23019   0.23276   0.23528   0.23672
 Alpha virt. eigenvalues --    0.23742   0.23898   0.24338   0.24380   0.24684
 Alpha virt. eigenvalues --    0.24724   0.24873   0.25114   0.25447   0.25521
 Alpha virt. eigenvalues --    0.25771   0.25823   0.26027   0.26290   0.26529
 Alpha virt. eigenvalues --    0.26695   0.27050   0.27186   0.27465   0.27593
 Alpha virt. eigenvalues --    0.27946   0.27985   0.28305   0.28595   0.28846
 Alpha virt. eigenvalues --    0.29112   0.29191   0.29399   0.29737   0.30041
 Alpha virt. eigenvalues --    0.30115   0.30937   0.31128   0.31155   0.31427
 Alpha virt. eigenvalues --    0.31566   0.31593   0.31700   0.32061   0.32241
 Alpha virt. eigenvalues --    0.32732   0.32837   0.32876   0.33148   0.33232
 Alpha virt. eigenvalues --    0.33545   0.33953   0.34551   0.34692   0.35172
 Alpha virt. eigenvalues --    0.35352   0.35724   0.35861   0.36358   0.36552
 Alpha virt. eigenvalues --    0.36959   0.37095   0.37358   0.37609   0.38139
 Alpha virt. eigenvalues --    0.38242   0.38548   0.38642   0.39054   0.39142
 Alpha virt. eigenvalues --    0.39713   0.39948   0.40048   0.40255   0.40470
 Alpha virt. eigenvalues --    0.40754   0.41057   0.41349   0.41506   0.41696
 Alpha virt. eigenvalues --    0.42103   0.42335   0.42522   0.42727   0.42988
 Alpha virt. eigenvalues --    0.43334   0.43453   0.43619   0.43836   0.44304
 Alpha virt. eigenvalues --    0.44465   0.44720   0.44758   0.44976   0.45299
 Alpha virt. eigenvalues --    0.45494   0.45667   0.45794   0.45965   0.46084
 Alpha virt. eigenvalues --    0.46167   0.46555   0.46599   0.46906   0.47107
 Alpha virt. eigenvalues --    0.47244   0.47428   0.47767   0.47924   0.48144
 Alpha virt. eigenvalues --    0.48244   0.48414   0.48847   0.48994   0.49154
 Alpha virt. eigenvalues --    0.49243   0.49358   0.49549   0.49782   0.49912
 Alpha virt. eigenvalues --    0.50255   0.50347   0.50570   0.50866   0.50988
 Alpha virt. eigenvalues --    0.51104   0.51304   0.51545   0.51592   0.51921
 Alpha virt. eigenvalues --    0.52064   0.52473   0.52717   0.52881   0.52987
 Alpha virt. eigenvalues --    0.53154   0.53382   0.53802   0.53866   0.54162
 Alpha virt. eigenvalues --    0.54505   0.54588   0.54844   0.55066   0.55162
 Alpha virt. eigenvalues --    0.55386   0.55473   0.55796   0.56033   0.56124
 Alpha virt. eigenvalues --    0.56484   0.56545   0.56629   0.56869   0.56969
 Alpha virt. eigenvalues --    0.57090   0.57394   0.57534   0.57580   0.57915
 Alpha virt. eigenvalues --    0.58156   0.58252   0.58465   0.58571   0.58834
 Alpha virt. eigenvalues --    0.58889   0.59043   0.59137   0.59321   0.59442
 Alpha virt. eigenvalues --    0.59540   0.59718   0.59879   0.59963   0.60181
 Alpha virt. eigenvalues --    0.60215   0.60454   0.60495   0.60739   0.60797
 Alpha virt. eigenvalues --    0.61049   0.61196   0.61245   0.61347   0.61680
 Alpha virt. eigenvalues --    0.61750   0.61886   0.62207   0.62274   0.62357
 Alpha virt. eigenvalues --    0.62433   0.62485   0.62620   0.62752   0.62831
 Alpha virt. eigenvalues --    0.63131   0.63224   0.63385   0.63514   0.63597
 Alpha virt. eigenvalues --    0.63639   0.63785   0.63920   0.63984   0.64083
 Alpha virt. eigenvalues --    0.64207   0.64322   0.64480   0.64589   0.64622
 Alpha virt. eigenvalues --    0.64803   0.64849   0.64983   0.65043   0.65210
 Alpha virt. eigenvalues --    0.65356   0.65454   0.65581   0.65753   0.65792
 Alpha virt. eigenvalues --    0.65962   0.66014   0.66229   0.66297   0.66430
 Alpha virt. eigenvalues --    0.66577   0.66614   0.66668   0.66836   0.66868
 Alpha virt. eigenvalues --    0.67037   0.67114   0.67254   0.67320   0.67393
 Alpha virt. eigenvalues --    0.67625   0.67764   0.67835   0.68111   0.68215
 Alpha virt. eigenvalues --    0.68283   0.68394   0.68474   0.68548   0.68787
 Alpha virt. eigenvalues --    0.68960   0.69093   0.69182   0.69219   0.69406
 Alpha virt. eigenvalues --    0.69578   0.69674   0.69821   0.69894   0.70041
 Alpha virt. eigenvalues --    0.70233   0.70322   0.70381   0.70744   0.70822
 Alpha virt. eigenvalues --    0.70918   0.70996   0.71072   0.71244   0.71394
 Alpha virt. eigenvalues --    0.71505   0.71662   0.71693   0.72075   0.72140
 Alpha virt. eigenvalues --    0.72372   0.72524   0.72837   0.72909   0.73126
 Alpha virt. eigenvalues --    0.73279   0.73500   0.73602   0.73808   0.73925
 Alpha virt. eigenvalues --    0.74010   0.74123   0.74396   0.74491   0.74611
 Alpha virt. eigenvalues --    0.74990   0.75127   0.75364   0.75485   0.75689
 Alpha virt. eigenvalues --    0.75958   0.76317   0.76423   0.76578   0.76887
 Alpha virt. eigenvalues --    0.76963   0.77186   0.77257   0.77611   0.77901
 Alpha virt. eigenvalues --    0.78037   0.78271   0.78719   0.78818   0.79088
 Alpha virt. eigenvalues --    0.79385   0.79588   0.79737   0.80037   0.80185
 Alpha virt. eigenvalues --    0.80472   0.80760   0.80988   0.81559   0.82102
 Alpha virt. eigenvalues --    0.82257   0.82373   0.82761   0.82859   0.83041
 Alpha virt. eigenvalues --    0.83338   0.83721   0.84050   0.84138   0.84344
 Alpha virt. eigenvalues --    0.84416   0.84598   0.85157   0.85322   0.85540
 Alpha virt. eigenvalues --    0.85767   0.86039   0.86314   0.86816   0.86935
 Alpha virt. eigenvalues --    0.87517   0.87720   0.88069   0.88259   0.88492
 Alpha virt. eigenvalues --    0.88908   0.89197   0.89413   0.89745   0.90420
 Alpha virt. eigenvalues --    0.90640   0.90883   0.91312   0.91661   0.92037
 Alpha virt. eigenvalues --    0.92170   0.92363   0.92649   0.92805   0.93506
 Alpha virt. eigenvalues --    0.93718   0.93987   0.94116   0.94419   0.94548
 Alpha virt. eigenvalues --    0.94949   0.95159   0.95283   0.95509   0.95811
 Alpha virt. eigenvalues --    0.96150   0.96421   0.96701   0.96772   0.97331
 Alpha virt. eigenvalues --    0.97629   0.97885   0.98174   0.98296   0.98620
 Alpha virt. eigenvalues --    0.99065   0.99256   0.99651   0.99850   1.00002
 Alpha virt. eigenvalues --    1.00225   1.00612   1.00773   1.01325   1.01530
 Alpha virt. eigenvalues --    1.02086   1.02455   1.02716   1.03131   1.03287
 Alpha virt. eigenvalues --    1.03499   1.03910   1.04359   1.04633   1.04894
 Alpha virt. eigenvalues --    1.05202   1.05419   1.05724   1.05939   1.06322
 Alpha virt. eigenvalues --    1.06818   1.07086   1.07324   1.07632   1.07975
 Alpha virt. eigenvalues --    1.08166   1.08246   1.08578   1.08685   1.08932
 Alpha virt. eigenvalues --    1.09321   1.09356   1.09949   1.10122   1.10259
 Alpha virt. eigenvalues --    1.10980   1.11085   1.11226   1.11418   1.11701
 Alpha virt. eigenvalues --    1.11955   1.12043   1.12385   1.13130   1.13294
 Alpha virt. eigenvalues --    1.13694   1.13753   1.14174   1.14483   1.14673
 Alpha virt. eigenvalues --    1.15249   1.15515   1.15615   1.16002   1.16242
 Alpha virt. eigenvalues --    1.16312   1.16512   1.16736   1.17282   1.17599
 Alpha virt. eigenvalues --    1.18084   1.18331   1.18541   1.18666   1.18905
 Alpha virt. eigenvalues --    1.19029   1.19348   1.19491   1.19859   1.20163
 Alpha virt. eigenvalues --    1.20241   1.20471   1.20857   1.20969   1.21362
 Alpha virt. eigenvalues --    1.21901   1.22084   1.22417   1.22557   1.22972
 Alpha virt. eigenvalues --    1.23137   1.23231   1.23477   1.23534   1.24076
 Alpha virt. eigenvalues --    1.24368   1.24525   1.24975   1.25017   1.25351
 Alpha virt. eigenvalues --    1.25457   1.25820   1.26251   1.26412   1.26490
 Alpha virt. eigenvalues --    1.26635   1.26902   1.27026   1.27143   1.27493
 Alpha virt. eigenvalues --    1.27829   1.28017   1.28141   1.28546   1.28649
 Alpha virt. eigenvalues --    1.28929   1.29111   1.29384   1.29735   1.30141
 Alpha virt. eigenvalues --    1.30344   1.30449   1.30768   1.31100   1.31576
 Alpha virt. eigenvalues --    1.31795   1.32138   1.32417   1.32812   1.33212
 Alpha virt. eigenvalues --    1.33235   1.33775   1.33985   1.34382   1.34469
 Alpha virt. eigenvalues --    1.34831   1.35209   1.35636   1.35902   1.36144
 Alpha virt. eigenvalues --    1.36723   1.36827   1.37041   1.37394   1.37453
 Alpha virt. eigenvalues --    1.37709   1.37843   1.38119   1.38302   1.38583
 Alpha virt. eigenvalues --    1.38902   1.39140   1.39265   1.39442   1.39749
 Alpha virt. eigenvalues --    1.40191   1.40313   1.40773   1.41216   1.41282
 Alpha virt. eigenvalues --    1.41793   1.41903   1.42242   1.42420   1.42882
 Alpha virt. eigenvalues --    1.42970   1.43051   1.43340   1.43620   1.43996
 Alpha virt. eigenvalues --    1.44242   1.44799   1.45059   1.45468   1.45873
 Alpha virt. eigenvalues --    1.46097   1.46405   1.46613   1.46958   1.47088
 Alpha virt. eigenvalues --    1.47227   1.47523   1.47687   1.47788   1.48221
 Alpha virt. eigenvalues --    1.48455   1.48624   1.49170   1.49438   1.49716
 Alpha virt. eigenvalues --    1.50040   1.50553   1.50667   1.50889   1.50965
 Alpha virt. eigenvalues --    1.51318   1.51763   1.52320   1.52444   1.52697
 Alpha virt. eigenvalues --    1.52972   1.53187   1.53366   1.53899   1.54065
 Alpha virt. eigenvalues --    1.54634   1.54788   1.55202   1.55502   1.55791
 Alpha virt. eigenvalues --    1.56336   1.56616   1.56740   1.57359   1.57501
 Alpha virt. eigenvalues --    1.57656   1.57986   1.58152   1.59096   1.59210
 Alpha virt. eigenvalues --    1.59437   1.59995   1.60511   1.60880   1.61017
 Alpha virt. eigenvalues --    1.61293   1.61462   1.61605   1.61949   1.62237
 Alpha virt. eigenvalues --    1.62504   1.63056   1.63489   1.63781   1.64197
 Alpha virt. eigenvalues --    1.64254   1.64405   1.64588   1.64868   1.65200
 Alpha virt. eigenvalues --    1.65657   1.65857   1.66203   1.66451   1.66892
 Alpha virt. eigenvalues --    1.67197   1.67372   1.67433   1.68228   1.68264
 Alpha virt. eigenvalues --    1.68578   1.68850   1.69258   1.69379   1.69557
 Alpha virt. eigenvalues --    1.69756   1.70030   1.70312   1.70437   1.70678
 Alpha virt. eigenvalues --    1.71016   1.71122   1.71297   1.71447   1.71723
 Alpha virt. eigenvalues --    1.72114   1.72506   1.72717   1.72797   1.72929
 Alpha virt. eigenvalues --    1.73098   1.73248   1.73791   1.74060   1.74239
 Alpha virt. eigenvalues --    1.74450   1.74541   1.74733   1.74858   1.75093
 Alpha virt. eigenvalues --    1.75401   1.75443   1.75648   1.75773   1.75827
 Alpha virt. eigenvalues --    1.76268   1.76342   1.76674   1.76709   1.76930
 Alpha virt. eigenvalues --    1.77171   1.77341   1.77558   1.77727   1.77785
 Alpha virt. eigenvalues --    1.78058   1.78147   1.78322   1.78468   1.78601
 Alpha virt. eigenvalues --    1.79010   1.79183   1.79254   1.79383   1.79725
 Alpha virt. eigenvalues --    1.79831   1.79905   1.80110   1.80320   1.80448
 Alpha virt. eigenvalues --    1.80602   1.80701   1.81106   1.81425   1.81526
 Alpha virt. eigenvalues --    1.81748   1.81912   1.82026   1.82345   1.82399
 Alpha virt. eigenvalues --    1.82610   1.82802   1.82840   1.82912   1.83207
 Alpha virt. eigenvalues --    1.83352   1.83542   1.83713   1.84002   1.84095
 Alpha virt. eigenvalues --    1.84201   1.84535   1.84625   1.84661   1.84965
 Alpha virt. eigenvalues --    1.85290   1.85593   1.85679   1.85796   1.85988
 Alpha virt. eigenvalues --    1.86112   1.86394   1.86627   1.86732   1.86906
 Alpha virt. eigenvalues --    1.86950   1.87258   1.87426   1.87732   1.87773
 Alpha virt. eigenvalues --    1.87986   1.88216   1.88352   1.88651   1.88755
 Alpha virt. eigenvalues --    1.88966   1.89131   1.89442   1.89660   1.89778
 Alpha virt. eigenvalues --    1.89877   1.90195   1.90392   1.90807   1.90841
 Alpha virt. eigenvalues --    1.91126   1.91397   1.91527   1.91689   1.91797
 Alpha virt. eigenvalues --    1.92004   1.92267   1.92427   1.92677   1.92873
 Alpha virt. eigenvalues --    1.92972   1.93234   1.93383   1.93615   1.93917
 Alpha virt. eigenvalues --    1.94161   1.94372   1.94505   1.94613   1.94925
 Alpha virt. eigenvalues --    1.94961   1.95237   1.95557   1.95625   1.95966
 Alpha virt. eigenvalues --    1.96189   1.96230   1.96428   1.96568   1.96947
 Alpha virt. eigenvalues --    1.97234   1.97397   1.97525   1.97657   1.97783
 Alpha virt. eigenvalues --    1.98003   1.98208   1.98518   1.98739   1.98998
 Alpha virt. eigenvalues --    1.99274   1.99626   1.99873   1.99881   2.00290
 Alpha virt. eigenvalues --    2.00412   2.00622   2.00818   2.01472   2.01551
 Alpha virt. eigenvalues --    2.01675   2.02210   2.02304   2.02598   2.02783
 Alpha virt. eigenvalues --    2.03085   2.03209   2.03603   2.03711   2.03806
 Alpha virt. eigenvalues --    2.04247   2.04318   2.04647   2.04748   2.04961
 Alpha virt. eigenvalues --    2.05188   2.05487   2.05819   2.06351   2.06556
 Alpha virt. eigenvalues --    2.06916   2.06958   2.07443   2.07681   2.07794
 Alpha virt. eigenvalues --    2.08130   2.08306   2.08689   2.09061   2.09420
 Alpha virt. eigenvalues --    2.09797   2.09840   2.10116   2.10330   2.10693
 Alpha virt. eigenvalues --    2.10751   2.10981   2.11410   2.11869   2.11976
 Alpha virt. eigenvalues --    2.12088   2.12498   2.13011   2.13451   2.13689
 Alpha virt. eigenvalues --    2.13752   2.13980   2.14279   2.14636   2.14799
 Alpha virt. eigenvalues --    2.15219   2.15554   2.16070   2.16599   2.16646
 Alpha virt. eigenvalues --    2.17089   2.17293   2.17568   2.18189   2.18955
 Alpha virt. eigenvalues --    2.19069   2.19405   2.19902   2.20184   2.20332
 Alpha virt. eigenvalues --    2.20444   2.20798   2.21185   2.21284   2.21657
 Alpha virt. eigenvalues --    2.21910   2.22435   2.22560   2.22819   2.22978
 Alpha virt. eigenvalues --    2.23083   2.23285   2.23458   2.23813   2.24002
 Alpha virt. eigenvalues --    2.24476   2.24816   2.25384   2.25537   2.26576
 Alpha virt. eigenvalues --    2.26680   2.26978   2.27237   2.27965   2.28228
 Alpha virt. eigenvalues --    2.28656   2.28866   2.29388   2.29500   2.29780
 Alpha virt. eigenvalues --    2.30129   2.30384   2.30459   2.30813   2.31113
 Alpha virt. eigenvalues --    2.31592   2.31791   2.32387   2.32530   2.32593
 Alpha virt. eigenvalues --    2.32915   2.33090   2.33231   2.33567   2.34012
 Alpha virt. eigenvalues --    2.34128   2.34452   2.34792   2.35237   2.35733
 Alpha virt. eigenvalues --    2.35983   2.36506   2.36983   2.37356   2.37573
 Alpha virt. eigenvalues --    2.37820   2.37858   2.37997   2.38099   2.38270
 Alpha virt. eigenvalues --    2.39172   2.39279   2.39408   2.40093   2.40486
 Alpha virt. eigenvalues --    2.40620   2.40808   2.40873   2.41061   2.41147
 Alpha virt. eigenvalues --    2.41449   2.41831   2.42084   2.42454   2.42753
 Alpha virt. eigenvalues --    2.42928   2.43863   2.44308   2.44331   2.45000
 Alpha virt. eigenvalues --    2.45331   2.45439   2.45585   2.46233   2.46653
 Alpha virt. eigenvalues --    2.46791   2.47133   2.47874   2.47915   2.48039
 Alpha virt. eigenvalues --    2.48618   2.48920   2.49183   2.49545   2.49862
 Alpha virt. eigenvalues --    2.50206   2.50307   2.50852   2.51323   2.51648
 Alpha virt. eigenvalues --    2.51915   2.52277   2.52525   2.52687   2.53259
 Alpha virt. eigenvalues --    2.53372   2.53802   2.54088   2.54196   2.54543
 Alpha virt. eigenvalues --    2.54650   2.55334   2.55640   2.56146   2.56295
 Alpha virt. eigenvalues --    2.57444   2.57510   2.57814   2.58004   2.58480
 Alpha virt. eigenvalues --    2.58813   2.59082   2.59140   2.59467   2.59869
 Alpha virt. eigenvalues --    2.60177   2.60566   2.60862   2.61559   2.61661
 Alpha virt. eigenvalues --    2.62069   2.62146   2.62631   2.62978   2.63465
 Alpha virt. eigenvalues --    2.63932   2.63973   2.64214   2.64483   2.64651
 Alpha virt. eigenvalues --    2.65029   2.65311   2.65423   2.65711   2.65962
 Alpha virt. eigenvalues --    2.66203   2.66551   2.66700   2.66916   2.67131
 Alpha virt. eigenvalues --    2.67293   2.67846   2.68438   2.69004   2.69845
 Alpha virt. eigenvalues --    2.69911   2.70083   2.70409   2.70421   2.71134
 Alpha virt. eigenvalues --    2.71632   2.71882   2.71958   2.72099   2.72276
 Alpha virt. eigenvalues --    2.72831   2.73083   2.73386   2.73467   2.73714
 Alpha virt. eigenvalues --    2.73913   2.73991   2.74048   2.74635   2.74852
 Alpha virt. eigenvalues --    2.75062   2.75147   2.75493   2.75772   2.76051
 Alpha virt. eigenvalues --    2.76453   2.77067   2.77128   2.77306   2.77517
 Alpha virt. eigenvalues --    2.77755   2.78000   2.78077   2.78257   2.78498
 Alpha virt. eigenvalues --    2.78663   2.78789   2.79105   2.79558   2.79698
 Alpha virt. eigenvalues --    2.80058   2.80617   2.80677   2.81302   2.81667
 Alpha virt. eigenvalues --    2.81696   2.81971   2.82168   2.82473   2.82740
 Alpha virt. eigenvalues --    2.83042   2.83215   2.83224   2.83876   2.84549
 Alpha virt. eigenvalues --    2.84616   2.84841   2.85146   2.85353   2.85703
 Alpha virt. eigenvalues --    2.85862   2.86045   2.86568   2.86704   2.86844
 Alpha virt. eigenvalues --    2.87242   2.88028   2.88167   2.88514   2.88789
 Alpha virt. eigenvalues --    2.88910   2.89034   2.89290   2.89996   2.90008
 Alpha virt. eigenvalues --    2.90415   2.91243   2.91812   2.91981   2.92249
 Alpha virt. eigenvalues --    2.92921   2.93173   2.93282   2.93569   2.94007
 Alpha virt. eigenvalues --    2.94305   2.94360   2.94900   2.95393   2.95576
 Alpha virt. eigenvalues --    2.95787   2.95973   2.96400   2.96792   2.96919
 Alpha virt. eigenvalues --    2.97148   2.97588   2.97694   2.97875   2.98105
 Alpha virt. eigenvalues --    2.98536   2.99092   2.99266   2.99556   2.99863
 Alpha virt. eigenvalues --    3.00047   3.00637   3.00991   3.01317   3.01713
 Alpha virt. eigenvalues --    3.01868   3.02050   3.02315   3.02407   3.02558
 Alpha virt. eigenvalues --    3.03240   3.04187   3.04346   3.04517   3.04906
 Alpha virt. eigenvalues --    3.05153   3.05379   3.05673   3.06145   3.06743
 Alpha virt. eigenvalues --    3.06967   3.07367   3.07753   3.08131   3.08686
 Alpha virt. eigenvalues --    3.10305   3.10870   3.11012   3.11323   3.11686
 Alpha virt. eigenvalues --    3.11797   3.13406   3.13564   3.14042   3.14435
 Alpha virt. eigenvalues --    3.14521   3.14902   3.15445   3.15755   3.16055
 Alpha virt. eigenvalues --    3.16279   3.16753   3.17261   3.17391   3.17526
 Alpha virt. eigenvalues --    3.17654   3.18151   3.18305   3.18734   3.19235
 Alpha virt. eigenvalues --    3.19606   3.19973   3.20344   3.20953   3.21145
 Alpha virt. eigenvalues --    3.21672   3.21815   3.22000   3.22108   3.22291
 Alpha virt. eigenvalues --    3.22524   3.23004   3.23600   3.23930   3.24167
 Alpha virt. eigenvalues --    3.24748   3.25134   3.26027   3.26305   3.26561
 Alpha virt. eigenvalues --    3.27348   3.27808   3.28773   3.29104   3.29222
 Alpha virt. eigenvalues --    3.30422   3.31225   3.31584   3.35532   3.36300
 Alpha virt. eigenvalues --    3.36657   3.37437   3.37900   3.38325   3.38599
 Alpha virt. eigenvalues --    3.40706   3.41677   3.49358   3.51124   3.51924
 Alpha virt. eigenvalues --    3.52283   3.53507   3.54303   3.54818   3.54944
 Alpha virt. eigenvalues --    3.56733   3.57351   3.57404   3.58476   3.59135
 Alpha virt. eigenvalues --    3.60324   3.60989   3.62482   3.63644   3.64966
 Alpha virt. eigenvalues --    3.65660   3.65819   3.66446   3.67185   3.68005
 Alpha virt. eigenvalues --    3.68555   3.68754   3.68838   3.69716   3.70403
 Alpha virt. eigenvalues --    3.71125   3.71150   3.71695   3.72173   3.72421
 Alpha virt. eigenvalues --    3.72786   3.73236   3.73558   3.74030   3.74520
 Alpha virt. eigenvalues --    3.78623   3.81803   3.86186   3.89149
          Condensed to atoms (all electrons):
 Mulliken charges:
               1
     1  C    0.085402
     2  C    0.016695
     3  O   -0.311842
     4  H    0.067178
     5  H   -0.012707
     6  H    0.004283
     7  N   -0.097767
     8  C    0.099868
     9  C    0.069961
    10  O   -0.300673
    11  C    0.070584
    12  C    0.154087
    13  O   -0.386147
    14  O   -0.455334
    15  H    0.129471
    16  H    0.009311
    17  H    0.021978
    18  H    0.007244
    19  N   -0.098832
    20  C    0.135316
    21  C    0.047173
    22  O   -0.305270
    23  C    0.035334
    24  C   -0.011891
    25  C   -0.067912
    26  C    0.057833
    27  N    0.085611
    28  H    0.138107
    29  H   -0.011320
    30  H    0.013810
    31  H    0.030468
    32  H   -0.002039
    33  H    0.064301
    34  H    0.031459
    35  H    0.010967
    36  H    0.070623
    37  H    0.102998
    38  H    0.173291
    39  H    0.189203
    40  H    0.175789
    41  N   -0.170589
    42  C    0.147844
    43  C    0.025072
    44  O   -0.299553
    45  C    0.118550
    46  C    0.114822
    47  O   -0.417910
    48  O   -0.488447
    49  H    0.160886
    50  H    0.024653
    51  H    0.013063
    52  H    0.026990
    53  N   -0.138481
    54  C    0.245838
    55  C    0.030801
    56  O   -0.299358
    57  H    0.139123
    58  H    0.012967
    59  H    0.022731
    60  N   -0.165235
    61  C    0.172766
    62  C    0.034314
    63  O   -0.301387
    64  C    0.077155
    65  C    0.049957
    66  N   -0.015392
    67  O   -0.365134
    68  H    0.155197
    69  H    0.027703
    70  H    0.068042
    71  H    0.010754
    72  H    0.131072
    73  H    0.121892
    74  N   -0.168441
    75  C    0.237441
    76  C    0.038276
    77  O   -0.314929
    78  H    0.148389
    79  H    0.046694
    80  H    0.014824
    81  N   -0.148797
    82  C    0.096515
    83  C    0.161276
    84  O   -0.357336
    85  C    0.162430
    86  C   -0.000569
    87  C    0.008818
    88  C    0.008810
    89  C    0.011293
    90  C   -0.056029
    91  C    0.198597
    92  O   -0.211447
    93  H    0.166836
    94  H   -0.001095
    95  H   -0.016586
    96  H   -0.048759
    97  H   -0.043414
    98  H   -0.043114
    99  H   -0.021149
   100  H   -0.040838
   101  H    0.171779
   102  N   -0.124754
   103  C    0.125863
   104  C    0.076135
   105  O   -0.293434
   106  C   -0.059969
   107  C   -0.005817
   108  C    0.048029
   109  C    0.024277
   110  H    0.132301
   111  H    0.009505
   112  H   -0.026903
   113  H    0.011861
   114  H   -0.016127
   115  H   -0.001740
   116  H    0.026216
   117  H    0.015687
   118  H    0.009072
   119  H   -0.008983
   120  H    0.011117
   121  N   -0.127091
   122  C    0.058872
   123  C    0.117634
   124  O   -0.278670
   125  C    0.264029
   126  O   -0.357945
   127  H    0.147893
   128  H    0.026787
   129  H    0.008520
   130  H   -0.021922
   131  H    0.171660
   132  N   -0.148840
   133  C    0.098398
   134  C    0.063061
   135  O   -0.263125
   136  C    0.034526
   137  H    0.130554
   138  H    0.018567
   139  H    0.044622
   140  H    0.021572
   141  H    0.016772
   142  N   -0.139731
   143  C    0.086819
   144  C    0.081500
   145  O   -0.253393
   146  C    0.046190
   147  H    0.107833
   148  H    0.013883
   149  H    0.029900
   150  H    0.016259
   151  H    0.026172
   152  N   -0.179007
   153  C    0.149316
   154  C    0.049076
   155  O   -0.315214
   156  C   -0.044790
   157  C    0.107824
   158  C    0.159653
   159  O   -0.475863
   160  O   -0.390149
   161  H    0.138788
   162  H   -0.017044
   163  H    0.045886
   164  H   -0.030861
   165  H    0.021643
   166  H   -0.020231
   167  N   -0.148679
   168  C    0.141055
   169  H    0.027689
   170  H    0.030855
   171  H    0.007109
   172  H    0.133738
   173  Ca   1.297670
   174  O   -0.320495
   175  H    0.161931
   176  H    0.169669
 Sum of Mulliken charges =  -0.00000
 Mulliken charges with hydrogens summed into heavy atoms:
               1
     1  C    0.144157
     2  C    0.016695
     3  O   -0.311842
     7  N    0.031705
     8  C    0.109179
     9  C    0.069961
    10  O   -0.300673
    11  C    0.099806
    12  C    0.154087
    13  O   -0.386147
    14  O   -0.455334
    19  N    0.039275
    20  C    0.123995
    21  C    0.047173
    22  O   -0.305270
    23  C    0.079612
    24  C    0.050371
    25  C   -0.025486
    26  C    0.231454
    27  N    0.623893
    41  N   -0.009703
    42  C    0.172497
    43  C    0.025072
    44  O   -0.299553
    45  C    0.158603
    46  C    0.114822
    47  O   -0.417910
    48  O   -0.488447
    53  N    0.000642
    54  C    0.281535
    55  C    0.030801
    56  O   -0.299358
    60  N   -0.010038
    61  C    0.200468
    62  C    0.034314
    63  O   -0.301387
    64  C    0.155951
    65  C    0.049957
    66  N    0.237572
    67  O   -0.365134
    74  N   -0.020052
    75  C    0.298959
    76  C    0.038276
    77  O   -0.314929
    81  N    0.018039
    82  C    0.095421
    83  C    0.161276
    84  O   -0.357336
    85  C    0.097085
    86  C   -0.000569
    87  C   -0.034597
    88  C   -0.034304
    89  C   -0.009856
    90  C   -0.096867
    91  C    0.198597
    92  O   -0.039668
   102  N    0.007548
   103  C    0.135367
   104  C    0.076135
   105  O   -0.293434
   106  C   -0.086872
   107  C   -0.010083
   108  C    0.088192
   109  C    0.035483
   121  N    0.020802
   122  C    0.085659
   123  C    0.117634
   124  O   -0.278670
   125  C    0.250627
   126  O   -0.186285
   132  N   -0.018286
   133  C    0.116965
   134  C    0.063061
   135  O   -0.263125
   136  C    0.117492
   142  N   -0.031898
   143  C    0.100702
   144  C    0.081500
   145  O   -0.253393
   146  C    0.118522
   152  N   -0.040219
   153  C    0.132272
   154  C    0.049076
   155  O   -0.315214
   156  C   -0.029765
   157  C    0.109236
   158  C    0.159653
   159  O   -0.475863
   160  O   -0.390149
   167  N   -0.014941
   168  C    0.206708
   173  Ca   1.297670
   174  O    0.011105
 DipInt: DoE/N= T F RetVal/Mat= T F Init=T NMatP=  1 IDeriv=0 Min/MaxMlt=  0  4
 Entering OneElI...
 OneElI was handed  1333951383 working-precision words.
 Multipole integrals L=0 to 4 MinM= 0 MaxM= 0.
 Requested accuracy = 0.1000D-12
 ShPair: Thresh= 1.00D-13 NBox=     0 BxSize= 0.00D+00 RnKept= 2.55D+01
         NSMCal=               327645 NSMKep=              165071
 PrmmSu-InSpLW:  IPartL=    0 NPrtUS=    1 NPrtUL=    1 DoSpLW=F IThBeg=    0 IThEnd=    0 NThAct=    1.
 PrsmSu:  NPrtUS=   1 ThrOK=F IAlg=1 NPAlg=1 LenDen=           0 ISkipM=0 DoSpLW=F IThBeg=    0 IThEnd=    0.
 Prism:   IPart=     0 DynPar=F LinDyn=F Incr=         512.
 PRISM was handed  1323698827 working-precision words and165071 shell-pairs
 IPart=  0 NShTot=      165071 NBatch=         378 AvBLen=       436.7
 PrsmSu-ThDecC:  IPartSL=    0    0 NPrtUSL=    1    1 IThBeg=    0 IThEnd=    0 CPU=   -1 GPU=   -1 NThAct=    1.
 PrSmSu:  NxtVal=            513.
 Electronic moments (au):
       -716.00000000         11.27073754          0.68971383          4.00974075
     -51944.57959429     -28111.56603641     -12619.85804996         80.87901821
         28.36161378         95.29610022     -41981.34086064     -12009.93346762
      -8296.23673531      26636.96364257     112024.80617408      30223.42722710
     -15839.36289346      -9115.47307187        179.33841227     -43096.52022656
   -7479762.44708559   -2403570.86973432    -600798.59960862    -136887.02439780
     373150.28820754    -434230.45870073     -27446.69089648     -79553.70360757
      19892.91931496   -2117641.19483950    -692997.16095378    -364224.25158251
    -200029.21243793     -22802.52290598      36686.93356886
 Electronic spatial extent (au):  <R**2>=          92676.0037
 DipInt: DoE/N= F T RetVal/Mat= T F Init=T NMatP=  1 IDeriv=0 Min/MaxMlt=  0  4
 Nuclear    moments (au):
        716.00000000          0.00000000          0.00000000          0.00000000
      51447.81230487      27776.04323611      12256.13911798         -0.00000000
          0.00000000          0.00000000      42563.45392479      12595.58397938
       8497.68876764     -25092.31892852    -111933.32115572     -30086.40354983
      16323.54471844       9345.15072068        614.62254825      43724.87710839
    7271204.10154211    2317768.58978055     560172.99513439     144383.43232547
    -371894.17461009     448062.06556117      38369.66559367      81810.88356027
     -14452.02245245    2082579.67091296     660076.42111746     345510.97343673
     205444.31665357      26019.57256469     -33632.68540235
 Total      moments (au):
         -0.00000000         11.27073754          0.68971383          4.00974075
       -496.76728942       -335.52280030       -363.71893198         80.87901821
         28.36161378         95.29610022        582.11306414        585.65051176
        201.45203233       1544.64471405         91.48501836        137.02367727
        484.18182499        229.67764881        793.96096052        628.35688184
    -208558.34554348     -85802.27995376     -40625.60447423       7496.40792767
       1256.11359745      13831.60686044      10922.97469719       2257.17995269
       5440.89686252     -35061.52392654     -32920.73983632     -18713.27814577
       5415.10421563       3217.04965871       3054.24816651
 Traceless Quadrup. (au):
        -98.09761552         63.14687360         34.95074192         80.87901821
         28.36161378         95.29610022
 Charge=             -0.0000 electrons
 Dipole moment (field-independent basis, Debye):
    X=             28.6474    Y=              1.7531    Z=             10.1917  Tot=             30.4568
 Quadrupole moment (field-independent basis, Debye-Ang):
   XX=           -668.1690   YY=           -451.2897   ZZ=           -489.2144
   XY=            108.7850   XZ=             38.1473   YZ=            128.1765
 Traceless Quadrupole moment (field-independent basis, Debye-Ang):
   XX=           -131.9447   YY=             84.9347   ZZ=             47.0099
   XY=            108.7850   XZ=             38.1473   YZ=            128.1765
 Octapole moment (field-independent basis, Debye-Ang**2):
  XXX=            414.3257  YYY=            416.8435  ZZZ=            143.3858  XYY=           1099.4186
  XXY=             65.1155  XXZ=             97.5282  XZZ=            344.6220  YZZ=            163.4757
  YYZ=            565.1108  XYZ=            447.2402
 Hexadecapole moment (field-independent basis, Debye-Ang**3):
 XXXX=         -78553.0736 YYYY=         -32317.2530 ZZZZ=         -15301.5507 XXXY=           2823.5067
 XXXZ=            473.1126 YYYX=           5209.6464 YYYZ=           4114.1160 ZZZX=            850.1622
 ZZZY=           2049.3027 XXYY=         -13205.8512 XXZZ=         -12399.5292 YYZZ=          -7048.3179
 XXYZ=           2039.5879 YYXZ=           1211.6952 ZZXY=           1150.3763
 N-N= 2.194255903830D+04 E-N=-5.636564386226D+04  KE= 5.290315519566D+03
 Leave Link  601 at Wed Sep 18 20:06:37 2019, MaxMem=  1342177280 cpu:              47.3 elap:               1.2
 FitSet:  NAtFit=   176 NAtPot=   176 NAtFrz=     0 MDM=   180 TotChg=   0.00000
 Merz-Kollman atomic radii used.
 Read replacement radii for each type of atom:
 Rad(20) =   1.700000000000D+00
 Atom Element Radius
    1     6    1.50
    2     6    1.50
    3     8    1.40
    4     1    1.20
    5     1    1.20
    6     1    1.20
    7     7    1.50
    8     6    1.50
    9     6    1.50
   10     8    1.40
   11     6    1.50
   12     6    1.50
   13     8    1.40
   14     8    1.40
   15     1    1.20
   16     1    1.20
   17     1    1.20
   18     1    1.20
   19     7    1.50
   20     6    1.50
   21     6    1.50
   22     8    1.40
   23     6    1.50
   24     6    1.50
   25     6    1.50
   26     6    1.50
   27     7    1.50
   28     1    1.20
   29     1    1.20
   30     1    1.20
   31     1    1.20
   32     1    1.20
   33     1    1.20
   34     1    1.20
   35     1    1.20
   36     1    1.20
   37     1    1.20
   38     1    1.20
   39     1    1.20
   40     1    1.20
   41     7    1.50
   42     6    1.50
   43     6    1.50
   44     8    1.40
   45     6    1.50
   46     6    1.50
   47     8    1.40
   48     8    1.40
   49     1    1.20
   50     1    1.20
   51     1    1.20
   52     1    1.20
   53     7    1.50
   54     6    1.50
   55     6    1.50
   56     8    1.40
   57     1    1.20
   58     1    1.20
   59     1    1.20
   60     7    1.50
   61     6    1.50
   62     6    1.50
   63     8    1.40
   64     6    1.50
   65     6    1.50
   66     7    1.50
   67     8    1.40
   68     1    1.20
   69     1    1.20
   70     1    1.20
   71     1    1.20
   72     1    1.20
   73     1    1.20
   74     7    1.50
   75     6    1.50
   76     6    1.50
   77     8    1.40
   78     1    1.20
   79     1    1.20
   80     1    1.20
   81     7    1.50
   82     6    1.50
   83     6    1.50
   84     8    1.40
   85     6    1.50
   86     6    1.50
   87     6    1.50
   88     6    1.50
   89     6    1.50
   90     6    1.50
   91     6    1.50
   92     8    1.40
   93     1    1.20
   94     1    1.20
   95     1    1.20
   96     1    1.20
   97     1    1.20
   98     1    1.20
   99     1    1.20
  100     1    1.20
  101     1    1.20
  102     7    1.50
  103     6    1.50
  104     6    1.50
  105     8    1.40
  106     6    1.50
  107     6    1.50
  108     6    1.50
  109     6    1.50
  110     1    1.20
  111     1    1.20
  112     1    1.20
  113     1    1.20
  114     1    1.20
  115     1    1.20
  116     1    1.20
  117     1    1.20
  118     1    1.20
  119     1    1.20
  120     1    1.20
  121     7    1.50
  122     6    1.50
  123     6    1.50
  124     8    1.40
  125     6    1.50
  126     8    1.40
  127     1    1.20
  128     1    1.20
  129     1    1.20
  130     1    1.20
  131     1    1.20
  132     7    1.50
  133     6    1.50
  134     6    1.50
  135     8    1.40
  136     6    1.50
  137     1    1.20
  138     1    1.20
  139     1    1.20
  140     1    1.20
  141     1    1.20
  142     7    1.50
  143     6    1.50
  144     6    1.50
  145     8    1.40
  146     6    1.50
  147     1    1.20
  148     1    1.20
  149     1    1.20
  150     1    1.20
  151     1    1.20
  152     7    1.50
  153     6    1.50
  154     6    1.50
  155     8    1.40
  156     6    1.50
  157     6    1.50
  158     6    1.50
  159     8    1.40
  160     8    1.40
  161     1    1.20
  162     1    1.20
  163     1    1.20
  164     1    1.20
  165     1    1.20
  166     1    1.20
[...]
 **** Fit      -0.021732
 **** Fit      -0.024980
 **** Fit      -0.028760
 **** Fit      -0.032893
 **** Fit      -0.025884
 **** Fit      -0.029265
 **** Fit      -0.033108
 **** Fit      -0.014499
 **** Fit      -0.001285
 **** Fit       0.011251
 **** Fit      -0.004239
 **** Fit       0.007534
 **** Fit       0.017862
 **** Fit      -0.004943
 **** Fit       0.006325
 **** Fit       0.015558
 **** Fit       0.006277
 **** Fit       0.014238
 **** Fit       0.006059
 **** Fit       0.012622
 **** Fit       0.001581
 **** Fit       0.008421
 **** Fit       0.012866
 **** Fit       0.015294
 **** Fit       0.005331
 **** Fit       0.009696
 **** Fit       0.004823
 **** Fit       0.008498
 **** Fit       0.006743
 **** Fit       0.003176
 **** Fit       0.006730
 **** Fit       0.002772
 **** Fit      -0.001381
 **** Fit      -0.005731
 **** Fit      -0.009841
 **** Fit      -0.012918
 **** Fit       0.005771
 **** Fit       0.001396
 **** Fit      -0.002909
 **** Fit      -0.006365
 **** Fit      -0.008042
 **** Fit      -0.000264
 **** Fit      -0.002865
 **** Fit       0.013771
 **** Fit       0.010303
 **** Fit       0.012034
 **** Fit       0.013802
 **** Fit       0.009622
 **** Fit       0.010408
 **** Fit       0.010987
 **** Fit       0.010846
 **** Fit       0.008286
 **** Fit       0.008046
 **** Fit       0.007326
 **** Fit       0.004513
 **** Fit       0.002082
 **** Fit       0.009733
 **** Fit       0.009683
 **** Fit       0.009152
 **** Fit       0.009012
 **** Fit       0.008937
 **** Fit       0.009085
 **** Fit       0.009452
 **** Fit       0.008581
 **** Fit       0.008488
 **** Fit       0.008365
 **** Fit       0.007841
 **** Fit       0.007976
 **** Fit       0.009627
 **** Fit       0.009118
 **** Fit       0.008774
 **** Fit       0.007945
 **** Fit       0.007909
 **** Fit       0.005790
 **** Fit       0.006199
 **** Fit       0.007568
 **** Fit       0.009300
 **** Fit       0.008788
 **** Fit       0.008383
 **** Fit       0.008095
 **** Fit       0.007173
 **** Fit       0.002855
 **** Fit       0.004638
 **** Fit       0.009415
 **** Fit       0.008866
 **** Fit       0.008385
 **** Fit       0.007949
 **** Fit       0.007575
 **** Fit       0.007304
 **** Fit       0.006203
 **** Fit       0.002193
 **** Fit       0.009169
 **** Fit       0.008641
 **** Fit       0.008138
 **** Fit       0.007632
 **** Fit       0.007134
 **** Fit       0.006691
 **** Fit       0.006363
 **** Fit       0.004983
 **** Fit       0.009508
 **** Fit       0.008976
 **** Fit       0.008480
 **** Fit       0.007966
 **** Fit       0.007404
 **** Fit       0.006794
 **** Fit       0.006178
 **** Fit       0.005625
 **** Fit       0.005208
 **** Fit       0.003473
 **** Fit       0.009451
 **** Fit       0.008972
 **** Fit       0.008498
 **** Fit       0.005080
 **** Fit       0.004364
 **** Fit       0.003809
 **** Fit       0.001631
 **** Fit       0.009898
 **** Fit       0.009481
 **** Fit       0.009053
 **** Fit       0.002823
 **** Fit       0.002111
 **** Fit      -0.000590
 **** Fit       0.010232
 **** Fit       0.010003
 **** Fit       0.009703
 **** Fit       0.000061
 **** Fit      -0.003265
 **** Fit      -0.003887
 **** Fit       0.009850
 **** Fit       0.009921
 **** Fit       0.010060
 **** Fit       0.010068
 **** Fit       0.009849
 **** Fit      -0.006509
 **** Fit      -0.007321
 **** Fit       0.008433
 **** Fit       0.009188
 **** Fit       0.009881
 **** Fit       0.010205
 **** Fit      -0.010492
 **** Fit      -0.011430
 **** Fit      -0.012369
 **** Fit       0.009464
 **** Fit       0.010273
 **** Fit      -0.015450
 **** Fit      -0.016440
 **** Fit      -0.017572
 **** Fit      -0.019040
 **** Fit      -0.021686
 **** Fit      -0.022560
 **** Fit      -0.023832
 **** Fit      -0.025694
 **** Fit      -0.028332
 **** Fit      -0.031930
 **** Fit      -0.029981
 **** Fit      -0.031236
 **** Fit      -0.033469
 **** Fit       0.007759
 **** Fit       0.007114
 **** Fit       0.008205
 **** Fit       0.007517
 **** Fit       0.006769
 **** Fit       0.006001
 **** Fit       0.005263
 **** Fit       0.004612
 **** Fit       0.008716
 **** Fit       0.008056
 **** Fit       0.007278
 **** Fit       0.006418
 **** Fit       0.005521
 **** Fit       0.004627
 **** Fit       0.003776
 **** Fit       0.003005
 **** Fit       0.000282
 **** Fit       0.009007
 **** Fit       0.008283
 **** Fit       0.007373
 **** Fit       0.006339
 **** Fit       0.005243
 **** Fit       0.004138
 **** Fit       0.003063
 **** Fit       0.002046
 **** Fit       0.001109
 **** Fit      -0.002231
 **** Fit      -0.003106
 **** Fit       0.009398
 **** Fit       0.008605
 **** Fit       0.007526
 **** Fit       0.006262
 **** Fit       0.004914
 **** Fit       0.003558
 **** Fit       0.002244
 **** Fit       0.000999
 **** Fit      -0.000166
 **** Fit      -0.001245
 **** Fit      -0.005345
 **** Fit      -0.006409
 **** Fit       0.010018
 **** Fit       0.009298
 **** Fit       0.008064
 **** Fit       0.006492
 **** Fit       0.004763
 **** Fit       0.003015
 **** Fit       0.001338
 **** Fit      -0.000226
 **** Fit      -0.001665
 **** Fit      -0.002986
 **** Fit      -0.004207
 **** Fit      -0.009299
 **** Fit      -0.010558
 **** Fit       0.010395
 **** Fit       0.009611
 **** Fit       0.007891
 **** Fit       0.005625
 **** Fit       0.003177
 **** Fit       0.000792
 **** Fit      -0.001401
 **** Fit      -0.003355
 **** Fit      -0.005079
 **** Fit      -0.006609
 **** Fit      -0.007998
 **** Fit      -0.014453
 **** Fit      -0.015856
 **** Fit       0.001225
 **** Fit      -0.002204
 **** Fit      -0.005205
 **** Fit      -0.007720
 **** Fit      -0.009796
 **** Fit      -0.011532
 **** Fit      -0.013045
 **** Fit      -0.021359
 **** Fit      -0.022717
 **** Fit      -0.020054
 **** Fit       0.008236
 **** Fit       0.007903
 **** Fit       0.007733
 **** Fit       0.007867
 **** Fit       0.007636
 **** Fit       0.007276
 **** Fit       0.006749
 **** Fit       0.006442
 **** Fit       0.007249
 **** Fit       0.007083
 **** Fit       0.006839
 **** Fit       0.006355
 **** Fit       0.005561
 **** Fit       0.004632
 **** Fit       0.004065
 **** Fit       0.007497
 **** Fit       0.006363
 **** Fit       0.006214
 **** Fit       0.006015
 **** Fit       0.005611
 **** Fit       0.004844
 **** Fit       0.003614
 **** Fit       0.002016
 **** Fit       0.000493
 **** Fit      -0.000207
 **** Fit       0.006597
 **** Fit       0.005187
 **** Fit       0.005021
 **** Fit       0.004814
 **** Fit       0.004418
 **** Fit       0.003658
 **** Fit       0.002338
 **** Fit       0.000305
 **** Fit      -0.002390
 **** Fit       0.005437
 **** Fit       0.003689
 **** Fit       0.003484
 **** Fit       0.003239
 **** Fit       0.002820
 **** Fit       0.002060
 **** Fit       0.000744
 **** Fit      -0.001393
 **** Fit      -0.004603
 **** Fit       0.003970
 **** Fit       0.001827
 **** Fit       0.001548
 **** Fit       0.001212
 **** Fit       0.000671
 **** Fit      -0.000259
 **** Fit      -0.001839
 **** Fit      -0.004436
 **** Fit       0.002175
 **** Fit      -0.000456
 **** Fit      -0.000826
 **** Fit      -0.001279
 **** Fit      -0.001964
 **** Fit      -0.003078
 **** Fit      -0.004904
 **** Fit      -0.007875
 **** Fit      -0.000031
 **** Fit      -0.003236
 **** Fit      -0.003722
 **** Fit      -0.004329
 **** Fit      -0.005222
 **** Fit      -0.006614
 **** Fit      -0.008830
 **** Fit      -0.012386
 **** Fit      -0.002718
 **** Fit      -0.006606
 **** Fit      -0.007251
 **** Fit      -0.008095
 **** Fit      -0.009337
 **** Fit      -0.011251
 **** Fit      -0.014271
 **** Fit      -0.010682
 **** Fit      -0.011522
 **** Fit      -0.012687
 **** Fit      -0.014427
 **** Fit      -0.017096
 **** Fit      -0.016613
 **** Fit      -0.018147
 **** Fit      -0.020448
 **** Fit      -0.023917
 **** Fit      -0.024808
 **** Fit      -0.028055
 **** Fit       0.012054
 **** Fit       0.011191
 **** Fit       0.011424
 **** Fit       0.012346
 **** Fit       0.012955
 **** Fit       0.012471
 **** Fit       0.011634
 **** Fit       0.010387
 **** Fit       0.010312
 **** Fit       0.010517
 **** Fit       0.011223
 **** Fit       0.012400
 **** Fit       0.013479
 **** Fit       0.013884
 **** Fit       0.013519
 **** Fit       0.012720
 **** Fit       0.011865
 **** Fit       0.011154
 **** Fit       0.010661
 **** Fit       0.009583
 **** Fit       0.010556
 **** Fit       0.012032
 **** Fit       0.013507
 **** Fit       0.014515
 **** Fit       0.014847
 **** Fit       0.014506
 **** Fit       0.013728
 **** Fit       0.012823
 **** Fit       0.011977
 **** Fit       0.011250
 **** Fit       0.010659
 **** Fit       0.010210
 **** Fit       0.009894
 **** Fit       0.009575
 **** Fit       0.011646
 **** Fit       0.013579
 **** Fit       0.014990
 **** Fit       0.015768
 **** Fit       0.015795
 **** Fit       0.015124
 **** Fit       0.014120
 **** Fit       0.013106
 **** Fit       0.012210
 **** Fit       0.011446
 **** Fit       0.010798
 **** Fit       0.010258
 **** Fit       0.009829
 **** Fit       0.008657
 **** Fit       0.011547
 **** Fit       0.013901
 **** Fit       0.014879
 **** Fit       0.013651
 **** Fit       0.012626
 **** Fit       0.011788
 **** Fit       0.011088
 **** Fit       0.010486
 **** Fit       0.009969
 **** Fit       0.007295
 **** Fit       0.010888
 **** Fit       0.014109
 **** Fit       0.012949
 **** Fit       0.012055
 **** Fit       0.011342
 **** Fit       0.010740
 **** Fit       0.010205
 **** Fit       0.009728
 **** Fit       0.003903
 **** Fit       0.012812
 **** Fit       0.011923
 **** Fit       0.011250
 **** Fit       0.010699
 **** Fit       0.010201
 **** Fit       0.009735
 **** Fit       0.012474
 **** Fit       0.011659
 **** Fit       0.011079
 **** Fit       0.010634
 **** Fit       0.010227
 **** Fit       0.010908
 **** Fit       0.010573
 **** Fit       0.010313
 **** Fit       0.010314
 **** Fit       0.010166
 **** Fit       0.037417
 **** Fit       0.042062
 **** Fit       0.040253
 **** Fit       0.043410
 **** Fit       0.040300
 **** Fit       0.039747
 **** Fit       0.035530
 **** Fit       0.037604
 **** Fit      -0.024930
 **** Fit      -0.028318
 **** Fit      -0.030864
 **** Fit      -0.032579
 **** Fit       0.035323
 **** Fit       0.030288
 **** Fit      -0.013514
 **** Fit      -0.014059
 **** Fit      -0.016047
 **** Fit      -0.018783
 **** Fit      -0.021668
 **** Fit      -0.024309
 **** Fit      -0.026535
 **** Fit      -0.028366
 **** Fit       0.030749
 **** Fit       0.027128
 **** Fit       0.023742
 **** Fit      -0.010795
 **** Fit      -0.012040
 **** Fit      -0.014092
 **** Fit      -0.016571
 **** Fit      -0.019132
 **** Fit      -0.021570
 **** Fit      -0.023844
 **** Fit      -0.010545
 **** Fit      -0.007254
 **** Fit      -0.009260
 **** Fit      -0.011621
 **** Fit      -0.014171
 **** Fit      -0.016753
 **** Fit      -0.019309
 **** Fit      -0.021929
 **** Fit      -0.006254
 **** Fit      -0.009153
 **** Fit      -0.012090
 **** Fit      -0.015043
 **** Fit      -0.018109
 **** Fit      -0.006907
 **** Fit      -0.010443
 **** Fit      -0.014077
 **** Fit      -0.018133
 **** Fit      -0.009268
 **** Fit      -0.013836
 **** Fit      -0.015422
 **** Fit       0.026976
 **** Fit       0.024137
 **** Fit       0.020933
 **** Fit       0.028363
 **** Fit       0.026346
 **** Fit       0.024476
 **** Fit       0.022526
 **** Fit       0.020086
 **** Fit       0.016674
 **** Fit       0.011925
 **** Fit      -0.007385
 **** Fit      -0.002786
 **** Fit      -0.004880
 **** Fit       0.024752
 **** Fit       0.024095
 **** Fit       0.023157
 **** Fit       0.021983
 **** Fit       0.020385
 **** Fit       0.018091
 **** Fit       0.014904
 **** Fit       0.010917
 **** Fit       0.006696
 **** Fit       0.003083
 **** Fit       0.000557
 **** Fit      -0.001162
 **** Fit       0.001316
 **** Fit      -0.001140
 **** Fit      -0.004000
 **** Fit       0.017347
 **** Fit       0.020175
 **** Fit       0.021265
 **** Fit       0.021466
 **** Fit       0.021151
 **** Fit       0.020373
 **** Fit       0.019028
 **** Fit       0.017007
 **** Fit       0.014331
 **** Fit       0.011273
 **** Fit       0.008283
 **** Fit       0.005701
 **** Fit       0.003488
 **** Fit       0.004238
 **** Fit       0.001607
 **** Fit      -0.001327
 **** Fit      -0.004554
 **** Fit      -0.008061
 **** Fit      -0.010684
 **** Fit       0.000900
 **** Fit       0.009040
 **** Fit       0.014220
 **** Fit       0.017210
 **** Fit       0.018775
 **** Fit       0.019443
 **** Fit       0.019466
 **** Fit       0.018902
 **** Fit       0.017737
 **** Fit       0.015987
 **** Fit       0.013788
 **** Fit       0.011381
 **** Fit       0.008983
 **** Fit       0.006644
 **** Fit       0.006123
 **** Fit       0.003261
 **** Fit       0.000076
 **** Fit      -0.003469
 **** Fit      -0.007483
 **** Fit      -0.012286
 **** Fit      -0.007798
 **** Fit       0.001734
 **** Fit       0.008578
 **** Fit       0.013069
 **** Fit       0.015787
 **** Fit       0.017264
 **** Fit       0.017834
 **** Fit       0.017648
 **** Fit       0.016772
 **** Fit       0.015286
 **** Fit       0.013341
 **** Fit       0.011116
 **** Fit       0.008716
 **** Fit       0.007114
 **** Fit       0.004095
 **** Fit       0.000678
 **** Fit      -0.003209
 **** Fit      -0.007737
 **** Fit      -0.013183
 **** Fit      -0.019618
 **** Fit      -0.013955
 **** Fit      -0.004764
 **** Fit       0.002963
 **** Fit       0.008666
 **** Fit       0.012469
 **** Fit       0.014750
 **** Fit       0.015856
 **** Fit       0.016007
 **** Fit       0.015336
 **** Fit       0.013973
 **** Fit       0.012074
 **** Fit       0.009770
 **** Fit       0.007321
 **** Fit       0.004047
 **** Fit       0.000234
 **** Fit      -0.004148
 **** Fit      -0.009061
 **** Fit      -0.013964
 **** Fit      -0.017236
 **** Fit      -0.016793
 **** Fit      -0.012188
 **** Fit      -0.005235
 **** Fit       0.001729
 **** Fit       0.007284
 **** Fit       0.011043
 **** Fit       0.013162
 **** Fit       0.013908
 **** Fit       0.013504
 **** Fit       0.012153
 **** Fit       0.010045
 **** Fit       0.006816
 **** Fit       0.003025
 **** Fit      -0.001416
 **** Fit      -0.005788
 **** Fit      -0.008294
 **** Fit      -0.006792
 **** Fit      -0.001655
 **** Fit       0.004273
 **** Fit       0.008703
 **** Fit       0.010941
 **** Fit       0.011128
 **** Fit       0.009625
 **** Fit       0.005642
 **** Fit       0.001248
 **** Fit      -0.001469
 **** Fit       0.001383
 **** Fit       0.006306
 **** Fit       0.007948
 **** Fit       0.003825
 **** Fit      -0.028451
 **** Fit      -0.025231
 **** Fit      -0.027008
 **** Fit      -0.024335
 **** Fit      -0.027768
 **** Fit      -0.020813
 **** Fit      -0.024897
 **** Fit      -0.022161
 **** Fit      -0.018332
 **** Fit      -0.025527
 **** Fit      -0.022431
 -----------------------------------------------------------------
 Leave Link  602 at Wed Sep 18 20:06:40 2019, MaxMem=  1342177280 cpu:             107.7 elap:               2.3

 Test job not archived.
 1\1\GINC-C506-081\SP\RB3LYP\SVP\C54H83Ca1N15O23\JAEBEOMH\18-Sep-2019\0
 \\#b3lyp/svp scf=(tight,noincore) Test #IOP(5/87=12) Density=Current P
 op=(MK,readradii) iop(6/33=2) iop(6/42=6)\\holoCaM_loop3_51.0\\0,1\C,0
 ,69.91,52.46,91.24\C,0,69.8,52.94,92.69\O,0,70.05,52.13,93.58\H,0,70.9
 6,52.423,90.949\H,0,69.474,51.465,91.152\H,0,69.376,53.15,90.587\N,0,6
 9.29,54.13,92.98\C,0,69.21,54.72,94.3\C,0,68.03,54.19,95.1\O,0,66.91,5
 4.7,95.1\C,0,69.12,56.24,94.17\C,0,69.16,57.01,95.48\O,0,69.14,58.26,9
 5.37\O,0,69.22,56.44,96.59\H,0,68.94,54.64,92.17\H,0,70.08,54.51,94.91
 \H,0,68.21,56.5,93.62\H,0,70.03,56.57,93.67\N,0,68.17,53.02,95.74\C,0,
 67.11,52.28,96.39\C,0,66.38,52.85,97.6\O,0,65.38,52.26,98.01\C,0,67.59
 ,50.89,96.79\C,0,68.36,50.09,95.74\C,0,67.57,49.89,94.46\C,0,68.28,49.
 04,93.41\N,0,67.32,48.77,92.33\H,0,69.02,52.49,95.63\H,0,66.22,52.24,9
 5.77\H,0,66.79,50.24,97.13\H,0,68.29,51.03,97.62\H,0,68.44,49.11,96.2\
 H,0,69.39,50.4,95.52\H,0,67.42,50.87,93.99\H,0,66.59,49.5,94.73\H,0,68
 .64,48.1,93.83\H,0,69.15,49.56,93.01\H,0,66.43,48.45,92.7\H,0,67.11,49
 .52,91.69\H,0,67.52,47.94,91.8\N,0,66.87,53.95,98.18\C,0,66.19,54.72,9
 9.21\C,0,66.04,56.16,98.76\O,0,65.57,56.97,99.56\C,0,66.96,54.57,100.5
 2\C,0,68.38,55.12,100.47\O,0,69.08,55.11,101.51\O,0,69.01,55.34,99.41\
 H,0,67.76,54.31,97.87\H,0,65.19,54.33,99.39\H,0,67.11,53.51,100.69\H,0
 ,66.45,55.05,101.36\N,0,66.37,56.54,97.52\C,0,65.95,57.79,96.92\C,0,66
 .66,59.04,97.42\O,0,66.11,60.14,97.4\H,0,66.78,55.79,96.99\H,0,64.9,58
 .,97.11\H,0,66.05,57.73,95.83\N,0,67.86,58.88,97.98\C,0,68.48,59.94,98
 .75\C,0,69.45,60.85,98.03\O,0,70.15,61.67,98.63\C,0,69.07,59.34,100.03
 \C,0,70.41,58.64,99.86\N,0,71.16,58.27,100.9\O,0,70.76,58.29,98.73\H,0
 ,68.34,58.,97.87\H,0,67.7,60.64,99.04\H,0,68.39,58.66,100.54\H,0,69.29
 ,60.13,100.74\H,0,70.86,58.53,101.82\H,0,72.06,57.82,100.74\N,0,69.53,
 60.67,96.71\C,0,70.34,61.39,95.74\C,0,71.64,60.7,95.36\O,0,72.26,61.33
 ,94.51\H,0,69.05,59.87,96.32\H,0,70.47,62.44,96.02\H,0,69.83,61.3,94.7
 9\N,0,72.06,59.6,95.99\C,0,73.35,58.98,95.78\C,0,73.14,57.49,95.54\O,0
 ,72.34,56.8,96.16\C,0,74.27,59.33,96.94\C,0,74.36,60.79,97.32\C,0,73.6
 7,61.14,98.49\C,0,75.,61.74,96.53\C,0,73.64,62.51,98.81\C,0,74.99,63.1
 ,96.86\C,0,74.3,63.47,98.03\O,0,74.2,64.79,98.38\H,0,71.44,59.17,96.68
 \H,0,73.79,59.43,94.88\H,0,75.29,59.02,96.7\H,0,74.02,58.66,97.76\H,0,
 73.11,60.39,99.02\H,0,75.57,61.44,95.66\H,0,73.14,62.79,99.73\H,0,75.4
 7,63.75,96.14\H,0,74.46,65.39,97.68\N,0,74.06,56.9,94.76\C,0,74.15,55.
 46,94.66\C,0,75.41,54.96,95.36\O,0,76.46,55.58,95.16\C,0,74.05,54.93,9
 3.24\C,0,72.85,55.49,92.48\C,0,74.13,53.41,93.15\C,0,73.,55.63,90.96\H
 ,0,74.83,57.44,94.39\H,0,73.25,55.06,95.12\H,0,74.95,55.31,92.76\H,0,7
 2.6,56.52,92.72\H,0,71.9,54.98,92.65\H,0,74.24,53.2,92.09\H,0,75.05,53
 .01,93.59\H,0,73.24,52.93,93.56\H,0,73.74,56.38,90.68\H,0,73.5,54.72,9
 0.61\H,0,72.03,55.87,90.54\N,0,75.34,53.85,96.1\C,0,76.39,53.29,96.92\
 C,0,76.76,51.87,96.5\O,0,76.08,51.24,95.7\C,0,75.88,53.29,98.36\O,0,74
 .75,52.47,98.49\H,0,74.51,53.28,96.03\H,0,77.29,53.91,96.87\H,0,75.55,
 54.26,98.73\H,0,76.61,52.88,99.06\H,0,74.03,52.88,98.\N,0,77.81,51.33,
 97.13\C,0,78.25,50.03,96.67\C,0,77.23,48.91,96.76\O,0,77.14,48.06,95.8
 7\C,0,79.58,49.82,97.4\H,0,78.32,51.92,97.78\H,0,78.49,50.1,95.61\H,0,
 80.15,48.96,97.06\H,0,80.09,50.73,97.09\H,0,79.42,49.8,98.48\N,0,76.36
 ,48.91,97.77\C,0,75.31,47.92,97.94\C,0,74.3,47.91,96.81\O,0,73.85,46.8
 8,96.31\C,0,74.67,48.15,99.31\H,0,76.59,49.54,98.52\H,0,75.82,46.96,97
 .88\H,0,75.3,47.74,100.09\H,0,74.49,49.22,99.44\H,0,73.64,47.8,99.38\N
 ,0,74.06,49.18,96.46\C,0,73.1,49.56,95.44\C,0,73.52,49.27,94.\O,0,72.7
 2,48.8,93.19\C,0,72.65,51.01,95.61\C,0,72.01,51.3,96.96\C,0,71.72,52.7
 7,97.25\O,0,72.58,53.66,97.41\O,0,70.55,53.15,97.45\H,0,74.6,49.92,96.
 88\H,0,72.27,48.87,95.61\H,0,72.08,51.32,94.73\H,0,73.47,51.73,95.52\H
 ,0,72.6,50.92,97.79\H,0,71.05,50.79,96.93\N,0,74.81,49.42,93.71\C,0,75
 .42,49.06,92.44\H,0,76.432,48.694,92.614\H,0,74.829,48.279,91.961\H,0,
 75.457,49.936,91.793\H,0,75.32,49.92,94.42\Ca,0,71.12,55.62,98.17\O,0,
 71.4,54.24,100.504\H,0,71.94,54.08,101.284\H,0,70.5,54.27,100.844\\Ver
 sion=ES64L-G16RevA.03\State=1-A\HF=-5333.63303\RMSD=7.914e-09\Dipole=3
 .1662216,-9.8163803,-6.0989318\Quadrupole=-2.3913802,-40.4416844,42.83
 30646,100.872455,101.0042248,41.5715039\PG=C01 [X(C54H83Ca1N15O23)]\\@


 MISERY NO LONGER LOVES COMPANY.  NOWADAYS IT INSISTS ON IT.

                                              -- BAKER'S LAW
 Job cpu time:       0 days 10 hours  2 minutes 56.5 seconds.
 Elapsed time:       0 days  0 hours 12 minutes 41.9 seconds.
 File lengths (MBytes):  RWF=   1517 Int=      0 D2E=      0 Chk=    171 Scr=      1
 Normal termination of Gaussian 16 at Wed Sep 18 20:06:41 2019.
