 Entering Gaussian System, Link 0=g16
 Initial command:
 /home1/apps/gaussian/16rA.03/g16/l1.exe "/scratch/04905/jaebeomh/4357449/Gau-390854.inp" -scrdir="/scratch/04905/jaebeomh/4357449/"
 Entering Link 1 = /home1/apps/gaussian/16rA.03/g16/l1.exe PID=    390856.
  
 Copyright (c) 1988,1990,1992,1993,1995,1998,2003,2009,2016,
            Gaussian, Inc.  All Rights Reserved.
  
 This is part of the Gaussian(R) 16 program.  It is based on
 the Gaussian(R) 09 system (copyright 2009, Gaussian, Inc.),
 the Gaussian(R) 03 system (copyright 2003, Gaussian, Inc.),
 the Gaussian(R) 98 system (copyright 1998, Gaussian, Inc.),
 the Gaussian(R) 94 system (copyright 1995, Gaussian, Inc.),
 the Gaussian 92(TM) system (copyright 1992, Gaussian, Inc.),
 the Gaussian 90(TM) system (copyright 1990, Gaussian, Inc.),
 the Gaussian 88(TM) system (copyright 1988, Gaussian, Inc.),
 the Gaussian 86(TM) system (copyright 1986, Carnegie Mellon
 University), and the Gaussian 82(TM) system (copyright 1983,
 Carnegie Mellon University). Gaussian is a federally registered
 trademark of Gaussian, Inc.
  
 This software contains proprietary and confidential information,
 including trade secrets, belonging to Gaussian, Inc.
  
 This software is provided under written license and may be
 used, copied, transmitted, or stored only in accord with that
 written license.
  
 The following legend is applicable only to US Government
 contracts under FAR:
  
                    RESTRICTED RIGHTS LEGEND
  
 Use, reproduction and disclosure by the US Government is
 subject to restrictions as set forth in subparagraphs (a)
 and (c) of the Commercial Computer Software - Restricted
 Rights clause in FAR 52.227-19.
  
 Gaussian, Inc.
 340 Quinnipiac St., Bldg. 40, Wallingford CT 06492
  
  
 ---------------------------------------------------------------
 Warning -- This program may not be used in any manner that
 competes with the business of Gaussian, Inc. or will provide
 assistance to any competitor of Gaussian, Inc.  The licensee
 of this program is prohibited from giving any competitor of
 Gaussian, Inc. access to this program.  By using this program,
 the user acknowledges that Gaussian, Inc. is engaged in the
 business of creating and licensing software in the field of
 computational chemistry and represents and warrants to the
 licensee that it is not a competitor of Gaussian, Inc. and that
 it will not use this program in any manner prohibited above.
 ---------------------------------------------------------------
  

 Cite this work as:
 Gaussian 16, Revision A.03,
 M. J. Frisch, G. W. Trucks, H. B. Schlegel, G. E. Scuseria, 
 M. A. Robb, J. R. Cheeseman, G. Scalmani, V. Barone, 
 G. A. Petersson, H. Nakatsuji, X. Li, M. Caricato, A. V. Marenich, 
 J. Bloino, B. G. Janesko, R. Gomperts, B. Mennucci, H. P. Hratchian, 
 J. V. Ortiz, A. F. Izmaylov, J. L. Sonnenberg, D. Williams-Young, 
 F. Ding, F. Lipparini, F. Egidi, J. Goings, B. Peng, A. Petrone, 
 T. Henderson, D. Ranasinghe, V. G. Zakrzewski, J. Gao, N. Rega, 
 G. Zheng, W. Liang, M. Hada, M. Ehara, K. Toyota, R. Fukuda, 
 J. Hasegawa, M. Ishida, T. Nakajima, Y. Honda, O. Kitao, H. Nakai, 
 T. Vreven, K. Throssell, J. A. Montgomery, Jr., J. E. Peralta, 
 F. Ogliaro, M. J. Bearpark, J. J. Heyd, E. N. Brothers, K. N. Kudin, 
 V. N. Staroverov, T. A. Keith, R. Kobayashi, J. Normand, 
 K. Raghavachari, A. P. Rendell, J. C. Burant, S. S. Iyengar, 
 J. Tomasi, M. Cossi, J. M. Millam, M. Klene, C. Adamo, R. Cammi, 
 J. W. Ochterski, R. L. Martin, K. Morokuma, O. Farkas, 
 J. B. Foresman, and D. J. Fox, Gaussian, Inc., Wallingford CT, 2016.
 
 ******************************************
 Gaussian 16:  ES64L-G16RevA.03 25-Dec-2016
                18-Sep-2019 
 ******************************************
 %chk=holoCaM_loop3_35.0.chk
 %nprocshared=48
 Will use up to   48 processors via shared memory.
 %mem=10GB
 %nosave
 ----------------------------------------------------------------------
 #b3lyp/svp scf=(tight,noincore) Test #IOP(5/87=12) Density=Current Pop
 =(MK,readradii) iop(6/33=2) iop(6/42=6)
 ----------------------------------------------------------------------
 1/30=1,38=1,172=1/1;
 2/12=2,17=6,18=5,40=1/2;
 3/5=18,7=101,11=2,25=1,30=1,74=-5/1,2,3;
 4//1;
 5/5=4,32=2,38=5,87=12/2;
 6/7=2,8=2,9=2,10=2,15=8,20=101,22=-1,28=1,33=2,42=6/1,2;
 99/5=1,9=1/99;
 ------------------
 holoCaM_loop3_35.0
 ------------------
 Symbolic Z-matrix:
 Charge =  0 Multiplicity = 1
 C                     38.57     43.05     24.6 
 C                     39.12     41.96     25.51 
 O                     38.74     41.94     26.68 
 H                     37.66     43.462    25.036 
 H                     39.311    43.842    24.492 
 H                     38.344    42.627    23.621 
 N                     39.97     41.04     25.04 
 C                     40.65     40.01     25.79 
 C                     41.58     40.63     26.82 
 O                     42.79     40.77     26.66 
 C                     41.3      38.93     24.92 
 C                     41.71     37.7      25.71 
 O                     41.36     37.54     26.9 
 O                     42.41     36.86     25.1 
 H                     40.01     40.99     24.03 
 H                     39.92     39.57     26.47 
 H                     42.17     39.28     24.37 
 H                     40.53     38.68     24.19 
 N                     41.08     41.02     27.99 
 C                     41.77     41.83     28.98 
 C                     43.09     41.26     29.48 
 O                     44.       41.95     29.93 
 C                     40.94     42.02     30.24 
 C                     39.75     42.98     30.22 
 C                     39.31     43.38     31.63 
 C                     38.19     44.41     31.55 
 N                     37.73     44.92     32.86 
 H                     40.08     40.93     28.08 
 H                     41.99     42.82     28.58 
 H                     41.51     42.32     31.12 
 H                     40.54     41.02     30.43 
 H                     38.91     42.57     29.67 
 H                     40.03     43.95     29.8 
 H                     40.1      43.8      32.24 
 H                     38.91     42.5      32.14 
 H                     37.33     43.95     31.07 
 H                     38.51     45.26     30.95 
 H                     38.5      45.36     33.34 
 H                     36.94     45.56     32.84 
 H                     37.48     44.17     33.48 
 N                     43.14     39.93     29.43 
 C                     44.27     39.18     29.95 
 C                     44.9      38.23     28.94 
 O                     45.92     37.56     29.15 
 C                     43.78     38.34     31.12 
 C                     42.55     37.46     30.96 
 O                     42.2      36.7      31.89 
 O                     41.85     37.63     29.94 
 H                     42.38     39.38     29.04 
 H                     45.05     39.87     30.26 
 H                     43.58     39.09     31.88 
 H                     44.63     37.76     31.48 
 N                     44.45     38.36     27.7 
 C                     45.12     37.67     26.61 
 C                     45.13     36.15     26.67 
 O                     46.12     35.64     26.15 
 H                     43.68     39.       27.53 
 H                     46.14     38.05     26.46 
 H                     44.6      37.98     25.7 
 N                     44.13     35.45     27.21 
 C                     44.08     34.       27.27 
 C                     43.48     33.23     26.1 
 O                     43.39     32.01     26. 
 C                     43.43     33.58     28.59 
 C                     41.91     33.56     28.59 
 N                     41.22     32.53     29.08 
 O                     41.29     34.51     28.13 
 H                     43.32     35.96     27.52 
 H                     45.09     33.62     27.34 
 H                     43.7      34.13     29.5 
 H                     43.73     32.55     28.8 
 H                     41.66     31.74     29.53 
 H                     40.21     32.63     29.06 
 N                     43.04     34.       25.11 
 C                     42.47     33.45     23.9 
 C                     40.96     33.45     23.72 
 O                     40.42     33.08     22.68 
 H                     43.09     35.01     25.13 
 H                     42.73     32.41     23.7 
 H                     42.99     34.       23.11 
 N                     40.25     33.98     24.73 
 C                     38.81     34.05     24.72 
 C                     38.25     35.33     25.34 
 O                     38.8      35.94     26.25 
 C                     38.2      32.86     25.47 
 C                     38.84     31.54     25.13 
 C                     39.79     31.04     26.03 
 C                     38.68     30.93     23.88 
 C                     40.48     29.85     25.75 
 C                     39.47     29.82     23.54 
 C                     40.38     29.28     24.46 
 O                     41.25     28.3      24.07 
 H                     40.72     34.24     25.59 
 H                     38.41     34.       23.71 
 H                     37.14     32.88     25.25 
 H                     38.26     33.05     26.54 
 H                     40.02     31.52     26.97 
 H                     37.89     31.29     23.23 
 H                     41.24     29.41     26.37 
 H                     39.33     29.31     22.6 
 H                     40.95     27.9      23.25 
 N                     37.06     35.7      24.88 
 C                     36.34     36.86     25.37 
 C                     35.07     36.4      26.07 
 O                     34.22     35.74     25.48 
 C                     36.17     37.84     24.21 
 C                     37.52     38.42     23.81 
 C                     35.13     38.94     24.38 
 C                     37.71     39.26     22.55 
 H                     36.62     35.1      24.18 
 H                     36.94     37.4      26.1 
 H                     35.93     37.24     23.33 
 H                     38.19     37.56     23.75 
 H                     37.84     39.02     24.67 
 H                     34.92     39.53     23.48 
 H                     34.23     38.4      24.69 
 H                     35.55     39.54     25.18 
 H                     37.33     38.69     21.7 
 H                     37.01     40.08     22.7 
 H                     38.72     39.63     22.39 
 N                     35.       36.9      27.31 
 C                     33.91     36.73     28.24 
 C                     32.88     37.85     28.17 
 O                     33.24     38.98     27.83 
 C                     34.57     36.59     29.61 
 O                     33.65     35.97     30.48 
 H                     35.78     37.5      27.56 
 H                     33.33     35.85     27.95 
 H                     34.84     37.53     30.09 
 H                     35.52     36.08     29.41 
 H                     34.08     35.97     31.34 
 N                     31.64     37.63     28.6 
 C                     30.62     38.67     28.63 
 C                     31.02     39.94     29.37 
 O                     30.8      41.03     28.84 
 C                     29.37     38.13     29.31 
 H                     31.39     36.71     28.93 
 H                     30.47     38.97     27.59 
 H                     29.14     37.12     28.98 
 H                     29.6      38.04     30.37 
 H                     28.58     38.81     28.98 
 N                     31.74     39.88     30.49 
 C                     32.1      41.01     31.32 
 C                     33.24     41.79     30.69 
 O                     33.44     42.95     31.05 
 C                     32.4      40.57     32.76 
 H                     31.72     38.99     30.97 
 H                     31.23     41.65     31.45 
 H                     31.46     40.22     33.19 
 H                     33.13     39.77     32.71 
 H                     32.77     41.35     33.43 
 N                     34.02     41.19     29.79 
 C                     35.02     41.87     29. 
 C                     34.46     42.61     27.79 
 O                     35.09     43.54     27.3 
 C                     36.16     40.99     28.49 
 C                     36.84     40.22     29.61 
 C                     37.84     39.23     29.04 
 O                     37.46     38.32     28.27 
 O                     39.05     39.28     29.36 
 H                     33.89     40.23     29.51 
 H                     35.46     42.7      29.55 
 H                     36.8      41.66     27.92 
 H                     35.77     40.24     27.8 
 H                     36.21     39.76     30.37 
 H                     37.44     40.93     30.19 
 N                     33.29     42.21     27.29 
 C                     32.46     43.06     26.47 
 H                     31.557    43.325    27.02 
 H                     33.008    43.966    26.214 
 H                     32.186    42.53     25.558 
 H                     32.88     41.35     27.63 
 Ca                    39.77     36.73     28.65 
 O                     37.85     34.91     28.99 
 H                     37.02     34.62     28.61 
 H                     38.25     34.11     29.33 
 
 Stoichiometry    C54H83CaN15O23
 Framework group  C1[X(C54H83CaN15O23)]
 Deg. of freedom   522
 Full point group                 C1      NOp   1
 Largest Abelian subgroup         C1      NOp   1
 Largest concise Abelian subgroup C1      NOp   1
                         Standard orientation:                         
 ---------------------------------------------------------------------
 Center     Atomic      Atomic             Coordinates (Angstroms)
 Number     Number       Type             X           Y           Z
 ---------------------------------------------------------------------
      1          6           0        2.565063    2.343340    4.941872
      2          6           0        1.728223    2.305240    3.670280
      3          8           0        2.310881    2.423963    2.593193
      4          1           0        3.607619    2.141250    4.696563
      5          1           0        2.485070    3.328790    5.400672
      6          1           0        2.203058    1.586997    5.638539
      7          7           0        0.404150    2.122513    3.727215
      8          6           0       -0.534001    2.158616    2.629777
      9          6           0       -0.552435    3.538453    1.992667
     10          8           0       -1.396909    4.397525    2.233828
     11          6           0       -1.918942    1.602251    2.973575
     12          6           0       -2.772600    1.337533    1.746265
     13          8           0       -2.293759    1.391542    0.592145
     14          8           0       -3.974535    1.058873    1.959340
     15          1           0        0.070767    1.780613    4.619493
     16          1           0       -0.088319    1.601673    1.805107
     17          1           0       -2.488349    2.238464    3.646561
     18          1           0       -1.706497    0.673206    3.502766
     19          7           0        0.373683    3.844394    1.087291
     20          6           0        0.638995    5.172618    0.560292
     21          6           0       -0.550126    5.860894   -0.095122
     22          8           0       -0.666978    7.079920   -0.178921
     23          6           0        1.707169    5.153691   -0.521949
     24          6           0        3.173415    4.968893   -0.129427
     25          6           0        4.126548    5.401983   -1.245524
     26          6           0        5.568782    5.290542   -0.766733
     27          7           0        6.578091    5.748837   -1.746049
     28          1           0        1.076194    3.137195    0.937129
     29          1           0        0.985971    5.837222    1.351753
     30          1           0        1.713241    6.029794   -1.171340
     31          1           0        1.429394    4.290543   -1.133435
     32          1           0        3.386238    3.947483    0.166593
     33          1           0        3.458476    5.654427    0.673370
     34          1           0        3.972875    6.416011   -1.592989
     35          1           0        4.009964    4.723991   -2.094779
     36          1           0        5.784062    4.246117   -0.555944
     37          1           0        5.701106    5.864659    0.148570
     38          1           0        6.416438    6.719121   -1.968124
     39          1           0        7.551340    5.625680   -1.478244
     40          1           0        6.462054    5.294365   -2.634526
     41          7           0       -1.428680    5.006839   -0.617264
     42          6           0       -2.584996    5.454992   -1.373499
     43          6           0       -3.912111    4.923618   -0.848231
     44          8           0       -5.021588    5.246367   -1.293532
     45          6           0       -2.432272    4.961909   -2.804633
     46          6           0       -2.120444    3.497937   -3.073802
     47          8           0       -2.085532    3.072306   -4.249650
     48          8           0       -1.776168    2.794966   -2.100865
     49          1           0       -1.318562    4.001238   -0.523239
     50          1           0       -2.644219    6.539240   -1.334768
     51          1           0       -1.612987    5.570649   -3.176531
     52          1           0       -3.320349    5.278266   -3.352116
     53          7           0       -3.835746    4.290745    0.313940
     54          6           0       -5.051915    3.930197    1.023896
     55          6           0       -5.989713    2.961163    0.319903
     56          8           0       -7.174739    3.125338    0.601614
     57          1           0       -2.917708    4.131210    0.717865
     58          1           0       -5.604707    4.820970    1.352901
     59          1           0       -4.722892    3.477644    1.962800
     60          7           0       -5.545538    2.004160   -0.497688
     61          6           0       -6.395685    1.040292   -1.173565
     62          6           0       -6.750797   -0.260619   -0.464111
     63          8           0       -7.471556   -1.154206   -0.898287
     64          6           0       -5.823377    0.763791   -2.565438
     65          6           0       -4.719777   -0.280179   -2.620142
     66          7           0       -4.722253   -1.259778   -3.524288
     67          8           0       -3.797156   -0.231448   -1.817088
     68          1           0       -4.549413    1.892143   -0.584216
     69          1           0       -7.355030    1.499635   -1.368661
     70          1           0       -5.433225    1.610203   -3.144116
     71          1           0       -6.628406    0.362389   -3.186569
     72          1           0       -5.415762   -1.329095   -4.255342
     73          1           0       -3.923785   -1.885909   -3.494117
     74          7           0       -6.215637   -0.384193    0.746233
     75          6           0       -6.466566   -1.533947    1.586827
     76          6           0       -5.406483   -2.617963    1.703595
     77          8           0       -5.521405   -3.572849    2.468504
     78          1           0       -5.617911    0.318054    1.161652
     79          1           0       -7.359223   -2.105535    1.330604
     80          1           0       -6.719266   -1.083987    2.551544
     81          7           0       -4.282207   -2.415998    0.996266
     82          6           0       -3.183995   -3.350080    0.991517
     83          6           0       -1.808118   -2.684887    0.961844
     84          8           0       -1.586187   -1.609271    0.417329
     85          6           0       -3.274616   -4.293678   -0.213518
     86          6           0       -4.658497   -4.837596   -0.451480
     87          6           0       -5.424282   -4.221219   -1.449554
     88          6           0       -5.258643   -5.761913    0.412038
     89          6           0       -6.747701   -4.626084   -1.684603
     90          6           0       -6.621872   -6.066524    0.268446
     91          6           0       -7.377796   -5.496822   -0.766019
     92          8           0       -8.732309   -5.678657   -0.806411
     93          1           0       -4.233026   -1.640580    0.344800
     94          1           0       -3.194309   -3.990389    1.870436
     95          1           0       -2.543295   -5.072717   -0.038397
     96          1           0       -2.911255   -3.772264   -1.097088
     97          1           0       -5.040251   -3.437806   -2.086488
     98          1           0       -4.629988   -6.278260    1.129240
     99          1           0       -7.412258   -4.192482   -2.409829
    100          1           0       -7.090670   -6.808553    0.895282
    101          1           0       -8.982697   -6.417181   -0.245797
    102          7           0       -0.828204   -3.402704    1.499530
    103          6           0        0.555294   -2.967921    1.531119
    104          6           0        1.390417   -3.897537    0.663431
    105          8           0        1.444074   -5.102829    0.888360
    106          6           0        0.977068   -2.827404    2.993057
    107          6           0        0.238993   -1.665034    3.643473
    108          6           0        2.471702   -2.755495    3.278361
    109          6           0        0.282228   -1.405376    5.146806
    110          1           0       -1.067938   -4.327249    1.861945
    111          1           0        0.648286   -1.964184    1.120798
    112          1           0        0.541853   -3.676238    3.524159
    113          1           0       -0.804777   -1.794024    3.350205
    114          1           0        0.610065   -0.768603    3.132868
    115          1           0        2.750196   -2.811040    4.337397
    116          1           0        2.879962   -3.616434    2.740023
    117          1           0        2.753139   -1.811220    2.824998
    118          1           0       -0.023403   -2.319516    5.659385
    119          1           0        1.347429   -1.292972    5.340748
    120          1           0       -0.272151   -0.531265    5.480264
    121          7           0        2.088230   -3.204600   -0.245082
    122          6           0        3.033942   -3.745576   -1.191060
    123          6           0        4.468848   -3.733689   -0.680078
    124          8           0        4.816432   -2.862443    0.121305
    125          6           0        2.832279   -2.933550   -2.468575
    126          8           0        3.356696   -3.674015   -3.547648
    127          1           0        1.956743   -2.199291   -0.190638
    128          1           0        2.833386   -4.811999   -1.323049
    129          1           0        3.349153   -1.974804   -2.491985
    130          1           0        1.763079   -2.689961   -2.477171
    131          1           0        3.273316   -3.096058   -4.311529
    132          7           0        5.358471   -4.575623   -1.200288
    133          6           0        6.763228   -4.576069   -0.813560
    134          6           0        7.460420   -3.226400   -0.926772
    135          8           0        8.157623   -2.837975    0.011543
    136          6           0        7.528438   -5.551190   -1.696788
    137          1           0        5.058207   -5.238019   -1.899482
    138          1           0        6.779229   -4.827521    0.249745
    139          1           0        6.979124   -6.478725   -1.837614
    140          1           0        7.589890   -5.101246   -2.685916
    141          1           0        8.442846   -5.751355   -1.131817
    142          7           0        7.196984   -2.404507   -1.942397
    143          6           0        7.860669   -1.143719   -2.198008
    144          6           0        7.339208   -0.069323   -1.260644
    145          8           0        8.012075    0.946124   -1.083677
    146          6           0        7.755406   -0.749078   -3.678000
    147          1           0        6.787053   -2.841322   -2.757289
    148          1           0        8.933182   -1.271191   -2.068143
    149          1           0        8.343789   -1.472717   -4.244701
    150          1           0        6.707651   -0.794738   -3.952819
    151          1           0        8.150538    0.235927   -3.938454
    152          7           0        6.149657   -0.233049   -0.680504
    153          6           0        5.625482    0.627616    0.354386
    154          6           0        6.170631    0.329757    1.747007
    155          8           0        6.154881    1.203151    2.606562
    156          6           0        4.102583    0.654455    0.473371
    157          6           0        3.426325    0.984080   -0.847130
    158          6           0        1.921502    0.823930   -0.725237
    159          8           0        1.425730   -0.286318   -0.430345
    160          8           0        1.150657    1.783852   -0.956206
    161          1           0        5.571567   -1.043360   -0.842080
    162          1           0        5.967937    1.652898    0.225853
    163          1           0        3.895948    1.337662    1.294303
    164          1           0        3.735417   -0.331119    0.764117
    165          1           0        3.807740    0.508490   -1.749591
    166          1           0        3.584668    2.049248   -1.049231
    167          7           0        6.645493   -0.892262    1.992114
    168          6           0        7.562764   -1.171324    3.071251
    169          1           0        8.539427   -1.427015    2.660295
    170          1           0        7.655495   -0.291358    3.706653
    171          1           0        7.187464   -2.008012    3.660169
    172          1           0        6.502779   -1.620534    1.304689
    173         20           0       -1.157980    0.365196   -1.383537
    174          8           0       -0.789874   -2.016083   -2.527394
    175          1           0       -0.463727   -2.895496   -2.333328
    176          1           0       -1.489960   -2.155703   -3.164564
 ---------------------------------------------------------------------
 Rotational constants (GHZ):           0.0244706           0.0147971           0.0114065
 Standard basis: SVP (5D, 7F)
 There are  1809 symmetry adapted cartesian basis functions of A   symmetry.
 There are  1717 symmetry adapted basis functions of A   symmetry.
  1717 basis functions,  2922 primitive gaussians,  1809 cartesian basis functions
   358 alpha electrons      358 beta electrons
       nuclear repulsion energy     21659.6814654959 Hartrees.
 NAtoms=  176 NActive=  176 NUniq=  176 SFac= 1.00D+00 NAtFMM=   60 NAOKFM=T Big=T
 Integral buffers will be    131072 words long.
 Raffenetti 2 integral format.
 Two-electron integral symmetry is turned on.
 One-electron integrals computed using PRISM.
 NBasis=  1717 RedAO= T EigKep=  2.88D-04  NBF=  1717
 NBsUse=  1717 1.00D-06 EigRej= -1.00D+00 NBFU=  1717
 ExpMin= 1.98D-02 ExpMax= 3.51D+04 ExpMxC= 5.28D+03 IAcc=3 IRadAn=         5 AccDes= 0.00D+00
 Harris functional with IExCor=  402 and IRadAn=       5 diagonalized for initial guess.
 HarFok:  IExCor=  402 AccDes= 0.00D+00 IRadAn=         5 IDoV= 1 UseB2=F ITyADJ=14
 ICtDFT=  3500011 ScaDFX=  1.000000  1.000000  1.000000  1.000000
 FoFCou: FMM=F IPFlag=           0 FMFlag=      100000 FMFlg1=        2001
         NFxFlg=           0 DoJE=T BraDBF=F KetDBF=T FulRan=T
         wScrn=  0.000000 ICntrl=       500 IOpCl=  0 I1Cent=   200000004 NGrid=           0
         NMat0=    1 NMatS0=      1 NMatT0=    0 NMatD0=    1 NMtDS0=    0 NMtDT0=    0
 Petite list used in FoFCou.
 Requested convergence on RMS density matrix=1.00D-08 within 128 cycles.
 Requested convergence on MAX density matrix=1.00D-06.
 Requested convergence on             energy=1.00D-06.
 No special actions if energy rises.
 EnCoef did     4 forward-backward iterations
 SCF Done:  E(RB3LYP) =  -5333.60181222     A.U. after   19 cycles
            NFock= 19  Conv=0.28D-08     -V/T= 2.0082
 SCF density gives NOpUse=  1 NOpAll=  1.
 Hyperfine terms turned off by default for NAtoms > 100.

 **********************************************************************

            Population analysis using the SCF density.

 **********************************************************************

 Orbital symmetries:
 BldTbl:  Degeneracy threshold= 1.00D-02
       Occupied  (A) (A) (A) (A) (A) (A) (A) (A) (A) (A) (A) (A)
                 (A) (A) (A) (A) (A) (A) (A) (A) (A) (A) (A) (A)
                 (A) (A) (A) (A) (A) (A) (A) (A) (A) (A) (A) (A)
                 (A) (A) (A) (A) (A) (A) (A) (A) (A) (A) (A) (A)
                 (A) (A) (A) (A) (A) (A) (A) (A) (A) (A) (A) (A)
                 (A) (A) (A) (A) (A) (A) (A) (A) (A) (A) (A) (A)
                 (A) (A) (A) (A) (A) (A) (A) (A) (A) (A) (A) (A)
                 (A) (A) (A) (A) (A) (A) (A) (A) (A) (A) (A) (A)
                 (A) (A) (A) (A) (A) (A) (A) (A) (A) (A) (A) (A)
                 (A) (A) (A) (A) (A) (A) (A) (A) (A) (A) (A) (A)
                 (A) (A) (A) (A) (A) (A) (A) (A) (A) (A) (A) (A)
                 (A) (A) (A) (A) (A) (A) (A) (A) (A) (A) (A) (A)
                 (A) (A) (A) (A) (A) (A) (A) (A) (A) (A) (A) (A)
                 (A) (A) (A) (A) (A) (A) (A) (A) (A) (A) (A) (A)
                 (A) (A) (A) (A) (A) (A) (A) (A) (A) (A) (A) (A)
                 (A) (A) (A) (A) (A) (A) (A) (A) (A) (A) (A) (A)
                 (A) (A) (A) (A) (A) (A) (A) (A) (A) (A) (A) (A)
                 (A) (A) (A) (A) (A) (A) (A) (A) (A) (A) (A) (A)
                 (A) (A) (A) (A) (A) (A) (A) (A) (A) (A) (A) (A)
                 (A) (A) (A) (A) (A) (A) (A) (A) (A) (A) (A) (A)
                 (A) (A) (A) (A) (A) (A) (A) (A) (A) (A) (A) (A)
                 (A) (A) (A) (A) (A) (A) (A) (A) (A) (A) (A) (A)
                 (A) (A) (A) (A) (A) (A) (A) (A) (A) (A) (A) (A)
                 (A) (A) (A) (A) (A) (A) (A) (A) (A) (A) (A) (A)
                 (A) (A) (A) (A) (A) (A) (A) (A) (A) (A) (A) (A)
                 (A) (A) (A) (A) (A) (A) (A) (A) (A) (A) (A) (A)
                 (A) (A) (A) (A) (A) (A) (A) (A) (A) (A) (A) (A)
                 (A) (A) (A) (A) (A) (A) (A) (A) (A) (A) (A) (A)
                 (A) (A) (A) (A) (A) (A) (A) (A) (A) (A) (A) (A)
                 (A) (A) (A) (A) (A) (A) (A) (A) (A) (A)
       Virtual   (A) (A) (A) (A) (A) (A) (A) (A) (A) (A) (A) (A)
                 (A) (A) (A) (A) (A) (A) (A) (A) (A) (A) (A) (A)
                 (A) (A) (A) (A) (A) (A) (A) (A) (A) (A) (A) (A)
                 (A) (A) (A) (A) (A) (A) (A) (A) (A) (A) (A) (A)
                 (A) (A) (A) (A) (A) (A) (A) (A) (A) (A) (A) (A)
                 (A) (A) (A) (A) (A) (A) (A) (A) (A) (A) (A) (A)
                 (A) (A) (A) (A) (A) (A) (A) (A) (A) (A) (A) (A)
                 (A) (A) (A) (A) (A) (A) (A) (A) (A) (A) (A) (A)
                 (A) (A) (A) (A) (A) (A) (A) (A) (A) (A) (A) (A)
                 (A) (A) (A) (A) (A) (A) (A) (A) (A) (A) (A) (A)
                 (A) (A) (A) (A) (A) (A) (A) (A) (A) (A) (A) (A)
                 (A) (A) (A) (A) (A) (A) (A) (A) (A) (A) (A) (A)
                 (A) (A) (A) (A) (A) (A) (A) (A) (A) (A) (A) (A)
                 (A) (A) (A) (A) (A) (A) (A) (A) (A) (A) (A) (A)
                 (A) (A) (A) (A) (A) (A) (A) (A) (A) (A) (A) (A)
                 (A) (A) (A) (A) (A) (A) (A) (A) (A) (A) (A) (A)
                 (A) (A) (A) (A) (A) (A) (A) (A) (A) (A) (A) (A)
                 (A) (A) (A) (A) (A) (A) (A) (A) (A) (A) (A) (A)
                 (A) (A) (A) (A) (A) (A) (A) (A) (A) (A) (A) (A)
                 (A) (A) (A) (A) (A) (A) (A) (A) (A) (A) (A) (A)
                 (A) (A) (A) (A) (A) (A) (A) (A) (A) (A) (A) (A)
                 (A) (A) (A) (A) (A) (A) (A) (A) (A) (A) (A) (A)
                 (A) (A) (A) (A) (A) (A) (A) (A) (A) (A) (A) (A)
                 (A) (A) (A) (A) (A) (A) (A) (A) (A) (A) (A) (A)
                 (A) (A) (A) (A) (A) (A) (A) (A) (A) (A) (A) (A)
                 (A) (A) (A) (A) (A) (A) (A) (A) (A) (A) (A) (A)
                 (A) (A) (A) (A) (A) (A) (A) (A) (A) (A) (A) (A)
                 (A) (A) (A) (A) (A) (A) (A) (A) (A) (A) (A) (A)
                 (A) (A) (A) (A) (A) (A) (A) (A) (A) (A) (A) (A)
                 (A) (A) (A) (A) (A) (A) (A) (A) (A) (A) (A) (A)
                 (A) (A) (A) (A) (A) (A) (A) (A) (A) (A) (A) (A)
                 (A) (A) (A) (A) (A) (A) (A) (A) (A) (A) (A) (A)
                 (A) (A) (A) (A) (A) (A) (A) (A) (A) (A) (A) (A)
                 (A) (A) (A) (A) (A) (A) (A) (A) (A) (A) (A) (A)
                 (A) (A) (A) (A) (A) (A) (A) (A) (A) (A) (A) (A)
                 (A) (A) (A) (A) (A) (A) (A) (A) (A) (A) (A) (A)
                 (A) (A) (A) (A) (A) (A) (A) (A) (A) (A) (A) (A)
                 (A) (A) (A) (A) (A) (A) (A) (A) (A) (A) (A) (A)
                 (A) (A) (A) (A) (A) (A) (A) (A) (A) (A) (A) (A)
                 (A) (A) (A) (A) (A) (A) (A) (A) (A) (A) (A) (A)
                 (A) (A) (A) (A) (A) (A) (A) (A) (A) (A) (A) (A)
                 (A) (A) (A) (A) (A) (A) (A) (A) (A) (A) (A) (A)
                 (A) (A) (A) (A) (A) (A) (A) (A) (A) (A) (A) (A)
                 (A) (A) (A) (A) (A) (A) (A) (A) (A) (A) (A) (A)
                 (A) (A) (A) (A) (A) (A) (A) (A) (A) (A) (A) (A)
                 (A) (A) (A) (A) (A) (A) (A) (A) (A) (A) (A) (A)
                 (A) (A) (A) (A) (A) (A) (A) (A) (A) (A) (A) (A)
                 (A) (A) (A) (A) (A) (A) (A) (A) (A) (A) (A) (A)
                 (A) (A) (A) (A) (A) (A) (A) (A) (A) (A) (A) (A)
                 (A) (A) (A) (A) (A) (A) (A) (A) (A) (A) (A) (A)
                 (A) (A) (A) (A) (A) (A) (A) (A) (A) (A) (A) (A)
                 (A) (A) (A) (A) (A) (A) (A) (A) (A) (A) (A) (A)
                 (A) (A) (A) (A) (A) (A) (A) (A) (A) (A) (A) (A)
                 (A) (A) (A) (A) (A) (A) (A) (A) (A) (A) (A) (A)
                 (A) (A) (A) (A) (A) (A) (A) (A) (A) (A) (A) (A)
                 (A) (A) (A) (A) (A) (A) (A) (A) (A) (A) (A) (A)
                 (A) (A) (A) (A) (A) (A) (A) (A) (A) (A) (A) (A)
                 (A) (A) (A) (A) (A) (A) (A) (A) (A) (A) (A) (A)
                 (A) (A) (A) (A) (A) (A) (A) (A) (A) (A) (A) (A)
                 (A) (A) (A) (A) (A) (A) (A) (A) (A) (A) (A) (A)
                 (A) (A) (A) (A) (A) (A) (A) (A) (A) (A) (A) (A)
                 (A) (A) (A) (A) (A) (A) (A) (A) (A) (A) (A) (A)
                 (A) (A) (A) (A) (A) (A) (A) (A) (A) (A) (A) (A)
                 (A) (A) (A) (A) (A) (A) (A) (A) (A) (A) (A) (A)
                 (A) (A) (A) (A) (A) (A) (A) (A) (A) (A) (A) (A)
                 (A) (A) (A) (A) (A) (A) (A) (A) (A) (A) (A) (A)
                 (A) (A) (A) (A) (A) (A) (A) (A) (A) (A) (A) (A)
                 (A) (A) (A) (A) (A) (A) (A) (A) (A) (A) (A) (A)
                 (A) (A) (A) (A) (A) (A) (A) (A) (A) (A) (A) (A)
                 (A) (A) (A) (A) (A) (A) (A) (A) (A) (A) (A) (A)
                 (A) (A) (A) (A) (A) (A) (A) (A) (A) (A) (A) (A)
                 (A) (A) (A) (A) (A) (A) (A) (A) (A) (A) (A) (A)
                 (A) (A) (A) (A) (A) (A) (A) (A) (A) (A) (A) (A)
                 (A) (A) (A) (A) (A) (A) (A) (A) (A) (A) (A) (A)
                 (A) (A) (A) (A) (A) (A) (A) (A) (A) (A) (A) (A)
                 (A) (A) (A) (A) (A) (A) (A) (A) (A) (A) (A) (A)
                 (A) (A) (A) (A) (A) (A) (A) (A) (A) (A) (A) (A)
                 (A) (A) (A) (A) (A) (A) (A) (A) (A) (A) (A) (A)
                 (A) (A) (A) (A) (A) (A) (A) (A) (A) (A) (A) (A)
                 (A) (A) (A) (A) (A) (A) (A) (A) (A) (A) (A) (A)
                 (A) (A) (A) (A) (A) (A) (A) (A) (A) (A) (A) (A)
                 (A) (A) (A) (A) (A) (A) (A) (A) (A) (A) (A) (A)
                 (A) (A) (A) (A) (A) (A) (A) (A) (A) (A) (A) (A)
                 (A) (A) (A) (A) (A) (A) (A) (A) (A) (A) (A) (A)
                 (A) (A) (A) (A) (A) (A) (A) (A) (A) (A) (A) (A)
                 (A) (A) (A) (A) (A) (A) (A) (A) (A) (A) (A) (A)
                 (A) (A) (A) (A) (A) (A) (A) (A) (A) (A) (A) (A)
                 (A) (A) (A) (A) (A) (A) (A) (A) (A) (A) (A) (A)
                 (A) (A) (A) (A) (A) (A) (A) (A) (A) (A) (A) (A)
                 (A) (A) (A) (A) (A) (A) (A) (A) (A) (A) (A) (A)
                 (A) (A) (A) (A) (A) (A) (A) (A) (A) (A) (A) (A)
                 (A) (A) (A) (A) (A) (A) (A) (A) (A) (A) (A) (A)
                 (A) (A) (A) (A) (A) (A) (A) (A) (A) (A) (A) (A)
                 (A) (A) (A) (A) (A) (A) (A) (A) (A) (A) (A) (A)
                 (A) (A) (A) (A) (A) (A) (A) (A) (A) (A) (A) (A)
                 (A) (A) (A) (A) (A) (A) (A) (A) (A) (A) (A) (A)
                 (A) (A) (A) (A) (A) (A) (A) (A) (A) (A) (A) (A)
                 (A) (A) (A) (A) (A) (A) (A) (A) (A) (A) (A) (A)
                 (A) (A) (A) (A) (A) (A) (A) (A) (A) (A) (A) (A)
                 (A) (A) (A) (A) (A) (A) (A) (A) (A) (A) (A) (A)
                 (A) (A) (A) (A) (A) (A) (A) (A) (A) (A) (A) (A)
                 (A) (A) (A) (A) (A) (A) (A) (A) (A) (A) (A) (A)
                 (A) (A) (A) (A) (A) (A) (A) (A) (A) (A) (A) (A)
                 (A) (A) (A) (A) (A) (A) (A) (A) (A) (A) (A) (A)
                 (A) (A) (A) (A) (A) (A) (A) (A) (A) (A) (A) (A)
                 (A) (A) (A) (A) (A) (A) (A) (A) (A) (A) (A) (A)
                 (A) (A) (A) (A) (A) (A) (A) (A) (A) (A) (A) (A)
                 (A) (A) (A) (A) (A) (A) (A) (A) (A) (A) (A) (A)
                 (A) (A) (A) (A) (A) (A) (A) (A) (A) (A) (A) (A)
                 (A) (A) (A) (A) (A) (A) (A) (A) (A) (A) (A) (A)
                 (A) (A) (A) (A) (A) (A) (A) (A) (A) (A) (A) (A)
                 (A) (A) (A) (A) (A) (A) (A) (A) (A) (A) (A) (A)
                 (A) (A) (A) (A) (A) (A) (A) (A) (A) (A) (A) (A)
                 (A) (A) (A)
 The electronic state is 1-A.
 Alpha  occ. eigenvalues -- -145.38326 -19.21773 -19.18325 -19.14789 -19.13977
 Alpha  occ. eigenvalues --  -19.12808 -19.12211 -19.11793 -19.11291 -19.11046
 Alpha  occ. eigenvalues --  -19.08974 -19.08762 -19.08048 -19.07625 -19.06551
 Alpha  occ. eigenvalues --  -19.06323 -19.06021 -19.04710 -19.04215 -19.02789
 Alpha  occ. eigenvalues --  -19.02659 -19.02510 -19.02294 -18.99796 -15.44032
 Alpha  occ. eigenvalues --  -14.57972 -14.40231 -14.39464 -14.37926 -14.37145
 Alpha  occ. eigenvalues --  -14.36838 -14.36810 -14.35067 -14.33489 -14.32868
 Alpha  occ. eigenvalues --  -14.31840 -14.30708 -14.29915 -14.29098 -14.28173
 Alpha  occ. eigenvalues --  -12.57651 -12.57623 -12.57587 -10.33587 -10.32281
 Alpha  occ. eigenvalues --  -10.31711 -10.30629 -10.30096 -10.29894 -10.29455
 Alpha  occ. eigenvalues --  -10.28049 -10.27938 -10.27383 -10.27242 -10.26792
 Alpha  occ. eigenvalues --  -10.26629 -10.26626 -10.26238 -10.25543 -10.24990
 Alpha  occ. eigenvalues --  -10.24563 -10.23578 -10.23482 -10.23478 -10.23366
 Alpha  occ. eigenvalues --  -10.23161 -10.23121 -10.23020 -10.23001 -10.22077
 Alpha  occ. eigenvalues --  -10.21853 -10.20996 -10.20969 -10.20816 -10.20769
 Alpha  occ. eigenvalues --  -10.20546 -10.20519 -10.19517 -10.19197 -10.19154
 Alpha  occ. eigenvalues --  -10.19108 -10.18807 -10.18696 -10.18674 -10.18526
 Alpha  occ. eigenvalues --  -10.18166 -10.18055 -10.17948 -10.17928 -10.17568
 Alpha  occ. eigenvalues --  -10.17478 -10.17338 -10.17137 -10.16724 -10.16034
 Alpha  occ. eigenvalues --  -10.15936 -10.12105  -1.80736  -1.13027  -1.08583
 Alpha  occ. eigenvalues --   -1.08130  -1.08069  -1.07536  -1.07143  -1.06487
 Alpha  occ. eigenvalues --   -1.05915  -1.05403  -1.04941  -1.04039  -1.03626
 Alpha  occ. eigenvalues --   -1.03332  -1.03119  -1.02146  -1.01211  -1.00086
 Alpha  occ. eigenvalues --   -0.99760  -0.99047  -0.97774  -0.97599  -0.96865
 Alpha  occ. eigenvalues --   -0.96333  -0.96018  -0.95851  -0.95198  -0.94563
 Alpha  occ. eigenvalues --   -0.93854  -0.93434  -0.92337  -0.92225  -0.91432
 Alpha  occ. eigenvalues --   -0.90084  -0.89811  -0.89134  -0.88173  -0.87782
 Alpha  occ. eigenvalues --   -0.87739  -0.86857  -0.86450  -0.85348  -0.84005
 Alpha  occ. eigenvalues --   -0.83539  -0.83393  -0.82125  -0.80796  -0.79964
 Alpha  occ. eigenvalues --   -0.79510  -0.79203  -0.78133  -0.76725  -0.76454
 Alpha  occ. eigenvalues --   -0.74647  -0.74440  -0.73486  -0.72779  -0.72632
 Alpha  occ. eigenvalues --   -0.72417  -0.71601  -0.71566  -0.71116  -0.70818
 Alpha  occ. eigenvalues --   -0.70710  -0.69728  -0.69439  -0.68443  -0.67255
 Alpha  occ. eigenvalues --   -0.67187  -0.67000  -0.65290  -0.65100  -0.64382
 Alpha  occ. eigenvalues --   -0.64244  -0.63211  -0.62968  -0.61956  -0.61750
 Alpha  occ. eigenvalues --   -0.61430  -0.61269  -0.61023  -0.60992  -0.60428
 Alpha  occ. eigenvalues --   -0.60076  -0.59836  -0.59464  -0.58125  -0.58019
 Alpha  occ. eigenvalues --   -0.57837  -0.56996  -0.56803  -0.56466  -0.56367
 Alpha  occ. eigenvalues --   -0.56249  -0.56036  -0.55989  -0.55457  -0.55178
 Alpha  occ. eigenvalues --   -0.55046  -0.54577  -0.54280  -0.53927  -0.53844
 Alpha  occ. eigenvalues --   -0.53255  -0.52754  -0.52032  -0.51370  -0.51328
 Alpha  occ. eigenvalues --   -0.51248  -0.50723  -0.50560  -0.50123  -0.50069
 Alpha  occ. eigenvalues --   -0.49299  -0.49086  -0.48932  -0.48874  -0.48510
 Alpha  occ. eigenvalues --   -0.48343  -0.48326  -0.48146  -0.48006  -0.47887
 Alpha  occ. eigenvalues --   -0.47746  -0.47626  -0.47522  -0.46945  -0.46745
 Alpha  occ. eigenvalues --   -0.46575  -0.46460  -0.46254  -0.46002  -0.45924
 Alpha  occ. eigenvalues --   -0.45630  -0.45527  -0.45134  -0.44968  -0.44881
 Alpha  occ. eigenvalues --   -0.44624  -0.44489  -0.44451  -0.44373  -0.43940
 Alpha  occ. eigenvalues --   -0.43806  -0.43601  -0.43428  -0.43390  -0.43083
 Alpha  occ. eigenvalues --   -0.42965  -0.42917  -0.42881  -0.42782  -0.42723
 Alpha  occ. eigenvalues --   -0.42340  -0.42077  -0.41876  -0.41589  -0.41538
 Alpha  occ. eigenvalues --   -0.41454  -0.41261  -0.41168  -0.41060  -0.40918
 Alpha  occ. eigenvalues --   -0.40769  -0.40556  -0.40373  -0.40289  -0.40031
 Alpha  occ. eigenvalues --   -0.39885  -0.39800  -0.39713  -0.39698  -0.39495
 Alpha  occ. eigenvalues --   -0.39460  -0.39288  -0.39065  -0.38910  -0.38782
 Alpha  occ. eigenvalues --   -0.38622  -0.38538  -0.38406  -0.38240  -0.38058
 Alpha  occ. eigenvalues --   -0.37871  -0.37680  -0.37634  -0.37452  -0.37349
 Alpha  occ. eigenvalues --   -0.37343  -0.37233  -0.37026  -0.36921  -0.36271
 Alpha  occ. eigenvalues --   -0.36260  -0.36043  -0.35890  -0.35819  -0.35522
 Alpha  occ. eigenvalues --   -0.35363  -0.35038  -0.34892  -0.34704  -0.34463
 Alpha  occ. eigenvalues --   -0.34441  -0.34301  -0.34065  -0.33750  -0.33622
 Alpha  occ. eigenvalues --   -0.33328  -0.33047  -0.32717  -0.32641  -0.32403
 Alpha  occ. eigenvalues --   -0.32224  -0.32001  -0.31807  -0.31381  -0.31292
 Alpha  occ. eigenvalues --   -0.31200  -0.30936  -0.30802  -0.30693  -0.30110
 Alpha  occ. eigenvalues --   -0.29692  -0.29486  -0.28936  -0.28733  -0.28294
 Alpha  occ. eigenvalues --   -0.28193  -0.28031  -0.27849  -0.27593  -0.26881
 Alpha  occ. eigenvalues --   -0.26705  -0.26491  -0.26046  -0.25685  -0.25125
 Alpha  occ. eigenvalues --   -0.24969  -0.24265  -0.24007  -0.23679  -0.23628
 Alpha  occ. eigenvalues --   -0.23481  -0.23404  -0.22857  -0.22121  -0.21557
 Alpha  occ. eigenvalues --   -0.21401  -0.21230  -0.21050  -0.20862  -0.20565
 Alpha  occ. eigenvalues --   -0.20191  -0.19619  -0.19566  -0.18654  -0.18420
 Alpha  occ. eigenvalues --   -0.18035  -0.17590  -0.16077
 Alpha virt. eigenvalues --   -0.09965  -0.04937  -0.03777  -0.03535  -0.03176
 Alpha virt. eigenvalues --   -0.02059  -0.01600  -0.00589  -0.00524  -0.00436
 Alpha virt. eigenvalues --   -0.00115   0.00282   0.00708   0.01178   0.02101
 Alpha virt. eigenvalues --    0.02164   0.02369   0.02626   0.02917   0.03096
 Alpha virt. eigenvalues --    0.03168   0.03684   0.04030   0.04108   0.04404
 Alpha virt. eigenvalues --    0.04809   0.05218   0.05303   0.05676   0.05793
 Alpha virt. eigenvalues --    0.05904   0.05966   0.06216   0.06227   0.06849
 Alpha virt. eigenvalues --    0.07305   0.07501   0.07766   0.07843   0.07965
 Alpha virt. eigenvalues --    0.08142   0.08296   0.08545   0.08737   0.08848
 Alpha virt. eigenvalues --    0.09072   0.09296   0.09320   0.09544   0.09858
 Alpha virt. eigenvalues --    0.10243   0.10357   0.10568   0.10869   0.11048
 Alpha virt. eigenvalues --    0.11181   0.11385   0.11492   0.11588   0.11997
 Alpha virt. eigenvalues --    0.12060   0.12219   0.12332   0.12524   0.12800
 Alpha virt. eigenvalues --    0.12866   0.12932   0.13153   0.13487   0.13576
 Alpha virt. eigenvalues --    0.13901   0.13973   0.14063   0.14484   0.14509
 Alpha virt. eigenvalues --    0.14638   0.14735   0.14859   0.14912   0.15115
 Alpha virt. eigenvalues --    0.15297   0.15435   0.15583   0.15799   0.15939
 Alpha virt. eigenvalues --    0.16134   0.16247   0.16538   0.16713   0.16854
 Alpha virt. eigenvalues --    0.16989   0.17132   0.17280   0.17568   0.17856
 Alpha virt. eigenvalues --    0.17952   0.18310   0.18385   0.18557   0.18825
 Alpha virt. eigenvalues --    0.19041   0.19161   0.19210   0.19551   0.19612
 Alpha virt. eigenvalues --    0.19898   0.20065   0.20244   0.20258   0.20373
 Alpha virt. eigenvalues --    0.20650   0.20883   0.21050   0.21262   0.21534
 Alpha virt. eigenvalues --    0.21760   0.21922   0.22175   0.22460   0.22528
 Alpha virt. eigenvalues --    0.23017   0.23210   0.23272   0.23525   0.23916
 Alpha virt. eigenvalues --    0.23955   0.24225   0.24344   0.24406   0.24458
 Alpha virt. eigenvalues --    0.24990   0.25073   0.25176   0.25311   0.25708
 Alpha virt. eigenvalues --    0.25820   0.26211   0.26463   0.26701   0.27085
 Alpha virt. eigenvalues --    0.27135   0.27421   0.27739   0.27797   0.28000
 Alpha virt. eigenvalues --    0.28191   0.28319   0.28434   0.28646   0.28783
 Alpha virt. eigenvalues --    0.28902   0.29000   0.29511   0.29636   0.29704
 Alpha virt. eigenvalues --    0.29960   0.30586   0.30926   0.31002   0.31325
 Alpha virt. eigenvalues --    0.31621   0.31918   0.32315   0.32456   0.32756
 Alpha virt. eigenvalues --    0.33082   0.33268   0.33517   0.33661   0.33887
 Alpha virt. eigenvalues --    0.34079   0.34240   0.34586   0.34689   0.34842
 Alpha virt. eigenvalues --    0.35100   0.35708   0.36130   0.36336   0.36681
 Alpha virt. eigenvalues --    0.36894   0.37376   0.37522   0.37890   0.38165
 Alpha virt. eigenvalues --    0.38492   0.38754   0.38998   0.39150   0.39335
 Alpha virt. eigenvalues --    0.39496   0.39632   0.39735   0.40009   0.40234
 Alpha virt. eigenvalues --    0.40715   0.41023   0.41272   0.41628   0.41956
 Alpha virt. eigenvalues --    0.42276   0.42553   0.42630   0.42739   0.42887
 Alpha virt. eigenvalues --    0.43091   0.43305   0.43407   0.43593   0.43780
 Alpha virt. eigenvalues --    0.44032   0.44341   0.44575   0.44903   0.45223
 Alpha virt. eigenvalues --    0.45291   0.45497   0.45704   0.45932   0.46107
 Alpha virt. eigenvalues --    0.46286   0.46516   0.46731   0.47356   0.47381
 Alpha virt. eigenvalues --    0.47782   0.47874   0.47996   0.48278   0.48448
 Alpha virt. eigenvalues --    0.48529   0.48770   0.49061   0.49122   0.49235
 Alpha virt. eigenvalues --    0.49540   0.49656   0.49685   0.49918   0.50342
 Alpha virt. eigenvalues --    0.50509   0.50728   0.50920   0.51158   0.51306
 Alpha virt. eigenvalues --    0.51524   0.51690   0.51830   0.52103   0.52211
 Alpha virt. eigenvalues --    0.52486   0.52726   0.52843   0.53098   0.53260
 Alpha virt. eigenvalues --    0.53285   0.53709   0.54072   0.54247   0.54352
 Alpha virt. eigenvalues --    0.54577   0.54691   0.54923   0.55112   0.55431
 Alpha virt. eigenvalues --    0.55538   0.55664   0.55768   0.55949   0.56215
 Alpha virt. eigenvalues --    0.56345   0.56539   0.56772   0.56928   0.57025
 Alpha virt. eigenvalues --    0.57158   0.57436   0.57469   0.57685   0.57877
 Alpha virt. eigenvalues --    0.57992   0.58380   0.58468   0.58540   0.58678
 Alpha virt. eigenvalues --    0.58898   0.59022   0.59125   0.59269   0.59430
 Alpha virt. eigenvalues --    0.59518   0.59732   0.59924   0.59969   0.60397
 Alpha virt. eigenvalues --    0.60715   0.60765   0.60923   0.60964   0.61115
 Alpha virt. eigenvalues --    0.61229   0.61532   0.61661   0.61701   0.61766
 Alpha virt. eigenvalues --    0.61878   0.62188   0.62211   0.62326   0.62427
 Alpha virt. eigenvalues --    0.62612   0.62734   0.62902   0.62973   0.63110
 Alpha virt. eigenvalues --    0.63127   0.63387   0.63442   0.63603   0.63669
 Alpha virt. eigenvalues --    0.63798   0.63842   0.63977   0.64036   0.64236
 Alpha virt. eigenvalues --    0.64308   0.64432   0.64467   0.64577   0.64857
 Alpha virt. eigenvalues --    0.65042   0.65175   0.65266   0.65395   0.65525
 Alpha virt. eigenvalues --    0.65645   0.65730   0.65851   0.66051   0.66159
 Alpha virt. eigenvalues --    0.66231   0.66264   0.66469   0.66527   0.66627
 Alpha virt. eigenvalues --    0.66739   0.66775   0.66947   0.67109   0.67282
 Alpha virt. eigenvalues --    0.67364   0.67394   0.67530   0.67674   0.67874
 Alpha virt. eigenvalues --    0.67920   0.67968   0.68085   0.68270   0.68399
 Alpha virt. eigenvalues --    0.68569   0.68843   0.68902   0.69026   0.69176
 Alpha virt. eigenvalues --    0.69275   0.69404   0.69592   0.69711   0.69780
 Alpha virt. eigenvalues --    0.70033   0.70193   0.70314   0.70436   0.70582
 Alpha virt. eigenvalues --    0.70764   0.70889   0.70914   0.71168   0.71311
 Alpha virt. eigenvalues --    0.71373   0.71547   0.71624   0.71751   0.71867
 Alpha virt. eigenvalues --    0.71971   0.72134   0.72205   0.72444   0.72638
 Alpha virt. eigenvalues --    0.72851   0.72946   0.73171   0.73213   0.73358
 Alpha virt. eigenvalues --    0.73519   0.73807   0.74054   0.74126   0.74246
 Alpha virt. eigenvalues --    0.74377   0.74553   0.74735   0.74859   0.74887
 Alpha virt. eigenvalues --    0.75097   0.75324   0.75501   0.75754   0.76177
 Alpha virt. eigenvalues --    0.76503   0.76697   0.76888   0.77121   0.77162
 Alpha virt. eigenvalues --    0.77360   0.77597   0.78132   0.78376   0.78505
 Alpha virt. eigenvalues --    0.78565   0.78640   0.79004   0.79213   0.79340
 Alpha virt. eigenvalues --    0.79650   0.80089   0.80272   0.80522   0.80897
 Alpha virt. eigenvalues --    0.81016   0.81272   0.81574   0.81692   0.81986
 Alpha virt. eigenvalues --    0.82100   0.82484   0.82792   0.83099   0.83267
 Alpha virt. eigenvalues --    0.83373   0.83846   0.84014   0.84229   0.84318
 Alpha virt. eigenvalues --    0.84553   0.84986   0.85019   0.85167   0.85568
 Alpha virt. eigenvalues --    0.85808   0.86380   0.86544   0.86893   0.87317
 Alpha virt. eigenvalues --    0.87464   0.87592   0.87784   0.87980   0.88464
 Alpha virt. eigenvalues --    0.88662   0.89168   0.89595   0.89792   0.90103
 Alpha virt. eigenvalues --    0.90283   0.90415   0.91189   0.91440   0.91539
 Alpha virt. eigenvalues --    0.91974   0.92270   0.92590   0.92963   0.93406
 Alpha virt. eigenvalues --    0.93520   0.93614   0.94199   0.94388   0.94845
 Alpha virt. eigenvalues --    0.95012   0.95160   0.95322   0.95673   0.96117
 Alpha virt. eigenvalues --    0.96390   0.96545   0.96853   0.97167   0.97269
 Alpha virt. eigenvalues --    0.97619   0.97685   0.98275   0.98518   0.98620
 Alpha virt. eigenvalues --    0.98768   0.98903   0.99148   0.99495   0.99714
 Alpha virt. eigenvalues --    1.00025   1.00390   1.00580   1.00976   1.01355
 Alpha virt. eigenvalues --    1.01463   1.01590   1.02030   1.02199   1.02715
 Alpha virt. eigenvalues --    1.03334   1.03542   1.03771   1.04145   1.04363
 Alpha virt. eigenvalues --    1.04608   1.04654   1.05118   1.05544   1.05726
 Alpha virt. eigenvalues --    1.05957   1.06021   1.06435   1.06734   1.06931
 Alpha virt. eigenvalues --    1.07340   1.07558   1.07725   1.08140   1.08315
 Alpha virt. eigenvalues --    1.08654   1.09199   1.09278   1.09480   1.09554
 Alpha virt. eigenvalues --    1.09781   1.10339   1.10411   1.10549   1.11281
 Alpha virt. eigenvalues --    1.11346   1.11521   1.11804   1.12023   1.12301
 Alpha virt. eigenvalues --    1.12830   1.13014   1.13457   1.13718   1.14076
 Alpha virt. eigenvalues --    1.14325   1.14621   1.14964   1.15132   1.15397
 Alpha virt. eigenvalues --    1.15658   1.16243   1.16350   1.16717   1.16948
 Alpha virt. eigenvalues --    1.17256   1.17540   1.17837   1.18206   1.18449
 Alpha virt. eigenvalues --    1.18688   1.18900   1.19098   1.19429   1.19739
 Alpha virt. eigenvalues --    1.20181   1.20490   1.20595   1.20838   1.21227
 Alpha virt. eigenvalues --    1.21533   1.21702   1.21994   1.22337   1.22474
 Alpha virt. eigenvalues --    1.22675   1.22963   1.23209   1.23474   1.23555
 Alpha virt. eigenvalues --    1.23794   1.24350   1.24485   1.24524   1.24763
 Alpha virt. eigenvalues --    1.24951   1.25308   1.25424   1.25727   1.26021
 Alpha virt. eigenvalues --    1.26115   1.26361   1.26484   1.26624   1.26955
 Alpha virt. eigenvalues --    1.27251   1.27733   1.28027   1.28547   1.28767
 Alpha virt. eigenvalues --    1.29128   1.29510   1.29580   1.29686   1.29976
 Alpha virt. eigenvalues --    1.30103   1.30585   1.30902   1.31118   1.31209
 Alpha virt. eigenvalues --    1.31581   1.31833   1.32015   1.32179   1.32826
 Alpha virt. eigenvalues --    1.32882   1.33195   1.33634   1.33844   1.34531
 Alpha virt. eigenvalues --    1.34608   1.35017   1.35187   1.35303   1.35515
 Alpha virt. eigenvalues --    1.35779   1.36126   1.36559   1.36825   1.37241
 Alpha virt. eigenvalues --    1.37344   1.37769   1.38134   1.38421   1.38802
 Alpha virt. eigenvalues --    1.39164   1.39393   1.39799   1.39964   1.39987
 Alpha virt. eigenvalues --    1.40570   1.40770   1.40793   1.40996   1.41121
 Alpha virt. eigenvalues --    1.41479   1.41760   1.42151   1.42519   1.42616
 Alpha virt. eigenvalues --    1.42778   1.43057   1.43406   1.44023   1.44158
 Alpha virt. eigenvalues --    1.44392   1.44577   1.44707   1.45183   1.45444
 Alpha virt. eigenvalues --    1.45700   1.45935   1.46143   1.46751   1.46780
 Alpha virt. eigenvalues --    1.47249   1.47458   1.47839   1.48064   1.48267
 Alpha virt. eigenvalues --    1.48377   1.48742   1.49139   1.49197   1.49680
 Alpha virt. eigenvalues --    1.49931   1.50487   1.50857   1.50997   1.51563
 Alpha virt. eigenvalues --    1.51696   1.52144   1.52300   1.52508   1.52726
 Alpha virt. eigenvalues --    1.53050   1.53232   1.53398   1.53728   1.53916
 Alpha virt. eigenvalues --    1.54032   1.54335   1.54577   1.55075   1.55398
 Alpha virt. eigenvalues --    1.55805   1.55867   1.56815   1.56975   1.57291
 Alpha virt. eigenvalues --    1.57368   1.58277   1.58590   1.59352   1.59513
 Alpha virt. eigenvalues --    1.59963   1.60338   1.60770   1.60994   1.61078
 Alpha virt. eigenvalues --    1.61523   1.61624   1.61869   1.62046   1.62455
 Alpha virt. eigenvalues --    1.62922   1.63176   1.63468   1.63759   1.64122
 Alpha virt. eigenvalues --    1.64379   1.64690   1.64720   1.64791   1.65196
 Alpha virt. eigenvalues --    1.65404   1.65778   1.66271   1.66615   1.67057
 Alpha virt. eigenvalues --    1.67293   1.67566   1.67828   1.68108   1.68306
 Alpha virt. eigenvalues --    1.68448   1.68618   1.68769   1.69250   1.69412
 Alpha virt. eigenvalues --    1.69660   1.70398   1.70512   1.70680   1.70850
 Alpha virt. eigenvalues --    1.70885   1.71224   1.71263   1.71500   1.71711
 Alpha virt. eigenvalues --    1.71780   1.72043   1.72335   1.72993   1.73096
 Alpha virt. eigenvalues --    1.73212   1.73403   1.73504   1.73794   1.74075
 Alpha virt. eigenvalues --    1.74370   1.74518   1.74784   1.74857   1.75104
 Alpha virt. eigenvalues --    1.75145   1.75263   1.75488   1.75606   1.75777
 Alpha virt. eigenvalues --    1.75941   1.76196   1.76509   1.76609   1.76885
 Alpha virt. eigenvalues --    1.77029   1.77118   1.77253   1.77276   1.77542
 Alpha virt. eigenvalues --    1.77674   1.77868   1.77982   1.78272   1.78673
 Alpha virt. eigenvalues --    1.78745   1.78891   1.79169   1.79355   1.79427
 Alpha virt. eigenvalues --    1.79613   1.79850   1.80068   1.80132   1.80223
 Alpha virt. eigenvalues --    1.80422   1.80661   1.80736   1.80932   1.81040
 Alpha virt. eigenvalues --    1.81206   1.81306   1.81378   1.81547   1.81821
 Alpha virt. eigenvalues --    1.81964   1.81974   1.82387   1.82421   1.82615
 Alpha virt. eigenvalues --    1.82786   1.82988   1.83074   1.83377   1.83529
 Alpha virt. eigenvalues --    1.83586   1.83905   1.83964   1.84272   1.84477
 Alpha virt. eigenvalues --    1.84762   1.85042   1.85309   1.85437   1.85726
 Alpha virt. eigenvalues --    1.85928   1.86182   1.86385   1.86677   1.86964
 Alpha virt. eigenvalues --    1.87242   1.87495   1.87788   1.87891   1.88143
 Alpha virt. eigenvalues --    1.88245   1.88489   1.88646   1.88868   1.89152
 Alpha virt. eigenvalues --    1.89305   1.89602   1.89649   1.89789   1.89887
 Alpha virt. eigenvalues --    1.90073   1.90188   1.90318   1.90522   1.90683
 Alpha virt. eigenvalues --    1.90859   1.90925   1.91224   1.91427   1.91604
 Alpha virt. eigenvalues --    1.91901   1.92255   1.92383   1.92484   1.92843
 Alpha virt. eigenvalues --    1.92985   1.93068   1.93220   1.93360   1.93770
 Alpha virt. eigenvalues --    1.94050   1.94210   1.94435   1.94608   1.94678
 Alpha virt. eigenvalues --    1.95045   1.95076   1.95310   1.95722   1.95796
 Alpha virt. eigenvalues --    1.95874   1.95960   1.96418   1.96661   1.96807
 Alpha virt. eigenvalues --    1.96897   1.97244   1.97526   1.97681   1.98076
 Alpha virt. eigenvalues --    1.98296   1.98625   1.98783   1.98905   1.99186
 Alpha virt. eigenvalues --    1.99475   1.99534   1.99579   1.99850   2.00065
 Alpha virt. eigenvalues --    2.00207   2.00529   2.00983   2.01186   2.01414
 Alpha virt. eigenvalues --    2.01560   2.02192   2.02450   2.02477   2.02820
 Alpha virt. eigenvalues --    2.03048   2.03338   2.03398   2.03572   2.03932
 Alpha virt. eigenvalues --    2.04292   2.04635   2.04944   2.05019   2.05387
 Alpha virt. eigenvalues --    2.05902   2.05948   2.06136   2.06538   2.06979
 Alpha virt. eigenvalues --    2.07114   2.07346   2.07566   2.07999   2.08105
 Alpha virt. eigenvalues --    2.08501   2.08701   2.08838   2.09059   2.09775
 Alpha virt. eigenvalues --    2.10178   2.10710   2.10963   2.11341   2.11441
 Alpha virt. eigenvalues --    2.11605   2.11852   2.11954   2.12398   2.12478
 Alpha virt. eigenvalues --    2.12827   2.13405   2.13609   2.13796   2.13905
 Alpha virt. eigenvalues --    2.14314   2.14439   2.14903   2.15224   2.15250
 Alpha virt. eigenvalues --    2.16054   2.16173   2.16375   2.16497   2.16897
 Alpha virt. eigenvalues --    2.17208   2.17411   2.17530   2.17696   2.17747
 Alpha virt. eigenvalues --    2.18052   2.18286   2.18402   2.18671   2.19215
 Alpha virt. eigenvalues --    2.19390   2.19518   2.19732   2.20040   2.20233
 Alpha virt. eigenvalues --    2.20938   2.21069   2.21323   2.21511   2.22002
 Alpha virt. eigenvalues --    2.22108   2.22197   2.22759   2.22886   2.23544
 Alpha virt. eigenvalues --    2.23660   2.23986   2.24260   2.24350   2.24952
 Alpha virt. eigenvalues --    2.25528   2.25897   2.26906   2.27208   2.27472
 Alpha virt. eigenvalues --    2.27645   2.28337   2.28513   2.28641   2.28961
 Alpha virt. eigenvalues --    2.29688   2.29907   2.30139   2.30498   2.30716
 Alpha virt. eigenvalues --    2.31164   2.31522   2.32041   2.32544   2.32749
 Alpha virt. eigenvalues --    2.32965   2.33242   2.33402   2.33747   2.34228
 Alpha virt. eigenvalues --    2.34436   2.35138   2.35319   2.35555   2.35813
 Alpha virt. eigenvalues --    2.36313   2.36635   2.36830   2.37084   2.37285
 Alpha virt. eigenvalues --    2.37390   2.37528   2.37849   2.38278   2.38469
 Alpha virt. eigenvalues --    2.39037   2.39422   2.39681   2.39951   2.40198
 Alpha virt. eigenvalues --    2.40726   2.40792   2.41040   2.41375   2.41379
 Alpha virt. eigenvalues --    2.41613   2.41699   2.43350   2.43389   2.43841
 Alpha virt. eigenvalues --    2.44153   2.44608   2.44728   2.44975   2.45086
 Alpha virt. eigenvalues --    2.45658   2.46144   2.46305   2.46710   2.47290
 Alpha virt. eigenvalues --    2.47601   2.47774   2.48050   2.48314   2.48798
 Alpha virt. eigenvalues --    2.48929   2.49125   2.49281   2.49724   2.50019
 Alpha virt. eigenvalues --    2.50426   2.50792   2.51029   2.51507   2.52267
 Alpha virt. eigenvalues --    2.52463   2.52732   2.52913   2.53208   2.53495
 Alpha virt. eigenvalues --    2.53743   2.54204   2.55126   2.55448   2.55773
 Alpha virt. eigenvalues --    2.55826   2.55988   2.56523   2.56683   2.57392
 Alpha virt. eigenvalues --    2.57495   2.57918   2.58060   2.58326   2.58594
 Alpha virt. eigenvalues --    2.58759   2.59193   2.59584   2.60108   2.60356
 Alpha virt. eigenvalues --    2.60550   2.60989   2.61177   2.61305   2.61452
 Alpha virt. eigenvalues --    2.62198   2.62317   2.62871   2.63430   2.63765
 Alpha virt. eigenvalues --    2.64382   2.64519   2.64710   2.64803   2.64977
 Alpha virt. eigenvalues --    2.65245   2.65267   2.65565   2.66081   2.66444
 Alpha virt. eigenvalues --    2.66670   2.67250   2.67480   2.67567   2.68472
 Alpha virt. eigenvalues --    2.68564   2.69045   2.69420   2.69591   2.69908
 Alpha virt. eigenvalues --    2.69959   2.70385   2.70607   2.70800   2.71084
 Alpha virt. eigenvalues --    2.71148   2.71444   2.71778   2.71970   2.72357
 Alpha virt. eigenvalues --    2.72591   2.72734   2.73051   2.73501   2.73586
 Alpha virt. eigenvalues --    2.73646   2.73905   2.74721   2.74875   2.75014
 Alpha virt. eigenvalues --    2.75200   2.75278   2.75413   2.75478   2.76170
 Alpha virt. eigenvalues --    2.76596   2.76925   2.77209   2.77332   2.77509
 Alpha virt. eigenvalues --    2.77857   2.77958   2.78181   2.78366   2.78546
 Alpha virt. eigenvalues --    2.78731   2.79146   2.79214   2.79298   2.79860
 Alpha virt. eigenvalues --    2.80623   2.80928   2.81282   2.81468   2.81650
 Alpha virt. eigenvalues --    2.81933   2.82098   2.82196   2.82346   2.82532
 Alpha virt. eigenvalues --    2.82846   2.82986   2.83393   2.83907   2.84223
 Alpha virt. eigenvalues --    2.84576   2.84707   2.85470   2.85762   2.85916
 Alpha virt. eigenvalues --    2.86059   2.86327   2.86438   2.86767   2.86945
 Alpha virt. eigenvalues --    2.87168   2.87555   2.87789   2.87943   2.88033
 Alpha virt. eigenvalues --    2.88566   2.89103   2.89474   2.89769   2.89949
 Alpha virt. eigenvalues --    2.90187   2.90907   2.91279   2.91440   2.91848
 Alpha virt. eigenvalues --    2.92189   2.92344   2.92596   2.92776   2.92912
 Alpha virt. eigenvalues --    2.93311   2.93525   2.93848   2.94237   2.94443
 Alpha virt. eigenvalues --    2.94651   2.94764   2.95333   2.95568   2.95808
 Alpha virt. eigenvalues --    2.95978   2.96153   2.96214   2.97331   2.97713
 Alpha virt. eigenvalues --    2.98092   2.98648   2.99163   2.99240   2.99791
 Alpha virt. eigenvalues --    2.99940   3.00452   3.00694   3.01313   3.01603
 Alpha virt. eigenvalues --    3.01813   3.02085   3.02196   3.02457   3.03122
 Alpha virt. eigenvalues --    3.03760   3.03948   3.03982   3.04593   3.04849
 Alpha virt. eigenvalues --    3.05147   3.05209   3.05769   3.05862   3.06331
 Alpha virt. eigenvalues --    3.06747   3.07409   3.08733   3.09537   3.09773
 Alpha virt. eigenvalues --    3.10303   3.10477   3.10825   3.11701   3.11899
 Alpha virt. eigenvalues --    3.12479   3.12834   3.13049   3.13528   3.13782
 Alpha virt. eigenvalues --    3.14305   3.14698   3.15207   3.15301   3.15939
 Alpha virt. eigenvalues --    3.16561   3.16783   3.17297   3.17437   3.17606
 Alpha virt. eigenvalues --    3.17749   3.17972   3.18066   3.18358   3.18829
 Alpha virt. eigenvalues --    3.19352   3.19583   3.19759   3.20461   3.20562
 Alpha virt. eigenvalues --    3.21802   3.21934   3.21987   3.22258   3.22843
 Alpha virt. eigenvalues --    3.23296   3.23612   3.23859   3.24008   3.24788
 Alpha virt. eigenvalues --    3.25071   3.25420   3.25984   3.26202   3.26745
 Alpha virt. eigenvalues --    3.27373   3.28874   3.29511   3.29970   3.30581
 Alpha virt. eigenvalues --    3.30912   3.32171   3.33015   3.33810   3.35225
 Alpha virt. eigenvalues --    3.35846   3.36433   3.36909   3.38008   3.39750
 Alpha virt. eigenvalues --    3.41127   3.42164   3.45620   3.49440   3.51723
 Alpha virt. eigenvalues --    3.52154   3.52438   3.53533   3.54263   3.54345
 Alpha virt. eigenvalues --    3.56082   3.56352   3.58208   3.59328   3.60395
 Alpha virt. eigenvalues --    3.60707   3.61519   3.62495   3.62675   3.64218
 Alpha virt. eigenvalues --    3.64729   3.66924   3.67036   3.67430   3.67864
 Alpha virt. eigenvalues --    3.69080   3.69415   3.70014   3.70418   3.70480
 Alpha virt. eigenvalues --    3.70849   3.71579   3.72177   3.72561   3.72778
 Alpha virt. eigenvalues --    3.73194   3.73346   3.73615   3.74252   3.75293
 Alpha virt. eigenvalues --    3.77458   3.78058   3.78884   3.81325
          Condensed to atoms (all electrons):
 Mulliken charges:
               1
     1  C    0.053207
     2  C    0.029969
     3  O   -0.305632
     4  H    0.050198
     5  H    0.039702
     6  H    0.009224
     7  N   -0.114090
     8  C    0.101238
     9  C    0.035659
    10  O   -0.294074
    11  C    0.099033
    12  C    0.153810
    13  O   -0.468732
    14  O   -0.384729
    15  H    0.115492
    16  H    0.002813
    17  H    0.021004
    18  H   -0.002397
    19  N   -0.112723
    20  C    0.177822
    21  C    0.055760
    22  O   -0.292641
    23  C   -0.003807
    24  C    0.042715
    25  C   -0.048226
    26  C    0.024900
    27  N    0.080032
    28  H    0.146391
    29  H   -0.015241
    30  H    0.001688
    31  H    0.039554
    32  H    0.042363
    33  H   -0.005712
    34  H    0.013106
    35  H    0.025510
    36  H    0.088062
    37  H    0.069162
    38  H    0.181273
    39  H    0.201098
    40  H    0.180051
    41  N   -0.176100
    42  C    0.141085
    43  C    0.040846
    44  O   -0.296587
    45  C    0.053953
    46  C    0.116570
    47  O   -0.382282
    48  O   -0.458796
    49  H    0.161085
    50  H    0.018410
    51  H   -0.013290
    52  H    0.013794
    53  N   -0.164662
    54  C    0.248874
    55  C    0.038620
    56  O   -0.298259
    57  H    0.145358
    58  H    0.009117
    59  H    0.015230
    60  N   -0.142639
    61  C    0.181443
    62  C    0.037077
    63  O   -0.281980
    64  C    0.066205
    65  C    0.033908
    66  N   -0.024925
    67  O   -0.338570
    68  H    0.145900
    69  H    0.030505
    70  H    0.080396
    71  H   -0.006225
    72  H    0.139782
    73  H    0.111842
    74  N   -0.166827
    75  C    0.208101
    76  C    0.066630
    77  O   -0.296924
    78  H    0.153928
    79  H    0.038526
    80  H    0.035539
    81  N   -0.134863
    82  C    0.089523
    83  C    0.121616
    84  O   -0.331883
    85  C    0.165854
    86  C    0.003875
    87  C   -0.004134
    88  C    0.044707
    89  C    0.017667
    90  C   -0.027147
    91  C    0.130879
    92  O   -0.196341
    93  H    0.142704
    94  H   -0.000534
    95  H   -0.026212
    96  H   -0.082495
    97  H   -0.089057
    98  H   -0.035848
    99  H   -0.024616
   100  H   -0.048792
   101  H    0.172205
   102  N   -0.139695
   103  C    0.119113
   104  C    0.055147
   105  O   -0.274124
   106  C   -0.074914
   107  C   -0.074065
   108  C    0.077821
   109  C    0.059967
   110  H    0.137021
   111  H    0.030837
   112  H   -0.032646
   113  H    0.016057
   114  H    0.009412
   115  H    0.019517
   116  H    0.019480
   117  H    0.017678
   118  H    0.004916
   119  H    0.000596
   120  H    0.013020
   121  N   -0.161558
   122  C    0.104858
   123  C    0.086689
   124  O   -0.294634
   125  C    0.235594
   126  O   -0.308163
   127  H    0.152137
   128  H    0.013194
   129  H   -0.008783
   130  H   -0.013026
   131  H    0.168313
   132  N   -0.104655
   133  C    0.082561
   134  C    0.041142
   135  O   -0.267332
   136  C    0.054909
   137  H    0.122432
   138  H    0.030306
   139  H    0.022641
   140  H    0.007451
   141  H    0.056734
   142  N   -0.121967
   143  C    0.091084
   144  C    0.075811
   145  O   -0.304665
   146  C    0.030833
   147  H    0.103987
   148  H    0.024547
   149  H    0.025657
   150  H    0.000583
   151  H    0.032744
   152  N   -0.133549
   153  C    0.119538
   154  C    0.043005
   155  O   -0.288923
   156  C   -0.030053
   157  C    0.119410
   158  C    0.113902
   159  O   -0.412579
   160  O   -0.380845
   161  H    0.137310
   162  H   -0.021518
   163  H    0.054402
   164  H    0.017617
   165  H   -0.022224
   166  H   -0.059564
   167  N   -0.156338
   168  C    0.129271
   169  H    0.024798
   170  H    0.032623
   171  H    0.012384
   172  H    0.133426
   173  Ca   1.295728
   174  O   -0.278058
   175  H    0.203457
   176  H    0.177624
 Sum of Mulliken charges =  -0.00000
 Mulliken charges with hydrogens summed into heavy atoms:
               1
     1  C    0.152331
     2  C    0.029969
     3  O   -0.305632
     7  N    0.001401
     8  C    0.104051
     9  C    0.035659
    10  O   -0.294074
    11  C    0.117640
    12  C    0.153810
    13  O   -0.468732
    14  O   -0.384729
    19  N    0.033668
    20  C    0.162581
    21  C    0.055760
    22  O   -0.292641
    23  C    0.037435
    24  C    0.079366
    25  C   -0.009611
    26  C    0.182123
    27  N    0.642455
    41  N   -0.015016
    42  C    0.159495
    43  C    0.040846
    44  O   -0.296587
    45  C    0.054457
    46  C    0.116570
    47  O   -0.382282
    48  O   -0.458796
    53  N   -0.019304
    54  C    0.273221
    55  C    0.038620
    56  O   -0.298259
    60  N    0.003261
    61  C    0.211948
    62  C    0.037077
    63  O   -0.281980
    64  C    0.140376
    65  C    0.033908
    66  N    0.226698
    67  O   -0.338570
    74  N   -0.012899
    75  C    0.282166
    76  C    0.066630
    77  O   -0.296924
    81  N    0.007841
    82  C    0.088989
    83  C    0.121616
    84  O   -0.331883
    85  C    0.057146
    86  C    0.003875
    87  C   -0.093191
    88  C    0.008859
    89  C   -0.006949
    90  C   -0.075940
    91  C    0.130879
    92  O   -0.024136
   102  N   -0.002674
   103  C    0.149950
   104  C    0.055147
   105  O   -0.274124
   106  C   -0.107560
   107  C   -0.048596
   108  C    0.134496
   109  C    0.078499
   121  N   -0.009422
   122  C    0.118052
   123  C    0.086689
   124  O   -0.294634
   125  C    0.213786
   126  O   -0.139850
   132  N    0.017777
   133  C    0.112867
   134  C    0.041142
   135  O   -0.267332
   136  C    0.141735
   142  N   -0.017981
   143  C    0.115632
   144  C    0.075811
   145  O   -0.304665
   146  C    0.089818
   152  N    0.003761
   153  C    0.098020
   154  C    0.043005
   155  O   -0.288923
   156  C    0.041966
   157  C    0.037622
   158  C    0.113902
   159  O   -0.412579
   160  O   -0.380845
   167  N   -0.022912
   168  C    0.199076
   173  Ca   1.295728
   174  O    0.103023
 DipInt: DoE/N= T F RetVal/Mat= T F Init=T NMatP=  1 IDeriv=0 Min/MaxMlt=  0  4
 Entering OneElI...
 OneElI was handed  1333951383 working-precision words.
 Multipole integrals L=0 to 4 MinM= 0 MaxM= 0.
 Requested accuracy = 0.1000D-12
 ShPair: Thresh= 1.00D-13 NBox=     0 BxSize= 0.00D+00 RnKept= 2.55D+01
         NSMCal=               327645 NSMKep=              161206
 PrmmSu-InSpLW:  IPartL=    0 NPrtUS=    1 NPrtUL=    1 DoSpLW=F IThBeg=    0 IThEnd=    0 NThAct=    1.
 PrsmSu:  NPrtUS=   1 ThrOK=F IAlg=1 NPAlg=1 LenDen=           0 ISkipM=0 DoSpLW=F IThBeg=    0 IThEnd=    0.
 Prism:   IPart=     0 DynPar=F LinDyn=F Incr=         512.
 PRISM was handed  1323852853 working-precision words and161206 shell-pairs
 IPart=  0 NShTot=      161206 NBatch=         369 AvBLen=       436.9
 PrsmSu-ThDecC:  IPartSL=    0    0 NPrtUSL=    1    1 IThBeg=    0 IThEnd=    0 CPU=   -1 GPU=   -1 NThAct=    1.
 PrSmSu:  NxtVal=            513.
 Electronic moments (au):
       -716.00000000         15.00508973         -2.84923395         -5.36968314
     -55490.23373158     -29864.66534798     -10820.56822495        124.04969091
        -55.14309676          7.90396217     -61339.45987763     -25148.65093591
     -14194.46240444      27086.78591804     102212.01610584      44257.47403706
     -12954.78006165      -1975.12769036      17329.82430531     -11253.98940803
   -8468471.16274595   -2560320.08441954    -474973.78402692    -235572.51383501
     222593.34825478    -323681.19600524      66677.99708427     -72523.27956016
      -6850.25081390   -2307259.76589607    -647134.57020637    -293884.89409028
    -125043.06754789      77768.08155302      42002.51445541
 Electronic spatial extent (au):  <R**2>=          96175.4673
 DipInt: DoE/N= F T RetVal/Mat= T F Init=T NMatP=  1 IDeriv=0 Min/MaxMlt=  0  4
 Nuclear    moments (au):
        716.00000000         -0.00000000          0.00000000          0.00000000
      55088.14211773      29483.91896731      10436.61782636         -0.00000000
         -0.00000000         -0.00000000      63490.96725223      25166.02488248
      14162.96178792     -25302.91869996    -101789.66534515     -45209.76597228
      13247.59401869       1853.53223990     -17669.82189421      10921.47592985
    8272506.77789659    2460524.81066094     439013.85575913     253734.46258065
    -232432.94385387     342482.04385586     -69530.36901532      71810.79303676
       9120.21963414    2274936.99312987     612757.89292169     270856.94541926
     121693.22882439     -84328.29595879     -40845.96092899
 Total      moments (au):
         -0.00000000         15.00508973         -2.84923395         -5.36968314
       -402.09161385       -380.74638067       -383.95039859        124.04969091
        -55.14309676          7.90396217       2151.50737460         17.37394657
        -31.50061652       1783.86721807        422.35076069       -952.29193522
        292.81395705       -121.59545045       -339.99758889       -332.51347818
    -195964.38484937     -99795.27375859     -35959.92826779      18161.94874563
      -9839.59559909      18800.84785061      -2852.37193105       -712.48652340
       2269.96882024     -32322.77276620     -34376.67728468     -23027.94867103
      -3349.83872350      -6560.21440577       1156.55352642
 Traceless Quadrup. (au):
        -13.16214948          8.18308370          4.97906578        124.04969091
        -55.14309676          7.90396217
 Charge=             -0.0000 electrons
 Dipole moment (field-independent basis, Debye):
    X=             38.1391    Y=             -7.2420    Z=            -13.6484  Tot=             41.1500
 Quadrupole moment (field-independent basis, Debye-Ang):
   XX=           -540.8270   YY=           -512.1169   ZZ=           -516.4264
   XY=            166.8511   XZ=            -74.1694   YZ=             10.6311
 Traceless Quadrupole moment (field-independent basis, Debye-Ang):
   XX=            -17.7035   YY=             11.0065   ZZ=              6.6970
   XY=            166.8511   XZ=            -74.1694   YZ=             10.6311
 Octapole moment (field-independent basis, Debye-Ang**2):
  XXX=           1531.3601  YYY=             12.3661  ZZZ=            -22.4209  XYY=           1269.6880
  XXY=            300.6130  XXZ=           -677.8047  XZZ=            208.4137  YZZ=            -86.5470
  YYZ=           -241.9972  XYZ=           -236.6703
 Hexadecapole moment (field-independent basis, Debye-Ang**3):
 XXXX=         -73809.5841 YYYY=         -37587.6854 ZZZZ=         -13544.2333 XXXY=           6840.6608
 XXXZ=          -3706.0635 YYYX=           7081.3008 YYYZ=          -1074.3400 ZZZX=           -268.3566
 ZZZY=            854.9791 XXYY=         -12174.3062 XXZZ=         -12947.9051 YYZZ=          -8673.4297
 XXYZ=          -1261.7099 YYXZ=          -2470.8913 ZZXY=            435.6135
 N-N= 2.165968146550D+04 E-N=-5.580094372402D+04  KE= 5.290246513910D+03
 Leave Link  601 at Wed Sep 18 17:38:21 2019, MaxMem=  1342177280 cpu:              44.9 elap:               1.2
 FitSet:  NAtFit=   176 NAtPot=   176 NAtFrz=     0 MDM=   180 TotChg=   0.00000
 Merz-Kollman atomic radii used.
 Read replacement radii for each type of atom:
 Rad(20) =   1.700000000000D+00
 Atom Element Radius
    1     6    1.50
    2     6    1.50
    3     8    1.40
    4     1    1.20
    5     1    1.20
    6     1    1.20
    7     7    1.50
    8     6    1.50
    9     6    1.50
   10     8    1.40
   11     6    1.50
   12     6    1.50
   13     8    1.40
   14     8    1.40
   15     1    1.20
   16     1    1.20
   17     1    1.20
   18     1    1.20
   19     7    1.50
   20     6    1.50
   21     6    1.50
   22     8    1.40
   23     6    1.50
   24     6    1.50
   25     6    1.50
   26     6    1.50
   27     7    1.50
   28     1    1.20
   29     1    1.20
   30     1    1.20
   31     1    1.20
   32     1    1.20
   33     1    1.20
   34     1    1.20
   35     1    1.20
   36     1    1.20
   37     1    1.20
   38     1    1.20
   39     1    1.20
   40     1    1.20
   41     7    1.50
   42     6    1.50
   43     6    1.50
   44     8    1.40
   45     6    1.50
   46     6    1.50
   47     8    1.40
   48     8    1.40
   49     1    1.20
   50     1    1.20
   51     1    1.20
   52     1    1.20
   53     7    1.50
   54     6    1.50
   55     6    1.50
   56     8    1.40
   57     1    1.20
   58     1    1.20
   59     1    1.20
   60     7    1.50
   61     6    1.50
   62     6    1.50
   63     8    1.40
   64     6    1.50
   65     6    1.50
   66     7    1.50
   67     8    1.40
   68     1    1.20
   69     1    1.20
   70     1    1.20
   71     1    1.20
   72     1    1.20
   73     1    1.20
   74     7    1.50
   75     6    1.50
   76     6    1.50
   77     8    1.40
   78     1    1.20
   79     1    1.20
   80     1    1.20
   81     7    1.50
   82     6    1.50
   83     6    1.50
   84     8    1.40
   85     6    1.50
   86     6    1.50
   87     6    1.50
   88     6    1.50
   89     6    1.50
   90     6    1.50
   91     6    1.50
   92     8    1.40
   93     1    1.20
   94     1    1.20
   95     1    1.20
   96     1    1.20
   97     1    1.20
   98     1    1.20
   99     1    1.20
  100     1    1.20
  101     1    1.20
  102     7    1.50
  103     6    1.50
  104     6    1.50
  105     8    1.40
  106     6    1.50
  107     6    1.50
  108     6    1.50
  109     6    1.50
  110     1    1.20
  111     1    1.20
  112     1    1.20
  113     1    1.20
  114     1    1.20
  115     1    1.20
  116     1    1.20
  117     1    1.20
  118     1    1.20
  119     1    1.20
  120     1    1.20
  121     7    1.50
  122     6    1.50
  123     6    1.50
  124     8    1.40
  125     6    1.50
  126     8    1.40
  127     1    1.20
  128     1    1.20
  129     1    1.20
  130     1    1.20
  131     1    1.20
  132     7    1.50
  133     6    1.50
  134     6    1.50
  135     8    1.40
  136     6    1.50
  137     1    1.20
  138     1    1.20
  139     1    1.20
  140     1    1.20
  141     1    1.20
  142     7    1.50
  143     6    1.50
  144     6    1.50
  145     8    1.40
  146     6    1.50
  147     1    1.20
  148     1    1.20
  149     1    1.20
  150     1    1.20
  151     1    1.20
  152     7    1.50
  153     6    1.50
  154     6    1.50
  155     8    1.40
  156     6    1.50
  157     6    1.50
  158     6    1.50
  159     8    1.40
  160     8    1.40
  161     1    1.20
  162     1    1.20
  163     1    1.20
  164     1    1.20
  165     1    1.20
  166     1    1.20
  167     7    1.50
  168     6    1.50
  169     1    1.20
  170     1    1.20
  171     1    1.20
  172     1    1.20
  173    20    1.70
  174     8    1.40
[...]
 **** Fit       0.043165
 **** Fit       0.040259
 **** Fit       0.034175
 **** Fit       0.025336
 **** Fit       0.015257
 **** Fit       0.006211
 **** Fit       0.030690
 **** Fit       0.022996
 **** Fit       0.015526
 **** Fit       0.011113
 **** Fit       0.021589
 **** Fit       0.019279
 **** Fit       0.010495
 **** Fit       0.027318
 **** Fit       0.029794
 **** Fit       0.031141
 **** Fit       0.021112
 **** Fit       0.013188
 **** Fit       0.008543
 **** Fit       0.014654
 **** Fit       0.022097
 **** Fit       0.024561
 **** Fit       0.017170
 **** Fit       0.003979
 **** Fit      -0.002110
 **** Fit      -0.010023
 **** Fit       0.001591
 **** Fit      -0.005117
 **** Fit      -0.013726
 **** Fit      -0.024107
 **** Fit      -0.035561
 **** Fit       0.000947
 **** Fit      -0.006159
 **** Fit      -0.015498
 **** Fit      -0.026281
 **** Fit      -0.035474
 **** Fit      -0.005036
 **** Fit      -0.014829
 **** Fit      -0.023113
 **** Fit      -0.000070
 **** Fit      -0.011012
 **** Fit       0.003863
 **** Fit       0.015431
 **** Fit       0.022386
 **** Fit       0.044822
 **** Fit       0.044446
 **** Fit       0.045654
 **** Fit       0.046145
 **** Fit       0.044530
 **** Fit       0.043956
 **** Fit       0.042027
 **** Fit       0.037841
 **** Fit       0.044554
 **** Fit       0.042745
 **** Fit       0.040247
 **** Fit       0.036112
 **** Fit       0.030693
 **** Fit       0.025648
 **** Fit       0.023104
 **** Fit       0.024340
 **** Fit       0.028853
 **** Fit       0.035280
 **** Fit       0.045364
 **** Fit       0.042417
 **** Fit       0.039078
 **** Fit       0.034680
 **** Fit       0.030598
 **** Fit       0.029620
 **** Fit       0.032979
 **** Fit       0.039331
 **** Fit       0.050376
 **** Fit       0.043111
 **** Fit       0.039076
 **** Fit       0.035412
 **** Fit       0.036863
 **** Fit       0.042656
 **** Fit       0.045275
 **** Fit       0.040271
 **** Fit       0.056718
 **** Fit       0.054388
 **** Fit       0.049986
 **** Fit       0.007842
 **** Fit       0.022845
 **** Fit      -0.016599
 **** Fit      -0.013058
 **** Fit      -0.001092
 **** Fit      -0.000252
 **** Fit      -0.002511
 **** Fit      -0.002026
 **** Fit      -0.000607
 **** Fit       0.000081
 **** Fit       0.000475
 **** Fit      -0.004266
 **** Fit      -0.003038
 **** Fit       0.001078
 **** Fit       0.000917
 **** Fit       0.001074
 **** Fit       0.000497
 **** Fit      -0.005853
 **** Fit      -0.004121
 **** Fit       0.001726
 **** Fit       0.001463
 **** Fit       0.001537
 **** Fit       0.001062
 **** Fit      -0.008581
 **** Fit      -0.006423
 **** Fit       0.002362
 **** Fit       0.002135
 **** Fit       0.001880
 **** Fit       0.001866
 **** Fit       0.001468
 **** Fit      -0.013192
 **** Fit      -0.010553
 **** Fit      -0.007850
 **** Fit       0.002781
 **** Fit       0.002567
 **** Fit       0.002381
 **** Fit       0.002163
 **** Fit       0.002075
 **** Fit       0.001694
 **** Fit       0.001200
 **** Fit      -0.016661
 **** Fit      -0.012882
 **** Fit      -0.009514
 **** Fit      -0.006595
 **** Fit       0.002837
 **** Fit       0.002683
 **** Fit       0.002542
 **** Fit       0.002353
 **** Fit       0.002186
 **** Fit       0.001810
 **** Fit       0.001319
 **** Fit      -0.015331
 **** Fit      -0.011401
 **** Fit      -0.008224
 **** Fit       0.002901
 **** Fit       0.002762
 **** Fit       0.002690
 **** Fit       0.002606
 **** Fit       0.002449
 **** Fit       0.002226
 **** Fit       0.001834
 **** Fit       0.001316
 **** Fit       0.000657
 **** Fit      -0.015642
 **** Fit      -0.011853
 **** Fit       0.002764
 **** Fit       0.002605
 **** Fit       0.002584
 **** Fit       0.002613
 **** Fit       0.002601
 **** Fit       0.002482
 **** Fit       0.001798
 **** Fit       0.001244
 **** Fit       0.000551
 **** Fit       0.002357
 **** Fit       0.002145
 **** Fit       0.002148
 **** Fit       0.000312
 **** Fit      -0.000624
 **** Fit       0.001682
 **** Fit       0.001306
 **** Fit      -0.001223
 **** Fit      -0.002589
 **** Fit       0.000969
 **** Fit       0.000121
 **** Fit      -0.000280
 **** Fit      -0.002058
 **** Fit      -0.003504
 **** Fit      -0.005512
 **** Fit      -0.008531
 **** Fit       0.000281
 **** Fit      -0.001374
 **** Fit      -0.002499
 **** Fit      -0.004790
 **** Fit      -0.006779
 **** Fit      -0.009635
 **** Fit      -0.000103
 **** Fit      -0.007105
 **** Fit      -0.009285
 **** Fit      -0.012248
 **** Fit      -0.010679
 **** Fit      -0.013154
 **** Fit      -0.013029
 **** Fit       0.002390
 **** Fit       0.002441
 **** Fit       0.002526
 **** Fit       0.002529
 **** Fit       0.002308
 **** Fit       0.002046
 **** Fit       0.001575
 **** Fit       0.001734
 **** Fit       0.001916
 **** Fit       0.002135
 **** Fit       0.002311
 **** Fit       0.002385
 **** Fit       0.002076
 **** Fit       0.001872
 **** Fit       0.001432
 **** Fit       0.000726
 **** Fit       0.000600
 **** Fit       0.000854
 **** Fit       0.001218
 **** Fit       0.001591
 **** Fit       0.001896
 **** Fit       0.002073
 **** Fit       0.001594
 **** Fit       0.001471
 **** Fit       0.001092
 **** Fit       0.000429
 **** Fit      -0.000560
 **** Fit      -0.001324
 **** Fit      -0.000998
 **** Fit      -0.000468
 **** Fit       0.000135
 **** Fit       0.000709
 **** Fit       0.001178
 **** Fit       0.001487
 **** Fit       0.000745
 **** Fit       0.000721
 **** Fit       0.000400
 **** Fit      -0.000239
 **** Fit      -0.001232
 **** Fit      -0.002632
 **** Fit      -0.004317
 **** Fit      -0.003548
 **** Fit      -0.002593
 **** Fit      -0.001616
 **** Fit      -0.000729
 **** Fit      -0.000010
 **** Fit       0.000493
 **** Fit      -0.000615
 **** Fit      -0.000512
 **** Fit      -0.000804
 **** Fit      -0.001505
 **** Fit      -0.002641
 **** Fit      -0.004245
 **** Fit      -0.006297
 **** Fit      -0.004599
 **** Fit      -0.003121
 **** Fit      -0.001940
 **** Fit      -0.001096
 **** Fit      -0.002666
 **** Fit      -0.002375
 **** Fit      -0.002654
 **** Fit      -0.003508
 **** Fit      -0.004941
 **** Fit      -0.006939
 **** Fit      -0.006981
 **** Fit      -0.004960
 **** Fit      -0.003525
 **** Fit      -0.005649
 **** Fit      -0.005056
 **** Fit      -0.005300
 **** Fit      -0.006364
 **** Fit      -0.008214
 **** Fit      -0.010732
 **** Fit      -0.007115
 **** Fit      -0.009895
 **** Fit      -0.008753
 **** Fit      -0.009016
 **** Fit      -0.010592
 **** Fit      -0.013306
 **** Fit      -0.013799
 **** Fit      -0.002941
 **** Fit      -0.001713
 **** Fit      -0.003245
 **** Fit      -0.004804
 **** Fit      -0.004418
 **** Fit      -0.002674
 **** Fit      -0.001498
 **** Fit      -0.000713
 **** Fit      -0.001845
 **** Fit      -0.003637
 **** Fit      -0.005743
 **** Fit      -0.007295
 **** Fit      -0.007442
 **** Fit      -0.006184
 **** Fit      -0.000227
 **** Fit       0.000072
 **** Fit      -0.000815
 **** Fit      -0.002201
 **** Fit      -0.004153
 **** Fit      -0.006553
 **** Fit      -0.008970
 **** Fit      -0.010706
 **** Fit      -0.011145
 **** Fit      -0.010195
 **** Fit      -0.008301
 **** Fit       0.000578
 **** Fit       0.000649
 **** Fit      -0.000117
 **** Fit      -0.001271
 **** Fit      -0.002949
 **** Fit      -0.005247
 **** Fit      -0.008120
 **** Fit      -0.011280
 **** Fit      -0.014131
 **** Fit      -0.015908
 **** Fit      -0.016075
 **** Fit      -0.014677
 **** Fit      -0.012259
 **** Fit       0.001021
 **** Fit       0.000321
 **** Fit      -0.000695
 **** Fit      -0.002185
 **** Fit      -0.004314
 **** Fit      -0.007207
 **** Fit      -0.010870
 **** Fit      -0.015064
 **** Fit      -0.019190
 **** Fit       0.000543
 **** Fit      -0.000350
 **** Fit      -0.001641
 **** Fit      -0.003512
 **** Fit      -0.006160
 **** Fit      -0.009763
 **** Fit      -0.014402
 **** Fit       0.000500
 **** Fit      -0.000370
 **** Fit      -0.001621
 **** Fit      -0.003467
 **** Fit      -0.006164
 **** Fit      -0.010009
 **** Fit      -0.015290
 **** Fit      -0.000624
 **** Fit      -0.001827
 **** Fit      -0.003602
 **** Fit      -0.006241
 **** Fit      -0.010121
 **** Fit      -0.015703
 **** Fit      -0.002431
 **** Fit      -0.004230
 **** Fit      -0.006940
 **** Fit      -0.011024
 **** Fit      -0.005691
 **** Fit      -0.008875
 **** Fit      -0.011932
 **** Fit       0.000402
 **** Fit       0.000910
 **** Fit      -0.000906
 **** Fit      -0.000123
 **** Fit       0.001050
 **** Fit       0.001443
 **** Fit      -0.001981
 **** Fit      -0.000669
 **** Fit       0.000669
 **** Fit       0.001661
 **** Fit       0.002193
 **** Fit       0.002270
 **** Fit       0.001978
 **** Fit      -0.002846
 **** Fit      -0.001255
 **** Fit       0.000190
 **** Fit       0.001341
 **** Fit       0.002185
 **** Fit       0.002723
 **** Fit       0.002953
 **** Fit       0.002913
 **** Fit       0.002678
 **** Fit       0.002321
 **** Fit      -0.004788
 **** Fit      -0.002842
 **** Fit      -0.001084
 **** Fit       0.000348
 **** Fit       0.001468
 **** Fit       0.002340
 **** Fit       0.002980
 **** Fit       0.003369
 **** Fit       0.003501
 **** Fit       0.003417
 **** Fit       0.003191
 **** Fit       0.002903
 **** Fit      -0.006200
 **** Fit      -0.003850
 **** Fit      -0.001845
 **** Fit      -0.000259
 **** Fit       0.000974
 **** Fit       0.001982
 **** Fit       0.002812
 **** Fit       0.003434
 **** Fit       0.003805
 **** Fit       0.003916
 **** Fit       0.003808
 **** Fit       0.003561
 **** Fit       0.003267
 **** Fit      -0.005238
 **** Fit      -0.003042
 **** Fit      -0.001303
 **** Fit       0.000061
 **** Fit       0.001225
 **** Fit       0.002261
 **** Fit       0.003134
 **** Fit       0.003775
 **** Fit       0.004138
 **** Fit       0.004221
 **** Fit       0.004071
 **** Fit       0.003774
 **** Fit       0.003431
 **** Fit       0.003134
 **** Fit       0.000172
 **** Fit       0.001552
 **** Fit       0.002749
 **** Fit       0.003667
 **** Fit       0.004238
 **** Fit       0.004443
 **** Fit       0.004323
 **** Fit       0.003974
 **** Fit       0.003522
 **** Fit       0.003097
 **** Fit       0.000378
 **** Fit       0.002030
 **** Fit       0.003326
 **** Fit       0.004184
 **** Fit       0.004566
 **** Fit       0.004505
 **** Fit       0.004101
 **** Fit       0.003503
 **** Fit       0.002881
 **** Fit      -0.002227
 **** Fit       0.000194
 **** Fit       0.002192
 **** Fit       0.003649
 **** Fit       0.004478
 **** Fit       0.004665
 **** Fit       0.004294
 **** Fit       0.003537
 **** Fit       0.002618
 **** Fit      -0.001852
 **** Fit       0.001023
 **** Fit       0.003164
 **** Fit       0.004396
 **** Fit       0.004653
 **** Fit       0.004039
 **** Fit       0.002829
 **** Fit       0.001387
 **** Fit      -0.002187
 **** Fit       0.001347
 **** Fit       0.003669
 **** Fit       0.004485
 **** Fit       0.003794
 **** Fit       0.001972
 **** Fit       0.001731
 **** Fit       0.029861
 **** Fit       0.023136
 **** Fit       0.014497
 **** Fit       0.003700
 **** Fit      -0.009088
 **** Fit      -0.024099
 **** Fit       0.029396
 **** Fit       0.021402
 **** Fit       0.011930
 **** Fit      -0.000248
 **** Fit      -0.015440
 **** Fit       0.028179
 **** Fit       0.018705
 **** Fit       0.007940
 **** Fit      -0.006313
 **** Fit       0.026387
 **** Fit       0.015245
 **** Fit       0.002070
 **** Fit       0.024538
 **** Fit       0.011244
 **** Fit      -0.005059
 **** Fit       0.017420
 **** Fit       0.022430
 **** Fit       0.006975
 **** Fit      -0.000694
 **** Fit       0.016745
 **** Fit       0.018518
 **** Fit       0.002826
 **** Fit       0.033303
 **** Fit       0.035328
 **** Fit       0.031873
 **** Fit       0.043346
 **** Fit       0.038096
 **** Fit       0.033692
 **** Fit       0.030539
 **** Fit       0.028527
 **** Fit       0.052994
 **** Fit       0.051428
 **** Fit       0.050403
 **** Fit       0.044488
 **** Fit       0.040387
 **** Fit       0.036050
 **** Fit       0.032464
 **** Fit       0.030022
 **** Fit       0.028818
 **** Fit       0.029110
 **** Fit       0.052133
 **** Fit       0.050273
 **** Fit       0.049035
 **** Fit       0.048308
 **** Fit       0.047172
 **** Fit       0.042339
 **** Fit       0.038605
 **** Fit       0.035060
 **** Fit       0.032729
 **** Fit       0.032274
 **** Fit       0.049239
 **** Fit       0.047222
 **** Fit       0.045209
 **** Fit       0.041859
 **** Fit       0.038491
 **** Fit       0.036470
 **** Fit       0.045114
 **** Fit       0.042992
 **** Fit       0.032540
 **** Fit       0.036198
 **** Fit       0.035980
 **** Fit       0.036255
 **** Fit       0.039219
 **** Fit       0.039322
 **** Fit       0.039347
 **** Fit       0.039466
 **** Fit       0.040002
 **** Fit       0.042616
 **** Fit       0.042363
 **** Fit       0.042261
 **** Fit       0.042269
 **** Fit       0.042456
 **** Fit       0.049475
 **** Fit       0.047060
 **** Fit       0.045812
 **** Fit       0.045156
 **** Fit       0.044785
 **** Fit       0.044537
 **** Fit       0.044274
 **** Fit       0.053194
 **** Fit       0.050209
 **** Fit       0.048490
 **** Fit       0.047462
 **** Fit       0.046756
 **** Fit       0.046096
 **** Fit       0.054615
 **** Fit       0.051674
 **** Fit       0.049896
 **** Fit       0.048709
 **** Fit       0.047728
 **** Fit       0.054908
 **** Fit       0.052269
 **** Fit       0.050611
 **** Fit       0.049517
 **** Fit       0.049021
 **** Fit       0.052799
 **** Fit       0.051418
 **** Fit       0.050738
 **** Fit       0.050460
 **** Fit       0.052056
 **** Fit       0.052652
 **** Fit       0.052227
 **** Fit       0.053337
 **** Fit       0.055399
 **** Fit       0.055818
 **** Fit       0.053557
 **** Fit       0.053079
 **** Fit       0.053707
 **** Fit       0.054897
 **** Fit       0.029216
 **** Fit       0.029692
 **** Fit       0.054533
 **** Fit       0.053283
 **** Fit       0.053133
 **** Fit       0.053514
 **** Fit       0.053895
 **** Fit       0.031837
 **** Fit       0.031387
 **** Fit       0.033019
 **** Fit       0.054722
 **** Fit       0.053124
 **** Fit       0.052440
 **** Fit       0.052211
 **** Fit       0.051949
 **** Fit       0.051249
 **** Fit       0.036000
 **** Fit       0.034842
 **** Fit       0.035472
 **** Fit       0.038495
 **** Fit       0.054326
 **** Fit       0.052784
 **** Fit       0.051682
 **** Fit       0.050962
 **** Fit       0.050200
 **** Fit       0.048966
 **** Fit       0.046975
 **** Fit       0.044171
 **** Fit       0.041221
 **** Fit       0.039045
 **** Fit       0.038761
 **** Fit       0.041222
 **** Fit       0.045787
 **** Fit       0.049881
 **** Fit       0.051323
 **** Fit       0.050832
 **** Fit       0.049868
 **** Fit       0.048675
 **** Fit       0.046837
 **** Fit       0.044536
 **** Fit       0.042299
 **** Fit       0.043525
 **** Fit       0.047138
 **** Fit       0.048347
 **** Fit       0.047136
 **** Fit       0.045459
 -----------------------------------------------------------------
 Leave Link  602 at Wed Sep 18 17:38:24 2019, MaxMem=  1342177280 cpu:             113.3 elap:               2.4

 Test job not archived.
 1\1\GINC-C503-124\SP\RB3LYP\SVP\C54H83Ca1N15O23\JAEBEOMH\18-Sep-2019\0
 \\#b3lyp/svp scf=(tight,noincore) Test #IOP(5/87=12) Density=Current P
 op=(MK,readradii) iop(6/33=2) iop(6/42=6)\\holoCaM_loop3_35.0\\0,1\C,0
 ,38.57,43.05,24.6\C,0,39.12,41.96,25.51\O,0,38.74,41.94,26.68\H,0,37.6
 6,43.462,25.036\H,0,39.311,43.842,24.492\H,0,38.344,42.627,23.621\N,0,
 39.97,41.04,25.04\C,0,40.65,40.01,25.79\C,0,41.58,40.63,26.82\O,0,42.7
 9,40.77,26.66\C,0,41.3,38.93,24.92\C,0,41.71,37.7,25.71\O,0,41.36,37.5
 4,26.9\O,0,42.41,36.86,25.1\H,0,40.01,40.99,24.03\H,0,39.92,39.57,26.4
 7\H,0,42.17,39.28,24.37\H,0,40.53,38.68,24.19\N,0,41.08,41.02,27.99\C,
 0,41.77,41.83,28.98\C,0,43.09,41.26,29.48\O,0,44.,41.95,29.93\C,0,40.9
 4,42.02,30.24\C,0,39.75,42.98,30.22\C,0,39.31,43.38,31.63\C,0,38.19,44
 .41,31.55\N,0,37.73,44.92,32.86\H,0,40.08,40.93,28.08\H,0,41.99,42.82,
 28.58\H,0,41.51,42.32,31.12\H,0,40.54,41.02,30.43\H,0,38.91,42.57,29.6
 7\H,0,40.03,43.95,29.8\H,0,40.1,43.8,32.24\H,0,38.91,42.5,32.14\H,0,37
 .33,43.95,31.07\H,0,38.51,45.26,30.95\H,0,38.5,45.36,33.34\H,0,36.94,4
 5.56,32.84\H,0,37.48,44.17,33.48\N,0,43.14,39.93,29.43\C,0,44.27,39.18
 ,29.95\C,0,44.9,38.23,28.94\O,0,45.92,37.56,29.15\C,0,43.78,38.34,31.1
 2\C,0,42.55,37.46,30.96\O,0,42.2,36.7,31.89\O,0,41.85,37.63,29.94\H,0,
 42.38,39.38,29.04\H,0,45.05,39.87,30.26\H,0,43.58,39.09,31.88\H,0,44.6
 3,37.76,31.48\N,0,44.45,38.36,27.7\C,0,45.12,37.67,26.61\C,0,45.13,36.
 15,26.67\O,0,46.12,35.64,26.15\H,0,43.68,39.,27.53\H,0,46.14,38.05,26.
 46\H,0,44.6,37.98,25.7\N,0,44.13,35.45,27.21\C,0,44.08,34.,27.27\C,0,4
 3.48,33.23,26.1\O,0,43.39,32.01,26.\C,0,43.43,33.58,28.59\C,0,41.91,33
 .56,28.59\N,0,41.22,32.53,29.08\O,0,41.29,34.51,28.13\H,0,43.32,35.96,
 27.52\H,0,45.09,33.62,27.34\H,0,43.7,34.13,29.5\H,0,43.73,32.55,28.8\H
 ,0,41.66,31.74,29.53\H,0,40.21,32.63,29.06\N,0,43.04,34.,25.11\C,0,42.
 47,33.45,23.9\C,0,40.96,33.45,23.72\O,0,40.42,33.08,22.68\H,0,43.09,35
 .01,25.13\H,0,42.73,32.41,23.7\H,0,42.99,34.,23.11\N,0,40.25,33.98,24.
 73\C,0,38.81,34.05,24.72\C,0,38.25,35.33,25.34\O,0,38.8,35.94,26.25\C,
 0,38.2,32.86,25.47\C,0,38.84,31.54,25.13\C,0,39.79,31.04,26.03\C,0,38.
 68,30.93,23.88\C,0,40.48,29.85,25.75\C,0,39.47,29.82,23.54\C,0,40.38,2
 9.28,24.46\O,0,41.25,28.3,24.07\H,0,40.72,34.24,25.59\H,0,38.41,34.,23
 .71\H,0,37.14,32.88,25.25\H,0,38.26,33.05,26.54\H,0,40.02,31.52,26.97\
 H,0,37.89,31.29,23.23\H,0,41.24,29.41,26.37\H,0,39.33,29.31,22.6\H,0,4
 0.95,27.9,23.25\N,0,37.06,35.7,24.88\C,0,36.34,36.86,25.37\C,0,35.07,3
 6.4,26.07\O,0,34.22,35.74,25.48\C,0,36.17,37.84,24.21\C,0,37.52,38.42,
 23.81\C,0,35.13,38.94,24.38\C,0,37.71,39.26,22.55\H,0,36.62,35.1,24.18
 \H,0,36.94,37.4,26.1\H,0,35.93,37.24,23.33\H,0,38.19,37.56,23.75\H,0,3
 7.84,39.02,24.67\H,0,34.92,39.53,23.48\H,0,34.23,38.4,24.69\H,0,35.55,
 39.54,25.18\H,0,37.33,38.69,21.7\H,0,37.01,40.08,22.7\H,0,38.72,39.63,
 22.39\N,0,35.,36.9,27.31\C,0,33.91,36.73,28.24\C,0,32.88,37.85,28.17\O
 ,0,33.24,38.98,27.83\C,0,34.57,36.59,29.61\O,0,33.65,35.97,30.48\H,0,3
 5.78,37.5,27.56\H,0,33.33,35.85,27.95\H,0,34.84,37.53,30.09\H,0,35.52,
 36.08,29.41\H,0,34.08,35.97,31.34\N,0,31.64,37.63,28.6\C,0,30.62,38.67
 ,28.63\C,0,31.02,39.94,29.37\O,0,30.8,41.03,28.84\C,0,29.37,38.13,29.3
 1\H,0,31.39,36.71,28.93\H,0,30.47,38.97,27.59\H,0,29.14,37.12,28.98\H,
 0,29.6,38.04,30.37\H,0,28.58,38.81,28.98\N,0,31.74,39.88,30.49\C,0,32.
 1,41.01,31.32\C,0,33.24,41.79,30.69\O,0,33.44,42.95,31.05\C,0,32.4,40.
 57,32.76\H,0,31.72,38.99,30.97\H,0,31.23,41.65,31.45\H,0,31.46,40.22,3
 3.19\H,0,33.13,39.77,32.71\H,0,32.77,41.35,33.43\N,0,34.02,41.19,29.79
 \C,0,35.02,41.87,29.\C,0,34.46,42.61,27.79\O,0,35.09,43.54,27.3\C,0,36
 .16,40.99,28.49\C,0,36.84,40.22,29.61\C,0,37.84,39.23,29.04\O,0,37.46,
 38.32,28.27\O,0,39.05,39.28,29.36\H,0,33.89,40.23,29.51\H,0,35.46,42.7
 ,29.55\H,0,36.8,41.66,27.92\H,0,35.77,40.24,27.8\H,0,36.21,39.76,30.37
 \H,0,37.44,40.93,30.19\N,0,33.29,42.21,27.29\C,0,32.46,43.06,26.47\H,0
 ,31.557,43.325,27.02\H,0,33.008,43.966,26.214\H,0,32.186,42.53,25.558\
 H,0,32.88,41.35,27.63\Ca,0,39.77,36.73,28.65\O,0,37.85,34.91,28.99\H,0
 ,37.02,34.62,28.61\H,0,38.25,34.11,29.33\\Version=ES64L-G16RevA.03\Sta
 te=1-A\HF=-5333.6018122\RMSD=2.770e-09\Dipole=-13.1128445,5.1820864,7.
 9563584\Quadrupole=-124.0890269,75.5986505,48.4903765,21.1694425,-45.0
 667611,66.4275529\PG=C01 [X(C54H83Ca1N15O23)]\\@


 ON A CLEAR DISK YOU CAN SEEK FOREVER.
 Job cpu time:       0 days  9 hours 10 minutes 36.3 seconds.
 Elapsed time:       0 days  0 hours 11 minutes 36.4 seconds.
 File lengths (MBytes):  RWF=   1517 Int=      0 D2E=      0 Chk=    171 Scr=      1
 Normal termination of Gaussian 16 at Wed Sep 18 17:38:26 2019.
