 Entering Gaussian System, Link 0=g16
 Initial command:
 /home1/apps/gaussian/16rA.03/g16/l1.exe "/scratch/04905/jaebeomh/4357459/Gau-296957.inp" -scrdir="/scratch/04905/jaebeomh/4357459/"
 Entering Link 1 = /home1/apps/gaussian/16rA.03/g16/l1.exe PID=    296958.
  
 Copyright (c) 1988,1990,1992,1993,1995,1998,2003,2009,2016,
            Gaussian, Inc.  All Rights Reserved.
  
 This is part of the Gaussian(R) 16 program.  It is based on
 the Gaussian(R) 09 system (copyright 2009, Gaussian, Inc.),
 the Gaussian(R) 03 system (copyright 2003, Gaussian, Inc.),
 the Gaussian(R) 98 system (copyright 1998, Gaussian, Inc.),
 the Gaussian(R) 94 system (copyright 1995, Gaussian, Inc.),
 the Gaussian 92(TM) system (copyright 1992, Gaussian, Inc.),
 the Gaussian 90(TM) system (copyright 1990, Gaussian, Inc.),
 the Gaussian 88(TM) system (copyright 1988, Gaussian, Inc.),
 the Gaussian 86(TM) system (copyright 1986, Carnegie Mellon
 University), and the Gaussian 82(TM) system (copyright 1983,
 Carnegie Mellon University). Gaussian is a federally registered
 trademark of Gaussian, Inc.
  
 This software contains proprietary and confidential information,
 including trade secrets, belonging to Gaussian, Inc.
  
 This software is provided under written license and may be
 used, copied, transmitted, or stored only in accord with that
 written license.
  
 The following legend is applicable only to US Government
 contracts under FAR:
  
                    RESTRICTED RIGHTS LEGEND
  
 Use, reproduction and disclosure by the US Government is
 subject to restrictions as set forth in subparagraphs (a)
 and (c) of the Commercial Computer Software - Restricted
 Rights clause in FAR 52.227-19.
  
 Gaussian, Inc.
 340 Quinnipiac St., Bldg. 40, Wallingford CT 06492
  
  
 ---------------------------------------------------------------
 Warning -- This program may not be used in any manner that
 competes with the business of Gaussian, Inc. or will provide
 assistance to any competitor of Gaussian, Inc.  The licensee
 of this program is prohibited from giving any competitor of
 Gaussian, Inc. access to this program.  By using this program,
 the user acknowledges that Gaussian, Inc. is engaged in the
 business of creating and licensing software in the field of
 computational chemistry and represents and warrants to the
 licensee that it is not a competitor of Gaussian, Inc. and that
 it will not use this program in any manner prohibited above.
 ---------------------------------------------------------------
  

 Cite this work as:
 Gaussian 16, Revision A.03,
 M. J. Frisch, G. W. Trucks, H. B. Schlegel, G. E. Scuseria, 
 M. A. Robb, J. R. Cheeseman, G. Scalmani, V. Barone, 
 G. A. Petersson, H. Nakatsuji, X. Li, M. Caricato, A. V. Marenich, 
 J. Bloino, B. G. Janesko, R. Gomperts, B. Mennucci, H. P. Hratchian, 
 J. V. Ortiz, A. F. Izmaylov, J. L. Sonnenberg, D. Williams-Young, 
 F. Ding, F. Lipparini, F. Egidi, J. Goings, B. Peng, A. Petrone, 
 T. Henderson, D. Ranasinghe, V. G. Zakrzewski, J. Gao, N. Rega, 
 G. Zheng, W. Liang, M. Hada, M. Ehara, K. Toyota, R. Fukuda, 
 J. Hasegawa, M. Ishida, T. Nakajima, Y. Honda, O. Kitao, H. Nakai, 
 T. Vreven, K. Throssell, J. A. Montgomery, Jr., J. E. Peralta, 
 F. Ogliaro, M. J. Bearpark, J. J. Heyd, E. N. Brothers, K. N. Kudin, 
 V. N. Staroverov, T. A. Keith, R. Kobayashi, J. Normand, 
 K. Raghavachari, A. P. Rendell, J. C. Burant, S. S. Iyengar, 
 J. Tomasi, M. Cossi, J. M. Millam, M. Klene, C. Adamo, R. Cammi, 
 J. W. Ochterski, R. L. Martin, K. Morokuma, O. Farkas, 
 J. B. Foresman, and D. J. Fox, Gaussian, Inc., Wallingford CT, 2016.
 
 ******************************************
 Gaussian 16:  ES64L-G16RevA.03 25-Dec-2016
                18-Sep-2019 
 ******************************************
 %chk=holoCaM_loop3_43.0.chk
 %nprocshared=48
 Will use up to   48 processors via shared memory.
 %mem=10GB
 %nosave
 ----------------------------------------------------------------------
 #b3lyp/svp scf=(tight,noincore) Test #IOP(5/87=12) Density=Current Pop
 =(MK,readradii) iop(6/33=2) iop(6/42=6)
 ----------------------------------------------------------------------
 1/30=1,38=1,172=1/1;
 2/12=2,17=6,18=5,40=1/2;
 3/5=18,7=101,11=2,25=1,30=1,74=-5/1,2,3;
 4//1;
 5/5=4,32=2,38=5,87=12/2;
 6/7=2,8=2,9=2,10=2,15=8,20=101,22=-1,28=1,33=2,42=6/1,2;
 99/5=1,9=1/99;
 ------------------
 holoCaM_loop3_43.0
 ------------------
 Symbolic Z-matrix:
 Charge =  0 Multiplicity = 1
 C                     85.86     32.96     26.37 
 C                     87.35     32.62     26.47 
 O                     87.66     31.51     26.88 
 H                     85.311    32.414    27.137 
 H                     85.72     34.031    26.517 
 H                     85.487    32.676    25.386 
 N                     88.23     33.58     26.15 
 C                     89.67     33.54     26.19 
 C                     89.94     33.95     27.63 
 O                     89.65     35.09     27.99 
 C                     90.32     34.55     25.24 
 C                     91.83     34.75     25.27 
 O                     92.32     35.75     24.71 
 O                     92.53     33.99     25.97 
 H                     87.82     34.35     25.65 
 H                     90.12     32.57     25.96 
 H                     89.76     35.48     25.33 
 H                     90.04     34.14     24.26 
 N                     90.45     33.1      28.52 
 C                     90.39     33.44     29.93 
 C                     91.54     34.3      30.44 
 O                     91.55     34.74     31.59 
 C                     90.24     32.21     30.82 
 C                     88.98     31.4      30.57 
 C                     87.63     32.12     30.61 
 C                     86.51     31.24     30.07 
 N                     85.26     32.02     30.01 
 H                     90.78     32.18     28.28 
 H                     89.53     34.07     30.17 
 H                     90.23     32.54     31.86 
 H                     91.12     31.58     30.7 
 H                     88.91     30.58     31.29 
 H                     89.09     30.92     29.61 
 H                     87.66     32.98     29.94 
 H                     87.51     32.42     31.65 
 H                     86.43     30.44     30.8 
 H                     86.79     30.66     29.19 
 H                     84.86     32.27     30.9 
 H                     85.41     32.87     29.48 
 H                     84.63     31.34     29.63 
 N                     92.36     34.78     29.5 
 C                     93.46     35.69     29.76 
 C                     93.79     36.8      28.77 
 O                     94.87     37.38     28.65 
 C                     94.71     34.94     30.22 
 C                     95.26     33.89     29.26 
 O                     94.47     33.24     28.55 
 O                     96.49     33.81     29.05 
 H                     92.31     34.35     28.59 
 H                     93.15     36.24     30.64 
 H                     94.55     34.35     31.13 
 H                     95.48     35.66     30.49 
 N                     92.9      36.97     27.8 
 C                     93.04     37.99     26.78 
 C                     94.28     37.97     25.91 
 O                     94.67     39.03     25.44 
 H                     92.01     36.49     27.86 
 H                     92.97     38.95     27.29 
 H                     92.22     37.89     26.07 
 N                     95.01     36.85     25.88 
 C                     96.26     36.7      25.16 
 C                     96.03     36.38     23.69 
 O                     96.98     36.3      22.92 
 C                     97.1      35.61     25.81 
 C                     96.73     34.19     25.41 
 N                     97.63     33.37     24.86 
 O                     95.56     33.81     25.51 
 H                     94.66     36.       26.29 
 H                     96.81     37.64     25.29 
 H                     97.05     35.67     26.9 
 H                     98.16     35.66     25.55 
 H                     98.59     33.67     24.92 
 H                     97.3      32.47     24.52 
 N                     94.79     36.18     23.22 
 C                     94.38     36.18     21.83 
 C                     94.21     34.82     21.17 
 O                     94.03     34.62     19.97 
 H                     94.       36.16     23.85 
 H                     95.2      36.68     21.31 
 H                     93.43     36.7      21.69 
 N                     94.21     33.76     21.98 
 C                     94.12     32.35     21.66 
 C                     93.2      31.7      22.68 
 O                     93.1      32.04     23.86 
 C                     95.51     31.72     21.75 
 C                     96.57     32.26     20.82 
 C                     97.35     33.32     21.3 
 C                     96.64     31.78     19.51 
 C                     98.37     33.85     20.5 
 C                     97.64     32.36     18.73 
 C                     98.52     33.36     19.19 
 O                     99.5      33.93     18.43 
 H                     94.31     34.08     22.93 
 H                     93.65     32.25     20.69 
 H                     95.52     30.64     21.63 
 H                     95.75     31.91     22.79 
 H                     97.25     33.69     22.31 
 H                     95.96     31.02     19.15 
 H                     98.95     34.72     20.79 
 H                     97.81     32.05     17.71 
 H                     99.41     33.66     17.51 
 N                     92.41     30.72     22.24 
 C                     91.66     29.81     23.09 
 C                     92.23     28.41     22.97 
 O                     92.64     28.01     21.88 
 C                     90.17     29.97     22.79 
 C                     89.64     31.36     23.15 
 C                     89.33     28.88     23.45 
 C                     88.15     31.56     22.93 
 H                     92.38     30.58     21.24 
 H                     91.89     30.08     24.12 
 H                     90.11     29.87     21.7 
 H                     90.25     32.15     22.72 
 H                     89.82     31.42     24.23 
 H                     89.64     27.88     23.17 
 H                     89.32     29.09     24.52 
 H                     88.35     28.94     22.97 
 H                     87.85     30.94     22.08 
 H                     87.57     31.28     23.81 
 H                     87.94     32.63     22.97 
 N                     92.19     27.7      24.1 
 C                     92.71     26.38     24.37 
 C                     91.74     25.34     24.9 
 O                     90.69     25.77     25.38 
 C                     93.85     26.48     25.39 
 O                     93.39     26.97     26.63 
 H                     91.78     28.14     24.91 
 H                     93.07     26.1      23.38 
 H                     94.68     27.12     25.07 
 H                     94.21     25.47     25.55 
 H                     93.56     27.91     26.58 
 N                     91.95     24.02     24.79 
 C                     91.06     22.98     25.27 
 C                     90.61     23.1      26.72 
 O                     89.49     22.78     27.11 
 C                     91.7      21.61     25.09 
 H                     92.73     23.74     24.22 
 H                     90.17     23.       24.64 
 H                     91.04     20.87     25.52 
 H                     91.73     21.47     24. 
 H                     92.61     21.63     25.69 
 N                     91.47     23.55     27.64 
 C                     90.95     23.84     28.96 
 C                     89.96     25.       28.95 
 O                     88.97     25.02     29.67 
 C                     92.15     24.27     29.81 
 H                     92.34     23.99     27.37 
 H                     90.55     22.95     29.44 
 H                     92.47     25.23     29.42 
 H                     91.9      24.34     30.87 
 H                     92.91     23.49     29.86 
 N                     90.29     26.03     28.17 
 C                     89.34     27.13     28.08 
 C                     88.05     26.83     27.34 
 O                     86.98     27.26     27.78 
 C                     90.02     28.35     27.47 
 C                     91.27     28.81     28.21 
 C                     92.08     29.84     27.44 
 O                     91.82     31.06     27.56 
 O                     93.       29.58     26.64 
 H                     91.07     25.99     27.53 
 H                     89.15     27.35     29.13 
 H                     89.31     29.18     27.39 
 H                     90.37     28.04     26.48 
 H                     91.94     27.99     28.48 
 H                     90.95     29.28     29.14 
 N                     88.09     25.81     26.47 
 C                     86.88     25.32     25.85 
 H                     86.114    26.094    25.888 
 H                     87.083    25.061    24.811 
 H                     86.53     24.436    26.383 
 H                     89.       25.41     26.31 
 Ca                    94.04     32.05     26.45 
 O                     95.39     30.34     24.95 
 H                     95.31     29.89     24.11 
 H                     95.88     29.73     25.5 
 
 Stoichiometry    C54H83CaN15O23
 Framework group  C1[X(C54H83CaN15O23)]
 Deg. of freedom   522
 Full point group                 C1      NOp   1
 Largest Abelian subgroup         C1      NOp   1
 Largest concise Abelian subgroup C1      NOp   1
                         Standard orientation:                         
 ---------------------------------------------------------------------
 Center     Atomic      Atomic             Coordinates (Angstroms)
 Number     Number       Type             X           Y           Z
 ---------------------------------------------------------------------
      1          6           0        2.164649    4.088806    4.801486
      2          6           0        1.702886    3.324977    3.556882
      3          8           0        2.558924    2.886731    2.800946
      4          1           0        3.110563    4.587525    4.590934
      5          1           0        1.414888    4.832552    5.071578
      6          1           0        2.299068    3.390959    5.627914
      7          7           0        0.382904    3.225916    3.341862
      8          6           0       -0.312785    2.602309    2.244623
      9          6           0       -0.363283    3.741380    1.237366
     10          8           0       -1.029700    4.741324    1.500615
     11          6           0       -1.738351    2.177405    2.608376
     12          6           0       -2.666619    1.645140    1.523934
     13          8           0       -3.888426    1.565702    1.757552
     14          8           0       -2.208990    1.433227    0.382326
     15          1           0       -0.173537    3.460139    4.145922
     16          1           0        0.172075    1.717376    1.822599
     17          1           0       -2.175173    2.988212    3.190079
     18          1           0       -1.548835    1.373861    3.333151
     19          7           0        0.319876    3.701032    0.094402
     20          6           0        0.486642    4.925394   -0.667454
     21          6           0       -0.649734    5.251710   -1.628895
     22          8           0       -0.675309    6.312073   -2.254335
     23          6           0        1.815506    4.969614   -1.415561
     24          6           0        3.043696    4.905576   -0.524691
     25          6           0        3.167584    5.913433    0.620463
     26          6           0        4.295962    5.541610    1.573830
     27          7           0        4.290954    6.465971    2.722757
     28          1           0        0.823102    2.888390   -0.220680
     29          1           0        0.489707    5.814104   -0.031620
     30          1           0        1.856975    5.900332   -1.983579
     31          1           0        1.837094    4.158528   -2.141766
     32          1           0        3.951063    5.013098   -1.125377
     33          1           0        3.095221    3.907884   -0.117193
     34          1           0        2.263028    5.880964    1.228842
     35          1           0        3.289765    6.876191    0.126329
     36          1           0        5.195233    5.671479    0.979065
     37          1           0        4.364170    4.473194    1.781279
     38          1           0        4.553650    7.416497    2.517597
     39          1           0        3.373582    6.476329    3.151967
     40          1           0        5.052797    6.102332    3.262259
     41          7           0       -1.731919    4.474194   -1.525245
     42          6           0       -2.955733    4.669363   -2.280155
     43          6           0       -4.309297    4.409693   -1.630897
     44          8           0       -5.367079    4.162409   -2.211541
     45          6           0       -2.858520    4.049106   -3.673866
     46          6           0       -2.572916    2.551780   -3.729048
     47          8           0       -1.849155    2.036828   -2.856298
     48          8           0       -3.201220    1.818670   -4.523519
     49          1           0       -1.624020    3.609510   -1.019103
     50          1           0       -2.984318    5.734771   -2.472738
     51          1           0       -2.035271    4.456658   -4.272165
     52          1           0       -3.756571    4.293758   -4.237648
     53          7           0       -4.271705    4.192842   -0.321904
     54          6           0       -5.463769    3.946362    0.464627
     55          6           0       -6.337730    2.766051    0.093198
     56          8           0       -7.530409    2.827515    0.358413
     57          1           0       -3.409688    4.367530    0.180602
     58          1           0       -6.054240    4.860999    0.427452
     59          1           0       -5.168528    3.740654    1.492740
     60          7           0       -5.817403    1.821670   -0.697754
     61          6           0       -6.547914    0.674973   -1.202570
     62          6           0       -6.599335   -0.454766   -0.184117
     63          8           0       -7.246812   -1.468340   -0.419149
     64          6           0       -5.910387    0.188071   -2.495894
     65          6           0       -4.690620   -0.702263   -2.314857
     66          7           0       -4.651098   -1.933949   -2.830886
     67          8           0       -3.753862   -0.322274   -1.606766
     68          1           0       -4.832232    1.812546   -0.903800
     69          1           0       -7.551286    1.033665   -1.462539
     70          1           0       -5.615892    1.026949   -3.131313
     71          1           0       -6.570856   -0.436568   -3.101952
     72          1           0       -5.368856   -2.149825   -3.504252
     73          1           0       -3.854128   -2.518664   -2.591203
     74          7           0       -5.937807   -0.357536    0.978392
     75          6           0       -6.131779   -1.178548    2.156744
     76          6           0       -5.138837   -2.311370    2.368601
     77          8           0       -5.234214   -3.204042    3.209100
     78          1           0       -5.332542    0.431323    1.159380
     79          1           0       -7.107866   -1.642948    2.000584
     80          1           0       -6.104300   -0.583184    3.071777
     81          7           0       -4.047515   -2.298934    1.601424
     82          6           0       -2.956350   -3.248962    1.527906
     83          6           0       -1.662304   -2.461567    1.406439
     84          8           0       -1.541934   -1.385253    0.819022
     85          6           0       -3.135589   -4.132306    0.293127
     86          6           0       -4.386562   -4.975466    0.227953
     87          6           0       -5.503058   -4.400975   -0.393173
     88          6           0       -4.416359   -6.207593    0.885505
     89          6           0       -6.687578   -5.138411   -0.513177
     90          6           0       -5.625143   -6.894950    0.779765
     91          6           0       -6.750393   -6.410969    0.082934
     92          8           0       -7.935012   -7.080551   -0.023076
     93          1           0       -4.080668   -1.486580    1.006544
     94          1           0       -2.916549   -3.795175    2.461644
     95          1           0       -2.303934   -4.804507    0.099748
     96          1           0       -3.109526   -3.386484   -0.493239
     97          1           0       -5.456380   -3.430890   -0.866201
     98          1           0       -3.558443   -6.577998    1.429913
     99          1           0       -7.603291   -4.715366   -0.913056
    100          1           0       -5.759113   -7.870600    1.221987
    101          1           0       -7.938621   -7.848771    0.557634
    102          7           0       -0.593601   -2.959812    2.029116
    103          6           0        0.773509   -2.509249    1.826374
    104          6           0        1.575821   -3.599066    1.142345
    105          8           0        1.370851   -4.778704    1.429817
    106          6           0        1.322348   -1.986303    3.153402
    107          6           0        0.577414   -0.746623    3.654268
    108          6           0        2.825671   -1.729994    3.093178
    109          6           0        1.117251   -0.144551    4.940574
    110          1           0       -0.756240   -3.741921    2.647464
    111          1           0        0.737226   -1.723177    1.073066
    112          1           0        1.116638   -2.798524    3.860282
    113          1           0       -0.498691   -0.898105    3.666571
    114          1           0        0.750865   -0.015708    2.855470
    115          1           0        3.392099   -2.605738    2.798677
    116          1           0        2.972728   -0.842283    2.477187
    117          1           0        3.140889   -1.613895    4.133158
    118          1           0        1.524377   -0.958806    5.547318
    119          1           0        1.897275    0.592301    4.746123
    120          1           0        0.373109    0.552297    5.329489
    121          7           0        2.498323   -3.150316    0.287820
    122          6           0        3.375254   -3.894404   -0.585693
    123          6           0        4.867154   -3.647808   -0.455982
    124          8           0        5.199088   -2.610760    0.120344
    125          6           0        3.005879   -3.605725   -2.045223
    126          8           0        3.207544   -2.247746   -2.368526
    127          1           0        2.589514   -2.150709    0.186474
    128          1           0        3.128213   -4.915545   -0.295278
    129          1           0        1.969865   -3.855158   -2.300872
    130          1           0        3.682759   -4.192010   -2.656290
    131          1           0        2.346960   -1.852154   -2.234731
    132          7           0        5.792710   -4.529639   -0.861348
    133          6           0        7.228967   -4.354085   -0.759149
    134          6           0        7.785260   -3.048508   -1.311785
    135          8           0        8.732312   -2.449356   -0.808784
    136          6           0        7.953649   -5.501610   -1.449745
    137          1           0        5.452187   -5.432433   -1.145437
    138          1           0        7.486588   -4.406932    0.299264
    139          1           0        9.015078   -5.301304   -1.413049
    140          1           0        7.733998   -6.374795   -0.818950
    141          1           0        7.644739   -5.457587   -2.494320
    142          7           0        7.248094   -2.520721   -2.416952
    143          6           0        7.665289   -1.186538   -2.794849
    144          6           0        7.234576   -0.135512   -1.777190
    145          8           0        7.936474    0.827291   -1.495676
    146          6           0        6.949261   -0.868865   -4.111582
    147          1           0        6.367515   -2.859357   -2.782065
    148          1           0        8.728800   -1.144900   -3.017807
    149          1           0        5.896533   -0.772980   -3.869360
    150          1           0        7.329677    0.041420   -4.578127
    151          1           0        7.203033   -1.585754   -4.892716
    152          7           0        6.006704   -0.287076   -1.279638
    153          6           0        5.580591    0.656534   -0.255613
    154          6           0        6.269932    0.527465    1.089694
    155          8           0        6.600497    1.544479    1.705980
    156          6           0        4.069072    0.576303   -0.077366
    157          6           0        3.271133    0.809036   -1.354405
    158          6           0        1.799632    0.454381   -1.217269
    159          8           0        0.983383    1.311479   -0.805542
    160          8           0        1.304119   -0.664553   -1.454868
    161          1           0        5.452093   -1.111054   -1.461481
    162          1           0        5.806208    1.614089   -0.723785
    163          1           0        3.740529    1.276609    0.697896
    164          1           0        3.851381   -0.456608    0.213159
    165          1           0        3.667448    0.268415   -2.217460
    166          1           0        3.326809    1.871750   -1.590497
    167          7           0        6.819463   -0.665489    1.361314
    168          6           0        7.655997   -0.845511    2.525961
    169          1           0        7.435762   -0.065874    3.254616
    170          1           0        7.458384   -1.821838    2.968164
    171          1           0        8.704410   -0.784393    2.234172
    172          1           0        6.628357   -1.394689    0.693897
    173         20           0       -1.278996    0.072806   -1.504063
    174          8           0       -1.028740   -2.519059   -1.969045
    175          1           0       -0.868915   -3.330975   -1.489724
    176          1           0       -0.627980   -2.666197   -2.824873
 ---------------------------------------------------------------------
 Rotational constants (GHZ):           0.0243388           0.0149274           0.0116017
 Standard basis: SVP (5D, 7F)
 There are  1809 symmetry adapted cartesian basis functions of A   symmetry.
 There are  1717 symmetry adapted basis functions of A   symmetry.
  1717 basis functions,  2922 primitive gaussians,  1809 cartesian basis functions
   358 alpha electrons      358 beta electrons
       nuclear repulsion energy     21815.0993776479 Hartrees.
 NAtoms=  176 NActive=  176 NUniq=  176 SFac= 1.00D+00 NAtFMM=   60 NAOKFM=T Big=T
 Integral buffers will be    131072 words long.
 Raffenetti 2 integral format.
 Two-electron integral symmetry is turned on.
 One-electron integrals computed using PRISM.
 NBasis=  1717 RedAO= T EigKep=  2.81D-04  NBF=  1717
 NBsUse=  1717 1.00D-06 EigRej= -1.00D+00 NBFU=  1717
 ExpMin= 1.98D-02 ExpMax= 3.51D+04 ExpMxC= 5.28D+03 IAcc=3 IRadAn=         5 AccDes= 0.00D+00
 Harris functional with IExCor=  402 and IRadAn=       5 diagonalized for initial guess.
 HarFok:  IExCor=  402 AccDes= 0.00D+00 IRadAn=         5 IDoV= 1 UseB2=F ITyADJ=14
 ICtDFT=  3500011 ScaDFX=  1.000000  1.000000  1.000000  1.000000
 FoFCou: FMM=F IPFlag=           0 FMFlag=      100000 FMFlg1=        2001
         NFxFlg=           0 DoJE=T BraDBF=F KetDBF=T FulRan=T
         wScrn=  0.000000 ICntrl=       500 IOpCl=  0 I1Cent=   200000004 NGrid=           0
         NMat0=    1 NMatS0=      1 NMatT0=    0 NMatD0=    1 NMtDS0=    0 NMtDT0=    0
 Petite list used in FoFCou.
 Requested convergence on RMS density matrix=1.00D-08 within 128 cycles.
 Requested convergence on MAX density matrix=1.00D-06.
 Requested convergence on             energy=1.00D-06.
 No special actions if energy rises.
 EnCoef did     4 forward-backward iterations
 EnCoef did     6 forward-backward iterations
 SCF Done:  E(RB3LYP) =  -5333.59175322     A.U. after   19 cycles
            NFock= 19  Conv=0.50D-08     -V/T= 2.0081
 SCF density gives NOpUse=  1 NOpAll=  1.
 Hyperfine terms turned off by default for NAtoms > 100.

 **********************************************************************

            Population analysis using the SCF density.

 **********************************************************************

 Orbital symmetries:
 BldTbl:  Degeneracy threshold= 1.00D-02
       Occupied  (A) (A) (A) (A) (A) (A) (A) (A) (A) (A) (A) (A)
                 (A) (A) (A) (A) (A) (A) (A) (A) (A) (A) (A) (A)
                 (A) (A) (A) (A) (A) (A) (A) (A) (A) (A) (A) (A)
                 (A) (A) (A) (A) (A) (A) (A) (A) (A) (A) (A) (A)
                 (A) (A) (A) (A) (A) (A) (A) (A) (A) (A) (A) (A)
                 (A) (A) (A) (A) (A) (A) (A) (A) (A) (A) (A) (A)
                 (A) (A) (A) (A) (A) (A) (A) (A) (A) (A) (A) (A)
                 (A) (A) (A) (A) (A) (A) (A) (A) (A) (A) (A) (A)
                 (A) (A) (A) (A) (A) (A) (A) (A) (A) (A) (A) (A)
                 (A) (A) (A) (A) (A) (A) (A) (A) (A) (A) (A) (A)
                 (A) (A) (A) (A) (A) (A) (A) (A) (A) (A) (A) (A)
                 (A) (A) (A) (A) (A) (A) (A) (A) (A) (A) (A) (A)
                 (A) (A) (A) (A) (A) (A) (A) (A) (A) (A) (A) (A)
                 (A) (A) (A) (A) (A) (A) (A) (A) (A) (A) (A) (A)
                 (A) (A) (A) (A) (A) (A) (A) (A) (A) (A) (A) (A)
                 (A) (A) (A) (A) (A) (A) (A) (A) (A) (A) (A) (A)
                 (A) (A) (A) (A) (A) (A) (A) (A) (A) (A) (A) (A)
                 (A) (A) (A) (A) (A) (A) (A) (A) (A) (A) (A) (A)
                 (A) (A) (A) (A) (A) (A) (A) (A) (A) (A) (A) (A)
                 (A) (A) (A) (A) (A) (A) (A) (A) (A) (A) (A) (A)
                 (A) (A) (A) (A) (A) (A) (A) (A) (A) (A) (A) (A)
                 (A) (A) (A) (A) (A) (A) (A) (A) (A) (A) (A) (A)
                 (A) (A) (A) (A) (A) (A) (A) (A) (A) (A) (A) (A)
                 (A) (A) (A) (A) (A) (A) (A) (A) (A) (A) (A) (A)
                 (A) (A) (A) (A) (A) (A) (A) (A) (A) (A) (A) (A)
                 (A) (A) (A) (A) (A) (A) (A) (A) (A) (A) (A) (A)
                 (A) (A) (A) (A) (A) (A) (A) (A) (A) (A) (A) (A)
                 (A) (A) (A) (A) (A) (A) (A) (A) (A) (A) (A) (A)
                 (A) (A) (A) (A) (A) (A) (A) (A) (A) (A) (A) (A)
                 (A) (A) (A) (A) (A) (A) (A) (A) (A) (A)
       Virtual   (A) (A) (A) (A) (A) (A) (A) (A) (A) (A) (A) (A)
                 (A) (A) (A) (A) (A) (A) (A) (A) (A) (A) (A) (A)
                 (A) (A) (A) (A) (A) (A) (A) (A) (A) (A) (A) (A)
                 (A) (A) (A) (A) (A) (A) (A) (A) (A) (A) (A) (A)
                 (A) (A) (A) (A) (A) (A) (A) (A) (A) (A) (A) (A)
                 (A) (A) (A) (A) (A) (A) (A) (A) (A) (A) (A) (A)
                 (A) (A) (A) (A) (A) (A) (A) (A) (A) (A) (A) (A)
                 (A) (A) (A) (A) (A) (A) (A) (A) (A) (A) (A) (A)
                 (A) (A) (A) (A) (A) (A) (A) (A) (A) (A) (A) (A)
                 (A) (A) (A) (A) (A) (A) (A) (A) (A) (A) (A) (A)
                 (A) (A) (A) (A) (A) (A) (A) (A) (A) (A) (A) (A)
                 (A) (A) (A) (A) (A) (A) (A) (A) (A) (A) (A) (A)
                 (A) (A) (A) (A) (A) (A) (A) (A) (A) (A) (A) (A)
                 (A) (A) (A) (A) (A) (A) (A) (A) (A) (A) (A) (A)
                 (A) (A) (A) (A) (A) (A) (A) (A) (A) (A) (A) (A)
                 (A) (A) (A) (A) (A) (A) (A) (A) (A) (A) (A) (A)
                 (A) (A) (A) (A) (A) (A) (A) (A) (A) (A) (A) (A)
                 (A) (A) (A) (A) (A) (A) (A) (A) (A) (A) (A) (A)
                 (A) (A) (A) (A) (A) (A) (A) (A) (A) (A) (A) (A)
                 (A) (A) (A) (A) (A) (A) (A) (A) (A) (A) (A) (A)
                 (A) (A) (A) (A) (A) (A) (A) (A) (A) (A) (A) (A)
                 (A) (A) (A) (A) (A) (A) (A) (A) (A) (A) (A) (A)
                 (A) (A) (A) (A) (A) (A) (A) (A) (A) (A) (A) (A)
                 (A) (A) (A) (A) (A) (A) (A) (A) (A) (A) (A) (A)
                 (A) (A) (A) (A) (A) (A) (A) (A) (A) (A) (A) (A)
                 (A) (A) (A) (A) (A) (A) (A) (A) (A) (A) (A) (A)
                 (A) (A) (A) (A) (A) (A) (A) (A) (A) (A) (A) (A)
                 (A) (A) (A) (A) (A) (A) (A) (A) (A) (A) (A) (A)
                 (A) (A) (A) (A) (A) (A) (A) (A) (A) (A) (A) (A)
                 (A) (A) (A) (A) (A) (A) (A) (A) (A) (A) (A) (A)
                 (A) (A) (A) (A) (A) (A) (A) (A) (A) (A) (A) (A)
                 (A) (A) (A) (A) (A) (A) (A) (A) (A) (A) (A) (A)
                 (A) (A) (A) (A) (A) (A) (A) (A) (A) (A) (A) (A)
                 (A) (A) (A) (A) (A) (A) (A) (A) (A) (A) (A) (A)
                 (A) (A) (A) (A) (A) (A) (A) (A) (A) (A) (A) (A)
                 (A) (A) (A) (A) (A) (A) (A) (A) (A) (A) (A) (A)
                 (A) (A) (A) (A) (A) (A) (A) (A) (A) (A) (A) (A)
                 (A) (A) (A) (A) (A) (A) (A) (A) (A) (A) (A) (A)
                 (A) (A) (A) (A) (A) (A) (A) (A) (A) (A) (A) (A)
                 (A) (A) (A) (A) (A) (A) (A) (A) (A) (A) (A) (A)
                 (A) (A) (A) (A) (A) (A) (A) (A) (A) (A) (A) (A)
                 (A) (A) (A) (A) (A) (A) (A) (A) (A) (A) (A) (A)
                 (A) (A) (A) (A) (A) (A) (A) (A) (A) (A) (A) (A)
                 (A) (A) (A) (A) (A) (A) (A) (A) (A) (A) (A) (A)
                 (A) (A) (A) (A) (A) (A) (A) (A) (A) (A) (A) (A)
                 (A) (A) (A) (A) (A) (A) (A) (A) (A) (A) (A) (A)
                 (A) (A) (A) (A) (A) (A) (A) (A) (A) (A) (A) (A)
                 (A) (A) (A) (A) (A) (A) (A) (A) (A) (A) (A) (A)
                 (A) (A) (A) (A) (A) (A) (A) (A) (A) (A) (A) (A)
                 (A) (A) (A) (A) (A) (A) (A) (A) (A) (A) (A) (A)
                 (A) (A) (A) (A) (A) (A) (A) (A) (A) (A) (A) (A)
                 (A) (A) (A) (A) (A) (A) (A) (A) (A) (A) (A) (A)
                 (A) (A) (A) (A) (A) (A) (A) (A) (A) (A) (A) (A)
                 (A) (A) (A) (A) (A) (A) (A) (A) (A) (A) (A) (A)
                 (A) (A) (A) (A) (A) (A) (A) (A) (A) (A) (A) (A)
                 (A) (A) (A) (A) (A) (A) (A) (A) (A) (A) (A) (A)
                 (A) (A) (A) (A) (A) (A) (A) (A) (A) (A) (A) (A)
                 (A) (A) (A) (A) (A) (A) (A) (A) (A) (A) (A) (A)
                 (A) (A) (A) (A) (A) (A) (A) (A) (A) (A) (A) (A)
                 (A) (A) (A) (A) (A) (A) (A) (A) (A) (A) (A) (A)
                 (A) (A) (A) (A) (A) (A) (A) (A) (A) (A) (A) (A)
                 (A) (A) (A) (A) (A) (A) (A) (A) (A) (A) (A) (A)
                 (A) (A) (A) (A) (A) (A) (A) (A) (A) (A) (A) (A)
                 (A) (A) (A) (A) (A) (A) (A) (A) (A) (A) (A) (A)
                 (A) (A) (A) (A) (A) (A) (A) (A) (A) (A) (A) (A)
                 (A) (A) (A) (A) (A) (A) (A) (A) (A) (A) (A) (A)
                 (A) (A) (A) (A) (A) (A) (A) (A) (A) (A) (A) (A)
                 (A) (A) (A) (A) (A) (A) (A) (A) (A) (A) (A) (A)
                 (A) (A) (A) (A) (A) (A) (A) (A) (A) (A) (A) (A)
                 (A) (A) (A) (A) (A) (A) (A) (A) (A) (A) (A) (A)
                 (A) (A) (A) (A) (A) (A) (A) (A) (A) (A) (A) (A)
                 (A) (A) (A) (A) (A) (A) (A) (A) (A) (A) (A) (A)
                 (A) (A) (A) (A) (A) (A) (A) (A) (A) (A) (A) (A)
                 (A) (A) (A) (A) (A) (A) (A) (A) (A) (A) (A) (A)
                 (A) (A) (A) (A) (A) (A) (A) (A) (A) (A) (A) (A)
                 (A) (A) (A) (A) (A) (A) (A) (A) (A) (A) (A) (A)
                 (A) (A) (A) (A) (A) (A) (A) (A) (A) (A) (A) (A)
                 (A) (A) (A) (A) (A) (A) (A) (A) (A) (A) (A) (A)
                 (A) (A) (A) (A) (A) (A) (A) (A) (A) (A) (A) (A)
                 (A) (A) (A) (A) (A) (A) (A) (A) (A) (A) (A) (A)
                 (A) (A) (A) (A) (A) (A) (A) (A) (A) (A) (A) (A)
                 (A) (A) (A) (A) (A) (A) (A) (A) (A) (A) (A) (A)
                 (A) (A) (A) (A) (A) (A) (A) (A) (A) (A) (A) (A)
                 (A) (A) (A) (A) (A) (A) (A) (A) (A) (A) (A) (A)
                 (A) (A) (A) (A) (A) (A) (A) (A) (A) (A) (A) (A)
                 (A) (A) (A) (A) (A) (A) (A) (A) (A) (A) (A) (A)
                 (A) (A) (A) (A) (A) (A) (A) (A) (A) (A) (A) (A)
                 (A) (A) (A) (A) (A) (A) (A) (A) (A) (A) (A) (A)
                 (A) (A) (A) (A) (A) (A) (A) (A) (A) (A) (A) (A)
                 (A) (A) (A) (A) (A) (A) (A) (A) (A) (A) (A) (A)
                 (A) (A) (A) (A) (A) (A) (A) (A) (A) (A) (A) (A)
                 (A) (A) (A) (A) (A) (A) (A) (A) (A) (A) (A) (A)
                 (A) (A) (A) (A) (A) (A) (A) (A) (A) (A) (A) (A)
                 (A) (A) (A) (A) (A) (A) (A) (A) (A) (A) (A) (A)
                 (A) (A) (A) (A) (A) (A) (A) (A) (A) (A) (A) (A)
                 (A) (A) (A) (A) (A) (A) (A) (A) (A) (A) (A) (A)
                 (A) (A) (A) (A) (A) (A) (A) (A) (A) (A) (A) (A)
                 (A) (A) (A) (A) (A) (A) (A) (A) (A) (A) (A) (A)
                 (A) (A) (A) (A) (A) (A) (A) (A) (A) (A) (A) (A)
                 (A) (A) (A) (A) (A) (A) (A) (A) (A) (A) (A) (A)
                 (A) (A) (A) (A) (A) (A) (A) (A) (A) (A) (A) (A)
                 (A) (A) (A) (A) (A) (A) (A) (A) (A) (A) (A) (A)
                 (A) (A) (A) (A) (A) (A) (A) (A) (A) (A) (A) (A)
                 (A) (A) (A) (A) (A) (A) (A) (A) (A) (A) (A) (A)
                 (A) (A) (A) (A) (A) (A) (A) (A) (A) (A) (A) (A)
                 (A) (A) (A) (A) (A) (A) (A) (A) (A) (A) (A) (A)
                 (A) (A) (A) (A) (A) (A) (A) (A) (A) (A) (A) (A)
                 (A) (A) (A) (A) (A) (A) (A) (A) (A) (A) (A) (A)
                 (A) (A) (A) (A) (A) (A) (A) (A) (A) (A) (A) (A)
                 (A) (A) (A) (A) (A) (A) (A) (A) (A) (A) (A) (A)
                 (A) (A) (A) (A) (A) (A) (A) (A) (A) (A) (A) (A)
                 (A) (A) (A) (A) (A) (A) (A) (A) (A) (A) (A) (A)
                 (A) (A) (A) (A) (A) (A) (A) (A) (A) (A) (A) (A)
                 (A) (A) (A)
 The electronic state is 1-A.
 Alpha  occ. eigenvalues -- -145.36225 -19.20769 -19.15253 -19.15131 -19.15031
 Alpha  occ. eigenvalues --  -19.12533 -19.12261 -19.12102 -19.11796 -19.11267
 Alpha  occ. eigenvalues --  -19.10730 -19.09727 -19.09187 -19.08003 -19.07922
 Alpha  occ. eigenvalues --  -19.06333 -19.06185 -19.06020 -19.04813 -19.04733
 Alpha  occ. eigenvalues --  -19.04013 -19.03768 -19.02325 -18.99478 -15.42037
 Alpha  occ. eigenvalues --  -14.57043 -14.41303 -14.38390 -14.37962 -14.37748
 Alpha  occ. eigenvalues --  -14.37261 -14.36349 -14.35153 -14.33157 -14.32804
 Alpha  occ. eigenvalues --  -14.32461 -14.31246 -14.31229 -14.30810 -14.29738
 Alpha  occ. eigenvalues --  -12.55648 -12.55615 -12.55579 -10.33694 -10.32068
 Alpha  occ. eigenvalues --  -10.31560 -10.30806 -10.30692 -10.30292 -10.29535
 Alpha  occ. eigenvalues --  -10.29316 -10.27873 -10.27545 -10.27408 -10.27352
 Alpha  occ. eigenvalues --  -10.26562 -10.26463 -10.25264 -10.25204 -10.25015
 Alpha  occ. eigenvalues --  -10.24807 -10.24507 -10.24373 -10.24074 -10.24036
 Alpha  occ. eigenvalues --  -10.24001 -10.23752 -10.23654 -10.23141 -10.23039
 Alpha  occ. eigenvalues --  -10.22938 -10.22567 -10.21698 -10.21543 -10.20839
 Alpha  occ. eigenvalues --  -10.20764 -10.20736 -10.20386 -10.20193 -10.20026
 Alpha  occ. eigenvalues --  -10.19944 -10.19761 -10.19552 -10.19344 -10.19027
 Alpha  occ. eigenvalues --  -10.18864 -10.18804 -10.18705 -10.18621 -10.18206
 Alpha  occ. eigenvalues --  -10.18069 -10.17993 -10.17696 -10.17618 -10.17391
 Alpha  occ. eigenvalues --  -10.16954 -10.12692  -1.79017  -1.12324  -1.08497
 Alpha  occ. eigenvalues --   -1.07379  -1.07310  -1.06600  -1.05885  -1.05636
 Alpha  occ. eigenvalues --   -1.05514  -1.05464  -1.05410  -1.04655  -1.04016
 Alpha  occ. eigenvalues --   -1.03724  -1.03368  -1.02631  -1.01812  -1.00431
 Alpha  occ. eigenvalues --   -0.99960  -0.99291  -0.99110  -0.99009  -0.98391
 Alpha  occ. eigenvalues --   -0.97679  -0.96993  -0.95958  -0.95351  -0.94700
 Alpha  occ. eigenvalues --   -0.94601  -0.94377  -0.93886  -0.92118  -0.90807
 Alpha  occ. eigenvalues --   -0.90416  -0.90163  -0.89338  -0.89053  -0.88359
 Alpha  occ. eigenvalues --   -0.88193  -0.87079  -0.86536  -0.86298  -0.85008
 Alpha  occ. eigenvalues --   -0.83888  -0.83670  -0.82869  -0.80493  -0.80062
 Alpha  occ. eigenvalues --   -0.79826  -0.79240  -0.78669  -0.78037  -0.76008
 Alpha  occ. eigenvalues --   -0.75634  -0.75540  -0.74722  -0.73489  -0.73324
 Alpha  occ. eigenvalues --   -0.73166  -0.73042  -0.71986  -0.71558  -0.70325
 Alpha  occ. eigenvalues --   -0.69910  -0.69789  -0.68847  -0.68589  -0.68161
 Alpha  occ. eigenvalues --   -0.67022  -0.66829  -0.65678  -0.65614  -0.65249
 Alpha  occ. eigenvalues --   -0.64842  -0.64048  -0.62372  -0.62196  -0.61870
 Alpha  occ. eigenvalues --   -0.61724  -0.61589  -0.61374  -0.60941  -0.60791
 Alpha  occ. eigenvalues --   -0.60076  -0.59810  -0.59265  -0.58878  -0.58642
 Alpha  occ. eigenvalues --   -0.58211  -0.57823  -0.57696  -0.56736  -0.56460
 Alpha  occ. eigenvalues --   -0.56245  -0.55838  -0.55647  -0.55549  -0.55163
 Alpha  occ. eigenvalues --   -0.54980  -0.54869  -0.54360  -0.54224  -0.53818
 Alpha  occ. eigenvalues --   -0.53701  -0.53410  -0.53204  -0.52747  -0.52143
 Alpha  occ. eigenvalues --   -0.51920  -0.51576  -0.51381  -0.51203  -0.50633
 Alpha  occ. eigenvalues --   -0.50403  -0.50015  -0.49789  -0.49458  -0.49266
 Alpha  occ. eigenvalues --   -0.49144  -0.48836  -0.48795  -0.48502  -0.48455
 Alpha  occ. eigenvalues --   -0.48050  -0.47911  -0.47771  -0.47351  -0.47190
 Alpha  occ. eigenvalues --   -0.47020  -0.46862  -0.46850  -0.46257  -0.46099
 Alpha  occ. eigenvalues --   -0.45986  -0.45717  -0.45601  -0.45428  -0.45290
 Alpha  occ. eigenvalues --   -0.45108  -0.45032  -0.44832  -0.44572  -0.44339
 Alpha  occ. eigenvalues --   -0.44190  -0.44032  -0.43863  -0.43821  -0.43797
 Alpha  occ. eigenvalues --   -0.43588  -0.43438  -0.43414  -0.43274  -0.43027
 Alpha  occ. eigenvalues --   -0.42656  -0.42457  -0.42422  -0.42250  -0.42202
 Alpha  occ. eigenvalues --   -0.41958  -0.41895  -0.41593  -0.41378  -0.41322
 Alpha  occ. eigenvalues --   -0.41282  -0.41216  -0.41099  -0.40794  -0.40636
 Alpha  occ. eigenvalues --   -0.40439  -0.40350  -0.40204  -0.40048  -0.39774
 Alpha  occ. eigenvalues --   -0.39695  -0.39491  -0.39348  -0.39132  -0.39027
 Alpha  occ. eigenvalues --   -0.38944  -0.38899  -0.38663  -0.38578  -0.38509
 Alpha  occ. eigenvalues --   -0.38271  -0.38102  -0.37955  -0.37743  -0.37661
 Alpha  occ. eigenvalues --   -0.37450  -0.37402  -0.37290  -0.37055  -0.36928
 Alpha  occ. eigenvalues --   -0.36831  -0.36587  -0.36425  -0.36363  -0.36187
 Alpha  occ. eigenvalues --   -0.36079  -0.35801  -0.35677  -0.35545  -0.35504
 Alpha  occ. eigenvalues --   -0.35256  -0.34989  -0.34650  -0.34426  -0.34328
 Alpha  occ. eigenvalues --   -0.34156  -0.33903  -0.33544  -0.33378  -0.33172
 Alpha  occ. eigenvalues --   -0.33123  -0.32986  -0.32661  -0.32357  -0.32105
 Alpha  occ. eigenvalues --   -0.32009  -0.31982  -0.31509  -0.30794  -0.30393
 Alpha  occ. eigenvalues --   -0.29851  -0.29733  -0.29439  -0.29235  -0.29107
 Alpha  occ. eigenvalues --   -0.28650  -0.28591  -0.28232  -0.28083  -0.27841
 Alpha  occ. eigenvalues --   -0.27510  -0.27102  -0.26987  -0.26499  -0.26033
 Alpha  occ. eigenvalues --   -0.25800  -0.24858  -0.24659  -0.24510  -0.24078
 Alpha  occ. eigenvalues --   -0.23885  -0.23775  -0.23403  -0.23327  -0.23003
 Alpha  occ. eigenvalues --   -0.22378  -0.22246  -0.21925  -0.21592  -0.21094
 Alpha  occ. eigenvalues --   -0.20906  -0.20764  -0.19883  -0.19709  -0.19266
 Alpha  occ. eigenvalues --   -0.19157  -0.18577  -0.15441
 Alpha virt. eigenvalues --   -0.09044  -0.04288  -0.03541  -0.03057  -0.02905
 Alpha virt. eigenvalues --   -0.01273  -0.01149  -0.00882  -0.00543  -0.00156
 Alpha virt. eigenvalues --    0.00017   0.00422   0.00910   0.01141   0.01776
 Alpha virt. eigenvalues --    0.01933   0.02329   0.03092   0.03392   0.03429
 Alpha virt. eigenvalues --    0.03758   0.03985   0.04238   0.04266   0.04636
 Alpha virt. eigenvalues --    0.04704   0.04911   0.05010   0.05247   0.05609
 Alpha virt. eigenvalues --    0.05793   0.05894   0.05950   0.06136   0.06371
 Alpha virt. eigenvalues --    0.06524   0.06604   0.06815   0.07249   0.07352
 Alpha virt. eigenvalues --    0.07493   0.07664   0.07898   0.08078   0.08514
 Alpha virt. eigenvalues --    0.08574   0.08717   0.09237   0.09487   0.09639
 Alpha virt. eigenvalues --    0.09681   0.09892   0.10153   0.10351   0.10614
 Alpha virt. eigenvalues --    0.10836   0.11097   0.11236   0.11308   0.11624
 Alpha virt. eigenvalues --    0.11656   0.11936   0.12114   0.12220   0.12330
 Alpha virt. eigenvalues --    0.12669   0.12726   0.12905   0.13140   0.13302
 Alpha virt. eigenvalues --    0.13505   0.13683   0.13791   0.13896   0.13980
 Alpha virt. eigenvalues --    0.14199   0.14528   0.14607   0.14748   0.15066
 Alpha virt. eigenvalues --    0.15158   0.15241   0.15373   0.15448   0.15732
 Alpha virt. eigenvalues --    0.15862   0.15946   0.16070   0.16310   0.16518
 Alpha virt. eigenvalues --    0.16778   0.16878   0.17144   0.17225   0.17445
 Alpha virt. eigenvalues --    0.17546   0.17579   0.17784   0.17913   0.18157
 Alpha virt. eigenvalues --    0.18367   0.18750   0.18891   0.19026   0.19262
 Alpha virt. eigenvalues --    0.19370   0.19444   0.19808   0.20166   0.20279
 Alpha virt. eigenvalues --    0.20432   0.20514   0.20626   0.20876   0.21093
 Alpha virt. eigenvalues --    0.21273   0.21688   0.21770   0.21796   0.21903
 Alpha virt. eigenvalues --    0.22282   0.22367   0.22500   0.22813   0.23117
 Alpha virt. eigenvalues --    0.23307   0.23520   0.23649   0.23821   0.23898
 Alpha virt. eigenvalues --    0.24225   0.24362   0.24486   0.24763   0.24875
 Alpha virt. eigenvalues --    0.25219   0.25274   0.25506   0.25765   0.26154
 Alpha virt. eigenvalues --    0.26315   0.26410   0.26552   0.27067   0.27369
 Alpha virt. eigenvalues --    0.27574   0.27880   0.27964   0.28207   0.28445
 Alpha virt. eigenvalues --    0.29049   0.29428   0.29935   0.30050   0.30148
 Alpha virt. eigenvalues --    0.30536   0.30933   0.31124   0.31262   0.31444
 Alpha virt. eigenvalues --    0.31795   0.32026   0.32351   0.32463   0.32629
 Alpha virt. eigenvalues --    0.32731   0.32918   0.33188   0.33651   0.33955
 Alpha virt. eigenvalues --    0.34032   0.34189   0.34457   0.34623   0.34849
 Alpha virt. eigenvalues --    0.35118   0.35265   0.35710   0.36036   0.36413
 Alpha virt. eigenvalues --    0.36579   0.37218   0.37598   0.37904   0.38091
 Alpha virt. eigenvalues --    0.38303   0.38424   0.38490   0.38896   0.39095
 Alpha virt. eigenvalues --    0.39234   0.39681   0.40027   0.40069   0.40214
 Alpha virt. eigenvalues --    0.40545   0.41237   0.41377   0.41413   0.41611
 Alpha virt. eigenvalues --    0.41835   0.42053   0.42243   0.42526   0.42992
 Alpha virt. eigenvalues --    0.43123   0.43266   0.43468   0.43631   0.44053
 Alpha virt. eigenvalues --    0.44156   0.44360   0.44663   0.45094   0.45213
 Alpha virt. eigenvalues --    0.45401   0.45514   0.45979   0.46018   0.46314
 Alpha virt. eigenvalues --    0.46479   0.46639   0.46798   0.46830   0.47056
 Alpha virt. eigenvalues --    0.47268   0.47406   0.47468   0.47578   0.47846
 Alpha virt. eigenvalues --    0.47956   0.48343   0.48396   0.48874   0.49040
 Alpha virt. eigenvalues --    0.49322   0.49426   0.49558   0.49692   0.49902
 Alpha virt. eigenvalues --    0.50078   0.50238   0.50397   0.50473   0.50674
 Alpha virt. eigenvalues --    0.50909   0.51226   0.51614   0.51758   0.51872
 Alpha virt. eigenvalues --    0.52017   0.52324   0.52559   0.52634   0.52887
 Alpha virt. eigenvalues --    0.53125   0.53550   0.53692   0.53886   0.54110
 Alpha virt. eigenvalues --    0.54249   0.54402   0.54476   0.54637   0.54948
 Alpha virt. eigenvalues --    0.55291   0.55432   0.55779   0.55953   0.56085
 Alpha virt. eigenvalues --    0.56310   0.56487   0.56633   0.56801   0.56935
 Alpha virt. eigenvalues --    0.57156   0.57214   0.57361   0.57504   0.57735
 Alpha virt. eigenvalues --    0.57893   0.58048   0.58138   0.58178   0.58480
 Alpha virt. eigenvalues --    0.58596   0.58817   0.58908   0.59064   0.59068
 Alpha virt. eigenvalues --    0.59322   0.59575   0.59595   0.59691   0.59867
 Alpha virt. eigenvalues --    0.60084   0.60175   0.60361   0.60608   0.60669
 Alpha virt. eigenvalues --    0.60923   0.61084   0.61231   0.61409   0.61477
 Alpha virt. eigenvalues --    0.61672   0.61784   0.61886   0.62072   0.62222
 Alpha virt. eigenvalues --    0.62343   0.62440   0.62579   0.62775   0.62871
 Alpha virt. eigenvalues --    0.62964   0.63030   0.63160   0.63241   0.63305
 Alpha virt. eigenvalues --    0.63504   0.63614   0.63725   0.63749   0.64055
 Alpha virt. eigenvalues --    0.64115   0.64213   0.64247   0.64366   0.64602
 Alpha virt. eigenvalues --    0.64642   0.64801   0.64990   0.65038   0.65133
 Alpha virt. eigenvalues --    0.65243   0.65435   0.65621   0.65661   0.65758
 Alpha virt. eigenvalues --    0.65894   0.65989   0.66128   0.66216   0.66289
 Alpha virt. eigenvalues --    0.66461   0.66578   0.66642   0.66754   0.66779
 Alpha virt. eigenvalues --    0.66936   0.67160   0.67218   0.67343   0.67483
 Alpha virt. eigenvalues --    0.67735   0.67839   0.67912   0.68054   0.68183
 Alpha virt. eigenvalues --    0.68221   0.68422   0.68512   0.68607   0.68714
 Alpha virt. eigenvalues --    0.68803   0.68868   0.69036   0.69226   0.69292
 Alpha virt. eigenvalues --    0.69546   0.69661   0.69743   0.70041   0.70112
 Alpha virt. eigenvalues --    0.70124   0.70260   0.70333   0.70434   0.70641
 Alpha virt. eigenvalues --    0.70737   0.70912   0.71065   0.71262   0.71369
 Alpha virt. eigenvalues --    0.71468   0.71513   0.71593   0.71787   0.72145
 Alpha virt. eigenvalues --    0.72239   0.72495   0.72571   0.72749   0.72949
 Alpha virt. eigenvalues --    0.73208   0.73290   0.73400   0.73573   0.73923
 Alpha virt. eigenvalues --    0.74075   0.74298   0.74606   0.74733   0.74973
 Alpha virt. eigenvalues --    0.75132   0.75339   0.75596   0.75702   0.76026
 Alpha virt. eigenvalues --    0.76115   0.76352   0.76496   0.76720   0.76931
 Alpha virt. eigenvalues --    0.77135   0.77341   0.77629   0.77835   0.77913
 Alpha virt. eigenvalues --    0.78231   0.78363   0.78681   0.78835   0.79114
 Alpha virt. eigenvalues --    0.79616   0.79647   0.79908   0.80046   0.80316
 Alpha virt. eigenvalues --    0.80525   0.80959   0.81155   0.81351   0.81574
 Alpha virt. eigenvalues --    0.81631   0.81845   0.82111   0.82252   0.82604
 Alpha virt. eigenvalues --    0.83077   0.83444   0.83750   0.84015   0.84262
 Alpha virt. eigenvalues --    0.84604   0.84860   0.85266   0.85344   0.85628
 Alpha virt. eigenvalues --    0.86262   0.86464   0.87007   0.87047   0.87383
 Alpha virt. eigenvalues --    0.87496   0.87583   0.87896   0.88385   0.88870
 Alpha virt. eigenvalues --    0.88958   0.89258   0.89279   0.89667   0.89770
 Alpha virt. eigenvalues --    0.90254   0.90487   0.90773   0.91164   0.91491
 Alpha virt. eigenvalues --    0.91556   0.92128   0.92469   0.92549   0.92858
 Alpha virt. eigenvalues --    0.92951   0.93413   0.93544   0.93886   0.94063
 Alpha virt. eigenvalues --    0.94243   0.94448   0.94853   0.94983   0.95611
 Alpha virt. eigenvalues --    0.96175   0.96347   0.96513   0.96751   0.97027
 Alpha virt. eigenvalues --    0.97382   0.97715   0.98011   0.98232   0.98413
 Alpha virt. eigenvalues --    0.98573   0.98832   0.99033   0.99189   0.99597
 Alpha virt. eigenvalues --    0.99951   1.00159   1.00657   1.01104   1.01366
 Alpha virt. eigenvalues --    1.01821   1.01880   1.02667   1.02795   1.03155
 Alpha virt. eigenvalues --    1.03222   1.03363   1.03767   1.04012   1.04409
 Alpha virt. eigenvalues --    1.04924   1.05191   1.05453   1.05566   1.05911
 Alpha virt. eigenvalues --    1.06049   1.06340   1.06635   1.06855   1.07146
 Alpha virt. eigenvalues --    1.07331   1.07593   1.07910   1.08276   1.08546
 Alpha virt. eigenvalues --    1.08670   1.08966   1.09325   1.09554   1.09902
 Alpha virt. eigenvalues --    1.10392   1.10528   1.10873   1.10893   1.11348
 Alpha virt. eigenvalues --    1.11539   1.11951   1.12176   1.12462   1.12751
 Alpha virt. eigenvalues --    1.12806   1.13524   1.13656   1.13807   1.14036
 Alpha virt. eigenvalues --    1.14460   1.14527   1.14771   1.15037   1.15476
 Alpha virt. eigenvalues --    1.15881   1.15993   1.16375   1.16471   1.16980
 Alpha virt. eigenvalues --    1.17219   1.17382   1.17635   1.17760   1.18031
 Alpha virt. eigenvalues --    1.18483   1.18628   1.19049   1.19393   1.19971
 Alpha virt. eigenvalues --    1.20022   1.20585   1.20726   1.21069   1.21374
 Alpha virt. eigenvalues --    1.21486   1.21821   1.21993   1.22114   1.22345
 Alpha virt. eigenvalues --    1.22840   1.23112   1.23310   1.23520   1.23653
 Alpha virt. eigenvalues --    1.23864   1.24017   1.24433   1.24501   1.24843
 Alpha virt. eigenvalues --    1.25016   1.25159   1.25648   1.25733   1.26113
 Alpha virt. eigenvalues --    1.26269   1.26412   1.26649   1.26884   1.27018
 Alpha virt. eigenvalues --    1.27412   1.27604   1.27838   1.28053   1.28455
 Alpha virt. eigenvalues --    1.28644   1.29037   1.29294   1.29377   1.29571
 Alpha virt. eigenvalues --    1.29984   1.30266   1.30442   1.30551   1.30946
 Alpha virt. eigenvalues --    1.31215   1.31433   1.31751   1.32018   1.32332
 Alpha virt. eigenvalues --    1.32421   1.32894   1.33371   1.33473   1.33762
 Alpha virt. eigenvalues --    1.33866   1.34115   1.34465   1.34799   1.35043
 Alpha virt. eigenvalues --    1.35124   1.35710   1.35882   1.36399   1.36490
 Alpha virt. eigenvalues --    1.36871   1.37101   1.37660   1.37723   1.37991
 Alpha virt. eigenvalues --    1.38151   1.38439   1.38851   1.38984   1.39196
 Alpha virt. eigenvalues --    1.39698   1.40061   1.40104   1.40393   1.40579
 Alpha virt. eigenvalues --    1.40969   1.41188   1.41368   1.41664   1.41922
 Alpha virt. eigenvalues --    1.42077   1.42382   1.42863   1.43311   1.43671
 Alpha virt. eigenvalues --    1.44051   1.44420   1.44596   1.44990   1.45210
 Alpha virt. eigenvalues --    1.45491   1.45532   1.45824   1.46269   1.46342
 Alpha virt. eigenvalues --    1.46912   1.47217   1.47371   1.47508   1.47530
 Alpha virt. eigenvalues --    1.47968   1.48340   1.48860   1.49002   1.49529
 Alpha virt. eigenvalues --    1.49616   1.49851   1.50424   1.50671   1.50850
 Alpha virt. eigenvalues --    1.51050   1.51239   1.51595   1.52080   1.52257
 Alpha virt. eigenvalues --    1.52786   1.52990   1.53375   1.53733   1.53973
 Alpha virt. eigenvalues --    1.54134   1.54267   1.54499   1.54747   1.55142
 Alpha virt. eigenvalues --    1.55423   1.55769   1.56152   1.56671   1.56690
 Alpha virt. eigenvalues --    1.57096   1.57360   1.58175   1.58565   1.58789
 Alpha virt. eigenvalues --    1.59076   1.59233   1.59469   1.59548   1.60129
 Alpha virt. eigenvalues --    1.60493   1.60682   1.61050   1.61269   1.61569
 Alpha virt. eigenvalues --    1.61872   1.62176   1.62654   1.62895   1.63227
 Alpha virt. eigenvalues --    1.63438   1.63509   1.64762   1.65138   1.65236
 Alpha virt. eigenvalues --    1.65374   1.65973   1.66375   1.66655   1.66811
 Alpha virt. eigenvalues --    1.67022   1.67254   1.67575   1.67739   1.67957
 Alpha virt. eigenvalues --    1.68158   1.68631   1.68663   1.69023   1.69143
 Alpha virt. eigenvalues --    1.69442   1.69892   1.70089   1.70330   1.70729
 Alpha virt. eigenvalues --    1.70929   1.71210   1.71376   1.71545   1.72066
 Alpha virt. eigenvalues --    1.72215   1.72286   1.72716   1.72965   1.73183
 Alpha virt. eigenvalues --    1.73617   1.73991   1.74392   1.74494   1.74584
 Alpha virt. eigenvalues --    1.74704   1.74863   1.75170   1.75320   1.75492
 Alpha virt. eigenvalues --    1.75619   1.75914   1.76123   1.76289   1.76407
 Alpha virt. eigenvalues --    1.76534   1.76684   1.76753   1.76778   1.76932
 Alpha virt. eigenvalues --    1.77322   1.77392   1.77622   1.77940   1.78158
 Alpha virt. eigenvalues --    1.78217   1.78388   1.78583   1.78728   1.78801
 Alpha virt. eigenvalues --    1.79102   1.79156   1.79356   1.79588   1.79659
 Alpha virt. eigenvalues --    1.79977   1.80137   1.80268   1.80321   1.80528
 Alpha virt. eigenvalues --    1.80768   1.80887   1.81038   1.81126   1.81216
 Alpha virt. eigenvalues --    1.81425   1.81739   1.82001   1.82158   1.82390
 Alpha virt. eigenvalues --    1.82481   1.82690   1.82763   1.82957   1.83165
 Alpha virt. eigenvalues --    1.83522   1.83566   1.83623   1.83682   1.83783
 Alpha virt. eigenvalues --    1.83866   1.84272   1.84674   1.84766   1.85199
 Alpha virt. eigenvalues --    1.85257   1.85577   1.85777   1.85859   1.85973
 Alpha virt. eigenvalues --    1.86138   1.86353   1.86455   1.86713   1.86787
 Alpha virt. eigenvalues --    1.87022   1.87153   1.87442   1.87544   1.87841
 Alpha virt. eigenvalues --    1.87872   1.88212   1.88252   1.88419   1.88557
 Alpha virt. eigenvalues --    1.88896   1.89021   1.89106   1.89313   1.89533
 Alpha virt. eigenvalues --    1.89662   1.89743   1.89992   1.90317   1.90571
 Alpha virt. eigenvalues --    1.90665   1.90995   1.91097   1.91313   1.91691
 Alpha virt. eigenvalues --    1.91990   1.92118   1.92314   1.92436   1.92917
 Alpha virt. eigenvalues --    1.93057   1.93209   1.93305   1.93580   1.93959
 Alpha virt. eigenvalues --    1.94183   1.94300   1.94624   1.94850   1.94959
 Alpha virt. eigenvalues --    1.95161   1.95507   1.95681   1.95845   1.96102
 Alpha virt. eigenvalues --    1.96437   1.96546   1.96752   1.96832   1.97079
 Alpha virt. eigenvalues --    1.97379   1.97583   1.97750   1.97978   1.98219
 Alpha virt. eigenvalues --    1.98630   1.98753   1.99027   1.99241   1.99375
 Alpha virt. eigenvalues --    1.99425   1.99512   1.99832   2.00019   2.00144
 Alpha virt. eigenvalues --    2.00335   2.00397   2.00608   2.01093   2.01310
 Alpha virt. eigenvalues --    2.01487   2.01651   2.02077   2.02277   2.02456
 Alpha virt. eigenvalues --    2.02885   2.03139   2.03303   2.03436   2.03612
 Alpha virt. eigenvalues --    2.03820   2.03994   2.04215   2.04247   2.04511
 Alpha virt. eigenvalues --    2.05053   2.05121   2.05513   2.05633   2.06302
 Alpha virt. eigenvalues --    2.06844   2.06982   2.07230   2.07563   2.07740
 Alpha virt. eigenvalues --    2.07841   2.08076   2.08365   2.08528   2.08890
 Alpha virt. eigenvalues --    2.09193   2.09273   2.09536   2.09958   2.10483
 Alpha virt. eigenvalues --    2.10803   2.10939   2.11239   2.11444   2.11685
 Alpha virt. eigenvalues --    2.11836   2.11987   2.12474   2.12996   2.13344
 Alpha virt. eigenvalues --    2.13861   2.14139   2.14297   2.14682   2.14722
 Alpha virt. eigenvalues --    2.14815   2.15281   2.15806   2.16142   2.16370
 Alpha virt. eigenvalues --    2.16521   2.16684   2.17559   2.17785   2.18000
 Alpha virt. eigenvalues --    2.18405   2.18519   2.18708   2.18869   2.19073
 Alpha virt. eigenvalues --    2.19329   2.19550   2.19989   2.20211   2.20935
 Alpha virt. eigenvalues --    2.21103   2.21269   2.21410   2.21572   2.22234
 Alpha virt. eigenvalues --    2.22367   2.22605   2.23167   2.23463   2.23865
 Alpha virt. eigenvalues --    2.24092   2.24440   2.24855   2.25206   2.25653
 Alpha virt. eigenvalues --    2.25894   2.26378   2.26670   2.26805   2.27111
 Alpha virt. eigenvalues --    2.27392   2.27984   2.28328   2.28842   2.29157
 Alpha virt. eigenvalues --    2.29401   2.29620   2.29939   2.30066   2.30158
 Alpha virt. eigenvalues --    2.30485   2.30954   2.31568   2.31781   2.31987
 Alpha virt. eigenvalues --    2.32140   2.33044   2.33177   2.33552   2.33699
 Alpha virt. eigenvalues --    2.34026   2.34729   2.35104   2.35249   2.35646
 Alpha virt. eigenvalues --    2.35919   2.36707   2.36746   2.36972   2.37251
 Alpha virt. eigenvalues --    2.37489   2.37767   2.38130   2.38254   2.38412
 Alpha virt. eigenvalues --    2.38654   2.38916   2.39570   2.39942   2.40354
 Alpha virt. eigenvalues --    2.40543   2.40934   2.41028   2.41268   2.41499
 Alpha virt. eigenvalues --    2.41623   2.41990   2.42347   2.42857   2.43346
 Alpha virt. eigenvalues --    2.43472   2.43790   2.44053   2.44294   2.44673
 Alpha virt. eigenvalues --    2.44835   2.44851   2.45099   2.45720   2.45733
 Alpha virt. eigenvalues --    2.46123   2.46784   2.47065   2.47486   2.47546
 Alpha virt. eigenvalues --    2.48468   2.48822   2.49033   2.49540   2.49717
 Alpha virt. eigenvalues --    2.49918   2.51098   2.51224   2.51701   2.52020
 Alpha virt. eigenvalues --    2.52533   2.52683   2.52904   2.53555   2.53758
 Alpha virt. eigenvalues --    2.54213   2.54600   2.54836   2.54861   2.55218
 Alpha virt. eigenvalues --    2.55857   2.55913   2.56487   2.56635   2.56903
 Alpha virt. eigenvalues --    2.57499   2.57625   2.58199   2.58256   2.58891
 Alpha virt. eigenvalues --    2.59306   2.59447   2.60062   2.60260   2.60624
 Alpha virt. eigenvalues --    2.61111   2.61280   2.61400   2.62048   2.62125
 Alpha virt. eigenvalues --    2.62308   2.62550   2.62882   2.63039   2.63357
 Alpha virt. eigenvalues --    2.63769   2.64036   2.64101   2.64464   2.64724
 Alpha virt. eigenvalues --    2.64987   2.65210   2.65331   2.65624   2.65760
 Alpha virt. eigenvalues --    2.66045   2.66415   2.66613   2.66953   2.67153
 Alpha virt. eigenvalues --    2.67318   2.67970   2.68092   2.68592   2.68838
 Alpha virt. eigenvalues --    2.68983   2.69151   2.69312   2.69466   2.69586
 Alpha virt. eigenvalues --    2.70460   2.70733   2.71166   2.71594   2.71875
 Alpha virt. eigenvalues --    2.72082   2.72171   2.72581   2.72994   2.73387
 Alpha virt. eigenvalues --    2.73967   2.74081   2.74359   2.74523   2.74768
 Alpha virt. eigenvalues --    2.74860   2.75215   2.75470   2.75761   2.75963
 Alpha virt. eigenvalues --    2.76337   2.76792   2.77041   2.77341   2.77455
 Alpha virt. eigenvalues --    2.77631   2.77797   2.78035   2.78352   2.78451
 Alpha virt. eigenvalues --    2.78598   2.79126   2.79268   2.79476   2.79561
 Alpha virt. eigenvalues --    2.79988   2.80307   2.80435   2.80936   2.81235
 Alpha virt. eigenvalues --    2.81391   2.81765   2.82101   2.82632   2.82743
 Alpha virt. eigenvalues --    2.83052   2.83405   2.83518   2.83759   2.84072
 Alpha virt. eigenvalues --    2.84698   2.85169   2.85325   2.85580   2.85856
 Alpha virt. eigenvalues --    2.86836   2.87020   2.87174   2.87396   2.87423
 Alpha virt. eigenvalues --    2.87833   2.87928   2.88143   2.88231   2.88334
 Alpha virt. eigenvalues --    2.88776   2.89275   2.89509   2.89623   2.89769
 Alpha virt. eigenvalues --    2.90109   2.90846   2.91389   2.91513   2.91858
 Alpha virt. eigenvalues --    2.92035   2.92069   2.92172   2.92225   2.92825
 Alpha virt. eigenvalues --    2.92970   2.93245   2.93332   2.93563   2.93789
 Alpha virt. eigenvalues --    2.94304   2.94570   2.95383   2.95568   2.95731
 Alpha virt. eigenvalues --    2.96233   2.96521   2.96775   2.97821   2.98046
 Alpha virt. eigenvalues --    2.98278   2.98681   2.99150   2.99178   2.99441
 Alpha virt. eigenvalues --    3.00099   3.00509   3.00536   3.00753   3.01139
 Alpha virt. eigenvalues --    3.01541   3.01726   3.02182   3.02523   3.03279
 Alpha virt. eigenvalues --    3.03628   3.03980   3.04321   3.04436   3.05385
 Alpha virt. eigenvalues --    3.05573   3.05871   3.06247   3.06876   3.06935
 Alpha virt. eigenvalues --    3.07010   3.08065   3.08206   3.08622   3.09033
 Alpha virt. eigenvalues --    3.09939   3.10152   3.11057   3.11129   3.11888
 Alpha virt. eigenvalues --    3.12601   3.12916   3.13130   3.13710   3.14531
 Alpha virt. eigenvalues --    3.14697   3.14722   3.15007   3.15156   3.15987
 Alpha virt. eigenvalues --    3.16313   3.16441   3.16954   3.17603   3.17806
 Alpha virt. eigenvalues --    3.17888   3.18295   3.18648   3.18788   3.18960
 Alpha virt. eigenvalues --    3.19204   3.19387   3.19592   3.19859   3.20123
 Alpha virt. eigenvalues --    3.20368   3.20556   3.20861   3.21267   3.21653
 Alpha virt. eigenvalues --    3.22142   3.22257   3.22609   3.22941   3.23365
 Alpha virt. eigenvalues --    3.23572   3.25211   3.25427   3.25539   3.26241
 Alpha virt. eigenvalues --    3.26417   3.26764   3.28482   3.28974   3.30257
 Alpha virt. eigenvalues --    3.30494   3.31765   3.32433   3.33210   3.34228
 Alpha virt. eigenvalues --    3.34316   3.35450   3.35813   3.37660   3.38227
 Alpha virt. eigenvalues --    3.40296   3.45528   3.47076   3.48836   3.51456
 Alpha virt. eigenvalues --    3.52170   3.52913   3.53587   3.54051   3.54560
 Alpha virt. eigenvalues --    3.56392   3.57077   3.58423   3.58526   3.59763
 Alpha virt. eigenvalues --    3.60781   3.60911   3.61979   3.62843   3.64347
 Alpha virt. eigenvalues --    3.64964   3.65421   3.66570   3.67384   3.67556
 Alpha virt. eigenvalues --    3.68059   3.68306   3.68810   3.69217   3.69406
 Alpha virt. eigenvalues --    3.69967   3.70512   3.70801   3.71887   3.72645
 Alpha virt. eigenvalues --    3.72930   3.73377   3.73829   3.75186   3.76546
 Alpha virt. eigenvalues --    3.77622   3.80124   3.82396   3.84164
          Condensed to atoms (all electrons):
 Mulliken charges:
               1
     1  C    0.049866
     2  C    0.014620
     3  O   -0.289355
     4  H   -0.036488
     5  H    0.022113
     6  H    0.060060
     7  N   -0.099472
     8  C    0.098817
     9  C    0.054102
    10  O   -0.316194
    11  C    0.052568
    12  C    0.177419
    13  O   -0.376367
    14  O   -0.455969
    15  H    0.119990
    16  H    0.019529
    17  H    0.004118
    18  H    0.000388
    19  N   -0.124053
    20  C    0.102863
    21  C    0.064756
    22  O   -0.302473
    23  C    0.052628
    24  C    0.016381
    25  C   -0.059511
    26  C   -0.010536
    27  N    0.096848
    28  H    0.137131
    29  H    0.007322
    30  H    0.011722
    31  H    0.012633
    32  H    0.003044
    33  H    0.015434
    34  H    0.033321
    35  H    0.028168
    36  H    0.058575
    37  H    0.117200
    38  H    0.184345
    39  H    0.197976
    40  H    0.196498
    41  N   -0.121556
    42  C    0.127104
    43  C    0.058120
    44  O   -0.271024
    45  C    0.088587
    46  C    0.094267
    47  O   -0.493901
    48  O   -0.371800
    49  H    0.149149
    50  H    0.008367
    51  H   -0.005757
    52  H    0.003696
    53  N   -0.163281
    54  C    0.230215
    55  C    0.043820
    56  O   -0.290702
    57  H    0.125036
    58  H    0.013802
    59  H    0.020461
    60  N   -0.155541
    61  C    0.138500
    62  C    0.069346
    63  O   -0.293239
    64  C    0.114712
    65  C    0.041761
    66  N   -0.029175
    67  O   -0.370887
    68  H    0.152690
    69  H    0.041225
    70  H    0.084172
    71  H   -0.015487
    72  H    0.139309
    73  H    0.127568
    74  N   -0.188950
    75  C    0.235605
    76  C   -0.001642
    77  O   -0.298817
    78  H    0.153231
    79  H    0.036783
    80  H    0.043976
    81  N   -0.151388
    82  C    0.177095
    83  C    0.083357
    84  O   -0.328151
    85  C    0.108184
    86  C   -0.002656
    87  C    0.010851
    88  C    0.024515
    89  C   -0.027638
    90  C   -0.028549
    91  C    0.154829
    92  O   -0.195154
    93  H    0.135159
    94  H   -0.006616
    95  H   -0.018717
    96  H   -0.041146
    97  H   -0.036934
    98  H   -0.036632
    99  H   -0.006143
   100  H   -0.057657
   101  H    0.172110
   102  N   -0.121661
   103  C    0.133851
   104  C    0.053183
   105  O   -0.277349
   106  C   -0.100387
   107  C   -0.017517
   108  C    0.068039
   109  C    0.050429
   110  H    0.125104
   111  H    0.014464
   112  H   -0.021619
   113  H    0.024583
   114  H    0.008571
   115  H    0.014354
   116  H    0.028253
   117  H   -0.000061
   118  H    0.021045
   119  H    0.007500
   120  H   -0.008250
   121  N   -0.135811
   122  C    0.098673
   123  C    0.086088
   124  O   -0.289081
   125  C    0.261996
   126  O   -0.336141
   127  H    0.139557
   128  H    0.014044
   129  H   -0.017350
   130  H   -0.024365
   131  H    0.160357
   132  N   -0.107288
   133  C    0.100445
   134  C    0.043695
   135  O   -0.256525
   136  C    0.042900
   137  H    0.123826
   138  H    0.020266
   139  H    0.043143
   140  H    0.039087
   141  H    0.019990
   142  N   -0.143038
   143  C    0.097758
   144  C    0.080450
   145  O   -0.251893
   146  C    0.029003
   147  H    0.114465
   148  H    0.014885
   149  H    0.018143
   150  H    0.025942
   151  H    0.015932
   152  N   -0.199654
   153  C    0.162560
   154  C    0.097287
   155  O   -0.312616
   156  C   -0.077358
   157  C    0.106268
   158  C    0.159716
   159  O   -0.404228
   160  O   -0.449081
   161  H    0.124311
   162  H   -0.007705
   163  H    0.051390
   164  H    0.010265
   165  H    0.007945
   166  H   -0.009009
   167  N   -0.170218
   168  C    0.143425
   169  H    0.024071
   170  H    0.001240
   171  H    0.030879
   172  H    0.139452
   173  Ca   1.307958
   174  O   -0.280921
   175  H    0.188962
   176  H    0.184895
 Sum of Mulliken charges =  -0.00000
 Mulliken charges with hydrogens summed into heavy atoms:
               1
     1  C    0.095551
     2  C    0.014620
     3  O   -0.289355
     7  N    0.020518
     8  C    0.118346
     9  C    0.054102
    10  O   -0.316194
    11  C    0.057074
    12  C    0.177419
    13  O   -0.376367
    14  O   -0.455969
    19  N    0.013077
    20  C    0.110185
    21  C    0.064756
    22  O   -0.302473
    23  C    0.076984
    24  C    0.034860
    25  C    0.001978
    26  C    0.165239
    27  N    0.675667
    41  N    0.027593
    42  C    0.135471
    43  C    0.058120
    44  O   -0.271024
    45  C    0.086526
    46  C    0.094267
    47  O   -0.493901
    48  O   -0.371800
    53  N   -0.038244
    54  C    0.264479
    55  C    0.043820
    56  O   -0.290702
    60  N   -0.002852
    61  C    0.179725
    62  C    0.069346
    63  O   -0.293239
    64  C    0.183397
    65  C    0.041761
    66  N    0.237702
    67  O   -0.370887
    74  N   -0.035719
    75  C    0.316363
    76  C   -0.001642
    77  O   -0.298817
    81  N   -0.016229
    82  C    0.170479
    83  C    0.083357
    84  O   -0.328151
    85  C    0.048321
    86  C   -0.002656
    87  C   -0.026083
    88  C   -0.012117
    89  C   -0.033782
    90  C   -0.086206
    91  C    0.154829
    92  O   -0.023044
   102  N    0.003443
   103  C    0.148315
   104  C    0.053183
   105  O   -0.277349
   106  C   -0.122006
   107  C    0.015638
   108  C    0.110585
   109  C    0.070724
   121  N    0.003746
   122  C    0.112718
   123  C    0.086088
   124  O   -0.289081
   125  C    0.220280
   126  O   -0.175785
   132  N    0.016538
   133  C    0.120710
   134  C    0.043695
   135  O   -0.256525
   136  C    0.145121
   142  N   -0.028573
   143  C    0.112643
   144  C    0.080450
   145  O   -0.251893
   146  C    0.089021
   152  N   -0.075342
   153  C    0.154855
   154  C    0.097287
   155  O   -0.312616
   156  C   -0.015703
   157  C    0.105204
   158  C    0.159716
   159  O   -0.404228
   160  O   -0.449081
   167  N   -0.030766
   168  C    0.199616
   173  Ca   1.307958
   174  O    0.092936
 DipInt: DoE/N= T F RetVal/Mat= T F Init=T NMatP=  1 IDeriv=0 Min/MaxMlt=  0  4
 Entering OneElI...
 OneElI was handed  1333951383 working-precision words.
 Multipole integrals L=0 to 4 MinM= 0 MaxM= 0.
 Requested accuracy = 0.1000D-12
 ShPair: Thresh= 1.00D-13 NBox=     0 BxSize= 0.00D+00 RnKept= 2.55D+01
         NSMCal=               327645 NSMKep=              162928
 PrmmSu-InSpLW:  IPartL=    0 NPrtUS=    1 NPrtUL=    1 DoSpLW=F IThBeg=    0 IThEnd=    0 NThAct=    1.
 PrsmSu:  NPrtUS=   1 ThrOK=F IAlg=1 NPAlg=1 LenDen=           0 ISkipM=0 DoSpLW=F IThBeg=    0 IThEnd=    0.
 Prism:   IPart=     0 DynPar=F LinDyn=F Incr=         512.
 PRISM was handed  1323767313 working-precision words and162928 shell-pairs
 IPart=  0 NShTot=      162928 NBatch=         374 AvBLen=       435.6
 PrsmSu-ThDecC:  IPartSL=    0    0 NPrtUSL=    1    1 IThBeg=    0 IThEnd=    0 CPU=   -1 GPU=   -1 NThAct=    1.
 PrSmSu:  NxtVal=            513.
 Electronic moments (au):
       -716.00000000         11.21526755         -0.86610669          3.65525671
     -54286.92523201     -29622.22551298     -11311.38499790         65.89662746
         11.61239738         92.70487232     -75719.75131653        478.07199066
      -8707.16194807      35509.33757704     112548.58088601      38205.99823212
      -9731.58129409     -16147.47778254      -4200.31887908     -40589.62277767
   -8104181.61223149   -2725331.69031855    -476546.29573477     218832.76069526
     409791.09798273    -656952.36089956       7141.63953027     -65428.38788678
     -24089.03999622   -2259937.04148771    -656301.46897959    -361047.80288804
    -134093.65094645     -39746.05354206      26254.02788954
 Electronic spatial extent (au):  <R**2>=          95220.5357
 DipInt: DoE/N= F T RetVal/Mat= T F Init=T NMatP=  1 IDeriv=0 Min/MaxMlt=  0  4
 Nuclear    moments (au):
        716.00000000          0.00000000         -0.00000000         -0.00000000
      53781.89973534      29313.60824658      10914.08741819          0.00000000
          0.00000000          0.00000000      76461.50641758         80.49167866
       9008.31050182     -34081.71637502    -112766.08269812     -38196.49582824
      10186.12468969      16265.90600643       4908.11844965      40914.62978695
    7884718.15775518    2642701.63146606     437340.43017035    -216108.69544234
    -408577.80533158     671570.05114499       2934.91494710      65722.80633016
      28584.95369255    2222738.33027152     620277.49046004     340156.40475550
     139017.62692055      42460.35404942     -23969.84028473
 Total      moments (au):
         -0.00000000         11.21526755         -0.86610669          3.65525671
       -505.02549667       -308.61726640       -397.29757972         65.89662746
         11.61239738         92.70487232        741.75510105        558.56366932
        301.14855376       1427.62120202       -217.50181210          9.50240388
        454.54339560        118.42822389        707.79957058        325.00700928
    -219463.45447631     -82630.05885250     -39205.86556442       2724.06525292
       1213.29265115      14617.69024543      10076.55447737        294.41844338
       4495.91369633     -37198.71121619     -36023.97851955     -20891.39813254
       4923.97597410       2714.30050736       2284.18760480
 Traceless Quadrup. (au):
       -101.37871574         95.02951453          6.34920121         65.89662746
         11.61239738         92.70487232
 Charge=             -0.0000 electrons
 Dipole moment (field-independent basis, Debye):
    X=             28.5064    Y=             -2.2014    Z=              9.2907  Tot=             30.0629
 Quadrupole moment (field-independent basis, Debye-Ang):
   XX=           -679.2766   YY=           -415.1008   ZZ=           -534.3789
   XY=             88.6332   XZ=             15.6191   YZ=            124.6912
 Traceless Quadrupole moment (field-independent basis, Debye-Ang):
   XX=           -136.3578   YY=            127.8180   ZZ=              8.5399
   XY=             88.6332   XZ=             15.6191   YZ=            124.6912
 Octapole moment (field-independent basis, Debye-Ang**2):
  XXX=            527.9527  YYY=            397.5641  ZZZ=            214.3459  XYY=           1016.1258
  XXY=           -154.8094  XXZ=              6.7634  XZZ=            323.5265  YZZ=             84.2926
  YYZ=            503.7845  XYZ=            231.3275
 Hexadecapole moment (field-independent basis, Debye-Ang**3):
 XXXX=         -82660.4606 YYYY=         -31122.4424 ZZZZ=         -14766.8090 XXXY=           1026.0136
 XXXZ=            456.9842 YYYX=           5505.7231 YYYZ=           3795.3136 ZZZX=            110.8921
 ZZZY=           1693.3767 XXYY=         -14010.8184 XXZZ=         -13568.3577 YYZZ=          -7868.7023
 XXYZ=           1854.6055 YYXZ=           1022.3357 ZZXY=            860.3346
 N-N= 2.181509937765D+04 E-N=-5.610901474997D+04  KE= 5.290637592623D+03
 Leave Link  601 at Wed Sep 18 19:36:51 2019, MaxMem=  1342177280 cpu:              45.6 elap:               1.2
 FitSet:  NAtFit=   176 NAtPot=   176 NAtFrz=     0 MDM=   180 TotChg=   0.00000
 Merz-Kollman atomic radii used.
 Read replacement radii for each type of atom:
 Rad(20) =   1.700000000000D+00
 Atom Element Radius
    1     6    1.50
    2     6    1.50
    3     8    1.40
    4     1    1.20
    5     1    1.20
    6     1    1.20
    7     7    1.50
    8     6    1.50
    9     6    1.50
   10     8    1.40
   11     6    1.50
   12     6    1.50
   13     8    1.40
   14     8    1.40
   15     1    1.20
   16     1    1.20
   17     1    1.20
   18     1    1.20
   19     7    1.50
   20     6    1.50
   21     6    1.50
   22     8    1.40
   23     6    1.50
   24     6    1.50
   25     6    1.50
   26     6    1.50
   27     7    1.50
   28     1    1.20
   29     1    1.20
   30     1    1.20
   31     1    1.20
   32     1    1.20
   33     1    1.20
   34     1    1.20
   35     1    1.20
   36     1    1.20
   37     1    1.20
   38     1    1.20
   39     1    1.20
   40     1    1.20
   41     7    1.50
   42     6    1.50
   43     6    1.50
   44     8    1.40
   45     6    1.50
   46     6    1.50
   47     8    1.40
   48     8    1.40
   49     1    1.20
   50     1    1.20
   51     1    1.20
   52     1    1.20
   53     7    1.50
   54     6    1.50
   55     6    1.50
   56     8    1.40
   57     1    1.20
   58     1    1.20
   59     1    1.20
   60     7    1.50
   61     6    1.50
   62     6    1.50
   63     8    1.40
   64     6    1.50
   65     6    1.50
   66     7    1.50
   67     8    1.40
   68     1    1.20
   69     1    1.20
   70     1    1.20
   71     1    1.20
   72     1    1.20
   73     1    1.20
   74     7    1.50
   75     6    1.50
   76     6    1.50
   77     8    1.40
   78     1    1.20
   79     1    1.20
   80     1    1.20
   81     7    1.50
   82     6    1.50
   83     6    1.50
   84     8    1.40
   85     6    1.50
   86     6    1.50
   87     6    1.50
   88     6    1.50
   89     6    1.50
   90     6    1.50
   91     6    1.50
   92     8    1.40
   93     1    1.20
   94     1    1.20
   95     1    1.20
   96     1    1.20
   97     1    1.20
   98     1    1.20
   99     1    1.20
  100     1    1.20
  101     1    1.20
  102     7    1.50
  103     6    1.50
  104     6    1.50
  105     8    1.40
  106     6    1.50
  107     6    1.50
  108     6    1.50
  109     6    1.50
  110     1    1.20
  111     1    1.20
  112     1    1.20
  113     1    1.20
  114     1    1.20
  115     1    1.20
  116     1    1.20
  117     1    1.20
  118     1    1.20
  119     1    1.20
  120     1    1.20
  121     7    1.50
  122     6    1.50
  123     6    1.50
  124     8    1.40
  125     6    1.50
  126     8    1.40
  127     1    1.20
  128     1    1.20
  129     1    1.20
  130     1    1.20
  131     1    1.20
  132     7    1.50
  133     6    1.50
  134     6    1.50
  135     8    1.40
  136     6    1.50
  137     1    1.20
  138     1    1.20
  139     1    1.20
  140     1    1.20
  141     1    1.20
  142     7    1.50
  143     6    1.50
  144     6    1.50
  145     8    1.40
  146     6    1.50
  147     1    1.20
  148     1    1.20
  149     1    1.20
  150     1    1.20
  151     1    1.20
  152     7    1.50
  153     6    1.50
  154     6    1.50
  155     8    1.40
  156     6    1.50
  157     6    1.50
  158     6    1.50
  159     8    1.40
  160     8    1.40
  161     1    1.20
  162     1    1.20
  163     1    1.20
  164     1    1.20
  165     1    1.20
  166     1    1.20
  167     7    1.50
  168     6    1.50
  169     1    1.20
  170     1    1.20
  171     1    1.20
[...]
 **** Fit       0.007597
 **** Fit       0.007695
 **** Fit       0.007306
 **** Fit       0.006741
 **** Fit       0.002469
 **** Fit       0.000354
 **** Fit      -0.001004
 **** Fit       0.006400
 **** Fit       0.005202
 **** Fit       0.003708
 **** Fit       0.002165
 **** Fit       0.001306
 **** Fit       0.001907
 **** Fit       0.004852
 **** Fit       0.003610
 **** Fit       0.003391
 **** Fit       0.004579
 **** Fit      -0.016027
 **** Fit      -0.005532
 **** Fit      -0.010882
 **** Fit      -0.015153
 **** Fit      -0.000814
 **** Fit      -0.004833
 **** Fit      -0.007998
 **** Fit      -0.007906
 **** Fit      -0.000704
 **** Fit      -0.002910
 **** Fit      -0.001395
 **** Fit       0.003979
 **** Fit       0.007409
 **** Fit       0.005362
 **** Fit       0.003028
 **** Fit       0.001168
 **** Fit       0.003622
 **** Fit       0.006462
 **** Fit       0.006346
 **** Fit       0.004244
 **** Fit       0.007737
 **** Fit       0.009680
 **** Fit       0.009531
 **** Fit       0.012002
 **** Fit       0.018736
 **** Fit       0.021426
 **** Fit       0.014292
 **** Fit      -0.014718
 **** Fit      -0.002339
 **** Fit       0.009329
 **** Fit      -0.003283
 **** Fit       0.007305
 **** Fit       0.016602
 **** Fit      -0.002041
 **** Fit       0.007600
 **** Fit       0.015647
 **** Fit       0.000014
 **** Fit       0.008456
 **** Fit       0.001426
 **** Fit       0.008468
 **** Fit      -0.002018
 **** Fit       0.005073
 **** Fit       0.010210
 **** Fit       0.002381
 **** Fit       0.007360
 **** Fit       0.010613
 **** Fit       0.001816
 **** Fit       0.006259
 **** Fit       0.003131
 **** Fit       0.006568
 **** Fit       0.008348
 **** Fit       0.007593
 **** Fit       0.007824
 **** Fit       0.006750
 **** Fit       0.005716
 **** Fit       0.005055
 **** Fit       0.005997
 **** Fit       0.006595
 **** Fit       0.008000
 **** Fit       0.006679
 **** Fit       0.005773
 **** Fit       0.005612
 **** Fit       0.006121
 **** Fit       0.006419
 **** Fit       0.008090
 **** Fit       0.006846
 **** Fit       0.006778
 **** Fit       0.007343
 **** Fit       0.007936
 **** Fit       0.010992
 **** Fit       0.013134
 **** Fit       0.008882
 **** Fit       0.010322
 **** Fit       0.011547
 **** Fit       0.012101
 **** Fit       0.008572
 **** Fit       0.009260
 **** Fit       0.009545
 **** Fit       0.007837
 **** Fit       0.007729
 **** Fit       0.007033
 **** Fit       0.006428
 **** Fit       0.005256
 **** Fit       0.003503
 **** Fit       0.008381
 **** Fit       0.008067
 **** Fit       0.008653
 **** Fit       0.008432
 **** Fit       0.007583
 **** Fit       0.008748
 **** Fit       0.009025
 **** Fit       0.008971
 **** Fit       0.008541
 **** Fit       0.007987
 **** Fit       0.006949
 **** Fit       0.006724
 **** Fit       0.008591
 **** Fit       0.009141
 **** Fit       0.008708
 **** Fit       0.008003
 **** Fit       0.007390
 **** Fit       0.006179
 **** Fit       0.005833
 **** Fit       0.005667
 **** Fit       0.007858
 **** Fit       0.008646
 **** Fit       0.008151
 **** Fit       0.007341
 **** Fit       0.006682
 **** Fit       0.005291
 **** Fit       0.004853
 **** Fit       0.004507
 **** Fit       0.007088
 **** Fit       0.008116
 **** Fit       0.008196
 **** Fit       0.007248
 **** Fit       0.006461
 **** Fit       0.005820
 **** Fit       0.004305
 **** Fit       0.003769
 **** Fit       0.003260
 **** Fit       0.002786
 **** Fit       0.004554
 **** Fit       0.005956
 **** Fit       0.007335
 **** Fit       0.007336
 **** Fit       0.006343
 **** Fit       0.005541
 **** Fit       0.004881
 **** Fit       0.003243
 **** Fit       0.002633
 **** Fit       0.001981
 **** Fit       0.001285
 **** Fit       0.000547
 **** Fit       0.006227
 **** Fit       0.005254
 **** Fit       0.004483
 **** Fit       0.003840
 **** Fit      -0.000269
 **** Fit      -0.001314
 **** Fit      -0.002523
 **** Fit       0.006232
 **** Fit       0.004993
 **** Fit       0.004049
 **** Fit       0.003327
 **** Fit      -0.004723
 **** Fit      -0.006644
 **** Fit       0.006252
 **** Fit       0.004672
 **** Fit       0.003477
 **** Fit      -0.009504
 **** Fit      -0.012610
 **** Fit       0.004467
 **** Fit       0.002825
 **** Fit      -0.013233
 **** Fit      -0.017254
 **** Fit       0.005086
 **** Fit       0.002514
 **** Fit       0.002664
 **** Fit      -0.000472
 **** Fit      -0.001405
 **** Fit      -0.005210
 **** Fit       0.008445
 **** Fit       0.008117
 **** Fit       0.008167
 **** Fit       0.008360
 **** Fit       0.008486
 **** Fit       0.008533
 **** Fit       0.008357
 **** Fit       0.007540
 **** Fit       0.007461
 **** Fit       0.007598
 **** Fit       0.007803
 **** Fit       0.007936
 **** Fit       0.008026
 **** Fit       0.008183
 **** Fit       0.008386
 **** Fit       0.008521
 **** Fit       0.007842
 **** Fit       0.006739
 **** Fit       0.006520
 **** Fit       0.006495
 **** Fit       0.006615
 **** Fit       0.006783
 **** Fit       0.006899
 **** Fit       0.006931
 **** Fit       0.006969
 **** Fit       0.007133
 **** Fit       0.007453
 **** Fit       0.007849
 **** Fit       0.008216
 **** Fit       0.005336
 **** Fit       0.005120
 **** Fit       0.005050
 **** Fit       0.005074
 **** Fit       0.005124
 **** Fit       0.005124
 **** Fit       0.005047
 **** Fit       0.004959
 **** Fit       0.005008
 **** Fit       0.005311
 **** Fit       0.005859
 **** Fit       0.006541
 **** Fit       0.007228
 **** Fit       0.003906
 **** Fit       0.003454
 **** Fit       0.003124
 **** Fit       0.002876
 **** Fit       0.002661
 **** Fit       0.002428
 **** Fit       0.002139
 **** Fit       0.001804
 **** Fit       0.001521
 **** Fit       0.001480
 **** Fit       0.001850
 **** Fit       0.002643
 **** Fit       0.003704
 **** Fit       0.004850
 **** Fit       0.001522
 **** Fit       0.000868
 **** Fit       0.000247
 **** Fit      -0.000395
 **** Fit      -0.001101
 **** Fit      -0.001893
 **** Fit      -0.002748
 **** Fit      -0.003877
 **** Fit      -0.002691
 **** Fit      -0.001029
 **** Fit       0.000764
 **** Fit       0.002460
 **** Fit      -0.001863
 **** Fit      -0.003005
 **** Fit      -0.004291
 **** Fit      -0.005803
 **** Fit      -0.005774
 **** Fit      -0.002879
 **** Fit      -0.006772
 **** Fit      -0.008886
 **** Fit      -0.011493
 **** Fit      -0.014552
 **** Fit       0.009308
 **** Fit       0.009467
 **** Fit       0.009965
 **** Fit       0.009692
 **** Fit       0.009497
 **** Fit       0.010253
 **** Fit       0.010664
 **** Fit       0.010579
 **** Fit       0.010036
 **** Fit       0.009275
 **** Fit       0.009377
 **** Fit       0.010302
 **** Fit       0.011001
 **** Fit       0.011387
 **** Fit       0.011406
 **** Fit       0.011041
 **** Fit       0.010356
 **** Fit       0.009507
 **** Fit       0.008693
 **** Fit       0.009646
 **** Fit       0.010698
 **** Fit       0.011493
 **** Fit       0.012015
 **** Fit       0.012235
 **** Fit       0.012107
 **** Fit       0.011616
 **** Fit       0.010818
 **** Fit       0.009841
 **** Fit       0.008849
 **** Fit       0.009144
 **** Fit       0.010504
 **** Fit       0.011569
 **** Fit       0.012354
 **** Fit       0.012878
 **** Fit       0.013098
 **** Fit       0.012950
 **** Fit       0.012405
 **** Fit       0.011511
 **** Fit       0.010382
 **** Fit       0.009175
 **** Fit       0.008052
 **** Fit       0.011336
 **** Fit       0.012414
 **** Fit       0.013240
 **** Fit       0.013819
 **** Fit       0.014074
 **** Fit       0.013921
 **** Fit       0.013324
 **** Fit       0.012328
 **** Fit       0.011042
 **** Fit       0.009620
 **** Fit       0.008227
 **** Fit       0.012367
 **** Fit       0.013532
 **** Fit       0.014472
 **** Fit       0.015082
 **** Fit       0.015223
 **** Fit       0.014806
 **** Fit       0.013834
 **** Fit       0.012406
 **** Fit       0.010695
 **** Fit       0.008901
 **** Fit       0.007221
 **** Fit       0.013445
 **** Fit       0.014894
 **** Fit       0.016014
 **** Fit       0.016606
 **** Fit       0.016518
 **** Fit       0.015695
 **** Fit       0.014203
 **** Fit       0.012223
 **** Fit       0.010000
 **** Fit       0.007787
 **** Fit       0.014027
 **** Fit       0.016120
 **** Fit       0.017655
 **** Fit       0.018394
 **** Fit       0.018162
 **** Fit       0.016912
 **** Fit       0.014788
 **** Fit       0.012089
 **** Fit       0.009176
 **** Fit       0.006384
 **** Fit       0.015663
 **** Fit       0.018534
 **** Fit       0.012807
 **** Fit       0.008764
 **** Fit       0.002535
 **** Fit       0.001894
 **** Fit       0.001417
 **** Fit       0.000780
 **** Fit       0.000036
 **** Fit      -0.000886
 **** Fit       0.002669
 **** Fit       0.002020
 **** Fit       0.000118
 **** Fit      -0.000493
 **** Fit      -0.001237
 **** Fit      -0.002190
 **** Fit      -0.003450
 **** Fit       0.002734
 **** Fit       0.001887
 **** Fit       0.001228
 **** Fit       0.000667
 **** Fit      -0.001466
 **** Fit      -0.002075
 **** Fit      -0.002854
 **** Fit      -0.003889
 **** Fit      -0.005290
 **** Fit      -0.007234
 **** Fit       0.000880
 **** Fit       0.000117
 **** Fit      -0.000458
 **** Fit      -0.000954
 **** Fit      -0.003456
 **** Fit      -0.004035
 **** Fit      -0.004825
 **** Fit      -0.005905
 **** Fit      -0.007385
 **** Fit      -0.009438
 **** Fit      -0.012359
 **** Fit      -0.000676
 **** Fit      -0.001588
 **** Fit      -0.002190
 **** Fit      -0.002624
 **** Fit      -0.003013
 **** Fit      -0.005992
 **** Fit      -0.006526
 **** Fit      -0.007332
 **** Fit      -0.008485
 **** Fit      -0.010093
 **** Fit      -0.012321
 **** Fit      -0.015460
 **** Fit      -0.002995
 **** Fit      -0.004198
 **** Fit      -0.004866
 **** Fit      -0.005216
 **** Fit      -0.005432
 **** Fit      -0.005655
 **** Fit      -0.009244
 **** Fit      -0.009719
 **** Fit      -0.010586
 **** Fit      -0.011924
 **** Fit      -0.013848
 **** Fit      -0.016540
 **** Fit      -0.020324
 **** Fit      -0.008198
 **** Fit      -0.009175
 **** Fit      -0.009430
 **** Fit      -0.009333
 **** Fit      -0.009157
 **** Fit      -0.009086
 **** Fit      -0.013425
 **** Fit      -0.013779
 **** Fit      -0.014733
 **** Fit      -0.016363
 **** Fit      -0.018786
 **** Fit      -0.022195
 **** Fit      -0.026925
 **** Fit      -0.015217
 **** Fit      -0.014243
 **** Fit      -0.013605
 **** Fit      -0.018786
 **** Fit      -0.018899
 **** Fit      -0.019920
 **** Fit      -0.021899
 **** Fit      -0.024924
 **** Fit      -0.029136
 **** Fit      -0.034731
 **** Fit      -0.019565
 **** Fit      -0.025603
 **** Fit      -0.025333
 **** Fit      -0.026616
 **** Fit      -0.029428
 **** Fit      -0.033786
 **** Fit      -0.033183
 **** Fit      -0.034873
 **** Fit      -0.003008
 **** Fit      -0.012432
 **** Fit       0.008437
 **** Fit       0.000751
 **** Fit      -0.008592
 **** Fit       0.023939
 **** Fit       0.015745
 **** Fit       0.005399
 **** Fit      -0.004173
 **** Fit      -0.015793
 **** Fit       0.011453
 **** Fit       0.022380
 **** Fit       0.013975
 **** Fit       0.000328
 **** Fit      -0.011607
 **** Fit       0.001625
 **** Fit       0.014461
 **** Fit       0.021656
 **** Fit       0.022457
 **** Fit       0.017852
 **** Fit       0.010063
 **** Fit      -0.006912
 **** Fit      -0.021868
 **** Fit      -0.008923
 **** Fit       0.004072
 **** Fit       0.007793
 **** Fit       0.003346
 **** Fit      -0.016490
 **** Fit      -0.008797
 **** Fit       0.033237
 **** Fit       0.034843
 **** Fit       0.036719
 **** Fit       0.040130
 **** Fit       0.036603
 **** Fit       0.038279
 **** Fit       0.041479
 **** Fit       0.045432
 **** Fit       0.037659
 **** Fit       0.038982
 **** Fit       0.037889
 **** Fit       0.035755
 **** Fit       0.036592
 **** Fit       0.039327
 **** Fit       0.040994
 **** Fit       0.039712
 **** Fit       0.042068
 **** Fit       0.044539
 **** Fit       0.035008
 **** Fit       0.037821
 **** Fit       0.040703
 **** Fit       0.043555
 **** Fit       0.046494
 **** Fit       0.049776
 **** Fit       0.039013
 **** Fit       0.041753
 **** Fit       0.044733
 **** Fit       0.047884
 **** Fit       0.051312
 **** Fit       0.044467
 **** Fit       0.047645
 **** Fit       0.051184
 **** Fit       0.055133
 **** Fit       0.050668
 **** Fit       0.052985
 **** Fit       0.044409
 **** Fit       0.046918
 **** Fit       0.049283
 **** Fit       0.051425
 **** Fit       0.038753
 **** Fit       0.039902
 **** Fit       0.041740
 **** Fit       0.043917
 **** Fit       0.046124
 **** Fit       0.048161
 **** Fit       0.049910
 **** Fit       0.040303
 **** Fit       0.036789
 **** Fit       0.033914
 **** Fit       0.031940
 **** Fit       0.031174
 **** Fit       0.035296
 **** Fit       0.036861
 **** Fit       0.038353
 **** Fit       0.040167
 **** Fit       0.042234
 **** Fit       0.044316
 **** Fit       0.046181
 **** Fit       0.047625
 **** Fit       0.048415
 **** Fit       0.039607
 **** Fit       0.036626
 **** Fit       0.034020
 **** Fit       0.031988
 **** Fit       0.030405
 **** Fit       0.028718
 **** Fit       0.026363
 **** Fit       0.023626
 **** Fit       0.021784
 **** Fit       0.022005
 **** Fit       0.024340
 **** Fit       0.027900
 **** Fit       0.031452
 **** Fit       0.034252
 **** Fit       0.036453
 **** Fit       0.038500
 **** Fit       0.040564
 **** Fit       0.042535
 **** Fit       0.044184
 **** Fit       0.045251
 **** Fit       0.045456
 **** Fit       0.044542
 **** Fit       0.042466
 **** Fit       0.038641
 **** Fit       0.035899
 **** Fit       0.033259
 **** Fit       0.030820
 **** Fit       0.028380
 **** Fit       0.025951
 **** Fit       0.024329
 **** Fit       0.024557
 **** Fit       0.026732
 **** Fit       0.029910
 **** Fit       0.033034
 **** Fit       0.035717
 **** Fit       0.038077
 **** Fit       0.040167
 **** Fit       0.041798
 **** Fit       0.042659
 **** Fit       0.042440
 **** Fit       0.041014
 **** Fit       0.037342
 **** Fit       0.034512
 **** Fit       0.031571
 **** Fit       0.028940
 **** Fit       0.027478
 **** Fit       0.028245
 **** Fit       0.030894
 **** Fit       0.034035
 **** Fit       0.036829
 **** Fit       0.038942
 **** Fit       0.039936
 **** Fit       0.039379
 **** Fit       0.035776
 **** Fit       0.032715
 **** Fit       0.030830
 **** Fit       0.032366
 **** Fit       0.035470
 **** Fit       0.037093
 **** Fit       0.034064
 -----------------------------------------------------------------
 Leave Link  602 at Wed Sep 18 19:36:53 2019, MaxMem=  1342177280 cpu:             101.3 elap:               2.2

 Test job not archived.
 1\1\GINC-C506-072\SP\RB3LYP\SVP\C54H83Ca1N15O23\JAEBEOMH\18-Sep-2019\0
 \\#b3lyp/svp scf=(tight,noincore) Test #IOP(5/87=12) Density=Current P
 op=(MK,readradii) iop(6/33=2) iop(6/42=6)\\holoCaM_loop3_43.0\\0,1\C,0
 ,85.86,32.96,26.37\C,0,87.35,32.62,26.47\O,0,87.66,31.51,26.88\H,0,85.
 311,32.414,27.137\H,0,85.72,34.031,26.517\H,0,85.487,32.676,25.386\N,0
 ,88.23,33.58,26.15\C,0,89.67,33.54,26.19\C,0,89.94,33.95,27.63\O,0,89.
 65,35.09,27.99\C,0,90.32,34.55,25.24\C,0,91.83,34.75,25.27\O,0,92.32,3
 5.75,24.71\O,0,92.53,33.99,25.97\H,0,87.82,34.35,25.65\H,0,90.12,32.57
 ,25.96\H,0,89.76,35.48,25.33\H,0,90.04,34.14,24.26\N,0,90.45,33.1,28.5
 2\C,0,90.39,33.44,29.93\C,0,91.54,34.3,30.44\O,0,91.55,34.74,31.59\C,0
 ,90.24,32.21,30.82\C,0,88.98,31.4,30.57\C,0,87.63,32.12,30.61\C,0,86.5
 1,31.24,30.07\N,0,85.26,32.02,30.01\H,0,90.78,32.18,28.28\H,0,89.53,34
 .07,30.17\H,0,90.23,32.54,31.86\H,0,91.12,31.58,30.7\H,0,88.91,30.58,3
 1.29\H,0,89.09,30.92,29.61\H,0,87.66,32.98,29.94\H,0,87.51,32.42,31.65
 \H,0,86.43,30.44,30.8\H,0,86.79,30.66,29.19\H,0,84.86,32.27,30.9\H,0,8
 5.41,32.87,29.48\H,0,84.63,31.34,29.63\N,0,92.36,34.78,29.5\C,0,93.46,
 35.69,29.76\C,0,93.79,36.8,28.77\O,0,94.87,37.38,28.65\C,0,94.71,34.94
 ,30.22\C,0,95.26,33.89,29.26\O,0,94.47,33.24,28.55\O,0,96.49,33.81,29.
 05\H,0,92.31,34.35,28.59\H,0,93.15,36.24,30.64\H,0,94.55,34.35,31.13\H
 ,0,95.48,35.66,30.49\N,0,92.9,36.97,27.8\C,0,93.04,37.99,26.78\C,0,94.
 28,37.97,25.91\O,0,94.67,39.03,25.44\H,0,92.01,36.49,27.86\H,0,92.97,3
 8.95,27.29\H,0,92.22,37.89,26.07\N,0,95.01,36.85,25.88\C,0,96.26,36.7,
 25.16\C,0,96.03,36.38,23.69\O,0,96.98,36.3,22.92\C,0,97.1,35.61,25.81\
 C,0,96.73,34.19,25.41\N,0,97.63,33.37,24.86\O,0,95.56,33.81,25.51\H,0,
 94.66,36.,26.29\H,0,96.81,37.64,25.29\H,0,97.05,35.67,26.9\H,0,98.16,3
 5.66,25.55\H,0,98.59,33.67,24.92\H,0,97.3,32.47,24.52\N,0,94.79,36.18,
 23.22\C,0,94.38,36.18,21.83\C,0,94.21,34.82,21.17\O,0,94.03,34.62,19.9
 7\H,0,94.,36.16,23.85\H,0,95.2,36.68,21.31\H,0,93.43,36.7,21.69\N,0,94
 .21,33.76,21.98\C,0,94.12,32.35,21.66\C,0,93.2,31.7,22.68\O,0,93.1,32.
 04,23.86\C,0,95.51,31.72,21.75\C,0,96.57,32.26,20.82\C,0,97.35,33.32,2
 1.3\C,0,96.64,31.78,19.51\C,0,98.37,33.85,20.5\C,0,97.64,32.36,18.73\C
 ,0,98.52,33.36,19.19\O,0,99.5,33.93,18.43\H,0,94.31,34.08,22.93\H,0,93
 .65,32.25,20.69\H,0,95.52,30.64,21.63\H,0,95.75,31.91,22.79\H,0,97.25,
 33.69,22.31\H,0,95.96,31.02,19.15\H,0,98.95,34.72,20.79\H,0,97.81,32.0
 5,17.71\H,0,99.41,33.66,17.51\N,0,92.41,30.72,22.24\C,0,91.66,29.81,23
 .09\C,0,92.23,28.41,22.97\O,0,92.64,28.01,21.88\C,0,90.17,29.97,22.79\
 C,0,89.64,31.36,23.15\C,0,89.33,28.88,23.45\C,0,88.15,31.56,22.93\H,0,
 92.38,30.58,21.24\H,0,91.89,30.08,24.12\H,0,90.11,29.87,21.7\H,0,90.25
 ,32.15,22.72\H,0,89.82,31.42,24.23\H,0,89.64,27.88,23.17\H,0,89.32,29.
 09,24.52\H,0,88.35,28.94,22.97\H,0,87.85,30.94,22.08\H,0,87.57,31.28,2
 3.81\H,0,87.94,32.63,22.97\N,0,92.19,27.7,24.1\C,0,92.71,26.38,24.37\C
 ,0,91.74,25.34,24.9\O,0,90.69,25.77,25.38\C,0,93.85,26.48,25.39\O,0,93
 .39,26.97,26.63\H,0,91.78,28.14,24.91\H,0,93.07,26.1,23.38\H,0,94.68,2
 7.12,25.07\H,0,94.21,25.47,25.55\H,0,93.56,27.91,26.58\N,0,91.95,24.02
 ,24.79\C,0,91.06,22.98,25.27\C,0,90.61,23.1,26.72\O,0,89.49,22.78,27.1
 1\C,0,91.7,21.61,25.09\H,0,92.73,23.74,24.22\H,0,90.17,23.,24.64\H,0,9
 1.04,20.87,25.52\H,0,91.73,21.47,24.\H,0,92.61,21.63,25.69\N,0,91.47,2
 3.55,27.64\C,0,90.95,23.84,28.96\C,0,89.96,25.,28.95\O,0,88.97,25.02,2
 9.67\C,0,92.15,24.27,29.81\H,0,92.34,23.99,27.37\H,0,90.55,22.95,29.44
 \H,0,92.47,25.23,29.42\H,0,91.9,24.34,30.87\H,0,92.91,23.49,29.86\N,0,
 90.29,26.03,28.17\C,0,89.34,27.13,28.08\C,0,88.05,26.83,27.34\O,0,86.9
 8,27.26,27.78\C,0,90.02,28.35,27.47\C,0,91.27,28.81,28.21\C,0,92.08,29
 .84,27.44\O,0,91.82,31.06,27.56\O,0,93.,29.58,26.64\H,0,91.07,25.99,27
 .53\H,0,89.15,27.35,29.13\H,0,89.31,29.18,27.39\H,0,90.37,28.04,26.48\
 H,0,91.94,27.99,28.48\H,0,90.95,29.28,29.14\N,0,88.09,25.81,26.47\C,0,
 86.88,25.32,25.85\H,0,86.114,26.094,25.888\H,0,87.083,25.061,24.811\H,
 0,86.53,24.436,26.383\H,0,89.,25.41,26.31\Ca,0,94.04,32.05,26.45\O,0,9
 5.39,30.34,24.95\H,0,95.31,29.89,24.11\H,0,95.88,29.73,25.5\\Version=E
 S64L-G16RevA.03\State=1-A\HF=-5333.5917532\RMSD=4.962e-09\Dipole=-8.07
 75929,-8.6331871,0.3374066\Quadrupole=93.3321602,-75.7613169,-17.57084
 33,-101.6845209,-67.0084476,23.1541225\PG=C01 [X(C54H83Ca1N15O23)]\\@


 THESE ARE THE TIMES THAT TRY MENS SOULS.
 THE SUMMER SOLDIER AND THE SUNSHINE PATRIOT WILL IN THIS CRISIS,
 SHRINK FROM THE SERVICE OF HIS COUNTRY.  BUT HE THAT STANDS NOW,
 DESERVES THE LOVE AND THANKS OF MAN AND WOMAN.
 TYRANNY, LIKE HELL, IS NOT EASILY CONQUERED,
 YET WE HAVE THIS CONSOLATION WITH US,
 THAT THE HARDER THE CONFLICT, THE MORE GLORIOUS THE TRIUMPH.
 WHAT WE OBTAIN TOO CHEAP, WE ESTEEM TOO LIGHTLY, 
 'TIS DEARNESS ONLY THAT GIVES EVERYTHING ITS VALUE.

                                              -- TOM PAINE
 Job cpu time:       0 days  9 hours 55 minutes 43.7 seconds.
 Elapsed time:       0 days  0 hours 12 minutes 32.8 seconds.
 File lengths (MBytes):  RWF=   1517 Int=      0 D2E=      0 Chk=    171 Scr=      1
 Normal termination of Gaussian 16 at Wed Sep 18 19:36:55 2019.
