 Entering Gaussian System, Link 0=g16
 Initial command:
 /home1/apps/gaussian/16rA.03/g16/l1.exe "/scratch/04905/jaebeomh/4357447/Gau-102832.inp" -scrdir="/scratch/04905/jaebeomh/4357447/"
 Entering Link 1 = /home1/apps/gaussian/16rA.03/g16/l1.exe PID=    102833.
  
 Copyright (c) 1988,1990,1992,1993,1995,1998,2003,2009,2016,
            Gaussian, Inc.  All Rights Reserved.
  
 This is part of the Gaussian(R) 16 program.  It is based on
 the Gaussian(R) 09 system (copyright 2009, Gaussian, Inc.),
 the Gaussian(R) 03 system (copyright 2003, Gaussian, Inc.),
 the Gaussian(R) 98 system (copyright 1998, Gaussian, Inc.),
 the Gaussian(R) 94 system (copyright 1995, Gaussian, Inc.),
 the Gaussian 92(TM) system (copyright 1992, Gaussian, Inc.),
 the Gaussian 90(TM) system (copyright 1990, Gaussian, Inc.),
 the Gaussian 88(TM) system (copyright 1988, Gaussian, Inc.),
 the Gaussian 86(TM) system (copyright 1986, Carnegie Mellon
 University), and the Gaussian 82(TM) system (copyright 1983,
 Carnegie Mellon University). Gaussian is a federally registered
 trademark of Gaussian, Inc.
  
 This software contains proprietary and confidential information,
 including trade secrets, belonging to Gaussian, Inc.
  
 This software is provided under written license and may be
 used, copied, transmitted, or stored only in accord with that
 written license.
  
 The following legend is applicable only to US Government
 contracts under FAR:
  
                    RESTRICTED RIGHTS LEGEND
  
 Use, reproduction and disclosure by the US Government is
 subject to restrictions as set forth in subparagraphs (a)
 and (c) of the Commercial Computer Software - Restricted
 Rights clause in FAR 52.227-19.
  
 Gaussian, Inc.
 340 Quinnipiac St., Bldg. 40, Wallingford CT 06492
  
  
 ---------------------------------------------------------------
 Warning -- This program may not be used in any manner that
 competes with the business of Gaussian, Inc. or will provide
 assistance to any competitor of Gaussian, Inc.  The licensee
 of this program is prohibited from giving any competitor of
 Gaussian, Inc. access to this program.  By using this program,
 the user acknowledges that Gaussian, Inc. is engaged in the
 business of creating and licensing software in the field of
 computational chemistry and represents and warrants to the
 licensee that it is not a competitor of Gaussian, Inc. and that
 it will not use this program in any manner prohibited above.
 ---------------------------------------------------------------
  

 Cite this work as:
 Gaussian 16, Revision A.03,
 M. J. Frisch, G. W. Trucks, H. B. Schlegel, G. E. Scuseria, 
 M. A. Robb, J. R. Cheeseman, G. Scalmani, V. Barone, 
 G. A. Petersson, H. Nakatsuji, X. Li, M. Caricato, A. V. Marenich, 
 J. Bloino, B. G. Janesko, R. Gomperts, B. Mennucci, H. P. Hratchian, 
 J. V. Ortiz, A. F. Izmaylov, J. L. Sonnenberg, D. Williams-Young, 
 F. Ding, F. Lipparini, F. Egidi, J. Goings, B. Peng, A. Petrone, 
 T. Henderson, D. Ranasinghe, V. G. Zakrzewski, J. Gao, N. Rega, 
 G. Zheng, W. Liang, M. Hada, M. Ehara, K. Toyota, R. Fukuda, 
 J. Hasegawa, M. Ishida, T. Nakajima, Y. Honda, O. Kitao, H. Nakai, 
 T. Vreven, K. Throssell, J. A. Montgomery, Jr., J. E. Peralta, 
 F. Ogliaro, M. J. Bearpark, J. J. Heyd, E. N. Brothers, K. N. Kudin, 
 V. N. Staroverov, T. A. Keith, R. Kobayashi, J. Normand, 
 K. Raghavachari, A. P. Rendell, J. C. Burant, S. S. Iyengar, 
 J. Tomasi, M. Cossi, J. M. Millam, M. Klene, C. Adamo, R. Cammi, 
 J. W. Ochterski, R. L. Martin, K. Morokuma, O. Farkas, 
 J. B. Foresman, and D. J. Fox, Gaussian, Inc., Wallingford CT, 2016.
 
 ******************************************
 Gaussian 16:  ES64L-G16RevA.03 25-Dec-2016
                18-Sep-2019 
 ******************************************
 %chk=holoCaM_loop3_33.0.chk
 %nprocshared=48
 Will use up to   48 processors via shared memory.
 %mem=10GB
 %nosave
 ----------------------------------------------------------------------
 #b3lyp/svp scf=(tight,noincore) Test #IOP(5/87=12) Density=Current Pop
 =(MK,readradii) iop(6/33=2) iop(6/42=6)
 ----------------------------------------------------------------------
 1/30=1,38=1,172=1/1;
 2/12=2,17=6,18=5,40=1/2;
 3/5=18,7=101,11=2,25=1,30=1,74=-5/1,2,3;
 4//1;
 5/5=4,32=2,38=5,87=12/2;
 6/7=2,8=2,9=2,10=2,15=8,20=101,22=-1,28=1,33=2,42=6/1,2;
 99/5=1,9=1/99;
 ------------------
 holoCaM_loop3_33.0
 ------------------
 Symbolic Z-matrix:
 Charge =  0 Multiplicity = 1
 C                     84.9      32.69     26.13 
 C                     86.35     32.78     26.58 
 O                     86.85     31.7      26.91 
 H                     84.314    33.456    26.638 
 H                     84.843    32.845    25.053 
 H                     84.503    31.706    26.378 
 N                     87.       33.95     26.58 
 C                     88.35     34.17     27.05 
 C                     88.43     34.48     28.54 
 O                     87.97     35.48     29.09 
 C                     88.93     35.34     26.27 
 C                     90.37     35.71     26.59 
 O                     90.9      36.68     26.01 
 O                     90.96     35.01     27.44 
 H                     86.48     34.73     26.2 
 H                     88.83     33.22     26.83 
 H                     88.37     36.27     26.36 
 H                     88.94     34.99     25.23 
 N                     89.02     33.49     29.21 
 C                     88.98     33.4      30.66 
 C                     89.95     34.33     31.38 
 O                     89.88     34.44     32.6 
 C                     88.98     31.95     31.12 
 C                     87.87     31.06     30.57 
 C                     86.48     31.56     30.96 
 C                     85.89     32.47     29.89 
 N                     84.48     32.78     30.19 
 H                     89.37     32.73     28.64 
 H                     88.       33.77     30.95 
 H                     88.86     31.96     32.2 
 H                     89.98     31.55     30.92 
 H                     88.07     30.1      31.05 
 H                     88.       30.93     29.5 
 H                     86.5      31.98     31.97 
 H                     85.86     30.66     30.94 
 H                     85.9      31.86     28.99 
 H                     86.47     33.39     29.78 
 H                     84.12     33.51     29.6 
 H                     83.92     31.93     30.16 
 H                     84.37     33.16     31.12 
 N                     90.83     35.02     30.65 
 C                     91.9      35.81     31.22 
 C                     92.23     37.03     30.36 
 O                     93.12     37.82     30.69 
 C                     93.13     34.92     31.22 
 C                     93.34     34.19     29.91 
 O                     93.64     34.86     28.9 
 O                     93.08     32.97     29.74 
 H                     90.71     34.85     29.66 
 H                     91.67     36.21     32.21 
 H                     93.1      34.28     32.11 
 H                     94.03     35.48     31.5 
 N                     91.53     37.27     29.26 
 C                     91.56     38.46     28.43 
 C                     92.77     38.8      27.56 
 O                     92.89     39.96     27.16 
 H                     90.94     36.5      28.96 
 H                     91.43     39.24     29.17 
 H                     90.64     38.55     27.86 
 N                     93.6      37.83     27.18 
 C                     94.72     37.96     26.28 
 C                     94.41     37.94     24.79 
 O                     95.33     38.19     24.01 
 C                     95.74     36.86     26.54 
 C                     95.39     35.43     26.16 
 N                     96.48     34.71     25.87 
 O                     94.27     34.98     25.91 
 H                     93.31     36.9      27.44 
 H                     95.28     38.86     26.53 
 H                     95.87     36.84     27.63 
 H                     96.71     37.07     26.08 
 H                     97.41     35.09     25.91 
 H                     96.4      33.73     25.66 
 N                     93.15     37.72     24.4 
 C                     92.65     37.7      23.04 
 C                     92.88     36.42     22.24 
 O                     92.96     36.46     21.01 
 H                     92.53     37.28     25.07 
 H                     93.15     38.51     22.51 
 H                     91.58     37.87     22.92 
 N                     93.05     35.28     22.91 
 C                     93.05     33.92     22.41 
 C                     92.31     32.96     23.33 
 O                     92.25     33.14     24.55 
 C                     94.49     33.43     22.24 
 C                     95.46     34.38     21.6 
 C                     96.07     35.42     22.32 
 C                     95.7      34.4      20.22 
 C                     96.91     36.38     21.76 
 C                     96.54     35.32     19.58 
 C                     97.18     36.28     20.38 
 O                     97.85     37.28     19.73 
 H                     93.16     35.51     23.89 
 H                     92.65     33.84     21.4 
 H                     94.45     32.48     21.71 
 H                     94.92     33.12     23.19 
 H                     95.83     35.52     23.37 
 H                     95.19     33.61     19.69 
 H                     97.24     37.21     22.37 
 H                     96.67     35.27     18.51 
 H                     97.72     37.31     18.78 
 N                     91.95     31.79     22.81 
 C                     91.25     30.76     23.55 
 C                     91.98     29.42     23.48 
 O                     92.24     28.9      22.4 
 C                     89.85     30.59     22.97 
 C                     89.1      31.91     23.11 
 C                     89.05     29.51     23.7 
 C                     87.68     31.88     22.55 
 H                     92.05     31.73     21.81 
 H                     91.25     31.06     24.6 
 H                     89.81     30.33     21.91 
 H                     89.6      32.78     22.66 
 H                     89.12     32.34     24.11 
 H                     89.62     28.58     23.67 
 H                     89.02     29.73     24.77 
 H                     88.07     29.35     23.26 
 H                     87.64     31.56     21.5 
 H                     87.05     31.24     23.15 
 H                     87.23     32.87     22.64 
 N                     92.13     28.78     24.64 
 C                     92.67     27.45     24.84 
 C                     91.66     26.38     25.21 
 O                     90.6      26.7      25.75 
 C                     93.84     27.57     25.81 
 O                     93.48     28.13     27.06 
 H                     91.73     29.12     25.49 
 H                     93.05     27.08     23.88 
 H                     94.71     28.12     25.47 
 H                     94.36     26.63     26.01 
 H                     92.95     28.9      26.85 
 N                     92.03     25.12     24.96 
 C                     91.25     23.94     25.3 
 C                     90.56     23.93     26.65 
 O                     89.4      23.52     26.7 
 C                     92.06     22.65     25.19 
 H                     92.93     24.91     24.57 
 H                     90.45     23.82     24.56 
 H                     92.9      22.62     25.89 
 H                     91.43     21.8      25.46 
 H                     92.47     22.5      24.19 
 N                     91.11     24.5      27.73 
 C                     90.51     24.57     29.04 
 C                     89.55     25.73     29.29 
 O                     88.71     25.71     30.18 
 C                     91.67     24.56     30.03 
 H                     92.11     24.63     27.74 
 H                     89.87     23.7      29.18 
 H                     91.37     24.86     31.03 
 H                     92.05     23.54     30.01 
 H                     92.45     25.24     29.7 
 N                     89.55     26.74     28.41 
 C                     88.54     27.77     28.32 
 C                     87.32     27.32     27.54 
 O                     86.2      27.6      27.96 
 C                     89.28     28.98     27.75 
 C                     90.5      29.41     28.55 
 C                     91.12     30.63     27.88 
 O                     90.64     31.78     27.95 
 O                     92.15     30.5      27.18 
 H                     90.28     26.72     27.72 
 H                     88.18     28.       29.33 
 H                     88.49     29.73     27.72 
 H                     89.57     28.8      26.71 
 H                     91.2      28.57     28.55 
 H                     90.33     29.64     29.6 
 N                     87.49     26.41     26.57 
 C                     86.46     25.94     25.66 
 H                     85.608    26.619    25.694 
 H                     86.858    25.908    24.646 
 H                     86.14     24.941    25.957 
 H                     88.45     26.17     26.39 
 Ca                    92.75     33.11     27.12 
 O                     94.74     31.76     26.07 
 H                     95.29     31.24     26.65 
 H                     94.89     31.39     25.2 
 
 Stoichiometry    C54H83CaN15O23
 Framework group  C1[X(C54H83CaN15O23)]
 Deg. of freedom   522
 Full point group                 C1      NOp   1
 Largest Abelian subgroup         C1      NOp   1
 Largest concise Abelian subgroup C1      NOp   1
                         Standard orientation:                         
 ---------------------------------------------------------------------
 Center     Atomic      Atomic             Coordinates (Angstroms)
 Number     Number       Type             X           Y           Z
 ---------------------------------------------------------------------
      1          6           0        2.256115    3.055991    5.209773
      2          6           0        1.670196    2.734716    3.843544
      3          8           0        2.479487    2.261502    3.039545
      4          1           0        1.960152    4.062978    5.504051
      5          1           0        1.884377    2.340361    5.942500
      6          1           0        3.343133    2.997082    5.161927
      7          7           0        0.373457    2.941127    3.584195
      8          6           0       -0.278491    2.741086    2.308755
      9          6           0       -0.222082    3.963893    1.400921
     10          8           0       -0.765523    5.045765    1.620748
     11          6           0       -1.734341    2.393152    2.579202
     12          6           0       -2.591692    2.103243    1.356990
     13          8           0       -3.803428    1.841308    1.502890
     14          8           0       -2.026168    2.147702    0.243974
     15          1           0       -0.177792    3.252842    4.372965
     16          1           0        0.292746    1.920634    1.882320
     17          1           0       -2.285605    3.145335    3.142167
     18          1           0       -1.685160    1.448391    3.135267
     19          7           0        0.552783    3.743610    0.338773
     20          6           0        0.999382    4.816292   -0.534212
     21          6           0       -0.049729    5.304237   -1.526923
     22          8           0        0.179499    6.306954   -2.195813
     23          6           0        2.375398    4.518107   -1.110202
     24          6           0        3.490300    4.243795   -0.105987
     25          6           0        3.739535    5.431962    0.821559
     26          6           0        2.937587    5.315030    2.111639
     27          7           0        3.339241    6.360471    3.070767
     28          1           0        0.928824    2.806576    0.264200
     29          1           0        1.163495    5.673108    0.114120
     30          1           0        2.679197    5.394928   -1.675702
     31          1           0        2.250741    3.706147   -1.834896
     32          1           0        4.358781    4.082035   -0.747527
     33          1           0        3.289331    3.316299    0.421328
     34          1           0        3.609285    6.370746    0.275097
     35          1           0        4.783195    5.316087    1.125115
     36          1           0        3.247429    4.360173    2.529306
     37          1           0        1.862009    5.361102    1.922138
     38          1           0        2.712737    6.414277    3.855111
     39          1           0        4.311367    6.230306    3.344683
     40          1           0        3.279769    7.283951    2.664506
     41          7           0       -1.202364    4.635511   -1.614320
     42          6           0       -2.208203    4.899745   -2.620485
     43          6           0       -3.620758    4.634530   -2.099671
     44          8           0       -4.608194    4.804765   -2.821538
     45          6           0       -1.954846    3.909478   -3.743063
     46          6           0       -1.724640    2.495431   -3.252577
     47          8           0       -2.681075    1.886926   -2.729172
     48          8           0       -0.591243    1.950137   -3.198113
     49          1           0       -1.242802    3.871345   -0.952644
     50          1           0       -2.219578    5.935351   -2.967461
     51          1           0       -1.168407    4.310377   -4.393750
     52          1           0       -2.758042    3.934859   -4.488872
     53          7           0       -3.798863    4.250068   -0.843459
     54          6           0       -5.050461    4.139089   -0.117453
     55          6           0       -6.072021    3.049635   -0.443193
     56          8           0       -7.231593    3.206069   -0.054709
     57          1           0       -2.949135    3.966392   -0.365453
     58          1           0       -5.496302    5.106907   -0.310986
     59          1           0       -4.875888    4.193856    0.953025
     60          7           0       -5.670866    1.930515   -1.043896
     61          6           0       -6.478277    0.768505   -1.325180
     62          6           0       -6.689840   -0.214155   -0.182279
     63          8           0       -7.487835   -1.135653   -0.359325
     64          6           0       -5.889541   -0.017656   -2.488512
     65          6           0       -4.585581   -0.771236   -2.279695
     66          7           0       -4.491198   -1.836907   -3.083460
     67          8           0       -3.777537   -0.618756   -1.361427
     68          1           0       -4.673523    1.852975   -1.169974
     69          1           0       -7.440740    1.086806   -1.723237
     70          1           0       -5.663429    0.732560   -3.257570
     71          1           0       -6.596420   -0.739808   -2.907341
     72          1           0       -5.208272   -2.087073   -3.742340
     73          1           0       -3.653323   -2.392572   -3.093492
     74          7           0       -6.056780    0.002723    0.975433
     75          6           0       -6.156098   -0.790100    2.184386
     76          6           0       -5.331215   -2.073914    2.236239
     77          8           0       -5.697939   -3.022274    2.934113
     78          1           0       -5.247238    0.611790    0.951349
     79          1           0       -7.203428   -1.071013    2.290153
     80          1           0       -5.878571   -0.287935    3.111214
     81          7           0       -4.246985   -2.157982    1.465020
     82          6           0       -3.181916   -3.140030    1.493466
     83          6           0       -1.807305   -2.515793    1.302749
     84          8           0       -1.643380   -1.486768    0.640453
     85          6           0       -3.407857   -4.182014    0.395368
     86          6           0       -4.803720   -4.710698    0.237060
     87          6           0       -5.795734   -3.999866   -0.457723
     88          6           0       -5.257336   -5.858377    0.899982
     89          6           0       -7.125685   -4.400960   -0.563339
     90          6           0       -6.571772   -6.337591    0.835068
     91          6           0       -7.487395   -5.616518    0.052197
     92          8           0       -8.801759   -5.985539    0.139786
     93          1           0       -4.257047   -1.369833    0.829316
     94          1           0       -3.186665   -3.743943    2.399979
     95          1           0       -2.690634   -4.984962    0.556199
     96          1           0       -3.090247   -3.811339   -0.576858
     97          1           0       -5.526683   -3.047644   -0.894742
     98          1           0       -4.479865   -6.363041    1.453111
     99          1           0       -7.842155   -3.731199   -1.019400
    100          1           0       -6.842514   -7.229498    1.378667
    101          1           0       -9.002693   -6.625737    0.825404
    102          7           0       -0.759755   -3.254446    1.657617
    103          6           0        0.615318   -2.816410    1.531934
    104          6           0        1.456745   -3.818050    0.743189
    105          8           0        1.538234   -4.989401    1.097727
    106          6           0        1.218277   -2.652912    2.922980
    107          6           0        0.419746   -1.597720    3.680224
    108          6           0        2.677047   -2.196339    2.869763
    109          6           0        0.913947   -1.347196    5.102863
    110          1           0       -0.992074   -4.083522    2.179405
    111          1           0        0.607915   -1.891183    0.951933
    112          1           0        1.205376   -3.548556    3.547844
    113          1           0       -0.660543   -1.791617    3.749360
    114          1           0        0.278353   -0.662029    3.141902
    115          1           0        3.238588   -2.908110    2.262512
    116          1           0        2.757013   -1.277125    2.284228
    117          1           0        3.126645   -2.125768    3.855908
    118          1           0        0.955797   -2.261992    5.709409
    119          1           0        1.885222   -0.875055    5.088461
    120          1           0        0.263593   -0.621474    5.593848
    121          7           0        2.232044   -3.300530   -0.210113
    122          6           0        3.210894   -4.002317   -1.016244
    123          6           0        4.663042   -3.711286   -0.686902
    124          8           0        4.965305   -2.649541   -0.140151
    125          6           0        2.843748   -3.782836   -2.479539
    126          8           0        2.811045   -2.417180   -2.853189
    127          1           0        2.311364   -2.315042   -0.353711
    128          1           0        3.139604   -5.074434   -0.796285
    129          1           0        1.911901   -4.214927   -2.825889
    130          1           0        3.490957   -4.301462   -3.190980
    131          1           0        2.313932   -1.976891   -2.162591
    132          7           0        5.544144   -4.639116   -1.073927
    133          6           0        6.987194   -4.530778   -0.924697
    134          6           0        7.616118   -3.183832   -1.222845
    135          8           0        8.478920   -2.768011   -0.448981
    136          6           0        7.741320   -5.578994   -1.740073
    137          1           0        5.250279   -5.461503   -1.567407
    138          1           0        7.252747   -4.755608    0.114983
    139          1           0        7.579902   -5.470385   -2.816478
    140          1           0        8.815843   -5.449116   -1.595742
    141          1           0        7.455717   -6.597900   -1.473874
    142          7           0        7.146694   -2.381631   -2.187166
    143          6           0        7.657900   -1.072747   -2.513493
    144          6           0        7.114819    0.095685   -1.695246
    145          8           0        7.704845    1.163794   -1.599774
    146          6           0        7.413229   -0.891186   -4.007806
    147          1           0        6.610640   -2.799459   -2.932193
    148          1           0        8.722640   -1.044962   -2.286209
    149          1           0        7.521248    0.141297   -4.327666
    150          1           0        8.136454   -1.543646   -4.494059
    151          1           0        6.408681   -1.214416   -4.264915
    152          7           0        6.020856   -0.118577   -0.952389
    153          6           0        5.530083    0.759802    0.085249
    154          6           0        6.252303    0.560948    1.403641
    155          8           0        6.585902    1.543402    2.061437
    156          6           0        4.022181    0.510703    0.113164
    157          6           0        3.322247    0.715741   -1.221509
    158          6           0        1.832420    0.453669   -1.038659
    159          8           0        1.050431    1.249985   -0.479934
    160          8           0        1.338457   -0.629705   -1.426088
    161          1           0        5.560905   -1.000515   -1.093919
    162          1           0        5.727080    1.797677   -0.209041
    163          1           0        3.696621    1.203459    0.888793
    164          1           0        3.804068   -0.493727    0.489525
    165          1           0        3.757296    0.003813   -1.928257
    166          1           0        3.448161    1.691971   -1.685644
    167          7           0        6.738829   -0.657465    1.680520
    168          6           0        7.366245   -1.055052    2.928788
    169          1           0        7.144462   -0.315663    3.698345
    170          1           0        6.979439   -2.026222    3.236738
    171          1           0        8.445479   -1.120891    2.789038
    172          1           0        6.496472   -1.363837    1.006798
    173         20           0       -1.207467    0.196228   -1.317429
    174          8           0       -1.130233   -2.157676   -2.474264
    175          1           0       -0.770071   -2.217410   -3.355181
    176          1           0       -1.081958   -3.050792   -2.133215
 ---------------------------------------------------------------------
 Rotational constants (GHZ):           0.0248175           0.0150350           0.0118326
 Standard basis: SVP (5D, 7F)
 There are  1809 symmetry adapted cartesian basis functions of A   symmetry.
 There are  1717 symmetry adapted basis functions of A   symmetry.
  1717 basis functions,  2922 primitive gaussians,  1809 cartesian basis functions
   358 alpha electrons      358 beta electrons
       nuclear repulsion energy     21908.7060958924 Hartrees.
 NAtoms=  176 NActive=  176 NUniq=  176 SFac= 1.00D+00 NAtFMM=   60 NAOKFM=T Big=T
 Integral buffers will be    131072 words long.
 Raffenetti 2 integral format.
 Two-electron integral symmetry is turned on.
 One-electron integrals computed using PRISM.
 NBasis=  1717 RedAO= T EigKep=  2.74D-04  NBF=  1717
 NBsUse=  1717 1.00D-06 EigRej= -1.00D+00 NBFU=  1717
 ExpMin= 1.98D-02 ExpMax= 3.51D+04 ExpMxC= 5.28D+03 IAcc=3 IRadAn=         5 AccDes= 0.00D+00
 Harris functional with IExCor=  402 and IRadAn=       5 diagonalized for initial guess.
 HarFok:  IExCor=  402 AccDes= 0.00D+00 IRadAn=         5 IDoV= 1 UseB2=F ITyADJ=14
 ICtDFT=  3500011 ScaDFX=  1.000000  1.000000  1.000000  1.000000
 FoFCou: FMM=F IPFlag=           0 FMFlag=      100000 FMFlg1=        2001
         NFxFlg=           0 DoJE=T BraDBF=F KetDBF=T FulRan=T
         wScrn=  0.000000 ICntrl=       500 IOpCl=  0 I1Cent=   200000004 NGrid=           0
         NMat0=    1 NMatS0=      1 NMatT0=    0 NMatD0=    1 NMtDS0=    0 NMtDT0=    0
 Petite list used in FoFCou.
 Requested convergence on RMS density matrix=1.00D-08 within 128 cycles.
 Requested convergence on MAX density matrix=1.00D-06.
 Requested convergence on             energy=1.00D-06.
 No special actions if energy rises.
 EnCoef did     3 forward-backward iterations
 SCF Done:  E(RB3LYP) =  -5333.63497232     A.U. after   18 cycles
            NFock= 18  Conv=0.27D-08     -V/T= 2.0082
 SCF density gives NOpUse=  1 NOpAll=  1.
 Hyperfine terms turned off by default for NAtoms > 100.

 **********************************************************************

            Population analysis using the SCF density.

 **********************************************************************

 Orbital symmetries:
 BldTbl:  Degeneracy threshold= 1.00D-02
       Occupied  (A) (A) (A) (A) (A) (A) (A) (A) (A) (A) (A) (A)
                 (A) (A) (A) (A) (A) (A) (A) (A) (A) (A) (A) (A)
                 (A) (A) (A) (A) (A) (A) (A) (A) (A) (A) (A) (A)
                 (A) (A) (A) (A) (A) (A) (A) (A) (A) (A) (A) (A)
                 (A) (A) (A) (A) (A) (A) (A) (A) (A) (A) (A) (A)
                 (A) (A) (A) (A) (A) (A) (A) (A) (A) (A) (A) (A)
                 (A) (A) (A) (A) (A) (A) (A) (A) (A) (A) (A) (A)
                 (A) (A) (A) (A) (A) (A) (A) (A) (A) (A) (A) (A)
                 (A) (A) (A) (A) (A) (A) (A) (A) (A) (A) (A) (A)
                 (A) (A) (A) (A) (A) (A) (A) (A) (A) (A) (A) (A)
                 (A) (A) (A) (A) (A) (A) (A) (A) (A) (A) (A) (A)
                 (A) (A) (A) (A) (A) (A) (A) (A) (A) (A) (A) (A)
                 (A) (A) (A) (A) (A) (A) (A) (A) (A) (A) (A) (A)
                 (A) (A) (A) (A) (A) (A) (A) (A) (A) (A) (A) (A)
                 (A) (A) (A) (A) (A) (A) (A) (A) (A) (A) (A) (A)
                 (A) (A) (A) (A) (A) (A) (A) (A) (A) (A) (A) (A)
                 (A) (A) (A) (A) (A) (A) (A) (A) (A) (A) (A) (A)
                 (A) (A) (A) (A) (A) (A) (A) (A) (A) (A) (A) (A)
                 (A) (A) (A) (A) (A) (A) (A) (A) (A) (A) (A) (A)
                 (A) (A) (A) (A) (A) (A) (A) (A) (A) (A) (A) (A)
                 (A) (A) (A) (A) (A) (A) (A) (A) (A) (A) (A) (A)
                 (A) (A) (A) (A) (A) (A) (A) (A) (A) (A) (A) (A)
                 (A) (A) (A) (A) (A) (A) (A) (A) (A) (A) (A) (A)
                 (A) (A) (A) (A) (A) (A) (A) (A) (A) (A) (A) (A)
                 (A) (A) (A) (A) (A) (A) (A) (A) (A) (A) (A) (A)
                 (A) (A) (A) (A) (A) (A) (A) (A) (A) (A) (A) (A)
                 (A) (A) (A) (A) (A) (A) (A) (A) (A) (A) (A) (A)
                 (A) (A) (A) (A) (A) (A) (A) (A) (A) (A) (A) (A)
                 (A) (A) (A) (A) (A) (A) (A) (A) (A) (A) (A) (A)
                 (A) (A) (A) (A) (A) (A) (A) (A) (A) (A)
       Virtual   (A) (A) (A) (A) (A) (A) (A) (A) (A) (A) (A) (A)
                 (A) (A) (A) (A) (A) (A) (A) (A) (A) (A) (A) (A)
                 (A) (A) (A) (A) (A) (A) (A) (A) (A) (A) (A) (A)
                 (A) (A) (A) (A) (A) (A) (A) (A) (A) (A) (A) (A)
                 (A) (A) (A) (A) (A) (A) (A) (A) (A) (A) (A) (A)
                 (A) (A) (A) (A) (A) (A) (A) (A) (A) (A) (A) (A)
                 (A) (A) (A) (A) (A) (A) (A) (A) (A) (A) (A) (A)
                 (A) (A) (A) (A) (A) (A) (A) (A) (A) (A) (A) (A)
                 (A) (A) (A) (A) (A) (A) (A) (A) (A) (A) (A) (A)
                 (A) (A) (A) (A) (A) (A) (A) (A) (A) (A) (A) (A)
                 (A) (A) (A) (A) (A) (A) (A) (A) (A) (A) (A) (A)
                 (A) (A) (A) (A) (A) (A) (A) (A) (A) (A) (A) (A)
                 (A) (A) (A) (A) (A) (A) (A) (A) (A) (A) (A) (A)
                 (A) (A) (A) (A) (A) (A) (A) (A) (A) (A) (A) (A)
                 (A) (A) (A) (A) (A) (A) (A) (A) (A) (A) (A) (A)
                 (A) (A) (A) (A) (A) (A) (A) (A) (A) (A) (A) (A)
                 (A) (A) (A) (A) (A) (A) (A) (A) (A) (A) (A) (A)
                 (A) (A) (A) (A) (A) (A) (A) (A) (A) (A) (A) (A)
                 (A) (A) (A) (A) (A) (A) (A) (A) (A) (A) (A) (A)
                 (A) (A) (A) (A) (A) (A) (A) (A) (A) (A) (A) (A)
                 (A) (A) (A) (A) (A) (A) (A) (A) (A) (A) (A) (A)
                 (A) (A) (A) (A) (A) (A) (A) (A) (A) (A) (A) (A)
                 (A) (A) (A) (A) (A) (A) (A) (A) (A) (A) (A) (A)
                 (A) (A) (A) (A) (A) (A) (A) (A) (A) (A) (A) (A)
                 (A) (A) (A) (A) (A) (A) (A) (A) (A) (A) (A) (A)
                 (A) (A) (A) (A) (A) (A) (A) (A) (A) (A) (A) (A)
                 (A) (A) (A) (A) (A) (A) (A) (A) (A) (A) (A) (A)
                 (A) (A) (A) (A) (A) (A) (A) (A) (A) (A) (A) (A)
                 (A) (A) (A) (A) (A) (A) (A) (A) (A) (A) (A) (A)
                 (A) (A) (A) (A) (A) (A) (A) (A) (A) (A) (A) (A)
                 (A) (A) (A) (A) (A) (A) (A) (A) (A) (A) (A) (A)
                 (A) (A) (A) (A) (A) (A) (A) (A) (A) (A) (A) (A)
                 (A) (A) (A) (A) (A) (A) (A) (A) (A) (A) (A) (A)
                 (A) (A) (A) (A) (A) (A) (A) (A) (A) (A) (A) (A)
                 (A) (A) (A) (A) (A) (A) (A) (A) (A) (A) (A) (A)
                 (A) (A) (A) (A) (A) (A) (A) (A) (A) (A) (A) (A)
                 (A) (A) (A) (A) (A) (A) (A) (A) (A) (A) (A) (A)
                 (A) (A) (A) (A) (A) (A) (A) (A) (A) (A) (A) (A)
                 (A) (A) (A) (A) (A) (A) (A) (A) (A) (A) (A) (A)
                 (A) (A) (A) (A) (A) (A) (A) (A) (A) (A) (A) (A)
                 (A) (A) (A) (A) (A) (A) (A) (A) (A) (A) (A) (A)
                 (A) (A) (A) (A) (A) (A) (A) (A) (A) (A) (A) (A)
                 (A) (A) (A) (A) (A) (A) (A) (A) (A) (A) (A) (A)
                 (A) (A) (A) (A) (A) (A) (A) (A) (A) (A) (A) (A)
                 (A) (A) (A) (A) (A) (A) (A) (A) (A) (A) (A) (A)
                 (A) (A) (A) (A) (A) (A) (A) (A) (A) (A) (A) (A)
                 (A) (A) (A) (A) (A) (A) (A) (A) (A) (A) (A) (A)
                 (A) (A) (A) (A) (A) (A) (A) (A) (A) (A) (A) (A)
                 (A) (A) (A) (A) (A) (A) (A) (A) (A) (A) (A) (A)
                 (A) (A) (A) (A) (A) (A) (A) (A) (A) (A) (A) (A)
                 (A) (A) (A) (A) (A) (A) (A) (A) (A) (A) (A) (A)
                 (A) (A) (A) (A) (A) (A) (A) (A) (A) (A) (A) (A)
                 (A) (A) (A) (A) (A) (A) (A) (A) (A) (A) (A) (A)
                 (A) (A) (A) (A) (A) (A) (A) (A) (A) (A) (A) (A)
                 (A) (A) (A) (A) (A) (A) (A) (A) (A) (A) (A) (A)
                 (A) (A) (A) (A) (A) (A) (A) (A) (A) (A) (A) (A)
                 (A) (A) (A) (A) (A) (A) (A) (A) (A) (A) (A) (A)
                 (A) (A) (A) (A) (A) (A) (A) (A) (A) (A) (A) (A)
                 (A) (A) (A) (A) (A) (A) (A) (A) (A) (A) (A) (A)
                 (A) (A) (A) (A) (A) (A) (A) (A) (A) (A) (A) (A)
                 (A) (A) (A) (A) (A) (A) (A) (A) (A) (A) (A) (A)
                 (A) (A) (A) (A) (A) (A) (A) (A) (A) (A) (A) (A)
                 (A) (A) (A) (A) (A) (A) (A) (A) (A) (A) (A) (A)
                 (A) (A) (A) (A) (A) (A) (A) (A) (A) (A) (A) (A)
                 (A) (A) (A) (A) (A) (A) (A) (A) (A) (A) (A) (A)
                 (A) (A) (A) (A) (A) (A) (A) (A) (A) (A) (A) (A)
                 (A) (A) (A) (A) (A) (A) (A) (A) (A) (A) (A) (A)
                 (A) (A) (A) (A) (A) (A) (A) (A) (A) (A) (A) (A)
                 (A) (A) (A) (A) (A) (A) (A) (A) (A) (A) (A) (A)
                 (A) (A) (A) (A) (A) (A) (A) (A) (A) (A) (A) (A)
                 (A) (A) (A) (A) (A) (A) (A) (A) (A) (A) (A) (A)
                 (A) (A) (A) (A) (A) (A) (A) (A) (A) (A) (A) (A)
                 (A) (A) (A) (A) (A) (A) (A) (A) (A) (A) (A) (A)
                 (A) (A) (A) (A) (A) (A) (A) (A) (A) (A) (A) (A)
                 (A) (A) (A) (A) (A) (A) (A) (A) (A) (A) (A) (A)
                 (A) (A) (A) (A) (A) (A) (A) (A) (A) (A) (A) (A)
                 (A) (A) (A) (A) (A) (A) (A) (A) (A) (A) (A) (A)
                 (A) (A) (A) (A) (A) (A) (A) (A) (A) (A) (A) (A)
                 (A) (A) (A) (A) (A) (A) (A) (A) (A) (A) (A) (A)
                 (A) (A) (A) (A) (A) (A) (A) (A) (A) (A) (A) (A)
                 (A) (A) (A) (A) (A) (A) (A) (A) (A) (A) (A) (A)
                 (A) (A) (A) (A) (A) (A) (A) (A) (A) (A) (A) (A)
                 (A) (A) (A) (A) (A) (A) (A) (A) (A) (A) (A) (A)
                 (A) (A) (A) (A) (A) (A) (A) (A) (A) (A) (A) (A)
                 (A) (A) (A) (A) (A) (A) (A) (A) (A) (A) (A) (A)
                 (A) (A) (A) (A) (A) (A) (A) (A) (A) (A) (A) (A)
                 (A) (A) (A) (A) (A) (A) (A) (A) (A) (A) (A) (A)
                 (A) (A) (A) (A) (A) (A) (A) (A) (A) (A) (A) (A)
                 (A) (A) (A) (A) (A) (A) (A) (A) (A) (A) (A) (A)
                 (A) (A) (A) (A) (A) (A) (A) (A) (A) (A) (A) (A)
                 (A) (A) (A) (A) (A) (A) (A) (A) (A) (A) (A) (A)
                 (A) (A) (A) (A) (A) (A) (A) (A) (A) (A) (A) (A)
                 (A) (A) (A) (A) (A) (A) (A) (A) (A) (A) (A) (A)
                 (A) (A) (A) (A) (A) (A) (A) (A) (A) (A) (A) (A)
                 (A) (A) (A) (A) (A) (A) (A) (A) (A) (A) (A) (A)
                 (A) (A) (A) (A) (A) (A) (A) (A) (A) (A) (A) (A)
                 (A) (A) (A) (A) (A) (A) (A) (A) (A) (A) (A) (A)
                 (A) (A) (A) (A) (A) (A) (A) (A) (A) (A) (A) (A)
                 (A) (A) (A) (A) (A) (A) (A) (A) (A) (A) (A) (A)
                 (A) (A) (A) (A) (A) (A) (A) (A) (A) (A) (A) (A)
                 (A) (A) (A) (A) (A) (A) (A) (A) (A) (A) (A) (A)
                 (A) (A) (A) (A) (A) (A) (A) (A) (A) (A) (A) (A)
                 (A) (A) (A) (A) (A) (A) (A) (A) (A) (A) (A) (A)
                 (A) (A) (A) (A) (A) (A) (A) (A) (A) (A) (A) (A)
                 (A) (A) (A) (A) (A) (A) (A) (A) (A) (A) (A) (A)
                 (A) (A) (A) (A) (A) (A) (A) (A) (A) (A) (A) (A)
                 (A) (A) (A) (A) (A) (A) (A) (A) (A) (A) (A) (A)
                 (A) (A) (A) (A) (A) (A) (A) (A) (A) (A) (A) (A)
                 (A) (A) (A) (A) (A) (A) (A) (A) (A) (A) (A) (A)
                 (A) (A) (A) (A) (A) (A) (A) (A) (A) (A) (A) (A)
                 (A) (A) (A) (A) (A) (A) (A) (A) (A) (A) (A) (A)
                 (A) (A) (A) (A) (A) (A) (A) (A) (A) (A) (A) (A)
                 (A) (A) (A) (A) (A) (A) (A) (A) (A) (A) (A) (A)
                 (A) (A) (A)
 The electronic state is 1-A.
 Alpha  occ. eigenvalues -- -145.35940 -19.20003 -19.15047 -19.13949 -19.13612
 Alpha  occ. eigenvalues --  -19.13414 -19.12176 -19.12063 -19.11794 -19.11555
 Alpha  occ. eigenvalues --  -19.10032 -19.09879 -19.09507 -19.08539 -19.07674
 Alpha  occ. eigenvalues --  -19.06842 -19.06632 -19.06451 -19.06373 -19.05121
 Alpha  occ. eigenvalues --  -19.04041 -19.03670 -19.03661 -19.03616 -15.41670
 Alpha  occ. eigenvalues --  -14.55967 -14.40967 -14.38811 -14.38471 -14.38072
 Alpha  occ. eigenvalues --  -14.37845 -14.36449 -14.33800 -14.33535 -14.33505
 Alpha  occ. eigenvalues --  -14.33377 -14.32158 -14.31992 -14.30526 -14.29972
 Alpha  occ. eigenvalues --  -12.55286 -12.55250 -12.55236 -10.33477 -10.31873
 Alpha  occ. eigenvalues --  -10.31341 -10.30809 -10.30776 -10.30684 -10.30364
 Alpha  occ. eigenvalues --  -10.28709 -10.27632 -10.27290 -10.27241 -10.26842
 Alpha  occ. eigenvalues --  -10.26359 -10.26284 -10.25740 -10.25503 -10.25459
 Alpha  occ. eigenvalues --  -10.25449 -10.25405 -10.25106 -10.24810 -10.24195
 Alpha  occ. eigenvalues --  -10.23555 -10.23386 -10.23383 -10.23068 -10.23018
 Alpha  occ. eigenvalues --  -10.23013 -10.22939 -10.22338 -10.22148 -10.21302
 Alpha  occ. eigenvalues --  -10.21148 -10.21145 -10.21056 -10.20340 -10.20333
 Alpha  occ. eigenvalues --  -10.20172 -10.20069 -10.19307 -10.19202 -10.19063
 Alpha  occ. eigenvalues --  -10.19060 -10.18969 -10.18773 -10.18745 -10.18163
 Alpha  occ. eigenvalues --  -10.17896 -10.17713 -10.17613 -10.17387 -10.17074
 Alpha  occ. eigenvalues --  -10.16679 -10.14336  -1.78585  -1.11048  -1.07927
 Alpha  occ. eigenvalues --   -1.06878  -1.06766  -1.06622  -1.05871  -1.05374
 Alpha  occ. eigenvalues --   -1.05104  -1.05014  -1.04755  -1.04679  -1.03949
 Alpha  occ. eigenvalues --   -1.02566  -1.02556  -1.02338  -1.02030  -1.00519
 Alpha  occ. eigenvalues --   -1.00493  -1.00065  -0.99732  -0.99324  -0.98755
 Alpha  occ. eigenvalues --   -0.97547  -0.97311  -0.96615  -0.95579  -0.94860
 Alpha  occ. eigenvalues --   -0.94853  -0.94571  -0.94095  -0.91658  -0.91571
 Alpha  occ. eigenvalues --   -0.91538  -0.90895  -0.90716  -0.89342  -0.89181
 Alpha  occ. eigenvalues --   -0.89027  -0.87654  -0.87544  -0.86025  -0.85920
 Alpha  occ. eigenvalues --   -0.83928  -0.83330  -0.82760  -0.80242  -0.79737
 Alpha  occ. eigenvalues --   -0.79383  -0.78880  -0.78781  -0.77874  -0.76863
 Alpha  occ. eigenvalues --   -0.75700  -0.75615  -0.74772  -0.73336  -0.73264
 Alpha  occ. eigenvalues --   -0.73012  -0.72434  -0.71785  -0.71127  -0.70414
 Alpha  occ. eigenvalues --   -0.69797  -0.69690  -0.69103  -0.68893  -0.68199
 Alpha  occ. eigenvalues --   -0.67378  -0.67018  -0.66192  -0.65741  -0.65694
 Alpha  occ. eigenvalues --   -0.65484  -0.64422  -0.62557  -0.62337  -0.62097
 Alpha  occ. eigenvalues --   -0.61803  -0.61768  -0.61357  -0.60433  -0.59925
 Alpha  occ. eigenvalues --   -0.59788  -0.59272  -0.59200  -0.58817  -0.58767
 Alpha  occ. eigenvalues --   -0.58569  -0.58389  -0.58146  -0.56729  -0.56382
 Alpha  occ. eigenvalues --   -0.56124  -0.56049  -0.55954  -0.55576  -0.55468
 Alpha  occ. eigenvalues --   -0.54836  -0.54589  -0.53995  -0.53618  -0.53500
 Alpha  occ. eigenvalues --   -0.53393  -0.53102  -0.53030  -0.52485  -0.52280
 Alpha  occ. eigenvalues --   -0.51928  -0.51729  -0.51393  -0.50754  -0.50619
 Alpha  occ. eigenvalues --   -0.50492  -0.50239  -0.49747  -0.49273  -0.48915
 Alpha  occ. eigenvalues --   -0.48854  -0.48764  -0.48681  -0.48442  -0.48111
 Alpha  occ. eigenvalues --   -0.47966  -0.47901  -0.47666  -0.47545  -0.47304
 Alpha  occ. eigenvalues --   -0.46978  -0.46667  -0.46540  -0.46170  -0.46003
 Alpha  occ. eigenvalues --   -0.45928  -0.45790  -0.45612  -0.45481  -0.45195
 Alpha  occ. eigenvalues --   -0.45032  -0.44892  -0.44684  -0.44587  -0.44420
 Alpha  occ. eigenvalues --   -0.44285  -0.44239  -0.44106  -0.44044  -0.43925
 Alpha  occ. eigenvalues --   -0.43813  -0.43530  -0.43490  -0.43191  -0.43075
 Alpha  occ. eigenvalues --   -0.42696  -0.42592  -0.42478  -0.42437  -0.42208
 Alpha  occ. eigenvalues --   -0.42168  -0.42126  -0.42026  -0.41929  -0.41810
 Alpha  occ. eigenvalues --   -0.41541  -0.41224  -0.41091  -0.40937  -0.40863
 Alpha  occ. eigenvalues --   -0.40746  -0.40514  -0.40495  -0.40088  -0.39871
 Alpha  occ. eigenvalues --   -0.39777  -0.39716  -0.39698  -0.39473  -0.39207
 Alpha  occ. eigenvalues --   -0.39075  -0.38898  -0.38775  -0.38687  -0.38564
 Alpha  occ. eigenvalues --   -0.38517  -0.38484  -0.38185  -0.38137  -0.38018
 Alpha  occ. eigenvalues --   -0.37975  -0.37762  -0.37488  -0.37427  -0.37124
 Alpha  occ. eigenvalues --   -0.36954  -0.36885  -0.36622  -0.36545  -0.36198
 Alpha  occ. eigenvalues --   -0.36093  -0.35923  -0.35841  -0.35721  -0.35470
 Alpha  occ. eigenvalues --   -0.35173  -0.35150  -0.34928  -0.34530  -0.34316
 Alpha  occ. eigenvalues --   -0.34273  -0.34109  -0.33947  -0.33784  -0.33564
 Alpha  occ. eigenvalues --   -0.33112  -0.33065  -0.32976  -0.31946  -0.31918
 Alpha  occ. eigenvalues --   -0.31822  -0.31236  -0.31069  -0.31053  -0.30343
 Alpha  occ. eigenvalues --   -0.30167  -0.29947  -0.29627  -0.29506  -0.29168
 Alpha  occ. eigenvalues --   -0.29137  -0.28444  -0.28276  -0.27811  -0.27522
 Alpha  occ. eigenvalues --   -0.27306  -0.27266  -0.27183  -0.27010  -0.26439
 Alpha  occ. eigenvalues --   -0.25618  -0.25555  -0.24854  -0.24487  -0.24342
 Alpha  occ. eigenvalues --   -0.24199  -0.23965  -0.23840  -0.23672  -0.23437
 Alpha  occ. eigenvalues --   -0.23282  -0.22786  -0.22720  -0.22087  -0.21877
 Alpha  occ. eigenvalues --   -0.21474  -0.21345  -0.20940  -0.20697  -0.20332
 Alpha  occ. eigenvalues --   -0.19505  -0.19117  -0.18777
 Alpha virt. eigenvalues --   -0.08489  -0.03442  -0.02877  -0.02870  -0.02203
 Alpha virt. eigenvalues --   -0.01724  -0.01286  -0.01156  -0.00645  -0.00175
 Alpha virt. eigenvalues --    0.00118   0.00722   0.01290   0.01523   0.01689
 Alpha virt. eigenvalues --    0.02111   0.02300   0.02913   0.03146   0.03469
 Alpha virt. eigenvalues --    0.03801   0.04068   0.04230   0.04453   0.04762
 Alpha virt. eigenvalues --    0.04922   0.05130   0.05341   0.05594   0.05985
 Alpha virt. eigenvalues --    0.06023   0.06213   0.06344   0.06478   0.06877
 Alpha virt. eigenvalues --    0.07052   0.07163   0.07426   0.07502   0.07949
 Alpha virt. eigenvalues --    0.08219   0.08366   0.08510   0.08626   0.09075
 Alpha virt. eigenvalues --    0.09108   0.09407   0.09523   0.09696   0.09862
 Alpha virt. eigenvalues --    0.09916   0.10152   0.10453   0.10527   0.10692
 Alpha virt. eigenvalues --    0.10827   0.11214   0.11431   0.11599   0.11699
 Alpha virt. eigenvalues --    0.11740   0.11951   0.12251   0.12295   0.12435
 Alpha virt. eigenvalues --    0.12499   0.12619   0.12801   0.13061   0.13207
 Alpha virt. eigenvalues --    0.13370   0.13500   0.13816   0.13939   0.13995
 Alpha virt. eigenvalues --    0.14233   0.14404   0.14633   0.14788   0.14812
 Alpha virt. eigenvalues --    0.14966   0.15198   0.15307   0.15411   0.15665
 Alpha virt. eigenvalues --    0.15830   0.15959   0.16191   0.16341   0.16546
 Alpha virt. eigenvalues --    0.16638   0.16871   0.16973   0.17103   0.17235
 Alpha virt. eigenvalues --    0.17382   0.17431   0.17670   0.17891   0.18149
 Alpha virt. eigenvalues --    0.18241   0.18361   0.18424   0.18666   0.18867
 Alpha virt. eigenvalues --    0.19253   0.19296   0.19360   0.19575   0.19829
 Alpha virt. eigenvalues --    0.19942   0.20180   0.20327   0.20437   0.20556
 Alpha virt. eigenvalues --    0.21197   0.21419   0.21704   0.21926   0.22245
 Alpha virt. eigenvalues --    0.22486   0.22688   0.22805   0.22985   0.23147
 Alpha virt. eigenvalues --    0.23374   0.23449   0.23877   0.24063   0.24262
 Alpha virt. eigenvalues --    0.24366   0.24585   0.24737   0.24989   0.25163
 Alpha virt. eigenvalues --    0.25241   0.25441   0.25694   0.25909   0.26239
 Alpha virt. eigenvalues --    0.26302   0.26360   0.26586   0.26679   0.26872
 Alpha virt. eigenvalues --    0.27355   0.27622   0.28016   0.28382   0.28409
 Alpha virt. eigenvalues --    0.29010   0.29106   0.29750   0.29812   0.30268
 Alpha virt. eigenvalues --    0.30315   0.30557   0.30627   0.30970   0.31213
 Alpha virt. eigenvalues --    0.31447   0.31527   0.31867   0.31981   0.32206
 Alpha virt. eigenvalues --    0.32482   0.32675   0.32852   0.33165   0.33391
 Alpha virt. eigenvalues --    0.33517   0.33936   0.34502   0.35024   0.35238
 Alpha virt. eigenvalues --    0.35449   0.35651   0.35871   0.36320   0.36635
 Alpha virt. eigenvalues --    0.36835   0.36890   0.37412   0.37720   0.38007
 Alpha virt. eigenvalues --    0.38092   0.38269   0.38768   0.38961   0.39234
 Alpha virt. eigenvalues --    0.39466   0.39806   0.39932   0.40074   0.40281
 Alpha virt. eigenvalues --    0.40595   0.40797   0.41246   0.41767   0.41969
 Alpha virt. eigenvalues --    0.42018   0.42450   0.42465   0.42742   0.42959
 Alpha virt. eigenvalues --    0.43187   0.43389   0.43673   0.43775   0.43854
 Alpha virt. eigenvalues --    0.44185   0.44311   0.44456   0.44631   0.44956
 Alpha virt. eigenvalues --    0.45205   0.45325   0.45446   0.45595   0.45986
 Alpha virt. eigenvalues --    0.46344   0.46450   0.46485   0.46691   0.46921
 Alpha virt. eigenvalues --    0.46994   0.47117   0.47349   0.47561   0.47615
 Alpha virt. eigenvalues --    0.47740   0.48118   0.48372   0.48777   0.48851
 Alpha virt. eigenvalues --    0.48938   0.49250   0.49445   0.49597   0.49657
 Alpha virt. eigenvalues --    0.49898   0.49942   0.50362   0.50574   0.50878
 Alpha virt. eigenvalues --    0.51084   0.51282   0.51605   0.51828   0.51915
 Alpha virt. eigenvalues --    0.52267   0.52459   0.52808   0.52894   0.52911
 Alpha virt. eigenvalues --    0.53278   0.53461   0.53820   0.54000   0.54271
 Alpha virt. eigenvalues --    0.54446   0.54563   0.54745   0.54791   0.55166
 Alpha virt. eigenvalues --    0.55285   0.55529   0.55773   0.55908   0.56080
 Alpha virt. eigenvalues --    0.56303   0.56472   0.56596   0.56717   0.56825
 Alpha virt. eigenvalues --    0.57082   0.57122   0.57373   0.57516   0.57772
 Alpha virt. eigenvalues --    0.57933   0.58097   0.58191   0.58263   0.58537
 Alpha virt. eigenvalues --    0.58729   0.58822   0.58903   0.59109   0.59240
 Alpha virt. eigenvalues --    0.59439   0.59551   0.59652   0.59810   0.59876
 Alpha virt. eigenvalues --    0.60101   0.60272   0.60408   0.60619   0.60921
 Alpha virt. eigenvalues --    0.60949   0.61113   0.61189   0.61333   0.61409
 Alpha virt. eigenvalues --    0.61559   0.61716   0.61909   0.62123   0.62149
 Alpha virt. eigenvalues --    0.62359   0.62557   0.62621   0.62729   0.62813
 Alpha virt. eigenvalues --    0.62936   0.63047   0.63186   0.63249   0.63466
 Alpha virt. eigenvalues --    0.63607   0.63823   0.63867   0.63897   0.63953
 Alpha virt. eigenvalues --    0.64083   0.64231   0.64386   0.64511   0.64579
 Alpha virt. eigenvalues --    0.64654   0.64919   0.65025   0.65231   0.65319
 Alpha virt. eigenvalues --    0.65405   0.65441   0.65604   0.65759   0.65832
 Alpha virt. eigenvalues --    0.65961   0.65996   0.66322   0.66360   0.66380
 Alpha virt. eigenvalues --    0.66495   0.66585   0.66768   0.66900   0.66972
 Alpha virt. eigenvalues --    0.67041   0.67158   0.67301   0.67424   0.67525
 Alpha virt. eigenvalues --    0.67613   0.67761   0.67820   0.68022   0.68056
 Alpha virt. eigenvalues --    0.68137   0.68251   0.68381   0.68500   0.68624
 Alpha virt. eigenvalues --    0.68774   0.68985   0.69069   0.69220   0.69407
 Alpha virt. eigenvalues --    0.69446   0.69583   0.69692   0.69760   0.69854
 Alpha virt. eigenvalues --    0.70052   0.70142   0.70324   0.70486   0.70551
 Alpha virt. eigenvalues --    0.70734   0.70903   0.70962   0.71036   0.71102
 Alpha virt. eigenvalues --    0.71196   0.71508   0.71615   0.71662   0.71878
 Alpha virt. eigenvalues --    0.72002   0.72212   0.72381   0.72397   0.72658
 Alpha virt. eigenvalues --    0.72752   0.72975   0.73211   0.73391   0.73569
 Alpha virt. eigenvalues --    0.73642   0.74042   0.74345   0.74580   0.74804
 Alpha virt. eigenvalues --    0.74871   0.74918   0.75246   0.75342   0.75644
 Alpha virt. eigenvalues --    0.75814   0.76019   0.76195   0.76425   0.76609
 Alpha virt. eigenvalues --    0.76799   0.76833   0.76928   0.77341   0.77551
 Alpha virt. eigenvalues --    0.78022   0.78123   0.78445   0.78802   0.78862
 Alpha virt. eigenvalues --    0.79090   0.79308   0.79349   0.79818   0.80192
 Alpha virt. eigenvalues --    0.80373   0.80584   0.80907   0.81172   0.81262
 Alpha virt. eigenvalues --    0.81761   0.81786   0.82061   0.82400   0.82549
 Alpha virt. eigenvalues --    0.82836   0.83080   0.83341   0.83610   0.83804
 Alpha virt. eigenvalues --    0.84089   0.84434   0.84876   0.85121   0.85392
 Alpha virt. eigenvalues --    0.85783   0.86045   0.86384   0.86470   0.86838
 Alpha virt. eigenvalues --    0.87489   0.87620   0.88106   0.88481   0.88788
 Alpha virt. eigenvalues --    0.88885   0.89114   0.89159   0.89396   0.89604
 Alpha virt. eigenvalues --    0.90024   0.90152   0.90426   0.90814   0.90883
 Alpha virt. eigenvalues --    0.91044   0.91348   0.92461   0.92612   0.92716
 Alpha virt. eigenvalues --    0.93186   0.93632   0.93901   0.93982   0.94294
 Alpha virt. eigenvalues --    0.94517   0.94653   0.95085   0.95563   0.95698
 Alpha virt. eigenvalues --    0.95817   0.96325   0.96352   0.96906   0.97133
 Alpha virt. eigenvalues --    0.97510   0.97700   0.97907   0.98523   0.98648
 Alpha virt. eigenvalues --    0.98979   0.99703   0.99822   1.00316   1.00526
 Alpha virt. eigenvalues --    1.01007   1.01150   1.01548   1.01638   1.02054
 Alpha virt. eigenvalues --    1.02207   1.02516   1.02637   1.02902   1.03532
 Alpha virt. eigenvalues --    1.03747   1.04102   1.04338   1.04621   1.04749
 Alpha virt. eigenvalues --    1.05339   1.05449   1.05917   1.06056   1.06494
 Alpha virt. eigenvalues --    1.06670   1.06786   1.06977   1.07056   1.07434
 Alpha virt. eigenvalues --    1.07850   1.08148   1.08282   1.08592   1.08814
 Alpha virt. eigenvalues --    1.08866   1.09211   1.09508   1.09679   1.10030
 Alpha virt. eigenvalues --    1.10114   1.10486   1.11003   1.11243   1.11480
 Alpha virt. eigenvalues --    1.11703   1.12242   1.12387   1.12459   1.12692
 Alpha virt. eigenvalues --    1.12981   1.13026   1.13469   1.13650   1.13909
 Alpha virt. eigenvalues --    1.14266   1.14715   1.14903   1.15272   1.15518
 Alpha virt. eigenvalues --    1.15768   1.15934   1.16164   1.16802   1.16959
 Alpha virt. eigenvalues --    1.17166   1.17492   1.17903   1.18036   1.18479
 Alpha virt. eigenvalues --    1.18913   1.19158   1.19299   1.19677   1.19876
 Alpha virt. eigenvalues --    1.19961   1.20261   1.20414   1.20606   1.20966
 Alpha virt. eigenvalues --    1.21182   1.21677   1.21958   1.22330   1.22362
 Alpha virt. eigenvalues --    1.22952   1.23028   1.23364   1.23458   1.23730
 Alpha virt. eigenvalues --    1.23995   1.24060   1.24238   1.24484   1.24783
 Alpha virt. eigenvalues --    1.25068   1.25180   1.25363   1.25718   1.25852
 Alpha virt. eigenvalues --    1.26436   1.26732   1.26979   1.27080   1.27158
 Alpha virt. eigenvalues --    1.27718   1.27772   1.27960   1.28344   1.28722
 Alpha virt. eigenvalues --    1.29098   1.29345   1.29628   1.29875   1.29905
 Alpha virt. eigenvalues --    1.30102   1.30597   1.30863   1.31393   1.31578
 Alpha virt. eigenvalues --    1.31812   1.32236   1.32356   1.32535   1.32682
 Alpha virt. eigenvalues --    1.32996   1.33220   1.33250   1.33513   1.33587
 Alpha virt. eigenvalues --    1.33762   1.34092   1.34410   1.34705   1.34759
 Alpha virt. eigenvalues --    1.35129   1.35571   1.35912   1.36237   1.36576
 Alpha virt. eigenvalues --    1.36582   1.37318   1.37535   1.37701   1.37864
 Alpha virt. eigenvalues --    1.38345   1.38488   1.38526   1.39025   1.39424
 Alpha virt. eigenvalues --    1.39773   1.39872   1.40230   1.40673   1.40859
 Alpha virt. eigenvalues --    1.41216   1.41308   1.41665   1.41929   1.41941
 Alpha virt. eigenvalues --    1.42211   1.42487   1.43106   1.43329   1.43700
 Alpha virt. eigenvalues --    1.43830   1.43967   1.44179   1.44514   1.44908
 Alpha virt. eigenvalues --    1.45229   1.45674   1.45880   1.46391   1.46777
 Alpha virt. eigenvalues --    1.46878   1.47276   1.47431   1.47694   1.47945
 Alpha virt. eigenvalues --    1.48302   1.48609   1.48781   1.48841   1.49106
 Alpha virt. eigenvalues --    1.49771   1.49932   1.50083   1.50211   1.50750
 Alpha virt. eigenvalues --    1.50945   1.51557   1.51596   1.51793   1.51987
 Alpha virt. eigenvalues --    1.52834   1.53055   1.53378   1.53647   1.53768
 Alpha virt. eigenvalues --    1.54077   1.54691   1.55035   1.55210   1.55267
 Alpha virt. eigenvalues --    1.55641   1.55993   1.56399   1.56547   1.56976
 Alpha virt. eigenvalues --    1.57201   1.57315   1.57775   1.57934   1.58480
 Alpha virt. eigenvalues --    1.58787   1.59134   1.59328   1.59913   1.59940
 Alpha virt. eigenvalues --    1.60609   1.60894   1.61122   1.61179   1.61526
 Alpha virt. eigenvalues --    1.61596   1.61789   1.62216   1.62687   1.63091
 Alpha virt. eigenvalues --    1.63562   1.64068   1.64092   1.64469   1.64613
 Alpha virt. eigenvalues --    1.65042   1.65331   1.66100   1.66366   1.66638
 Alpha virt. eigenvalues --    1.66762   1.67999   1.68171   1.68336   1.68759
 Alpha virt. eigenvalues --    1.68964   1.69198   1.69299   1.69379   1.70026
 Alpha virt. eigenvalues --    1.70344   1.70546   1.70665   1.70823   1.71006
 Alpha virt. eigenvalues --    1.71363   1.71408   1.71683   1.72253   1.72472
 Alpha virt. eigenvalues --    1.72848   1.73008   1.73144   1.73222   1.73500
 Alpha virt. eigenvalues --    1.73633   1.73856   1.73981   1.74143   1.74334
 Alpha virt. eigenvalues --    1.74459   1.74707   1.75021   1.75138   1.75268
 Alpha virt. eigenvalues --    1.75411   1.75789   1.75833   1.76041   1.76365
 Alpha virt. eigenvalues --    1.76542   1.76639   1.76743   1.76881   1.77017
 Alpha virt. eigenvalues --    1.77231   1.77319   1.77435   1.77620   1.77820
 Alpha virt. eigenvalues --    1.77925   1.78035   1.78226   1.78264   1.78517
 Alpha virt. eigenvalues --    1.78721   1.78815   1.78975   1.79289   1.79360
 Alpha virt. eigenvalues --    1.79455   1.79691   1.79797   1.79875   1.80229
 Alpha virt. eigenvalues --    1.80380   1.80628   1.80720   1.80909   1.81262
 Alpha virt. eigenvalues --    1.81453   1.81673   1.81817   1.82083   1.82186
 Alpha virt. eigenvalues --    1.82369   1.82402   1.82649   1.82843   1.82987
 Alpha virt. eigenvalues --    1.83284   1.83651   1.83721   1.83804   1.83895
 Alpha virt. eigenvalues --    1.84231   1.84444   1.84669   1.84781   1.84973
 Alpha virt. eigenvalues --    1.85218   1.85376   1.85684   1.85772   1.85891
 Alpha virt. eigenvalues --    1.85948   1.86269   1.86457   1.86761   1.86863
 Alpha virt. eigenvalues --    1.86959   1.87175   1.87437   1.87684   1.87738
 Alpha virt. eigenvalues --    1.88224   1.88462   1.88652   1.88935   1.89216
 Alpha virt. eigenvalues --    1.89267   1.89401   1.89554   1.89647   1.89777
 Alpha virt. eigenvalues --    1.90009   1.90094   1.90261   1.90628   1.90716
 Alpha virt. eigenvalues --    1.90821   1.90961   1.91217   1.91261   1.91541
 Alpha virt. eigenvalues --    1.91672   1.91940   1.91987   1.92537   1.92694
 Alpha virt. eigenvalues --    1.92813   1.93041   1.93123   1.93493   1.93568
 Alpha virt. eigenvalues --    1.93862   1.93969   1.94065   1.94273   1.94371
 Alpha virt. eigenvalues --    1.94690   1.94862   1.94929   1.95039   1.95287
 Alpha virt. eigenvalues --    1.95437   1.95446   1.95824   1.95918   1.96414
 Alpha virt. eigenvalues --    1.96534   1.96781   1.96983   1.97300   1.97418
 Alpha virt. eigenvalues --    1.97631   1.97762   1.98253   1.98546   1.98626
 Alpha virt. eigenvalues --    1.99141   1.99747   2.00033   2.00240   2.00291
 Alpha virt. eigenvalues --    2.00602   2.00841   2.00942   2.01409   2.01592
 Alpha virt. eigenvalues --    2.01859   2.02111   2.02348   2.02489   2.02796
 Alpha virt. eigenvalues --    2.02883   2.03271   2.03389   2.03738   2.04234
 Alpha virt. eigenvalues --    2.04320   2.04791   2.05077   2.05174   2.05424
 Alpha virt. eigenvalues --    2.05704   2.06042   2.06256   2.06433   2.06648
 Alpha virt. eigenvalues --    2.06879   2.07034   2.07318   2.07775   2.08013
 Alpha virt. eigenvalues --    2.08455   2.08528   2.08677   2.08939   2.09144
 Alpha virt. eigenvalues --    2.09362   2.09863   2.10080   2.10245   2.10670
 Alpha virt. eigenvalues --    2.10847   2.11039   2.11361   2.11552   2.12104
 Alpha virt. eigenvalues --    2.12472   2.12596   2.13114   2.13467   2.13593
 Alpha virt. eigenvalues --    2.14230   2.14551   2.14658   2.15036   2.15336
 Alpha virt. eigenvalues --    2.15423   2.15839   2.16396   2.16524   2.16710
 Alpha virt. eigenvalues --    2.16920   2.17106   2.17272   2.17629   2.17906
 Alpha virt. eigenvalues --    2.18262   2.18703   2.18801   2.19196   2.19352
 Alpha virt. eigenvalues --    2.19603   2.20074   2.20227   2.20282   2.20640
 Alpha virt. eigenvalues --    2.20774   2.20988   2.21412   2.21674   2.22081
 Alpha virt. eigenvalues --    2.22310   2.22439   2.22710   2.22843   2.23216
 Alpha virt. eigenvalues --    2.23755   2.24217   2.24390   2.24849   2.24961
 Alpha virt. eigenvalues --    2.25111   2.25425   2.25943   2.26292   2.26985
 Alpha virt. eigenvalues --    2.27476   2.27600   2.27976   2.28416   2.28932
 Alpha virt. eigenvalues --    2.29328   2.29392   2.29629   2.30036   2.30147
 Alpha virt. eigenvalues --    2.31334   2.31833   2.31998   2.32489   2.32862
 Alpha virt. eigenvalues --    2.33122   2.33383   2.33565   2.33869   2.33956
 Alpha virt. eigenvalues --    2.34040   2.34633   2.35295   2.35435   2.35642
 Alpha virt. eigenvalues --    2.35886   2.36300   2.36406   2.36736   2.37382
 Alpha virt. eigenvalues --    2.37619   2.37819   2.38336   2.38906   2.39115
 Alpha virt. eigenvalues --    2.39362   2.39494   2.39919   2.40113   2.40334
 Alpha virt. eigenvalues --    2.40545   2.40752   2.41498   2.41763   2.42165
 Alpha virt. eigenvalues --    2.42248   2.42316   2.42692   2.42877   2.43081
 Alpha virt. eigenvalues --    2.43304   2.43649   2.43749   2.44497   2.44706
 Alpha virt. eigenvalues --    2.44902   2.45486   2.45888   2.46094   2.46377
 Alpha virt. eigenvalues --    2.46597   2.46832   2.46982   2.47172   2.47758
 Alpha virt. eigenvalues --    2.48610   2.48776   2.49334   2.49486   2.49880
 Alpha virt. eigenvalues --    2.50060   2.50491   2.50622   2.51027   2.51320
 Alpha virt. eigenvalues --    2.51619   2.51837   2.52152   2.52658   2.52840
 Alpha virt. eigenvalues --    2.52976   2.53181   2.53664   2.53903   2.55028
 Alpha virt. eigenvalues --    2.55301   2.55516   2.55791   2.56075   2.56251
 Alpha virt. eigenvalues --    2.56574   2.56620   2.57556   2.58176   2.58622
 Alpha virt. eigenvalues --    2.58815   2.58988   2.59134   2.59527   2.59921
 Alpha virt. eigenvalues --    2.60250   2.60483   2.60662   2.60887   2.61139
 Alpha virt. eigenvalues --    2.61966   2.62125   2.62332   2.62510   2.62843
 Alpha virt. eigenvalues --    2.62875   2.63277   2.63542   2.64236   2.64536
 Alpha virt. eigenvalues --    2.64684   2.64927   2.65244   2.65821   2.66033
 Alpha virt. eigenvalues --    2.66057   2.66158   2.66709   2.66840   2.67143
 Alpha virt. eigenvalues --    2.67385   2.67848   2.67899   2.68090   2.68321
 Alpha virt. eigenvalues --    2.69279   2.69414   2.69695   2.70329   2.70630
 Alpha virt. eigenvalues --    2.70816   2.70983   2.71090   2.71520   2.71717
 Alpha virt. eigenvalues --    2.72119   2.72301   2.72551   2.72600   2.72912
 Alpha virt. eigenvalues --    2.73251   2.73280   2.73456   2.73710   2.73907
 Alpha virt. eigenvalues --    2.74013   2.74135   2.74579   2.74890   2.74920
 Alpha virt. eigenvalues --    2.75229   2.75387   2.75654   2.76161   2.76364
 Alpha virt. eigenvalues --    2.76661   2.76760   2.76941   2.77622   2.77815
 Alpha virt. eigenvalues --    2.77929   2.78293   2.78502   2.78719   2.78944
 Alpha virt. eigenvalues --    2.78988   2.79527   2.79738   2.80507   2.80773
 Alpha virt. eigenvalues --    2.81163   2.81366   2.81788   2.82244   2.82417
 Alpha virt. eigenvalues --    2.83040   2.83269   2.83331   2.83607   2.83967
 Alpha virt. eigenvalues --    2.84074   2.84797   2.85077   2.85331   2.85546
 Alpha virt. eigenvalues --    2.86221   2.86633   2.87103   2.87655   2.87836
 Alpha virt. eigenvalues --    2.88145   2.88314   2.88574   2.88745   2.89015
 Alpha virt. eigenvalues --    2.89325   2.89512   2.89667   2.89858   2.90470
 Alpha virt. eigenvalues --    2.90868   2.91324   2.91443   2.91574   2.91830
 Alpha virt. eigenvalues --    2.92016   2.92175   2.92728   2.93007   2.93291
 Alpha virt. eigenvalues --    2.93397   2.93536   2.93776   2.93967   2.94401
 Alpha virt. eigenvalues --    2.94617   2.94959   2.95057   2.95678   2.95793
 Alpha virt. eigenvalues --    2.96025   2.96410   2.97003   2.97372   2.97665
 Alpha virt. eigenvalues --    2.98053   2.98453   2.98930   2.99022   2.99575
 Alpha virt. eigenvalues --    2.99902   3.00093   3.00467   3.00910   3.01112
 Alpha virt. eigenvalues --    3.01831   3.02090   3.02141   3.02643   3.02737
 Alpha virt. eigenvalues --    3.02919   3.03769   3.03939   3.04266   3.04381
 Alpha virt. eigenvalues --    3.04675   3.05110   3.05319   3.05610   3.05839
 Alpha virt. eigenvalues --    3.06859   3.07041   3.07243   3.07857   3.08010
 Alpha virt. eigenvalues --    3.08272   3.08814   3.09357   3.09670   3.10954
 Alpha virt. eigenvalues --    3.12001   3.12720   3.12859   3.13718   3.14187
 Alpha virt. eigenvalues --    3.14656   3.15228   3.15337   3.15605   3.15769
 Alpha virt. eigenvalues --    3.16075   3.16455   3.16716   3.16988   3.17211
 Alpha virt. eigenvalues --    3.17614   3.17789   3.17922   3.18531   3.18647
 Alpha virt. eigenvalues --    3.19500   3.19932   3.20425   3.20808   3.21252
 Alpha virt. eigenvalues --    3.21833   3.21964   3.22598   3.22753   3.22894
 Alpha virt. eigenvalues --    3.23172   3.23412   3.23783   3.24349   3.24655
 Alpha virt. eigenvalues --    3.24909   3.25815   3.25957   3.26170   3.27214
 Alpha virt. eigenvalues --    3.27501   3.28035   3.28453   3.28872   3.30049
 Alpha virt. eigenvalues --    3.30509   3.31406   3.32474   3.33795   3.34383
 Alpha virt. eigenvalues --    3.34472   3.35145   3.36277   3.37923   3.38422
 Alpha virt. eigenvalues --    3.39247   3.40008   3.46903   3.48841   3.49350
 Alpha virt. eigenvalues --    3.50889   3.51842   3.52254   3.53112   3.54524
 Alpha virt. eigenvalues --    3.54686   3.56744   3.58841   3.59134   3.59949
 Alpha virt. eigenvalues --    3.61104   3.61815   3.62833   3.62989   3.65175
 Alpha virt. eigenvalues --    3.65247   3.65924   3.66533   3.67182   3.67440
 Alpha virt. eigenvalues --    3.68051   3.68642   3.68983   3.69191   3.69669
 Alpha virt. eigenvalues --    3.70054   3.70485   3.71007   3.71268   3.71348
 Alpha virt. eigenvalues --    3.71731   3.72296   3.72601   3.72673   3.75570
 Alpha virt. eigenvalues --    3.78337   3.78485   3.80936   3.85971
          Condensed to atoms (all electrons):
 Mulliken charges:
               1
     1  C    0.046184
     2  C   -0.000324
     3  O   -0.293373
     4  H   -0.013274
     5  H    0.054082
     6  H    0.039625
     7  N   -0.111555
     8  C    0.129777
     9  C    0.046653
    10  O   -0.293177
    11  C    0.040168
    12  C    0.145475
    13  O   -0.357121
    14  O   -0.464498
    15  H    0.117434
    16  H    0.014459
    17  H    0.021281
    18  H    0.011605
    19  N   -0.167540
    20  C    0.129162
    21  C    0.057958
    22  O   -0.298375
    23  C    0.025720
    24  C    0.007483
    25  C   -0.024617
    26  C   -0.031470
    27  N    0.084949
    28  H    0.156092
    29  H   -0.032520
    30  H    0.005981
    31  H    0.034698
    32  H    0.035094
    33  H    0.041800
    34  H    0.029328
    35  H    0.013263
    36  H    0.092326
    37  H    0.093498
    38  H    0.183137
    39  H    0.191746
    40  H    0.179289
    41  N   -0.162780
    42  C    0.111586
    43  C    0.035405
    44  O   -0.297620
    45  C    0.151732
    46  C    0.080680
    47  O   -0.418053
    48  O   -0.432946
    49  H    0.198350
    50  H    0.031458
    51  H   -0.016560
    52  H    0.007060
    53  N   -0.139181
    54  C    0.220261
    55  C    0.064411
    56  O   -0.304947
    57  H    0.112877
    58  H    0.004166
    59  H    0.024474
    60  N   -0.138770
    61  C    0.168307
    62  C    0.062092
    63  O   -0.288880
    64  C    0.005383
    65  C    0.129909
    66  N   -0.065288
    67  O   -0.347948
    68  H    0.155765
    69  H    0.027355
    70  H    0.064538
    71  H    0.022262
    72  H    0.125419
    73  H    0.101861
    74  N   -0.159881
    75  C    0.234799
    76  C   -0.001897
    77  O   -0.294490
    78  H    0.155188
    79  H    0.030831
    80  H    0.036932
    81  N   -0.142479
    82  C    0.160610
    83  C    0.120779
    84  O   -0.361563
    85  C    0.152984
    86  C    0.003094
    87  C   -0.025832
    88  C   -0.006569
    89  C    0.007540
    90  C   -0.017003
    91  C    0.182658
    92  O   -0.217166
    93  H    0.141900
    94  H   -0.000075
    95  H   -0.031564
    96  H   -0.050103
    97  H   -0.054609
    98  H   -0.057742
    99  H   -0.008547
   100  H   -0.046111
   101  H    0.172378
   102  N   -0.119777
   103  C    0.153283
   104  C    0.066753
   105  O   -0.275336
   106  C   -0.084114
   107  C   -0.001578
   108  C    0.042792
   109  C    0.037784
   110  H    0.131008
   111  H    0.016228
   112  H   -0.001574
   113  H   -0.010755
   114  H   -0.006019
   115  H    0.012096
   116  H    0.024691
   117  H    0.019371
   118  H    0.012729
   119  H    0.012639
   120  H   -0.003447
   121  N   -0.136106
   122  C    0.052084
   123  C    0.132477
   124  O   -0.284356
   125  C    0.269201
   126  O   -0.326865
   127  H    0.134894
   128  H    0.014870
   129  H   -0.026660
   130  H   -0.031606
   131  H    0.158086
   132  N   -0.099256
   133  C    0.098987
   134  C    0.044664
   135  O   -0.267607
   136  C    0.007644
   137  H    0.122427
   138  H    0.029462
   139  H    0.011794
   140  H    0.050907
   141  H    0.031353
   142  N   -0.127258
   143  C    0.076379
   144  C    0.063430
   145  O   -0.272311
   146  C    0.028812
   147  H    0.111354
   148  H    0.034750
   149  H    0.042000
   150  H    0.019761
   151  H    0.016967
   152  N   -0.176755
   153  C    0.162528
   154  C    0.065929
   155  O   -0.292749
   156  C   -0.090128
   157  C    0.115558
   158  C    0.191250
   159  O   -0.408190
   160  O   -0.452258
   161  H    0.139092
   162  H   -0.000513
   163  H    0.044357
   164  H    0.014046
   165  H   -0.014441
   166  H    0.004530
   167  N   -0.161417
   168  C    0.140892
   169  H    0.023915
   170  H    0.009202
   171  H    0.031244
   172  H    0.123990
   173  Ca   1.262386
   174  O   -0.274707
   175  H    0.194110
   176  H    0.184214
 Sum of Mulliken charges =  -0.00000
 Mulliken charges with hydrogens summed into heavy atoms:
               1
     1  C    0.126617
     2  C   -0.000324
     3  O   -0.293373
     7  N    0.005879
     8  C    0.144236
     9  C    0.046653
    10  O   -0.293177
    11  C    0.073053
    12  C    0.145475
    13  O   -0.357121
    14  O   -0.464498
    19  N   -0.011447
    20  C    0.096642
    21  C    0.057958
    22  O   -0.298375
    23  C    0.066399
    24  C    0.084377
    25  C    0.017975
    26  C    0.154354
    27  N    0.639121
    41  N    0.035570
    42  C    0.143043
    43  C    0.035405
    44  O   -0.297620
    45  C    0.142233
    46  C    0.080680
    47  O   -0.418053
    48  O   -0.432946
    53  N   -0.026304
    54  C    0.248901
    55  C    0.064411
    56  O   -0.304947
    60  N    0.016995
    61  C    0.195662
    62  C    0.062092
    63  O   -0.288880
    64  C    0.092184
    65  C    0.129909
    66  N    0.161992
    67  O   -0.347948
    74  N   -0.004694
    75  C    0.302562
    76  C   -0.001897
    77  O   -0.294490
    81  N   -0.000580
    82  C    0.160535
    83  C    0.120779
    84  O   -0.361563
    85  C    0.071317
    86  C    0.003094
    87  C   -0.080440
    88  C   -0.064312
    89  C   -0.001007
    90  C   -0.063114
    91  C    0.182658
    92  O   -0.044788
   102  N    0.011232
   103  C    0.169511
   104  C    0.066753
   105  O   -0.275336
   106  C   -0.085688
   107  C   -0.018352
   108  C    0.098949
   109  C    0.059705
   121  N   -0.001212
   122  C    0.066954
   123  C    0.132477
   124  O   -0.284356
   125  C    0.210935
   126  O   -0.168779
   132  N    0.023170
   133  C    0.128448
   134  C    0.044664
   135  O   -0.267607
   136  C    0.101698
   142  N   -0.015904
   143  C    0.111129
   144  C    0.063430
   145  O   -0.272311
   146  C    0.107540
   152  N   -0.037663
   153  C    0.162015
   154  C    0.065929
   155  O   -0.292749
   156  C   -0.031726
   157  C    0.105646
   158  C    0.191250
   159  O   -0.408190
   160  O   -0.452258
   167  N   -0.037426
   168  C    0.205253
   173  Ca   1.262386
   174  O    0.103617
 DipInt: DoE/N= T F RetVal/Mat= T F Init=T NMatP=  1 IDeriv=0 Min/MaxMlt=  0  4
 Entering OneElI...
 OneElI was handed  1333951383 working-precision words.
 Multipole integrals L=0 to 4 MinM= 0 MaxM= 0.
 Requested accuracy = 0.1000D-12
 ShPair: Thresh= 1.00D-13 NBox=     0 BxSize= 0.00D+00 RnKept= 2.55D+01
         NSMCal=               327645 NSMKep=              164261
 PrmmSu-InSpLW:  IPartL=    0 NPrtUS=    1 NPrtUL=    1 DoSpLW=F IThBeg=    0 IThEnd=    0 NThAct=    1.
 PrsmSu:  NPrtUS=   1 ThrOK=F IAlg=1 NPAlg=1 LenDen=           0 ISkipM=0 DoSpLW=F IThBeg=    0 IThEnd=    0.
 Prism:   IPart=     0 DynPar=F LinDyn=F Incr=         512.
 PRISM was handed  1323718949 working-precision words and164261 shell-pairs
 IPart=  0 NShTot=      164261 NBatch=         379 AvBLen=       433.4
 PrsmSu-ThDecC:  IPartSL=    0    0 NPrtUSL=    1    1 IThBeg=    0 IThEnd=    0 CPU=   -1 GPU=   -1 NThAct=    1.
 PrSmSu:  NxtVal=            513.
 Electronic moments (au):
       -716.00000000          8.73662637         -2.11888237          3.56993834
     -53650.96095293     -28621.78592126     -11562.16870568         45.29855248
         12.34838675         97.74209744     -37565.57081101     -10864.51239545
     -14998.49678442      26930.12903326     125733.95711484      33042.86205931
     -15633.15879464     -13750.25722204        162.26220777     -40282.50863521
   -8196707.79662555   -2368989.70326158    -499119.07138369     -47317.75149822
     397921.54421941    -363662.42928318      12170.13834997     -64847.44240003
     -30065.48323001   -2139242.96568881    -647615.03439735    -383713.70178293
     -99470.24152557      -1467.06702025      27371.88632737
 Electronic spatial extent (au):  <R**2>=          93834.9156
 DipInt: DoE/N= F T RetVal/Mat= T F Init=T NMatP=  1 IDeriv=0 Min/MaxMlt=  0  4
 Nuclear    moments (au):
        716.00000000          0.00000000          0.00000000          0.00000000
      53136.81806410      28286.35009082      11191.87052776          0.00000000
         -0.00000000         -0.00000000      38264.40614380      11271.88425560
      15207.50339977     -25736.21916727    -126291.75294884     -33224.53455631
      15885.45269354      13882.59901607        583.10375949      40658.72152800
    7980800.85859340    2284008.73007562     462049.83503134      47383.74888633
    -400220.25806996     373856.50123458       -612.52703154      66744.46152564
      34728.98434314    2098133.75243322     612707.94340151     364424.05740569
     103778.11603922       2579.14076122     -25640.64944772
 Total      moments (au):
          0.00000000          8.73662637         -2.11888237          3.56993834
       -514.14288883       -335.43583045       -370.29817792         45.29855248
         12.34838675         97.74209744        698.83533279        407.37186015
        209.00661535       1193.90986599       -557.79583401       -181.67249700
        252.29389890        132.34179403        745.36596726        376.21289279
    -215906.93803215     -84980.97318595     -37069.23635235         65.99738811
      -2298.71385055      10194.07195140      11557.61131844       1897.01912561
       4663.50111313     -41109.21325559     -34907.09099585     -19289.64437724
       4307.87451365       1112.07374097       1731.23687965
 Traceless Quadrup. (au):
       -107.51725643         71.18980195         36.32745448         45.29855248
         12.34838675         97.74209744
 Charge=              0.0000 electrons
 Dipole moment (field-independent basis, Debye):
    X=             22.2063    Y=             -5.3857    Z=              9.0739  Tot=             24.5858
 Quadrupole moment (field-independent basis, Debye-Ang):
   XX=           -691.5398   YY=           -451.1727   ZZ=           -498.0637
   XY=             60.9281   XZ=             16.6090   YZ=            131.4665
 Traceless Quadrupole moment (field-independent basis, Debye-Ang):
   XX=           -144.6144   YY=             95.7527   ZZ=             48.8617
   XY=             60.9281   XZ=             16.6090   YZ=            131.4665
 Octapole moment (field-independent basis, Debye-Ang**2):
  XXX=            497.4041  YYY=            289.9516  ZZZ=            148.7629  XYY=            849.7790
  XXY=           -397.0176  XXZ=           -129.3075  XZZ=            179.5731  YZZ=             94.1958
  YYZ=            530.5228  XYZ=            267.7738
 Hexadecapole moment (field-independent basis, Debye-Ang**3):
 XXXX=         -81320.9059 YYYY=         -32007.9095 ZZZZ=         -13962.0519 XXXY=             24.8578
 XXXZ=           -865.8059 YYYX=           3839.5763 YYYZ=           4353.1506 ZZZX=            714.5084
 ZZZY=           1756.4981 XXYY=         -15483.7010 XXZZ=         -13147.6843 YYZZ=          -7265.4050
 XXYZ=           1622.5521 YYXZ=            418.8603 ZZXY=            652.0668
 N-N= 2.190870609589D+04 E-N=-5.629524082160D+04  KE= 5.290429590242D+03
 Leave Link  601 at Wed Sep 18 17:29:37 2019, MaxMem=  1342177280 cpu:              50.6 elap:               1.3
 FitSet:  NAtFit=   176 NAtPot=   176 NAtFrz=     0 MDM=   180 TotChg=   0.00000
 Merz-Kollman atomic radii used.
 Read replacement radii for each type of atom:
 Rad(20) =   1.700000000000D+00
 Atom Element Radius
    1     6    1.50
    2     6    1.50
    3     8    1.40
    4     1    1.20
    5     1    1.20
    6     1    1.20
    7     7    1.50
    8     6    1.50
    9     6    1.50
   10     8    1.40
   11     6    1.50
   12     6    1.50
   13     8    1.40
   14     8    1.40
   15     1    1.20
   16     1    1.20
   17     1    1.20
   18     1    1.20
   19     7    1.50
   20     6    1.50
   21     6    1.50
   22     8    1.40
   23     6    1.50
   24     6    1.50
   25     6    1.50
   26     6    1.50
   27     7    1.50
   28     1    1.20
   29     1    1.20
   30     1    1.20
   31     1    1.20
   32     1    1.20
   33     1    1.20
   34     1    1.20
   35     1    1.20
   36     1    1.20
   37     1    1.20
   38     1    1.20
   39     1    1.20
   40     1    1.20
   41     7    1.50
   42     6    1.50
   43     6    1.50
   44     8    1.40
   45     6    1.50
   46     6    1.50
   47     8    1.40
   48     8    1.40
   49     1    1.20
   50     1    1.20
   51     1    1.20
   52     1    1.20
   53     7    1.50
   54     6    1.50
   55     6    1.50
   56     8    1.40
   57     1    1.20
   58     1    1.20
   59     1    1.20
   60     7    1.50
   61     6    1.50
   62     6    1.50
   63     8    1.40
   64     6    1.50
   65     6    1.50
   66     7    1.50
   67     8    1.40
   68     1    1.20
   69     1    1.20
   70     1    1.20
   71     1    1.20
   72     1    1.20
   73     1    1.20
   74     7    1.50
   75     6    1.50
   76     6    1.50
   77     8    1.40
   78     1    1.20
   79     1    1.20
   80     1    1.20
   81     7    1.50
   82     6    1.50
   83     6    1.50
   84     8    1.40
   85     6    1.50
   86     6    1.50
   87     6    1.50
   88     6    1.50
   89     6    1.50
   90     6    1.50
   91     6    1.50
   92     8    1.40
   93     1    1.20
   94     1    1.20
   95     1    1.20
   96     1    1.20
   97     1    1.20
   98     1    1.20
   99     1    1.20
  100     1    1.20
  101     1    1.20
  102     7    1.50
  103     6    1.50
  104     6    1.50
  105     8    1.40
  106     6    1.50
  107     6    1.50
  108     6    1.50
  109     6    1.50
  110     1    1.20
  111     1    1.20
  112     1    1.20
  113     1    1.20
  114     1    1.20
  115     1    1.20
  116     1    1.20
  117     1    1.20
  118     1    1.20
  119     1    1.20
  120     1    1.20
  121     7    1.50
  122     6    1.50
  123     6    1.50
  124     8    1.40
  125     6    1.50
  126     8    1.40
  127     1    1.20
  128     1    1.20
  129     1    1.20
  130     1    1.20
  131     1    1.20
  132     7    1.50
  133     6    1.50
  134     6    1.50
  135     8    1.40
  136     6    1.50
  137     1    1.20
  138     1    1.20
  139     1    1.20
  140     1    1.20
  141     1    1.20
  142     7    1.50
  143     6    1.50
  144     6    1.50
  145     8    1.40
  146     6    1.50
  147     1    1.20
  148     1    1.20
  149     1    1.20
  150     1    1.20
  151     1    1.20
  152     7    1.50
  153     6    1.50
  154     6    1.50
  155     8    1.40
  156     6    1.50
  157     6    1.50
  158     6    1.50
  159     8    1.40
  160     8    1.40
  161     1    1.20
  162     1    1.20
  163     1    1.20
  164     1    1.20
  165     1    1.20
  166     1    1.20
  167     7    1.50
  168     6    1.50
  169     1    1.20
  170     1    1.20
  171     1    1.20
  172     1    1.20
  173    20    1.70
  174     8    1.40
[...]
 **** Fit      -0.012431
 **** Fit      -0.006375
 **** Fit       0.000838
 **** Fit       0.009123
 **** Fit      -0.026750
 **** Fit      -0.030859
 **** Fit      -0.031074
 **** Fit      -0.030472
 **** Fit      -0.029058
 **** Fit      -0.026827
 **** Fit      -0.023756
 **** Fit      -0.019795
 **** Fit      -0.014875
 **** Fit      -0.008914
 **** Fit      -0.001860
 **** Fit      -0.029812
 **** Fit      -0.034249
 **** Fit      -0.034309
 **** Fit      -0.033546
 **** Fit      -0.031943
 **** Fit      -0.029498
 **** Fit      -0.026202
 **** Fit      -0.022026
 **** Fit      -0.016922
 **** Fit      -0.010841
 **** Fit      -0.003760
 **** Fit      -0.033436
 **** Fit      -0.038556
 **** Fit      -0.038475
 **** Fit      -0.037495
 **** Fit      -0.035608
 **** Fit      -0.032846
 **** Fit      -0.029235
 **** Fit      -0.024785
 **** Fit      -0.019488
 **** Fit      -0.013341
 **** Fit      -0.006374
 **** Fit      -0.042641
 **** Fit      -0.040009
 **** Fit      -0.036373
 **** Fit      -0.031839
 **** Fit      -0.026471
 **** Fit      -0.020316
 **** Fit      -0.013448
 **** Fit      -0.033901
 **** Fit      -0.026930
 **** Fit      -0.003130
 **** Fit      -0.002023
 **** Fit      -0.003686
 **** Fit      -0.003949
 **** Fit      -0.005571
 **** Fit      -0.025985
 **** Fit      -0.029034
 **** Fit      -0.006913
 **** Fit      -0.009256
 **** Fit      -0.012937
 **** Fit      -0.017782
 **** Fit      -0.021802
 **** Fit      -0.022853
 **** Fit      -0.021818
 **** Fit      -0.011219
 **** Fit      -0.015432
 **** Fit      -0.017903
 **** Fit      -0.013480
 **** Fit      -0.026214
 **** Fit      -0.030624
 **** Fit      -0.031588
 **** Fit      -0.029543
 **** Fit      -0.026485
 **** Fit      -0.024525
 **** Fit      -0.014396
 **** Fit      -0.020983
 **** Fit      -0.010020
 **** Fit      -0.022426
 **** Fit      -0.011600
 **** Fit      -0.011421
 **** Fit      -0.001558
 **** Fit      -0.002328
 **** Fit      -0.005546
 **** Fit      -0.005324
 **** Fit      -0.007447
 **** Fit      -0.011789
 **** Fit      -0.015415
 **** Fit      -0.010519
 **** Fit      -0.006456
 **** Fit      -0.003138
 **** Fit      -0.005585
 **** Fit      -0.004530
 **** Fit      -0.002754
 **** Fit      -0.001353
 **** Fit      -0.003657
 **** Fit      -0.004298
 **** Fit      -0.004030
 **** Fit      -0.003563
 **** Fit      -0.003751
 **** Fit      -0.003976
 **** Fit      -0.004564
 **** Fit      -0.004955
 **** Fit      -0.005786
 **** Fit      -0.007739
 **** Fit      -0.027864
 **** Fit      -0.005532
 **** Fit      -0.006239
 **** Fit      -0.007736
 **** Fit      -0.010696
 **** Fit      -0.015263
 **** Fit      -0.020040
 **** Fit      -0.008092
 **** Fit      -0.009647
 **** Fit      -0.013561
 **** Fit      -0.016090
 **** Fit      -0.011581
 **** Fit      -0.032140
 **** Fit      -0.028447
 **** Fit      -0.031414
 **** Fit      -0.035482
 **** Fit      -0.031649
 **** Fit      -0.032919
 **** Fit      -0.036016
 **** Fit       0.008068
 **** Fit       0.009285
 **** Fit       0.008670
 **** Fit       0.007214
 **** Fit       0.009908
 **** Fit       0.009767
 **** Fit       0.009291
 **** Fit       0.008565
 **** Fit       0.007802
 **** Fit       0.006270
 **** Fit       0.005845
 **** Fit       0.010297
 **** Fit       0.010429
 **** Fit       0.010327
 **** Fit       0.009936
 **** Fit       0.009276
 **** Fit       0.008469
 **** Fit       0.007648
 **** Fit       0.006897
 **** Fit       0.005270
 **** Fit       0.004658
 **** Fit       0.010334
 **** Fit       0.010778
 **** Fit       0.011028
 **** Fit       0.009439
 **** Fit       0.008509
 **** Fit       0.007593
 **** Fit       0.006747
 **** Fit       0.005975
 **** Fit       0.004253
 **** Fit       0.003516
 **** Fit       0.002811
 **** Fit       0.010375
 **** Fit       0.011078
 **** Fit       0.008349
 **** Fit       0.007383
 **** Fit       0.006515
 **** Fit       0.005731
 **** Fit       0.004989
 **** Fit       0.003258
 **** Fit       0.002376
 **** Fit       0.001426
 **** Fit       0.000450
 **** Fit       0.008855
 **** Fit       0.010333
 **** Fit       0.011408
 **** Fit       0.007368
 **** Fit       0.006390
 **** Fit       0.005550
 **** Fit       0.004796
 **** Fit       0.004055
 **** Fit       0.000154
 **** Fit      -0.001140
 **** Fit      -0.002546
 **** Fit       0.007303
 **** Fit       0.006187
 **** Fit       0.005274
 **** Fit       0.004523
 **** Fit      -0.004517
 **** Fit      -0.006618
 **** Fit       0.006035
 **** Fit       0.004947
 **** Fit      -0.008876
 **** Fit      -0.011990
 **** Fit      -0.003666
 **** Fit       0.005796
 **** Fit       0.004452
 **** Fit      -0.014970
 **** Fit      -0.019799
 **** Fit       0.003965
 **** Fit       0.002595
 **** Fit      -0.018928
 **** Fit       0.004142
 **** Fit       0.001964
 **** Fit      -0.022847
 **** Fit       0.001673
 **** Fit      -0.001046
 **** Fit       0.002103
 **** Fit      -0.002284
 **** Fit      -0.005749
 **** Fit       0.008595
 **** Fit       0.007814
 **** Fit       0.007743
 **** Fit       0.008476
 **** Fit       0.009172
 **** Fit       0.009179
 **** Fit       0.008548
 **** Fit       0.006858
 **** Fit       0.006434
 **** Fit       0.006509
 **** Fit       0.007114
 **** Fit       0.008037
 **** Fit       0.008912
 **** Fit       0.009499
 **** Fit       0.009728
 **** Fit       0.009601
 **** Fit       0.009159
 **** Fit       0.008450
 **** Fit       0.007608
 **** Fit       0.005746
 **** Fit       0.005103
 **** Fit       0.004743
 **** Fit       0.004753
 **** Fit       0.005192
 **** Fit       0.006020
 **** Fit       0.007056
 **** Fit       0.008057
 **** Fit       0.008882
 **** Fit       0.009508
 **** Fit       0.009905
 **** Fit       0.010048
 **** Fit       0.006582
 **** Fit       0.004496
 **** Fit       0.003623
 **** Fit       0.002924
 **** Fit       0.002459
 **** Fit       0.002312
 **** Fit       0.002576
 **** Fit       0.003292
 **** Fit       0.004373
 **** Fit       0.005601
 **** Fit       0.006759
 **** Fit       0.007777
 **** Fit       0.008685
 **** Fit       0.009458
 **** Fit       0.010006
 **** Fit       0.001981
 **** Fit       0.000927
 **** Fit      -0.000005
 **** Fit      -0.000752
 **** Fit      -0.001204
 **** Fit      -0.001211
 **** Fit      -0.000656
 **** Fit       0.000449
 **** Fit       0.001903
 **** Fit       0.003409
 **** Fit       0.004803
 **** Fit       0.006135
 **** Fit       0.007469
 **** Fit       0.008715
 **** Fit       0.009700
 **** Fit      -0.001197
 **** Fit      -0.002616
 **** Fit      -0.004006
 **** Fit      -0.005303
 **** Fit      -0.006358
 **** Fit      -0.006945
 **** Fit      -0.006825
 **** Fit      -0.005885
 **** Fit      -0.004264
 **** Fit      -0.002326
 **** Fit      -0.000407
 **** Fit       0.001449
 **** Fit       0.003384
 **** Fit       0.005407
 **** Fit       0.007338
 **** Fit      -0.005693
 **** Fit      -0.007891
 **** Fit      -0.010231
 **** Fit      -0.012597
 **** Fit      -0.003854
 **** Fit      -0.000781
 **** Fit       0.002342
 **** Fit      -0.012135
 **** Fit      -0.015746
 **** Fit      -0.005742
 **** Fit       0.010636
 **** Fit       0.011320
 **** Fit       0.011201
 **** Fit       0.010735
 **** Fit       0.010053
 **** Fit       0.011460
 **** Fit       0.011884
 **** Fit       0.011937
 **** Fit       0.011734
 **** Fit       0.011324
 **** Fit       0.010717
 **** Fit       0.009974
 **** Fit       0.009226
 **** Fit       0.012265
 **** Fit       0.012527
 **** Fit       0.012472
 **** Fit       0.012280
 **** Fit       0.011969
 **** Fit       0.011490
 **** Fit       0.010819
 **** Fit       0.009998
 **** Fit       0.009135
 **** Fit       0.012895
 **** Fit       0.012723
 **** Fit       0.012544
 **** Fit       0.012263
 **** Fit       0.011792
 **** Fit       0.011090
 **** Fit       0.010188
 **** Fit       0.009182
 **** Fit       0.008210
 **** Fit       0.012834
 **** Fit       0.012804
 **** Fit       0.012754
 **** Fit       0.012556
 **** Fit       0.012115
 **** Fit       0.011392
 **** Fit       0.010414
 **** Fit       0.009272
 **** Fit       0.008101
 **** Fit       0.012440
 **** Fit       0.012704
 **** Fit       0.012939
 **** Fit       0.012998
 **** Fit       0.012762
 **** Fit       0.012154
 **** Fit       0.011169
 **** Fit       0.009880
 **** Fit       0.008430
 **** Fit       0.007002
 **** Fit       0.012283
 **** Fit       0.012920
 **** Fit       0.013331
 **** Fit       0.013393
 **** Fit       0.012998
 **** Fit       0.012098
 **** Fit       0.010733
 **** Fit       0.009032
 **** Fit       0.007202
 **** Fit       0.012348
 **** Fit       0.013303
 **** Fit       0.013897
 **** Fit       0.013982
 **** Fit       0.013429
 **** Fit       0.012190
 **** Fit       0.010338
 **** Fit       0.008075
 **** Fit       0.005698
 **** Fit       0.013120
 **** Fit       0.014271
 **** Fit       0.014776
 **** Fit       0.014413
 **** Fit       0.013029
 **** Fit       0.010658
 **** Fit       0.007580
 **** Fit       0.004262
 **** Fit       0.011364
 **** Fit       0.013622
 **** Fit       0.015130
 **** Fit       0.015550
 **** Fit       0.007652
 **** Fit       0.002071
 **** Fit       0.001216
 **** Fit       0.000263
 **** Fit       0.003643
 **** Fit       0.002859
 **** Fit       0.001036
 **** Fit       0.000162
 **** Fit      -0.000886
 **** Fit      -0.002150
 **** Fit       0.004095
 **** Fit       0.003232
 **** Fit       0.002494
 **** Fit       0.001790
 **** Fit      -0.000128
 **** Fit      -0.000982
 **** Fit      -0.002047
 **** Fit      -0.003388
 **** Fit      -0.005079
 **** Fit       0.003400
 **** Fit       0.002524
 **** Fit       0.001823
 **** Fit       0.001203
 **** Fit       0.000578
 **** Fit      -0.001512
 **** Fit      -0.002374
 **** Fit      -0.003495
 **** Fit      -0.004956
 **** Fit      -0.006865
 **** Fit      -0.009385
 **** Fit       0.002692
 **** Fit       0.001636
 **** Fit       0.000861
 **** Fit       0.000260
 **** Fit      -0.000274
 **** Fit      -0.000837
 **** Fit      -0.003216
 **** Fit      -0.004045
 **** Fit      -0.005171
 **** Fit      -0.006679
 **** Fit      -0.008688
 **** Fit      -0.011383
 **** Fit       0.000220
 **** Fit      -0.000688
 **** Fit      -0.001301
 **** Fit      -0.001748
 **** Fit      -0.002150
 **** Fit      -0.002610
 **** Fit      -0.005351
 **** Fit      -0.006124
 **** Fit      -0.007248
 **** Fit      -0.008810
 **** Fit      -0.010934
 **** Fit      -0.013813
 **** Fit      -0.017787
 **** Fit      -0.001794
 **** Fit      -0.003028
 **** Fit      -0.003749
 **** Fit      -0.004132
 **** Fit      -0.004351
 **** Fit      -0.004551
 **** Fit      -0.004853
 **** Fit      -0.008046
 **** Fit      -0.008742
 **** Fit      -0.009900
 **** Fit      -0.011615
 **** Fit      -0.014021
 **** Fit      -0.017344
 **** Fit      -0.021981
 **** Fit      -0.007532
 **** Fit      -0.008018
 **** Fit      -0.008033
 **** Fit      -0.007857
 **** Fit      -0.007704
 **** Fit      -0.007730
 **** Fit      -0.011461
 **** Fit      -0.011994
 **** Fit      -0.013167
 **** Fit      -0.015076
 **** Fit      -0.017860
 **** Fit      -0.021753
 **** Fit      -0.013793
 **** Fit      -0.012821
 **** Fit      -0.011984
 **** Fit      -0.011488
 **** Fit      -0.015785
 **** Fit      -0.015976
 **** Fit      -0.017051
 **** Fit      -0.019073
 **** Fit      -0.022139
 **** Fit      -0.026389
 **** Fit      -0.017850
 **** Fit      -0.016429
 **** Fit      -0.021228
 **** Fit      -0.020827
 **** Fit      -0.021812
 **** Fit      -0.024156
 **** Fit      -0.027818
 **** Fit      -0.026498
 **** Fit      -0.027175
 **** Fit      -0.006325
 **** Fit       0.047140
 **** Fit       0.046886
 **** Fit       0.047455
 **** Fit       0.048842
 **** Fit       0.048616
 **** Fit       0.047835
 **** Fit      -0.004584
 **** Fit      -0.006317
 **** Fit      -0.008987
 **** Fit       0.045565
 **** Fit       0.045465
 **** Fit       0.045571
 **** Fit       0.045488
 **** Fit       0.044928
 **** Fit       0.043647
 **** Fit       0.003829
 **** Fit       0.001653
 **** Fit      -0.000720
 **** Fit      -0.002889
 **** Fit      -0.003684
 **** Fit      -0.002112
 **** Fit       0.001524
 **** Fit       0.006183
 **** Fit       0.011369
 **** Fit       0.042122
 **** Fit       0.042432
 **** Fit       0.042607
 **** Fit       0.042731
 **** Fit       0.042570
 **** Fit       0.041822
 **** Fit       0.040154
 **** Fit       0.037125
 **** Fit       0.032230
 **** Fit       0.025332
 **** Fit       0.016899
 **** Fit       0.012627
 **** Fit       0.009502
 **** Fit       0.006983
 **** Fit       0.005041
 **** Fit       0.004309
 **** Fit       0.005443
 **** Fit       0.008373
 **** Fit       0.012533
 **** Fit       0.017517
 **** Fit       0.023111
 **** Fit       0.028880
 **** Fit       0.033837
 **** Fit       0.037099
 **** Fit       0.038802
 **** Fit       0.039625
 **** Fit       0.039958
 **** Fit       0.039775
 **** Fit       0.038834
 **** Fit       0.036802
 **** Fit       0.033342
 **** Fit       0.028363
 **** Fit       0.022459
 **** Fit       0.020882
 **** Fit       0.016802
 **** Fit       0.013740
 **** Fit       0.011740
 **** Fit       0.011209
 **** Fit       0.012568
 **** Fit       0.015681
 **** Fit       0.020026
 **** Fit       0.025000
 **** Fit       0.029794
 **** Fit       0.033499
 **** Fit       0.035769
 **** Fit       0.036871
 **** Fit       0.037036
 **** Fit       0.036175
 **** Fit       0.034027
 **** Fit       0.030435
 **** Fit       0.025733
 **** Fit       0.023509
 **** Fit       0.019645
 **** Fit       0.017376
 **** Fit       0.017369
 **** Fit       0.019837
 **** Fit       0.024041
 **** Fit       0.028594
 **** Fit       0.032054
 **** Fit       0.033766
 **** Fit       0.033693
 **** Fit       0.031739
 **** Fit       0.028018
 **** Fit       0.025297
 **** Fit       0.022287
 **** Fit       0.023455
 **** Fit       0.027605
 **** Fit       0.030370
 **** Fit       0.029303
 **** Fit       0.026580
 **** Fit       0.034383
 **** Fit       0.036399
 **** Fit       0.036115
 **** Fit       0.037099
 **** Fit       0.037989
 **** Fit       0.038484
 **** Fit       0.038761
 **** Fit       0.037693
 **** Fit       0.038967
 **** Fit       0.040013
 **** Fit       0.040857
 **** Fit       0.041632
 **** Fit       0.038139
 **** Fit       0.039159
 **** Fit       0.040378
 **** Fit       0.041575
 **** Fit       0.042702
 **** Fit       0.043833
 **** Fit       0.040874
 **** Fit       0.040867
 **** Fit       0.041643
 **** Fit       0.042738
 **** Fit       0.043945
 **** Fit       0.045222
 **** Fit       0.043614
 **** Fit       0.043427
 **** Fit       0.044057
 **** Fit       0.045077
 **** Fit       0.046293
 **** Fit       0.047661
 **** Fit       0.046862
 **** Fit       0.045812
 **** Fit       0.046025
 **** Fit       0.046890
 **** Fit       0.048087
 **** Fit       0.049456
 **** Fit       0.048281
 **** Fit       0.048994
 **** Fit       0.050188
 -----------------------------------------------------------------
 Leave Link  602 at Wed Sep 18 17:29:40 2019, MaxMem=  1342177280 cpu:             117.5 elap:               2.5

 Test job not archived.
 1\1\GINC-C502-121\SP\RB3LYP\SVP\C54H83Ca1N15O23\JAEBEOMH\18-Sep-2019\0
 \\#b3lyp/svp scf=(tight,noincore) Test #IOP(5/87=12) Density=Current P
 op=(MK,readradii) iop(6/33=2) iop(6/42=6)\\holoCaM_loop3_33.0\\0,1\C,0
 ,84.9,32.69,26.13\C,0,86.35,32.78,26.58\O,0,86.85,31.7,26.91\H,0,84.31
 4,33.456,26.638\H,0,84.843,32.845,25.053\H,0,84.503,31.706,26.378\N,0,
 87.,33.95,26.58\C,0,88.35,34.17,27.05\C,0,88.43,34.48,28.54\O,0,87.97,
 35.48,29.09\C,0,88.93,35.34,26.27\C,0,90.37,35.71,26.59\O,0,90.9,36.68
 ,26.01\O,0,90.96,35.01,27.44\H,0,86.48,34.73,26.2\H,0,88.83,33.22,26.8
 3\H,0,88.37,36.27,26.36\H,0,88.94,34.99,25.23\N,0,89.02,33.49,29.21\C,
 0,88.98,33.4,30.66\C,0,89.95,34.33,31.38\O,0,89.88,34.44,32.6\C,0,88.9
 8,31.95,31.12\C,0,87.87,31.06,30.57\C,0,86.48,31.56,30.96\C,0,85.89,32
 .47,29.89\N,0,84.48,32.78,30.19\H,0,89.37,32.73,28.64\H,0,88.,33.77,30
 .95\H,0,88.86,31.96,32.2\H,0,89.98,31.55,30.92\H,0,88.07,30.1,31.05\H,
 0,88.,30.93,29.5\H,0,86.5,31.98,31.97\H,0,85.86,30.66,30.94\H,0,85.9,3
 1.86,28.99\H,0,86.47,33.39,29.78\H,0,84.12,33.51,29.6\H,0,83.92,31.93,
 30.16\H,0,84.37,33.16,31.12\N,0,90.83,35.02,30.65\C,0,91.9,35.81,31.22
 \C,0,92.23,37.03,30.36\O,0,93.12,37.82,30.69\C,0,93.13,34.92,31.22\C,0
 ,93.34,34.19,29.91\O,0,93.64,34.86,28.9\O,0,93.08,32.97,29.74\H,0,90.7
 1,34.85,29.66\H,0,91.67,36.21,32.21\H,0,93.1,34.28,32.11\H,0,94.03,35.
 48,31.5\N,0,91.53,37.27,29.26\C,0,91.56,38.46,28.43\C,0,92.77,38.8,27.
 56\O,0,92.89,39.96,27.16\H,0,90.94,36.5,28.96\H,0,91.43,39.24,29.17\H,
 0,90.64,38.55,27.86\N,0,93.6,37.83,27.18\C,0,94.72,37.96,26.28\C,0,94.
 41,37.94,24.79\O,0,95.33,38.19,24.01\C,0,95.74,36.86,26.54\C,0,95.39,3
 5.43,26.16\N,0,96.48,34.71,25.87\O,0,94.27,34.98,25.91\H,0,93.31,36.9,
 27.44\H,0,95.28,38.86,26.53\H,0,95.87,36.84,27.63\H,0,96.71,37.07,26.0
 8\H,0,97.41,35.09,25.91\H,0,96.4,33.73,25.66\N,0,93.15,37.72,24.4\C,0,
 92.65,37.7,23.04\C,0,92.88,36.42,22.24\O,0,92.96,36.46,21.01\H,0,92.53
 ,37.28,25.07\H,0,93.15,38.51,22.51\H,0,91.58,37.87,22.92\N,0,93.05,35.
 28,22.91\C,0,93.05,33.92,22.41\C,0,92.31,32.96,23.33\O,0,92.25,33.14,2
 4.55\C,0,94.49,33.43,22.24\C,0,95.46,34.38,21.6\C,0,96.07,35.42,22.32\
 C,0,95.7,34.4,20.22\C,0,96.91,36.38,21.76\C,0,96.54,35.32,19.58\C,0,97
 .18,36.28,20.38\O,0,97.85,37.28,19.73\H,0,93.16,35.51,23.89\H,0,92.65,
 33.84,21.4\H,0,94.45,32.48,21.71\H,0,94.92,33.12,23.19\H,0,95.83,35.52
 ,23.37\H,0,95.19,33.61,19.69\H,0,97.24,37.21,22.37\H,0,96.67,35.27,18.
 51\H,0,97.72,37.31,18.78\N,0,91.95,31.79,22.81\C,0,91.25,30.76,23.55\C
 ,0,91.98,29.42,23.48\O,0,92.24,28.9,22.4\C,0,89.85,30.59,22.97\C,0,89.
 1,31.91,23.11\C,0,89.05,29.51,23.7\C,0,87.68,31.88,22.55\H,0,92.05,31.
 73,21.81\H,0,91.25,31.06,24.6\H,0,89.81,30.33,21.91\H,0,89.6,32.78,22.
 66\H,0,89.12,32.34,24.11\H,0,89.62,28.58,23.67\H,0,89.02,29.73,24.77\H
 ,0,88.07,29.35,23.26\H,0,87.64,31.56,21.5\H,0,87.05,31.24,23.15\H,0,87
 .23,32.87,22.64\N,0,92.13,28.78,24.64\C,0,92.67,27.45,24.84\C,0,91.66,
 26.38,25.21\O,0,90.6,26.7,25.75\C,0,93.84,27.57,25.81\O,0,93.48,28.13,
 27.06\H,0,91.73,29.12,25.49\H,0,93.05,27.08,23.88\H,0,94.71,28.12,25.4
 7\H,0,94.36,26.63,26.01\H,0,92.95,28.9,26.85\N,0,92.03,25.12,24.96\C,0
 ,91.25,23.94,25.3\C,0,90.56,23.93,26.65\O,0,89.4,23.52,26.7\C,0,92.06,
 22.65,25.19\H,0,92.93,24.91,24.57\H,0,90.45,23.82,24.56\H,0,92.9,22.62
 ,25.89\H,0,91.43,21.8,25.46\H,0,92.47,22.5,24.19\N,0,91.11,24.5,27.73\
 C,0,90.51,24.57,29.04\C,0,89.55,25.73,29.29\O,0,88.71,25.71,30.18\C,0,
 91.67,24.56,30.03\H,0,92.11,24.63,27.74\H,0,89.87,23.7,29.18\H,0,91.37
 ,24.86,31.03\H,0,92.05,23.54,30.01\H,0,92.45,25.24,29.7\N,0,89.55,26.7
 4,28.41\C,0,88.54,27.77,28.32\C,0,87.32,27.32,27.54\O,0,86.2,27.6,27.9
 6\C,0,89.28,28.98,27.75\C,0,90.5,29.41,28.55\C,0,91.12,30.63,27.88\O,0
 ,90.64,31.78,27.95\O,0,92.15,30.5,27.18\H,0,90.28,26.72,27.72\H,0,88.1
 8,28.,29.33\H,0,88.49,29.73,27.72\H,0,89.57,28.8,26.71\H,0,91.2,28.57,
 28.55\H,0,90.33,29.64,29.6\N,0,87.49,26.41,26.57\C,0,86.46,25.94,25.66
 \H,0,85.608,26.619,25.694\H,0,86.858,25.908,24.646\H,0,86.14,24.941,25
 .957\H,0,88.45,26.17,26.39\Ca,0,92.75,33.11,27.12\O,0,94.74,31.76,26.0
 7\H,0,95.29,31.24,26.65\H,0,94.89,31.39,25.2\\Version=ES64L-G16RevA.03
 \State=1-A\HF=-5333.6349723\RMSD=2.711e-09\Dipole=-5.4224155,-7.835707
 4,-1.6618851\Quadrupole=117.4149809,-88.0247382,-29.3902427,-86.019973
 3,-44.3768734,12.7993457\PG=C01 [X(C54H83Ca1N15O23)]\\@


 KNOWLEDGE IS OF TWO KINDS:  WE KNOW A SUBJECT OURSELVES OR WE KNOW 
 WHERE WE CAN FIND INFORMATION UPON IT.

                                    -- SAMUEL JOHNSON
 Job cpu time:       0 days  9 hours  9 minutes 30.2 seconds.
 Elapsed time:       0 days  0 hours 11 minutes 34.5 seconds.
 File lengths (MBytes):  RWF=   1517 Int=      0 D2E=      0 Chk=    171 Scr=      1
 Normal termination of Gaussian 16 at Wed Sep 18 17:29:41 2019.
