 Entering Gaussian System, Link 0=g16
 Initial command:
 /home1/apps/gaussian/16rA.03/g16/l1.exe "/scratch/04905/jaebeomh/4358728/Gau-101541.inp" -scrdir="/scratch/04905/jaebeomh/4358728/"
 Entering Link 1 = /home1/apps/gaussian/16rA.03/g16/l1.exe PID=    101542.
  
 Copyright (c) 1988,1990,1992,1993,1995,1998,2003,2009,2016,
            Gaussian, Inc.  All Rights Reserved.
  
 This is part of the Gaussian(R) 16 program.  It is based on
 the Gaussian(R) 09 system (copyright 2009, Gaussian, Inc.),
 the Gaussian(R) 03 system (copyright 2003, Gaussian, Inc.),
 the Gaussian(R) 98 system (copyright 1998, Gaussian, Inc.),
 the Gaussian(R) 94 system (copyright 1995, Gaussian, Inc.),
 the Gaussian 92(TM) system (copyright 1992, Gaussian, Inc.),
 the Gaussian 90(TM) system (copyright 1990, Gaussian, Inc.),
 the Gaussian 88(TM) system (copyright 1988, Gaussian, Inc.),
 the Gaussian 86(TM) system (copyright 1986, Carnegie Mellon
 University), and the Gaussian 82(TM) system (copyright 1983,
 Carnegie Mellon University). Gaussian is a federally registered
 trademark of Gaussian, Inc.
  
 This software contains proprietary and confidential information,
 including trade secrets, belonging to Gaussian, Inc.
  
 This software is provided under written license and may be
 used, copied, transmitted, or stored only in accord with that
 written license.
  
 The following legend is applicable only to US Government
 contracts under FAR:
  
                    RESTRICTED RIGHTS LEGEND
  
 Use, reproduction and disclosure by the US Government is
 subject to restrictions as set forth in subparagraphs (a)
 and (c) of the Commercial Computer Software - Restricted
 Rights clause in FAR 52.227-19.
  
 Gaussian, Inc.
 340 Quinnipiac St., Bldg. 40, Wallingford CT 06492
  
  
 ---------------------------------------------------------------
 Warning -- This program may not be used in any manner that
 competes with the business of Gaussian, Inc. or will provide
 assistance to any competitor of Gaussian, Inc.  The licensee
 of this program is prohibited from giving any competitor of
 Gaussian, Inc. access to this program.  By using this program,
 the user acknowledges that Gaussian, Inc. is engaged in the
 business of creating and licensing software in the field of
 computational chemistry and represents and warrants to the
 licensee that it is not a competitor of Gaussian, Inc. and that
 it will not use this program in any manner prohibited above.
 ---------------------------------------------------------------
  

 Cite this work as:
 Gaussian 16, Revision A.03,
 M. J. Frisch, G. W. Trucks, H. B. Schlegel, G. E. Scuseria, 
 M. A. Robb, J. R. Cheeseman, G. Scalmani, V. Barone, 
 G. A. Petersson, H. Nakatsuji, X. Li, M. Caricato, A. V. Marenich, 
 J. Bloino, B. G. Janesko, R. Gomperts, B. Mennucci, H. P. Hratchian, 
 J. V. Ortiz, A. F. Izmaylov, J. L. Sonnenberg, D. Williams-Young, 
 F. Ding, F. Lipparini, F. Egidi, J. Goings, B. Peng, A. Petrone, 
 T. Henderson, D. Ranasinghe, V. G. Zakrzewski, J. Gao, N. Rega, 
 G. Zheng, W. Liang, M. Hada, M. Ehara, K. Toyota, R. Fukuda, 
 J. Hasegawa, M. Ishida, T. Nakajima, Y. Honda, O. Kitao, H. Nakai, 
 T. Vreven, K. Throssell, J. A. Montgomery, Jr., J. E. Peralta, 
 F. Ogliaro, M. J. Bearpark, J. J. Heyd, E. N. Brothers, K. N. Kudin, 
 V. N. Staroverov, T. A. Keith, R. Kobayashi, J. Normand, 
 K. Raghavachari, A. P. Rendell, J. C. Burant, S. S. Iyengar, 
 J. Tomasi, M. Cossi, J. M. Millam, M. Klene, C. Adamo, R. Cammi, 
 J. W. Ochterski, R. L. Martin, K. Morokuma, O. Farkas, 
 J. B. Foresman, and D. J. Fox, Gaussian, Inc., Wallingford CT, 2016.
 
 ******************************************
 Gaussian 16:  ES64L-G16RevA.03 25-Dec-2016
                18-Sep-2019 
 ******************************************
 %chk=holoCaM_loop3_60.0.chk
 %nprocshared=48
 Will use up to   48 processors via shared memory.
 %mem=10GB
 %nosave
 ----------------------------------------------------------------------
 #b3lyp/svp scf=(tight,noincore) Test #IOP(5/87=12) Density=Current Pop
 =(MK,readradii) iop(6/33=2) iop(6/42=6)
 ----------------------------------------------------------------------
 1/30=1,38=1,172=1/1;
 2/12=2,17=6,18=5,40=1/2;
 3/5=18,7=101,11=2,25=1,30=1,74=-5/1,2,3;
 4//1;
 5/5=4,32=2,38=5,87=12/2;
 6/7=2,8=2,9=2,10=2,15=8,20=101,22=-1,28=1,33=2,42=6/1,2;
 99/5=1,9=1/99;
 ------------------
 holoCaM_loop3_60.0
 ------------------
 Symbolic Z-matrix:
 Charge =  0 Multiplicity = 1
 C                     77.57     52.12     90.33 
 C                     78.41     53.       89.42 
 O                     78.9      52.54     88.39 
 H                     76.598    51.946    89.869 
 H                     78.076    51.166    90.482 
 H                     77.433    52.616    91.291 
 N                     78.51     54.3      89.71 
 C                     79.23     55.29     88.94 
 C                     80.61     55.61     89.48 
 O                     80.74     55.97     90.65 
 C                     78.28     56.49     88.82 
 C                     78.9      57.57     87.94 
 O                     78.65     57.59     86.72 
 O                     79.59     58.48     88.43 
 H                     78.12     54.61     90.59 
 H                     79.37     54.83     87.96 
 H                     78.1      56.9      89.81 
 H                     77.32     56.23     88.37 
 N                     81.53     55.71     88.52 
 C                     82.93     55.9      88.84 
 C                     83.68     57.09     88.24 
 O                     84.84     57.34     88.54 
 C                     83.6      54.57     88.51 
 C                     83.14     53.31     89.24 
 C                     83.81     52.09     88.61 
 C                     83.62     50.76     89.34 
 N                     84.56     49.73     88.86 
 H                     81.19     55.5      87.59 
 H                     83.       55.99     89.92 
 H                     84.69     54.61     88.59 
 H                     83.49     54.42     87.43 
 H                     82.06     53.23     89.07 
 H                     83.46     53.44     90.27 
 H                     84.85     52.37     88.51 
 H                     83.54     52.02     87.56 
 H                     82.6      50.44     89.15 
 H                     83.62     50.87     90.42 
 H                     84.88     49.92     87.92 
 H                     85.4      49.96     89.37 
 H                     84.33     48.76     89.04 
 N                     82.96     57.9      87.46 
 C                     83.55     58.99     86.71 
 C                     82.88     60.32     87.03 
 O                     83.37     61.41     86.74 
 C                     83.54     58.73     85.21 
 C                     82.17     58.37     84.64 
 O                     82.02     57.2      84.23 
 O                     81.22     59.18     84.68 
 H                     82.01     57.63     87.27 
 H                     84.61     59.06     86.94 
 H                     84.22     57.9      85.03 
 H                     83.81     59.58     84.58 
 N                     81.75     60.31     87.74 
 C                     80.97     61.4      88.3 
 C                     79.8      61.94     87.5 
 O                     79.11     62.82     88.01 
 H                     81.38     59.4      87.97 
 H                     81.7      62.18     88.5 
 H                     80.52     61.02     89.22 
 N                     79.43     61.44     86.31 
 C                     78.27     61.88     85.57 
 C                     76.96     61.21     85.97 
 O                     75.88     61.6      85.54 
 C                     78.57     61.95     84.07 
 C                     78.33     60.63     83.35 
 N                     78.25     60.62     82.01 
 O                     78.18     59.55     83.91 
 H                     80.12     60.81     85.92 
 H                     78.22     62.95     85.77 
 H                     79.59     62.3      83.93 
 H                     77.82     62.58     83.58 
 H                     78.36     61.45     81.44 
 H                     78.13     59.73     81.56 
 N                     77.07     60.08     86.67 
 C                     75.98     59.29     87.2 
 C                     75.44     58.21     86.27 
 O                     74.95     57.18     86.72 
 H                     77.99     59.7      86.87 
 H                     75.23     59.92     87.68 
 H                     76.47     58.64     87.92 
 N                     75.55     58.4      84.95 
 C                     75.       57.52     83.94 
 C                     75.94     56.34     83.74 
 O                     77.07     56.65     83.39 
 C                     74.79     58.27     82.63 
 C                     74.05     59.57     82.75 
 C                     74.16     60.39     81.61 
 C                     73.08     59.87     83.72 
 C                     73.41     61.55     81.44 
 C                     72.33     61.04     83.62 
 C                     72.54     61.88     82.5 
 O                     71.91     63.09     82.52 
 H                     75.96     59.28     84.65 
 H                     74.02     57.22     84.31 
 H                     74.19     57.6      82.02 
 H                     75.75     58.43     82.14 
 H                     74.93     60.1      80.92 
 H                     72.94     59.26     84.6 
 H                     73.52     62.14     80.54 
 H                     71.49     61.22     84.27 
 H                     71.44     63.25     83.34 
 N                     75.42     55.13     83.97 
 C                     76.28     53.96     83.92 
 C                     76.77     53.77     82.5 
 O                     75.92     53.99     81.64 
 C                     75.69     52.74     84.63 
 C                     75.09     53.25     85.94 
 C                     76.6      51.53     84.8 
 C                     76.       53.91     86.97 
 H                     74.42     55.15     83.96 
 H                     77.19     54.2      84.47 
 H                     74.89     52.42     83.97 
 H                     74.67     52.35     86.4 
 H                     74.22     53.89     85.81 
 H                     76.07     50.67     85.23 
 H                     76.97     51.25     83.81 
 H                     77.41     51.71     85.5 
 H                     76.88     53.3      87.18 
 H                     76.27     54.96     86.93 
 H                     75.6      53.99     87.98 
 N                     78.03     53.4      82.27 
 C                     78.55     53.08     80.95 
 C                     78.93     51.62     80.76 
 O                     78.8      50.88     81.74 
 C                     79.7      54.01     80.59 
 O                     80.72     53.87     81.56 
 H                     78.62     53.39     83.09 
 H                     77.78     53.26     80.21 
 H                     79.44     55.07     80.62 
 H                     80.06     53.74     79.59 
 H                     80.47     54.25     82.4 
 N                     79.39     51.23     79.57 
 C                     79.84     49.88     79.31 
 C                     80.84     49.36     80.34 
 O                     80.77     48.25     80.85 
 C                     80.53     49.83     77.95 
 H                     79.41     51.89     78.81 
 H                     78.97     49.22     79.31 
 H                     79.84     50.3      77.25 
 H                     81.44     50.44     77.95 
 H                     80.96     48.89     77.6 
 N                     81.84     50.17     80.7 
 C                     82.93     50.01     81.64 
 C                     82.61     50.01     83.13 
 O                     83.34     49.44     83.94 
 C                     83.94     51.11     81.33 
 H                     82.       50.98     80.12 
 H                     83.54     49.11     81.55 
 H                     84.41     50.82     80.39 
 H                     83.4      52.05     81.21 
 H                     84.75     51.29     82.02 
 N                     81.45     50.56     83.48 
 C                     81.01     50.58     84.86 
 C                     79.91     49.56     85.15 
 O                     79.92     49.01     86.25 
 C                     80.38     51.93     85.19 
 C                     81.37     53.09     85.15 
 C                     80.58     54.39     85.07 
 O                     80.53     55.27     85.95 
 O                     79.87     54.63     84.06 
 H                     80.97     51.11     82.78 
 H                     81.81     50.52     85.6 
 H                     79.96     51.86     86.2 
 H                     79.57     52.21     84.51 
 H                     82.09     53.08     84.33 
 H                     81.95     53.17     86.07 
 N                     79.1      49.24     84.14 
 C                     78.07     48.21     84.16 
 H                     77.183    48.574    83.641 
 H                     78.441    47.315    83.661 
 H                     77.814    47.971    85.192 
 H                     79.23     49.75     83.28 
 Ca                    79.49     57.23     84.37 
 O                     80.11     57.18     81.91 
 H                     80.9      57.22     81.36 
 H                     79.43     57.57     81.37 
 
 Stoichiometry    C54H83CaN15O23
 Framework group  C1[X(C54H83CaN15O23)]
 Deg. of freedom   522
 Full point group                 C1      NOp   1
 Largest Abelian subgroup         C1      NOp   1
 Largest concise Abelian subgroup C1      NOp   1
                         Standard orientation:                         
 ---------------------------------------------------------------------
 Center     Atomic      Atomic             Coordinates (Angstroms)
 Number     Number       Type             X           Y           Z
 ---------------------------------------------------------------------
      1          6           0        1.951474    2.321883    5.834924
      2          6           0        1.574204    2.331275    4.363299
      3          8           0        2.304118    1.795114    3.531219
      4          1           0        1.791823    1.324218    6.243283
      5          1           0        3.001720    2.594915    5.943062
      6          1           0        1.332113    3.038790    6.374130
      7          7           0        0.387837    2.836940    4.015540
      8          6           0       -0.152622    2.893202    2.675340
      9          6           0        0.020607    4.236581    1.994366
     10          8           0       -0.396179    5.257400    2.541739
     11          6           0       -1.602323    2.402175    2.794335
     12          6           0       -2.250723    2.327629    1.416213
     13          8           0       -2.222214    1.258190    0.778415
     14          8           0       -2.876855    3.293510    0.947882
     15          1           0       -0.148751    3.299024    4.737449
     16          1           0        0.437137    2.170224    2.108695
     17          1           0       -2.162801    3.098369    3.412217
     18          1           0       -1.679880    1.405566    3.233034
     19          7           0        0.394369    4.125034    0.719274
     20          6           0        0.720098    5.294170   -0.071625
     21          6           0       -0.011944    5.531396   -1.393155
     22          8           0        0.169071    6.542183   -2.059220
     23          6           0        2.234093    5.246689   -0.251244
     24          6           0        3.126323    5.280412    0.987663
     25          6           0        4.574663    5.027497    0.572278
     26          6           0        5.634618    5.222096    1.656956
     27          7           0        6.994971    5.287208    1.091181
     28          1           0        0.565089    3.175154    0.414014
     29          1           0        0.538140    6.162562    0.554623
     30          1           0        2.606351    6.011752   -0.938414
     31          1           0        2.455662    4.342304   -0.829166
     32          1           0        2.805073    4.447511    1.623882
     33          1           0        3.009507    6.278469    1.400502
     34          1           0        4.728957    5.667333   -0.286094
     35          1           0        4.658045    4.056877    0.091399
     36          1           0        5.558573    4.371199    2.327098
     37          1           0        5.407480    6.049099    2.322519
     38          1           0        7.053717    4.821790    0.195617
     39          1           0        7.046940    6.246644    0.782342
     40          1           0        7.774175    5.106911    1.712900
     41          7           0       -0.938915    4.626549   -1.717001
     42          6           0       -1.623200    4.631772   -2.993883
     43          6           0       -3.136025    4.671770   -2.820796
     44          8           0       -3.912509    4.957074   -3.730726
     45          6           0       -1.213351    3.458222   -3.872806
     46          6           0       -1.342593    2.091893   -3.203595
     47          8           0       -0.280450    1.486883   -2.948025
     48          8           0       -2.453775    1.653177   -2.838900
     49          1           0       -1.033899    3.829137   -1.111516
     50          1           0       -1.307486    5.495021   -3.573991
     51          1           0       -0.171073    3.615769   -4.142128
     52          1           0       -1.814628    3.306744   -4.771594
     53          7           0       -3.643555    4.477299   -1.601905
     54          6           0       -5.006834    4.584910   -1.112015
     55          6           0       -5.856820    3.330156   -1.051885
     56          8           0       -6.987351    3.421730   -0.578479
     57          1           0       -2.978884    4.255088   -0.876141
     58          1           0       -5.464601    5.336991   -1.749294
     59          1           0       -4.939083    4.919250   -0.074264
     60          7           0       -5.401546    2.116428   -1.402014
     61          6           0       -6.163116    0.895690   -1.273142
     62          6           0       -6.098879    0.239931    0.101942
     63          8           0       -6.820226   -0.706272    0.398183
     64          6           0       -5.936594   -0.022237   -2.477716
     65          6           0       -4.735311   -0.942749   -2.310453
     66          7           0       -4.600047   -1.998241   -3.128830
     67          8           0       -3.869115   -0.806508   -1.453924
     68          1           0       -4.514058    2.157832   -1.887555
     69          1           0       -7.185830    1.198181   -1.496650
     70          1           0       -5.849414    0.586957   -3.374255
     71          1           0       -6.744132   -0.760445   -2.527031
     72          1           0       -5.251421   -2.210789   -3.874776
     73          1           0       -3.778194   -2.565574   -3.020711
     74          7           0       -5.103497    0.638839    0.895091
     75          6           0       -4.860132    0.200544    2.252210
     76          6           0       -3.969234   -1.027799    2.394947
     77          8           0       -3.266433   -1.183032    3.387657
     78          1           0       -4.425792    1.312194    0.551421
     79          1           0       -5.781176    0.188035    2.836438
     80          1           0       -4.160957    0.940802    2.631909
     81          7           0       -3.946603   -1.912046    1.390858
     82          6           0       -3.233382   -3.172087    1.415585
     83          6           0       -1.768393   -2.923416    1.086995
     84          8           0       -1.577790   -2.407773   -0.005380
     85          6           0       -3.847675   -4.157090    0.428107
     86          6           0       -5.336478   -4.316749    0.527984
     87          6           0       -5.911993   -4.957467   -0.586630
     88          6           0       -6.096998   -4.160633    1.698042
     89          6           0       -7.242457   -5.364685   -0.618826
     90          6           0       -7.444814   -4.513753    1.707946
     91          6           0       -8.002616   -5.071988    0.532645
     92          8           0       -9.355067   -5.251542    0.526633
     93          1           0       -4.560255   -1.721763    0.603632
     94          1           0       -3.377927   -3.574943    2.417640
     95          1           0       -3.392807   -5.113618    0.671314
     96          1           0       -3.568522   -3.881017   -0.588336
     97          1           0       -5.270142   -5.030503   -1.444414
     98          1           0       -5.694931   -3.697364    2.586763
     99          1           0       -7.635375   -5.865592   -1.493416
    100          1           0       -8.008084   -4.534495    2.625985
    101          1           0       -9.777932   -4.911518    1.316867
    102          7           0       -0.886479   -3.293563    2.021136
    103          6           0        0.521099   -2.982194    1.840103
    104          6           0        1.049328   -3.763475    0.655547
    105          8           0        0.622275   -4.913408    0.579518
    106          6           0        1.329144   -3.039805    3.137926
    107          6           0        0.478456   -2.355995    4.207941
    108          6           0        2.766805   -2.538724    3.081811
    109          6           0        0.102556   -0.888376    4.036497
    110          1           0       -1.287354   -3.938230    2.672445
    111          1           0        0.586088   -1.946259    1.507213
    112          1           0        1.392517   -4.101389    3.354775
    113          1           0        1.087867   -2.436438    5.113561
    114          1           0       -0.426415   -2.900020    4.469945
    115          1           0        3.300877   -2.705170    4.026513
    116          1           0        3.281110   -3.090733    2.290498
    117          1           0        2.830829   -1.465000    2.935122
    118          1           0        0.974422   -0.272908    3.809233
    119          1           0       -0.750962   -0.563889    3.450651
    120          1           0       -0.242401   -0.375184    4.933235
    121          7           0        1.898656   -3.192275   -0.198721
    122          6           0        2.545775   -3.901987   -1.290850
    123          6           0        4.051189   -4.052977   -1.139089
    124          8           0        4.564471   -3.530951   -0.144639
    125          6           0        2.177301   -3.273877   -2.627527
    126          8           0        2.583434   -1.918915   -2.621680
    127          1           0        2.038260   -2.202547   -0.051926
    128          1           0        2.172019   -4.917803   -1.327227
    129          1           0        1.103058   -3.234832   -2.818781
    130          1           0        2.679779   -3.838045   -3.422341
    131          1           0        2.041128   -1.384971   -2.044352
    132          7           0        4.724193   -4.715964   -2.081062
    133          6           0        6.163899   -4.855472   -2.061402
    134          6           0        6.903418   -3.534098   -1.865488
    135          8           0        7.833643   -3.389197   -1.083960
    136          6           0        6.633611   -5.439544   -3.390473
    137          1           0        4.216238   -5.157693   -2.829699
    138          1           0        6.434621   -5.526877   -1.243830
    139          1           0        6.020231   -6.324072   -3.558924
    140          1           0        6.424038   -4.751153   -4.216545
    141          1           0        7.700612   -5.588350   -3.564732
    142          7           0        6.503053   -2.484157   -2.588698
    143          6           0        6.957878   -1.110251   -2.641760
    144          6           0        6.660732   -0.200522   -1.455760
    145          8           0        7.368189    0.774647   -1.205861
    146          6           0        6.374111   -0.505048   -3.914217
    147          1           0        5.890356   -2.675610   -3.367188
    148          1           0        8.026885   -0.942311   -2.780401
    149          1           0        6.930098   -0.957313   -4.735761
    150          1           0        5.319898   -0.778340   -3.973773
    151          1           0        6.439305    0.561195   -4.067437
    152          7           0        5.670853   -0.586777   -0.654792
    153          6           0        5.322212    0.167235    0.531933
    154          6           0        5.800504   -0.496764    1.822220
    155          8           0        6.179425    0.237560    2.733146
    156          6           0        3.805245    0.243797    0.677707
    157          6           0        3.127249    1.048554   -0.426824
    158          6           0        1.642663    0.707234   -0.424321
    159          8           0        0.714419    1.485632   -0.134907
    160          8           0        1.268564   -0.461775   -0.698673
    161          1           0        5.064775   -1.322946   -0.991875
    162          1           0        5.597559    1.223007    0.504912
    163          1           0        3.590014    0.718256    1.642053
    164          1           0        3.317519   -0.735477    0.670916
    165          1           0        3.508644    0.894610   -1.437635
    166          1           0        3.168873    2.122242   -0.240649
    167          7           0        5.900995   -1.826605    1.817122
    168          6           0        6.446902   -2.649486    2.888127
    169          1           0        5.833845   -3.543123    3.007292
    170          1           0        7.467479   -2.939787    2.639498
    171          1           0        6.446833   -2.082705    3.818955
    172          1           0        5.584352   -2.298597    0.984320
    173         20           0       -1.295136   -0.024016   -1.184790
    174          8           0       -0.723566   -1.475891   -3.185756
    175          1           0       -0.392704   -1.374351   -4.084878
    176          1           0       -1.278551   -2.248133   -3.227393
 ---------------------------------------------------------------------
 Rotational constants (GHZ):           0.0239745           0.0157451           0.0125810
 Standard basis: SVP (5D, 7F)
 There are  1809 symmetry adapted cartesian basis functions of A   symmetry.
 There are  1717 symmetry adapted basis functions of A   symmetry.
  1717 basis functions,  2922 primitive gaussians,  1809 cartesian basis functions
   358 alpha electrons      358 beta electrons
       nuclear repulsion energy     22025.9924115589 Hartrees.
 NAtoms=  176 NActive=  176 NUniq=  176 SFac= 1.00D+00 NAtFMM=   60 NAOKFM=T Big=T
 Integral buffers will be    131072 words long.
 Raffenetti 2 integral format.
 Two-electron integral symmetry is turned on.
 One-electron integrals computed using PRISM.
 NBasis=  1717 RedAO= T EigKep=  3.00D-04  NBF=  1717
 NBsUse=  1717 1.00D-06 EigRej= -1.00D+00 NBFU=  1717
 ExpMin= 1.98D-02 ExpMax= 3.51D+04 ExpMxC= 5.28D+03 IAcc=3 IRadAn=         5 AccDes= 0.00D+00
 Harris functional with IExCor=  402 and IRadAn=       5 diagonalized for initial guess.
 HarFok:  IExCor=  402 AccDes= 0.00D+00 IRadAn=         5 IDoV= 1 UseB2=F ITyADJ=14
 ICtDFT=  3500011 ScaDFX=  1.000000  1.000000  1.000000  1.000000
 FoFCou: FMM=F IPFlag=           0 FMFlag=      100000 FMFlg1=        2001
         NFxFlg=           0 DoJE=T BraDBF=F KetDBF=T FulRan=T
         wScrn=  0.000000 ICntrl=       500 IOpCl=  0 I1Cent=   200000004 NGrid=           0
         NMat0=    1 NMatS0=      1 NMatT0=    0 NMatD0=    1 NMtDS0=    0 NMtDT0=    0
 Petite list used in FoFCou.
 Requested convergence on RMS density matrix=1.00D-08 within 128 cycles.
 Requested convergence on MAX density matrix=1.00D-06.
 Requested convergence on             energy=1.00D-06.
 No special actions if energy rises.
 SCF Done:  E(RB3LYP) =  -5333.62858022     A.U. after   15 cycles
            NFock= 15  Conv=0.36D-08     -V/T= 2.0082
 SCF density gives NOpUse=  1 NOpAll=  1.
 Hyperfine terms turned off by default for NAtoms > 100.

 **********************************************************************

            Population analysis using the SCF density.

 **********************************************************************

 Orbital symmetries:
 BldTbl:  Degeneracy threshold= 1.00D-02
       Occupied  (A) (A) (A) (A) (A) (A) (A) (A) (A) (A) (A) (A)
                 (A) (A) (A) (A) (A) (A) (A) (A) (A) (A) (A) (A)
                 (A) (A) (A) (A) (A) (A) (A) (A) (A) (A) (A) (A)
                 (A) (A) (A) (A) (A) (A) (A) (A) (A) (A) (A) (A)
                 (A) (A) (A) (A) (A) (A) (A) (A) (A) (A) (A) (A)
                 (A) (A) (A) (A) (A) (A) (A) (A) (A) (A) (A) (A)
                 (A) (A) (A) (A) (A) (A) (A) (A) (A) (A) (A) (A)
                 (A) (A) (A) (A) (A) (A) (A) (A) (A) (A) (A) (A)
                 (A) (A) (A) (A) (A) (A) (A) (A) (A) (A) (A) (A)
                 (A) (A) (A) (A) (A) (A) (A) (A) (A) (A) (A) (A)
                 (A) (A) (A) (A) (A) (A) (A) (A) (A) (A) (A) (A)
                 (A) (A) (A) (A) (A) (A) (A) (A) (A) (A) (A) (A)
                 (A) (A) (A) (A) (A) (A) (A) (A) (A) (A) (A) (A)
                 (A) (A) (A) (A) (A) (A) (A) (A) (A) (A) (A) (A)
                 (A) (A) (A) (A) (A) (A) (A) (A) (A) (A) (A) (A)
                 (A) (A) (A) (A) (A) (A) (A) (A) (A) (A) (A) (A)
                 (A) (A) (A) (A) (A) (A) (A) (A) (A) (A) (A) (A)
                 (A) (A) (A) (A) (A) (A) (A) (A) (A) (A) (A) (A)
                 (A) (A) (A) (A) (A) (A) (A) (A) (A) (A) (A) (A)
                 (A) (A) (A) (A) (A) (A) (A) (A) (A) (A) (A) (A)
                 (A) (A) (A) (A) (A) (A) (A) (A) (A) (A) (A) (A)
                 (A) (A) (A) (A) (A) (A) (A) (A) (A) (A) (A) (A)
                 (A) (A) (A) (A) (A) (A) (A) (A) (A) (A) (A) (A)
                 (A) (A) (A) (A) (A) (A) (A) (A) (A) (A) (A) (A)
                 (A) (A) (A) (A) (A) (A) (A) (A) (A) (A) (A) (A)
                 (A) (A) (A) (A) (A) (A) (A) (A) (A) (A) (A) (A)
                 (A) (A) (A) (A) (A) (A) (A) (A) (A) (A) (A) (A)
                 (A) (A) (A) (A) (A) (A) (A) (A) (A) (A) (A) (A)
                 (A) (A) (A) (A) (A) (A) (A) (A) (A) (A) (A) (A)
                 (A) (A) (A) (A) (A) (A) (A) (A) (A) (A)
       Virtual   (A) (A) (A) (A) (A) (A) (A) (A) (A) (A) (A) (A)
                 (A) (A) (A) (A) (A) (A) (A) (A) (A) (A) (A) (A)
                 (A) (A) (A) (A) (A) (A) (A) (A) (A) (A) (A) (A)
                 (A) (A) (A) (A) (A) (A) (A) (A) (A) (A) (A) (A)
                 (A) (A) (A) (A) (A) (A) (A) (A) (A) (A) (A) (A)
                 (A) (A) (A) (A) (A) (A) (A) (A) (A) (A) (A) (A)
                 (A) (A) (A) (A) (A) (A) (A) (A) (A) (A) (A) (A)
                 (A) (A) (A) (A) (A) (A) (A) (A) (A) (A) (A) (A)
                 (A) (A) (A) (A) (A) (A) (A) (A) (A) (A) (A) (A)
                 (A) (A) (A) (A) (A) (A) (A) (A) (A) (A) (A) (A)
                 (A) (A) (A) (A) (A) (A) (A) (A) (A) (A) (A) (A)
                 (A) (A) (A) (A) (A) (A) (A) (A) (A) (A) (A) (A)
                 (A) (A) (A) (A) (A) (A) (A) (A) (A) (A) (A) (A)
                 (A) (A) (A) (A) (A) (A) (A) (A) (A) (A) (A) (A)
                 (A) (A) (A) (A) (A) (A) (A) (A) (A) (A) (A) (A)
                 (A) (A) (A) (A) (A) (A) (A) (A) (A) (A) (A) (A)
                 (A) (A) (A) (A) (A) (A) (A) (A) (A) (A) (A) (A)
                 (A) (A) (A) (A) (A) (A) (A) (A) (A) (A) (A) (A)
                 (A) (A) (A) (A) (A) (A) (A) (A) (A) (A) (A) (A)
                 (A) (A) (A) (A) (A) (A) (A) (A) (A) (A) (A) (A)
                 (A) (A) (A) (A) (A) (A) (A) (A) (A) (A) (A) (A)
                 (A) (A) (A) (A) (A) (A) (A) (A) (A) (A) (A) (A)
                 (A) (A) (A) (A) (A) (A) (A) (A) (A) (A) (A) (A)
                 (A) (A) (A) (A) (A) (A) (A) (A) (A) (A) (A) (A)
                 (A) (A) (A) (A) (A) (A) (A) (A) (A) (A) (A) (A)
                 (A) (A) (A) (A) (A) (A) (A) (A) (A) (A) (A) (A)
                 (A) (A) (A) (A) (A) (A) (A) (A) (A) (A) (A) (A)
                 (A) (A) (A) (A) (A) (A) (A) (A) (A) (A) (A) (A)
                 (A) (A) (A) (A) (A) (A) (A) (A) (A) (A) (A) (A)
                 (A) (A) (A) (A) (A) (A) (A) (A) (A) (A) (A) (A)
                 (A) (A) (A) (A) (A) (A) (A) (A) (A) (A) (A) (A)
                 (A) (A) (A) (A) (A) (A) (A) (A) (A) (A) (A) (A)
                 (A) (A) (A) (A) (A) (A) (A) (A) (A) (A) (A) (A)
                 (A) (A) (A) (A) (A) (A) (A) (A) (A) (A) (A) (A)
                 (A) (A) (A) (A) (A) (A) (A) (A) (A) (A) (A) (A)
                 (A) (A) (A) (A) (A) (A) (A) (A) (A) (A) (A) (A)
                 (A) (A) (A) (A) (A) (A) (A) (A) (A) (A) (A) (A)
                 (A) (A) (A) (A) (A) (A) (A) (A) (A) (A) (A) (A)
                 (A) (A) (A) (A) (A) (A) (A) (A) (A) (A) (A) (A)
                 (A) (A) (A) (A) (A) (A) (A) (A) (A) (A) (A) (A)
                 (A) (A) (A) (A) (A) (A) (A) (A) (A) (A) (A) (A)
                 (A) (A) (A) (A) (A) (A) (A) (A) (A) (A) (A) (A)
                 (A) (A) (A) (A) (A) (A) (A) (A) (A) (A) (A) (A)
                 (A) (A) (A) (A) (A) (A) (A) (A) (A) (A) (A) (A)
                 (A) (A) (A) (A) (A) (A) (A) (A) (A) (A) (A) (A)
                 (A) (A) (A) (A) (A) (A) (A) (A) (A) (A) (A) (A)
                 (A) (A) (A) (A) (A) (A) (A) (A) (A) (A) (A) (A)
                 (A) (A) (A) (A) (A) (A) (A) (A) (A) (A) (A) (A)
                 (A) (A) (A) (A) (A) (A) (A) (A) (A) (A) (A) (A)
                 (A) (A) (A) (A) (A) (A) (A) (A) (A) (A) (A) (A)
                 (A) (A) (A) (A) (A) (A) (A) (A) (A) (A) (A) (A)
                 (A) (A) (A) (A) (A) (A) (A) (A) (A) (A) (A) (A)
                 (A) (A) (A) (A) (A) (A) (A) (A) (A) (A) (A) (A)
                 (A) (A) (A) (A) (A) (A) (A) (A) (A) (A) (A) (A)
                 (A) (A) (A) (A) (A) (A) (A) (A) (A) (A) (A) (A)
                 (A) (A) (A) (A) (A) (A) (A) (A) (A) (A) (A) (A)
                 (A) (A) (A) (A) (A) (A) (A) (A) (A) (A) (A) (A)
                 (A) (A) (A) (A) (A) (A) (A) (A) (A) (A) (A) (A)
                 (A) (A) (A) (A) (A) (A) (A) (A) (A) (A) (A) (A)
                 (A) (A) (A) (A) (A) (A) (A) (A) (A) (A) (A) (A)
                 (A) (A) (A) (A) (A) (A) (A) (A) (A) (A) (A) (A)
                 (A) (A) (A) (A) (A) (A) (A) (A) (A) (A) (A) (A)
                 (A) (A) (A) (A) (A) (A) (A) (A) (A) (A) (A) (A)
                 (A) (A) (A) (A) (A) (A) (A) (A) (A) (A) (A) (A)
                 (A) (A) (A) (A) (A) (A) (A) (A) (A) (A) (A) (A)
                 (A) (A) (A) (A) (A) (A) (A) (A) (A) (A) (A) (A)
                 (A) (A) (A) (A) (A) (A) (A) (A) (A) (A) (A) (A)
                 (A) (A) (A) (A) (A) (A) (A) (A) (A) (A) (A) (A)
                 (A) (A) (A) (A) (A) (A) (A) (A) (A) (A) (A) (A)
                 (A) (A) (A) (A) (A) (A) (A) (A) (A) (A) (A) (A)
                 (A) (A) (A) (A) (A) (A) (A) (A) (A) (A) (A) (A)
                 (A) (A) (A) (A) (A) (A) (A) (A) (A) (A) (A) (A)
                 (A) (A) (A) (A) (A) (A) (A) (A) (A) (A) (A) (A)
                 (A) (A) (A) (A) (A) (A) (A) (A) (A) (A) (A) (A)
                 (A) (A) (A) (A) (A) (A) (A) (A) (A) (A) (A) (A)
                 (A) (A) (A) (A) (A) (A) (A) (A) (A) (A) (A) (A)
                 (A) (A) (A) (A) (A) (A) (A) (A) (A) (A) (A) (A)
                 (A) (A) (A) (A) (A) (A) (A) (A) (A) (A) (A) (A)
                 (A) (A) (A) (A) (A) (A) (A) (A) (A) (A) (A) (A)
                 (A) (A) (A) (A) (A) (A) (A) (A) (A) (A) (A) (A)
                 (A) (A) (A) (A) (A) (A) (A) (A) (A) (A) (A) (A)
                 (A) (A) (A) (A) (A) (A) (A) (A) (A) (A) (A) (A)
                 (A) (A) (A) (A) (A) (A) (A) (A) (A) (A) (A) (A)
                 (A) (A) (A) (A) (A) (A) (A) (A) (A) (A) (A) (A)
                 (A) (A) (A) (A) (A) (A) (A) (A) (A) (A) (A) (A)
                 (A) (A) (A) (A) (A) (A) (A) (A) (A) (A) (A) (A)
                 (A) (A) (A) (A) (A) (A) (A) (A) (A) (A) (A) (A)
                 (A) (A) (A) (A) (A) (A) (A) (A) (A) (A) (A) (A)
                 (A) (A) (A) (A) (A) (A) (A) (A) (A) (A) (A) (A)
                 (A) (A) (A) (A) (A) (A) (A) (A) (A) (A) (A) (A)
                 (A) (A) (A) (A) (A) (A) (A) (A) (A) (A) (A) (A)
                 (A) (A) (A) (A) (A) (A) (A) (A) (A) (A) (A) (A)
                 (A) (A) (A) (A) (A) (A) (A) (A) (A) (A) (A) (A)
                 (A) (A) (A) (A) (A) (A) (A) (A) (A) (A) (A) (A)
                 (A) (A) (A) (A) (A) (A) (A) (A) (A) (A) (A) (A)
                 (A) (A) (A) (A) (A) (A) (A) (A) (A) (A) (A) (A)
                 (A) (A) (A) (A) (A) (A) (A) (A) (A) (A) (A) (A)
                 (A) (A) (A) (A) (A) (A) (A) (A) (A) (A) (A) (A)
                 (A) (A) (A) (A) (A) (A) (A) (A) (A) (A) (A) (A)
                 (A) (A) (A) (A) (A) (A) (A) (A) (A) (A) (A) (A)
                 (A) (A) (A) (A) (A) (A) (A) (A) (A) (A) (A) (A)
                 (A) (A) (A) (A) (A) (A) (A) (A) (A) (A) (A) (A)
                 (A) (A) (A) (A) (A) (A) (A) (A) (A) (A) (A) (A)
                 (A) (A) (A) (A) (A) (A) (A) (A) (A) (A) (A) (A)
                 (A) (A) (A) (A) (A) (A) (A) (A) (A) (A) (A) (A)
                 (A) (A) (A) (A) (A) (A) (A) (A) (A) (A) (A) (A)
                 (A) (A) (A) (A) (A) (A) (A) (A) (A) (A) (A) (A)
                 (A) (A) (A) (A) (A) (A) (A) (A) (A) (A) (A) (A)
                 (A) (A) (A) (A) (A) (A) (A) (A) (A) (A) (A) (A)
                 (A) (A) (A) (A) (A) (A) (A) (A) (A) (A) (A) (A)
                 (A) (A) (A) (A) (A) (A) (A) (A) (A) (A) (A) (A)
                 (A) (A) (A) (A) (A) (A) (A) (A) (A) (A) (A) (A)
                 (A) (A) (A) (A) (A) (A) (A) (A) (A) (A) (A) (A)
                 (A) (A) (A)
 The electronic state is 1-A.
 Alpha  occ. eigenvalues -- -145.34151 -19.18610 -19.14783 -19.13311 -19.12121
 Alpha  occ. eigenvalues --  -19.11721 -19.11683 -19.10759 -19.09725 -19.08508
 Alpha  occ. eigenvalues --  -19.08391 -19.07935 -19.07869 -19.07308 -19.07284
 Alpha  occ. eigenvalues --  -19.07056 -19.07027 -19.06401 -19.05244 -19.04453
 Alpha  occ. eigenvalues --  -19.04385 -19.03941 -19.03751 -19.02573 -15.39936
 Alpha  occ. eigenvalues --  -14.57602 -14.39805 -14.37307 -14.37154 -14.36059
 Alpha  occ. eigenvalues --  -14.35435 -14.34872 -14.33896 -14.33007 -14.32892
 Alpha  occ. eigenvalues --  -14.32619 -14.32360 -14.31173 -14.30943 -14.29267
 Alpha  occ. eigenvalues --  -12.53534 -12.53517 -12.53497 -10.33549 -10.31715
 Alpha  occ. eigenvalues --  -10.30540 -10.30048 -10.28931 -10.28327 -10.27356
 Alpha  occ. eigenvalues --  -10.27112 -10.27061 -10.26746 -10.26262 -10.26092
 Alpha  occ. eigenvalues --  -10.26007 -10.25576 -10.25295 -10.25134 -10.25083
 Alpha  occ. eigenvalues --  -10.24587 -10.24455 -10.24291 -10.23762 -10.23543
 Alpha  occ. eigenvalues --  -10.23083 -10.22837 -10.22805 -10.22378 -10.22172
 Alpha  occ. eigenvalues --  -10.22143 -10.22086 -10.21794 -10.21075 -10.20577
 Alpha  occ. eigenvalues --  -10.20550 -10.20354 -10.20114 -10.19967 -10.19709
 Alpha  occ. eigenvalues --  -10.19634 -10.18838 -10.18756 -10.18701 -10.18559
 Alpha  occ. eigenvalues --  -10.18383 -10.18230 -10.18177 -10.18165 -10.18123
 Alpha  occ. eigenvalues --  -10.18005 -10.17806 -10.16780 -10.16692 -10.15261
 Alpha  occ. eigenvalues --  -10.15080 -10.14399  -1.76965  -1.12789  -1.06309
 Alpha  occ. eigenvalues --   -1.05538  -1.05267  -1.04989  -1.04668  -1.04150
 Alpha  occ. eigenvalues --   -1.04094  -1.03669  -1.03588  -1.03161  -1.02668
 Alpha  occ. eigenvalues --   -1.01686  -1.01139  -1.00704  -1.00673  -1.00244
 Alpha  occ. eigenvalues --   -1.00017  -0.99728  -0.99569  -0.99390  -0.98571
 Alpha  occ. eigenvalues --   -0.97973  -0.96987  -0.96674  -0.94042  -0.93239
 Alpha  occ. eigenvalues --   -0.92358  -0.92215  -0.91495  -0.91443  -0.90861
 Alpha  occ. eigenvalues --   -0.90358  -0.89978  -0.89612  -0.89506  -0.89245
 Alpha  occ. eigenvalues --   -0.88726  -0.87879  -0.87191  -0.87175  -0.85632
 Alpha  occ. eigenvalues --   -0.83896  -0.82292  -0.80756  -0.80508  -0.79779
 Alpha  occ. eigenvalues --   -0.78276  -0.77758  -0.77240  -0.76981  -0.76759
 Alpha  occ. eigenvalues --   -0.75110  -0.74213  -0.73714  -0.73158  -0.72828
 Alpha  occ. eigenvalues --   -0.72644  -0.71673  -0.71134  -0.70541  -0.70307
 Alpha  occ. eigenvalues --   -0.69472  -0.69201  -0.68884  -0.68582  -0.67279
 Alpha  occ. eigenvalues --   -0.66844  -0.65956  -0.65857  -0.64495  -0.63837
 Alpha  occ. eigenvalues --   -0.63691  -0.63011  -0.62480  -0.62002  -0.61977
 Alpha  occ. eigenvalues --   -0.61260  -0.60679  -0.60106  -0.59945  -0.59323
 Alpha  occ. eigenvalues --   -0.59099  -0.58338  -0.58190  -0.58055  -0.57706
 Alpha  occ. eigenvalues --   -0.57283  -0.56919  -0.56674  -0.56444  -0.56325
 Alpha  occ. eigenvalues --   -0.56188  -0.55389  -0.55183  -0.55042  -0.54452
 Alpha  occ. eigenvalues --   -0.54314  -0.53939  -0.53867  -0.53686  -0.53366
 Alpha  occ. eigenvalues --   -0.53010  -0.52872  -0.52340  -0.52039  -0.51590
 Alpha  occ. eigenvalues --   -0.51154  -0.50400  -0.49909  -0.49573  -0.49351
 Alpha  occ. eigenvalues --   -0.49217  -0.48987  -0.48820  -0.48534  -0.48491
 Alpha  occ. eigenvalues --   -0.48299  -0.47887  -0.47801  -0.47744  -0.47495
 Alpha  occ. eigenvalues --   -0.47182  -0.47138  -0.46449  -0.46175  -0.45811
 Alpha  occ. eigenvalues --   -0.45670  -0.45427  -0.45342  -0.45223  -0.45179
 Alpha  occ. eigenvalues --   -0.45019  -0.44942  -0.44708  -0.44647  -0.44566
 Alpha  occ. eigenvalues --   -0.44489  -0.44466  -0.44071  -0.43997  -0.43866
 Alpha  occ. eigenvalues --   -0.43815  -0.43474  -0.43366  -0.42927  -0.42707
 Alpha  occ. eigenvalues --   -0.42527  -0.42425  -0.42201  -0.42180  -0.42143
 Alpha  occ. eigenvalues --   -0.41980  -0.41897  -0.41683  -0.41612  -0.41323
 Alpha  occ. eigenvalues --   -0.41181  -0.40992  -0.40787  -0.40698  -0.40636
 Alpha  occ. eigenvalues --   -0.40551  -0.40420  -0.40267  -0.39971  -0.39685
 Alpha  occ. eigenvalues --   -0.39601  -0.39584  -0.39512  -0.39351  -0.39293
 Alpha  occ. eigenvalues --   -0.39204  -0.39081  -0.38959  -0.38863  -0.38776
 Alpha  occ. eigenvalues --   -0.38662  -0.38481  -0.38155  -0.37950  -0.37780
 Alpha  occ. eigenvalues --   -0.37589  -0.37491  -0.37386  -0.37263  -0.37144
 Alpha  occ. eigenvalues --   -0.37066  -0.36949  -0.36818  -0.36630  -0.36468
 Alpha  occ. eigenvalues --   -0.36148  -0.36064  -0.35933  -0.35640  -0.35501
 Alpha  occ. eigenvalues --   -0.35405  -0.35353  -0.35212  -0.35068  -0.34970
 Alpha  occ. eigenvalues --   -0.34899  -0.34707  -0.34282  -0.33845  -0.33679
 Alpha  occ. eigenvalues --   -0.33493  -0.33465  -0.33179  -0.33019  -0.32715
 Alpha  occ. eigenvalues --   -0.32677  -0.32503  -0.32187  -0.31692  -0.31650
 Alpha  occ. eigenvalues --   -0.31349  -0.30800  -0.30549  -0.29536  -0.29407
 Alpha  occ. eigenvalues --   -0.29267  -0.28637  -0.28108  -0.27990  -0.27684
 Alpha  occ. eigenvalues --   -0.27541  -0.27278  -0.26903  -0.26376  -0.26085
 Alpha  occ. eigenvalues --   -0.25842  -0.25497  -0.25275  -0.25234  -0.25184
 Alpha  occ. eigenvalues --   -0.25006  -0.24651  -0.24103  -0.24037  -0.24005
 Alpha  occ. eigenvalues --   -0.23546  -0.23498  -0.23254  -0.23016  -0.22775
 Alpha  occ. eigenvalues --   -0.22527  -0.22320  -0.22278  -0.22055  -0.21584
 Alpha  occ. eigenvalues --   -0.21243  -0.20907  -0.20768  -0.20727  -0.20667
 Alpha  occ. eigenvalues --   -0.19550  -0.19094  -0.18099
 Alpha virt. eigenvalues --   -0.09284  -0.03857  -0.02693  -0.02224  -0.01414
 Alpha virt. eigenvalues --   -0.00574   0.00186   0.00358   0.00400   0.00444
 Alpha virt. eigenvalues --    0.00864   0.01141   0.01489   0.02584   0.02773
 Alpha virt. eigenvalues --    0.02969   0.03123   0.03620   0.03854   0.03926
 Alpha virt. eigenvalues --    0.03965   0.04061   0.04129   0.05144   0.05221
 Alpha virt. eigenvalues --    0.05629   0.05787   0.05990   0.06170   0.06345
 Alpha virt. eigenvalues --    0.06425   0.06604   0.06805   0.06967   0.07241
 Alpha virt. eigenvalues --    0.07815   0.07886   0.07984   0.08048   0.08375
 Alpha virt. eigenvalues --    0.08563   0.08958   0.09035   0.09132   0.09321
 Alpha virt. eigenvalues --    0.09683   0.09762   0.09948   0.10081   0.10155
 Alpha virt. eigenvalues --    0.10789   0.11000   0.11210   0.11446   0.11575
 Alpha virt. eigenvalues --    0.11796   0.12081   0.12149   0.12439   0.12639
 Alpha virt. eigenvalues --    0.12779   0.12974   0.13029   0.13360   0.13433
 Alpha virt. eigenvalues --    0.13606   0.13703   0.13857   0.14009   0.14170
 Alpha virt. eigenvalues --    0.14343   0.14569   0.14630   0.14724   0.14974
 Alpha virt. eigenvalues --    0.14987   0.15120   0.15393   0.15550   0.15671
 Alpha virt. eigenvalues --    0.15787   0.15930   0.16120   0.16231   0.16243
 Alpha virt. eigenvalues --    0.16479   0.16553   0.16743   0.16934   0.17100
 Alpha virt. eigenvalues --    0.17306   0.17490   0.17603   0.17944   0.18135
 Alpha virt. eigenvalues --    0.18514   0.18532   0.18790   0.18916   0.19055
 Alpha virt. eigenvalues --    0.19407   0.19427   0.19833   0.20006   0.20113
 Alpha virt. eigenvalues --    0.20237   0.20459   0.20621   0.20817   0.21048
 Alpha virt. eigenvalues --    0.21331   0.21371   0.21627   0.21939   0.22018
 Alpha virt. eigenvalues --    0.22098   0.22364   0.22668   0.22914   0.23319
 Alpha virt. eigenvalues --    0.23602   0.23651   0.23733   0.23922   0.24206
 Alpha virt. eigenvalues --    0.24345   0.24522   0.24650   0.24807   0.25007
 Alpha virt. eigenvalues --    0.25463   0.25537   0.25647   0.25820   0.26205
 Alpha virt. eigenvalues --    0.26450   0.26675   0.26718   0.26987   0.27066
 Alpha virt. eigenvalues --    0.27289   0.27404   0.27691   0.28054   0.28405
 Alpha virt. eigenvalues --    0.28732   0.28863   0.29021   0.29254   0.29447
 Alpha virt. eigenvalues --    0.29554   0.29959   0.30184   0.30305   0.30428
 Alpha virt. eigenvalues --    0.30687   0.30829   0.30931   0.31170   0.31312
 Alpha virt. eigenvalues --    0.31533   0.31996   0.32158   0.32468   0.32701
 Alpha virt. eigenvalues --    0.33059   0.33322   0.33593   0.33909   0.34427
 Alpha virt. eigenvalues --    0.34636   0.34727   0.34865   0.35383   0.35989
 Alpha virt. eigenvalues --    0.36315   0.36441   0.36771   0.37128   0.37384
 Alpha virt. eigenvalues --    0.37537   0.37640   0.38208   0.38404   0.38667
 Alpha virt. eigenvalues --    0.38811   0.38962   0.39013   0.39492   0.39866
 Alpha virt. eigenvalues --    0.40124   0.40433   0.40555   0.40610   0.40824
 Alpha virt. eigenvalues --    0.41157   0.41469   0.41831   0.41949   0.42109
 Alpha virt. eigenvalues --    0.42278   0.42599   0.42811   0.42939   0.43313
 Alpha virt. eigenvalues --    0.43489   0.43658   0.43876   0.44065   0.44243
 Alpha virt. eigenvalues --    0.44691   0.44871   0.45077   0.45470   0.45542
 Alpha virt. eigenvalues --    0.45736   0.45853   0.46237   0.46357   0.46546
 Alpha virt. eigenvalues --    0.46670   0.46774   0.47073   0.47256   0.47437
 Alpha virt. eigenvalues --    0.47674   0.48037   0.48230   0.48466   0.48599
 Alpha virt. eigenvalues --    0.48777   0.49023   0.49246   0.49327   0.49454
 Alpha virt. eigenvalues --    0.49651   0.49974   0.50148   0.50236   0.50487
 Alpha virt. eigenvalues --    0.50600   0.50740   0.50999   0.51195   0.51428
 Alpha virt. eigenvalues --    0.51699   0.51818   0.52093   0.52243   0.52498
 Alpha virt. eigenvalues --    0.52624   0.52832   0.52898   0.53228   0.53426
 Alpha virt. eigenvalues --    0.53429   0.53597   0.53948   0.54211   0.54409
 Alpha virt. eigenvalues --    0.54487   0.54618   0.54774   0.54989   0.55160
 Alpha virt. eigenvalues --    0.55359   0.55669   0.55800   0.56226   0.56294
 Alpha virt. eigenvalues --    0.56421   0.56734   0.56858   0.57014   0.57133
 Alpha virt. eigenvalues --    0.57310   0.57560   0.57652   0.58081   0.58290
 Alpha virt. eigenvalues --    0.58448   0.58662   0.58812   0.59067   0.59114
 Alpha virt. eigenvalues --    0.59334   0.59665   0.59828   0.59960   0.60178
 Alpha virt. eigenvalues --    0.60318   0.60358   0.60421   0.60664   0.60854
 Alpha virt. eigenvalues --    0.60894   0.61000   0.61183   0.61441   0.61501
 Alpha virt. eigenvalues --    0.61683   0.61833   0.61903   0.61969   0.62323
 Alpha virt. eigenvalues --    0.62342   0.62513   0.62583   0.62913   0.63035
 Alpha virt. eigenvalues --    0.63081   0.63151   0.63298   0.63511   0.63626
 Alpha virt. eigenvalues --    0.63783   0.63891   0.64049   0.64151   0.64214
 Alpha virt. eigenvalues --    0.64344   0.64519   0.64565   0.64688   0.64753
 Alpha virt. eigenvalues --    0.64899   0.65078   0.65098   0.65243   0.65336
 Alpha virt. eigenvalues --    0.65496   0.65641   0.65757   0.65817   0.65959
 Alpha virt. eigenvalues --    0.66029   0.66170   0.66219   0.66369   0.66473
 Alpha virt. eigenvalues --    0.66549   0.66696   0.66800   0.66832   0.66961
 Alpha virt. eigenvalues --    0.67093   0.67208   0.67247   0.67443   0.67626
 Alpha virt. eigenvalues --    0.67660   0.67676   0.67809   0.67892   0.67964
 Alpha virt. eigenvalues --    0.68222   0.68284   0.68454   0.68532   0.68623
 Alpha virt. eigenvalues --    0.68770   0.68841   0.69111   0.69156   0.69329
 Alpha virt. eigenvalues --    0.69460   0.69575   0.69744   0.69815   0.69878
 Alpha virt. eigenvalues --    0.70041   0.70155   0.70208   0.70361   0.70510
 Alpha virt. eigenvalues --    0.70676   0.70821   0.70895   0.71149   0.71271
 Alpha virt. eigenvalues --    0.71391   0.71536   0.71696   0.72034   0.72175
 Alpha virt. eigenvalues --    0.72315   0.72430   0.72636   0.72726   0.72824
 Alpha virt. eigenvalues --    0.72941   0.73012   0.73089   0.73548   0.73629
 Alpha virt. eigenvalues --    0.73745   0.73904   0.74021   0.74239   0.74331
 Alpha virt. eigenvalues --    0.74548   0.74733   0.74999   0.75408   0.75563
 Alpha virt. eigenvalues --    0.75716   0.75947   0.76218   0.76284   0.76448
 Alpha virt. eigenvalues --    0.76488   0.76988   0.77157   0.77370   0.77499
 Alpha virt. eigenvalues --    0.78015   0.78373   0.78545   0.78827   0.78889
 Alpha virt. eigenvalues --    0.79179   0.79680   0.79740   0.80061   0.80295
 Alpha virt. eigenvalues --    0.80345   0.80828   0.81041   0.81195   0.81351
 Alpha virt. eigenvalues --    0.81925   0.82040   0.82146   0.82625   0.82728
 Alpha virt. eigenvalues --    0.82852   0.83050   0.83573   0.83737   0.83833
 Alpha virt. eigenvalues --    0.84179   0.84565   0.84674   0.84798   0.85241
 Alpha virt. eigenvalues --    0.85464   0.85718   0.85732   0.85921   0.86298
 Alpha virt. eigenvalues --    0.86442   0.86814   0.87163   0.87878   0.87995
 Alpha virt. eigenvalues --    0.88133   0.88352   0.88636   0.88862   0.89219
 Alpha virt. eigenvalues --    0.89404   0.89670   0.90471   0.90595   0.90776
 Alpha virt. eigenvalues --    0.90996   0.91064   0.91796   0.92121   0.92252
 Alpha virt. eigenvalues --    0.92554   0.92655   0.92920   0.93281   0.93493
 Alpha virt. eigenvalues --    0.93772   0.94169   0.94317   0.94734   0.94846
 Alpha virt. eigenvalues --    0.95058   0.95570   0.95846   0.96109   0.96285
 Alpha virt. eigenvalues --    0.96573   0.96838   0.97176   0.97516   0.97623
 Alpha virt. eigenvalues --    0.98079   0.98342   0.98808   0.98966   0.99258
 Alpha virt. eigenvalues --    0.99405   0.99877   1.00275   1.00346   1.00684
 Alpha virt. eigenvalues --    1.00967   1.01204   1.01504   1.01888   1.02002
 Alpha virt. eigenvalues --    1.02384   1.02563   1.03176   1.03443   1.03667
 Alpha virt. eigenvalues --    1.03898   1.04248   1.04483   1.04677   1.05099
 Alpha virt. eigenvalues --    1.05633   1.05720   1.06118   1.06537   1.06770
 Alpha virt. eigenvalues --    1.06985   1.07138   1.07250   1.07580   1.07814
 Alpha virt. eigenvalues --    1.07946   1.08178   1.08866   1.09013   1.09098
 Alpha virt. eigenvalues --    1.09697   1.09955   1.10149   1.10504   1.10636
 Alpha virt. eigenvalues --    1.11072   1.11375   1.11976   1.12050   1.12361
 Alpha virt. eigenvalues --    1.12553   1.12827   1.12920   1.13407   1.13578
 Alpha virt. eigenvalues --    1.13710   1.13851   1.14293   1.14421   1.14623
 Alpha virt. eigenvalues --    1.14924   1.15409   1.15488   1.15708   1.16082
 Alpha virt. eigenvalues --    1.16304   1.16519   1.17068   1.17186   1.17442
 Alpha virt. eigenvalues --    1.17532   1.18160   1.18441   1.18645   1.19020
 Alpha virt. eigenvalues --    1.19457   1.19751   1.19989   1.20220   1.20747
 Alpha virt. eigenvalues --    1.20881   1.20950   1.21436   1.21647   1.22003
 Alpha virt. eigenvalues --    1.22138   1.22668   1.22810   1.23199   1.23284
 Alpha virt. eigenvalues --    1.23585   1.23835   1.23980   1.24121   1.24390
 Alpha virt. eigenvalues --    1.24518   1.24719   1.25141   1.25589   1.25794
 Alpha virt. eigenvalues --    1.26135   1.26309   1.26494   1.26579   1.26939
 Alpha virt. eigenvalues --    1.27472   1.27681   1.27966   1.28111   1.28214
 Alpha virt. eigenvalues --    1.28692   1.28961   1.29366   1.29679   1.29717
 Alpha virt. eigenvalues --    1.29972   1.30046   1.30465   1.30651   1.30935
 Alpha virt. eigenvalues --    1.31105   1.31554   1.31682   1.31825   1.32039
 Alpha virt. eigenvalues --    1.32261   1.32506   1.32750   1.33125   1.33355
 Alpha virt. eigenvalues --    1.33615   1.33967   1.34041   1.34321   1.34891
 Alpha virt. eigenvalues --    1.35086   1.35281   1.35568   1.35892   1.36076
 Alpha virt. eigenvalues --    1.36508   1.37014   1.37157   1.37291   1.37727
 Alpha virt. eigenvalues --    1.38099   1.38300   1.38457   1.38593   1.38675
 Alpha virt. eigenvalues --    1.39064   1.39213   1.39482   1.39789   1.39963
 Alpha virt. eigenvalues --    1.40583   1.40851   1.41176   1.41461   1.41905
 Alpha virt. eigenvalues --    1.42089   1.42289   1.42466   1.43051   1.43216
 Alpha virt. eigenvalues --    1.43578   1.43637   1.43838   1.43892   1.44307
 Alpha virt. eigenvalues --    1.44659   1.44725   1.44917   1.45238   1.45770
 Alpha virt. eigenvalues --    1.46096   1.46192   1.46700   1.46893   1.47083
 Alpha virt. eigenvalues --    1.47408   1.47491   1.48075   1.48483   1.48978
 Alpha virt. eigenvalues --    1.49309   1.49574   1.49686   1.50111   1.50243
 Alpha virt. eigenvalues --    1.50782   1.50793   1.51109   1.51369   1.51518
 Alpha virt. eigenvalues --    1.51922   1.52074   1.52175   1.52354   1.52557
 Alpha virt. eigenvalues --    1.52792   1.53016   1.53250   1.53548   1.53916
 Alpha virt. eigenvalues --    1.54183   1.54332   1.54562   1.54833   1.55284
 Alpha virt. eigenvalues --    1.55888   1.56016   1.56813   1.56991   1.57479
 Alpha virt. eigenvalues --    1.57582   1.58241   1.58532   1.58808   1.59529
 Alpha virt. eigenvalues --    1.59718   1.59843   1.60269   1.60469   1.60615
 Alpha virt. eigenvalues --    1.61180   1.61665   1.61781   1.62355   1.62565
 Alpha virt. eigenvalues --    1.62869   1.63022   1.63038   1.63456   1.63860
 Alpha virt. eigenvalues --    1.63941   1.64190   1.65174   1.65698   1.66204
 Alpha virt. eigenvalues --    1.66512   1.66717   1.67083   1.67259   1.67494
 Alpha virt. eigenvalues --    1.67832   1.68175   1.68616   1.68775   1.69405
 Alpha virt. eigenvalues --    1.69504   1.69618   1.69774   1.69955   1.70070
 Alpha virt. eigenvalues --    1.70345   1.70609   1.70869   1.71149   1.71501
 Alpha virt. eigenvalues --    1.71536   1.71717   1.72008   1.72604   1.72810
 Alpha virt. eigenvalues --    1.72959   1.73229   1.73352   1.73486   1.73932
 Alpha virt. eigenvalues --    1.74259   1.74297   1.74468   1.74719   1.74872
 Alpha virt. eigenvalues --    1.75324   1.75455   1.75576   1.75806   1.76102
 Alpha virt. eigenvalues --    1.76144   1.76267   1.76311   1.76584   1.76625
 Alpha virt. eigenvalues --    1.76905   1.76972   1.77358   1.77659   1.77988
 Alpha virt. eigenvalues --    1.78056   1.78144   1.78201   1.78409   1.78634
 Alpha virt. eigenvalues --    1.78681   1.78903   1.78917   1.79057   1.79296
 Alpha virt. eigenvalues --    1.79511   1.79604   1.79753   1.79890   1.80006
 Alpha virt. eigenvalues --    1.80148   1.80339   1.80511   1.80706   1.81095
 Alpha virt. eigenvalues --    1.81183   1.81528   1.81636   1.81718   1.81774
 Alpha virt. eigenvalues --    1.82026   1.82100   1.82261   1.82400   1.82519
 Alpha virt. eigenvalues --    1.82804   1.83036   1.83205   1.83281   1.83616
 Alpha virt. eigenvalues --    1.83900   1.84055   1.84625   1.84670   1.84915
 Alpha virt. eigenvalues --    1.84995   1.85202   1.85257   1.85393   1.85469
 Alpha virt. eigenvalues --    1.85639   1.85896   1.86074   1.86116   1.86359
 Alpha virt. eigenvalues --    1.86569   1.86801   1.86898   1.87066   1.87286
 Alpha virt. eigenvalues --    1.87772   1.87952   1.88064   1.88163   1.88248
 Alpha virt. eigenvalues --    1.88383   1.88678   1.88831   1.89062   1.89403
 Alpha virt. eigenvalues --    1.89764   1.89956   1.90164   1.90339   1.90742
 Alpha virt. eigenvalues --    1.90825   1.90935   1.91202   1.91376   1.91600
 Alpha virt. eigenvalues --    1.91726   1.91979   1.92087   1.92263   1.92433
 Alpha virt. eigenvalues --    1.92643   1.92710   1.92890   1.93328   1.93401
 Alpha virt. eigenvalues --    1.93606   1.94072   1.94177   1.94358   1.94720
 Alpha virt. eigenvalues --    1.95057   1.95139   1.95454   1.95558   1.95635
 Alpha virt. eigenvalues --    1.95798   1.95990   1.96261   1.96459   1.96721
 Alpha virt. eigenvalues --    1.96846   1.96996   1.97273   1.97405   1.97820
 Alpha virt. eigenvalues --    1.97950   1.98037   1.98360   1.98537   1.98787
 Alpha virt. eigenvalues --    1.98987   1.99030   1.99314   1.99488   1.99736
 Alpha virt. eigenvalues --    1.99872   1.99998   2.00332   2.00489   2.00537
 Alpha virt. eigenvalues --    2.00740   2.00843   2.01186   2.01224   2.01533
 Alpha virt. eigenvalues --    2.01848   2.02152   2.02342   2.02718   2.03037
 Alpha virt. eigenvalues --    2.03190   2.03551   2.03859   2.03896   2.03963
 Alpha virt. eigenvalues --    2.04187   2.04352   2.04650   2.04879   2.05107
 Alpha virt. eigenvalues --    2.05528   2.05675   2.05908   2.06505   2.06614
 Alpha virt. eigenvalues --    2.06942   2.07248   2.07743   2.08099   2.08319
 Alpha virt. eigenvalues --    2.08432   2.08654   2.09282   2.09380   2.09623
 Alpha virt. eigenvalues --    2.09710   2.10275   2.10393   2.10917   2.10950
 Alpha virt. eigenvalues --    2.11331   2.11379   2.11671   2.11932   2.12150
 Alpha virt. eigenvalues --    2.12549   2.12764   2.13127   2.13670   2.13788
 Alpha virt. eigenvalues --    2.14266   2.14390   2.15639   2.15882   2.16511
 Alpha virt. eigenvalues --    2.16727   2.17004   2.17035   2.17264   2.17600
 Alpha virt. eigenvalues --    2.17879   2.17906   2.18268   2.18511   2.18650
 Alpha virt. eigenvalues --    2.18889   2.19199   2.19319   2.19533   2.19627
 Alpha virt. eigenvalues --    2.19998   2.20151   2.20605   2.20762   2.21086
 Alpha virt. eigenvalues --    2.21246   2.21615   2.21912   2.22080   2.22346
 Alpha virt. eigenvalues --    2.23164   2.23372   2.23526   2.23862   2.24209
 Alpha virt. eigenvalues --    2.24386   2.24796   2.25375   2.25870   2.26521
 Alpha virt. eigenvalues --    2.26919   2.27091   2.27330   2.27475   2.27810
 Alpha virt. eigenvalues --    2.28204   2.28392   2.29050   2.29346   2.30628
 Alpha virt. eigenvalues --    2.30939   2.31221   2.31514   2.31932   2.32022
 Alpha virt. eigenvalues --    2.32294   2.32847   2.32988   2.33665   2.33949
 Alpha virt. eigenvalues --    2.34033   2.34062   2.34463   2.34725   2.35201
 Alpha virt. eigenvalues --    2.35265   2.35514   2.36004   2.36463   2.36741
 Alpha virt. eigenvalues --    2.36818   2.37099   2.37265   2.37550   2.37908
 Alpha virt. eigenvalues --    2.38582   2.39107   2.39276   2.39488   2.40027
 Alpha virt. eigenvalues --    2.40107   2.40150   2.40545   2.40581   2.41082
 Alpha virt. eigenvalues --    2.41447   2.41781   2.41963   2.42380   2.42585
 Alpha virt. eigenvalues --    2.43038   2.43307   2.43621   2.44197   2.44462
 Alpha virt. eigenvalues --    2.44548   2.44952   2.45643   2.45812   2.46241
 Alpha virt. eigenvalues --    2.46486   2.46572   2.47011   2.47398   2.47808
 Alpha virt. eigenvalues --    2.48311   2.48782   2.49089   2.49417   2.49654
 Alpha virt. eigenvalues --    2.49956   2.50202   2.50581   2.50831   2.51005
 Alpha virt. eigenvalues --    2.51331   2.51718   2.52231   2.52582   2.52737
 Alpha virt. eigenvalues --    2.53167   2.53480   2.53742   2.54013   2.54285
 Alpha virt. eigenvalues --    2.54610   2.54702   2.54925   2.55343   2.55493
 Alpha virt. eigenvalues --    2.55730   2.55900   2.56307   2.56820   2.57243
 Alpha virt. eigenvalues --    2.58088   2.58261   2.58412   2.58671   2.58910
 Alpha virt. eigenvalues --    2.59013   2.59986   2.60100   2.60180   2.60453
 Alpha virt. eigenvalues --    2.60627   2.60881   2.61112   2.61271   2.61669
 Alpha virt. eigenvalues --    2.61841   2.62316   2.62599   2.62970   2.63138
 Alpha virt. eigenvalues --    2.63343   2.63711   2.63966   2.64331   2.64416
 Alpha virt. eigenvalues --    2.64673   2.64903   2.65207   2.65286   2.66258
 Alpha virt. eigenvalues --    2.66542   2.67007   2.67367   2.67600   2.68241
 Alpha virt. eigenvalues --    2.68375   2.68549   2.68741   2.69382   2.69493
 Alpha virt. eigenvalues --    2.70003   2.70156   2.70332   2.71056   2.71228
 Alpha virt. eigenvalues --    2.71368   2.71963   2.72148   2.72556   2.72608
 Alpha virt. eigenvalues --    2.72677   2.72795   2.73108   2.73238   2.73429
 Alpha virt. eigenvalues --    2.73663   2.73884   2.74036   2.74224   2.74530
 Alpha virt. eigenvalues --    2.74706   2.75203   2.75447   2.75737   2.76015
 Alpha virt. eigenvalues --    2.76351   2.76630   2.76727   2.76808   2.77229
 Alpha virt. eigenvalues --    2.77930   2.78085   2.78329   2.78510   2.78694
 Alpha virt. eigenvalues --    2.79430   2.79527   2.79863   2.80006   2.80588
 Alpha virt. eigenvalues --    2.80619   2.80913   2.81088   2.81231   2.81390
 Alpha virt. eigenvalues --    2.81914   2.82194   2.82265   2.83083   2.83224
 Alpha virt. eigenvalues --    2.83613   2.83665   2.83741   2.84094   2.84475
 Alpha virt. eigenvalues --    2.84635   2.84732   2.85767   2.85787   2.85949
 Alpha virt. eigenvalues --    2.86631   2.86747   2.87021   2.88084   2.88293
 Alpha virt. eigenvalues --    2.88575   2.88880   2.88985   2.89283   2.89855
 Alpha virt. eigenvalues --    2.89893   2.90022   2.90478   2.90931   2.91288
 Alpha virt. eigenvalues --    2.91465   2.91653   2.91844   2.92299   2.92597
 Alpha virt. eigenvalues --    2.92662   2.92686   2.93018   2.93184   2.93909
 Alpha virt. eigenvalues --    2.94112   2.94421   2.95068   2.95285   2.95607
 Alpha virt. eigenvalues --    2.96028   2.96261   2.96436   2.96856   2.96974
 Alpha virt. eigenvalues --    2.97127   2.97346   2.97687   2.98218   2.98374
 Alpha virt. eigenvalues --    2.98665   2.98906   2.99065   2.99764   3.00140
 Alpha virt. eigenvalues --    3.00225   3.00684   3.00910   3.01211   3.02167
 Alpha virt. eigenvalues --    3.02336   3.02508   3.02635   3.02980   3.03346
 Alpha virt. eigenvalues --    3.03661   3.04551   3.04648   3.04956   3.05084
 Alpha virt. eigenvalues --    3.05785   3.06125   3.06315   3.06986   3.07150
 Alpha virt. eigenvalues --    3.07517   3.08395   3.08860   3.09531   3.10015
 Alpha virt. eigenvalues --    3.11564   3.11721   3.12021   3.13206   3.13418
 Alpha virt. eigenvalues --    3.13783   3.14114   3.14366   3.14750   3.14991
 Alpha virt. eigenvalues --    3.15169   3.15500   3.16196   3.16292   3.16690
 Alpha virt. eigenvalues --    3.17191   3.17375   3.17416   3.17494   3.18073
 Alpha virt. eigenvalues --    3.18220   3.18631   3.19065   3.19201   3.19362
 Alpha virt. eigenvalues --    3.19445   3.19626   3.20637   3.20685   3.20961
 Alpha virt. eigenvalues --    3.21382   3.21748   3.22007   3.22448   3.22590
 Alpha virt. eigenvalues --    3.22795   3.23659   3.23753   3.23939   3.25798
 Alpha virt. eigenvalues --    3.26084   3.26558   3.27032   3.27812   3.28309
 Alpha virt. eigenvalues --    3.28417   3.28742   3.29364   3.29792   3.29908
 Alpha virt. eigenvalues --    3.30122   3.30824   3.31671   3.32963   3.34588
 Alpha virt. eigenvalues --    3.36426   3.37482   3.37779   3.38343   3.39930
 Alpha virt. eigenvalues --    3.40024   3.40240   3.47700   3.49766   3.51026
 Alpha virt. eigenvalues --    3.52653   3.54846   3.55115   3.55888   3.56839
 Alpha virt. eigenvalues --    3.57821   3.58543   3.59167   3.59534   3.59752
 Alpha virt. eigenvalues --    3.61286   3.61642   3.61876   3.62479   3.63015
 Alpha virt. eigenvalues --    3.66409   3.66540   3.67335   3.69186   3.69390
 Alpha virt. eigenvalues --    3.69673   3.70277   3.70341   3.70744   3.70872
 Alpha virt. eigenvalues --    3.70950   3.71101   3.71768   3.72450   3.72505
 Alpha virt. eigenvalues --    3.72972   3.73624   3.73926   3.75245   3.77004
 Alpha virt. eigenvalues --    3.79101   3.80917   3.81381   3.87067
          Condensed to atoms (all electrons):
 Mulliken charges:
               1
     1  C    0.079632
     2  C    0.019204
     3  O   -0.308111
     4  H    0.044189
     5  H    0.023727
     6  H   -0.003837
     7  N   -0.117035
     8  C    0.075404
     9  C    0.069303
    10  O   -0.280125
    11  C    0.137273
    12  C    0.088536
    13  O   -0.478740
    14  O   -0.368900
    15  H    0.116120
    16  H    0.009843
    17  H   -0.005482
    18  H    0.012481
    19  N   -0.184654
    20  C    0.210212
    21  C    0.074787
    22  O   -0.275815
    23  C   -0.072050
    24  C    0.069566
    25  C   -0.094182
    26  C    0.073716
    27  N    0.081926
    28  H    0.154485
    29  H    0.015977
    30  H   -0.000798
    31  H   -0.001488
    32  H    0.050354
    33  H    0.011722
    34  H   -0.005396
    35  H    0.034673
    36  H    0.094081
    37  H    0.066694
    38  H    0.200263
    39  H    0.180562
    40  H    0.204834
    41  N   -0.148805
    42  C    0.101015
    43  C    0.059764
    44  O   -0.297256
    45  C    0.164240
    46  C    0.032396
    47  O   -0.429766
    48  O   -0.419133
    49  H    0.160370
    50  H    0.026928
    51  H   -0.017911
    52  H    0.014429
    53  N   -0.169568
    54  C    0.247106
    55  C    0.024748
    56  O   -0.308617
    57  H    0.111571
    58  H    0.029028
    59  H    0.043983
    60  N   -0.172278
    61  C    0.177812
    62  C    0.062588
    63  O   -0.296362
    64  C    0.041100
    65  C    0.069908
    66  N   -0.044404
    67  O   -0.337374
    68  H    0.148268
    69  H    0.016585
    70  H    0.060066
    71  H    0.032970
    72  H    0.123793
    73  H    0.112597
    74  N   -0.168534
    75  C    0.248687
    76  C    0.033487
    77  O   -0.305961
    78  H    0.157117
    79  H    0.041190
    80  H    0.017679
    81  N   -0.141947
    82  C    0.081248
    83  C    0.164772
    84  O   -0.372408
    85  C    0.142112
    86  C   -0.026586
    87  C   -0.015137
    88  C   -0.004810
    89  C    0.000999
    90  C   -0.016423
    91  C    0.162952
    92  O   -0.204953
    93  H    0.168209
    94  H   -0.023756
    95  H    0.017262
    96  H   -0.020512
    97  H   -0.058182
    98  H   -0.014768
    99  H   -0.031647
   100  H   -0.034526
   101  H    0.172211
   102  N   -0.071145
   103  C    0.117148
   104  C    0.051922
   105  O   -0.305950
   106  C   -0.033229
   107  C    0.077876
   108  C    0.018558
   109  C   -0.057687
   110  H    0.133186
   111  H    0.005984
   112  H   -0.030221
   113  H   -0.022144
   114  H   -0.018455
   115  H    0.005034
   116  H    0.023351
   117  H    0.039486
   118  H    0.030903
   119  H    0.054547
   120  H   -0.021173
   121  N   -0.127926
   122  C    0.092316
   123  C    0.112400
   124  O   -0.284441
   125  C    0.275616
   126  O   -0.361650
   127  H    0.158004
   128  H    0.012090
   129  H   -0.031333
   130  H   -0.037237
   131  H    0.178947
   132  N   -0.118346
   133  C    0.100228
   134  C    0.043951
   135  O   -0.237848
   136  C    0.025888
   137  H    0.121953
   138  H    0.028110
   139  H    0.023359
   140  H    0.000177
   141  H    0.048262
   142  N   -0.114771
   143  C    0.101311
   144  C    0.062732
   145  O   -0.303024
   146  C   -0.003087
   147  H    0.107534
   148  H    0.015120
   149  H    0.018112
   150  H    0.027909
   151  H    0.026406
   152  N   -0.129396
   153  C    0.156548
   154  C    0.075853
   155  O   -0.300228
   156  C   -0.086748
   157  C    0.123178
   158  C    0.190234
   159  O   -0.375078
   160  O   -0.478884
   161  H    0.133305
   162  H   -0.044700
   163  H    0.060275
   164  H   -0.005853
   165  H    0.012376
   166  H   -0.029529
   167  N   -0.161507
   168  C    0.136835
   169  H    0.016971
   170  H    0.027720
   171  H    0.030245
   172  H    0.134430
   173  Ca   1.254394
   174  O   -0.257928
   175  H    0.197122
   176  H    0.171093
 Sum of Mulliken charges =  -0.00000
 Mulliken charges with hydrogens summed into heavy atoms:
               1
     1  C    0.143712
     2  C    0.019204
     3  O   -0.308111
     7  N   -0.000915
     8  C    0.085247
     9  C    0.069303
    10  O   -0.280125
    11  C    0.144272
    12  C    0.088536
    13  O   -0.478740
    14  O   -0.368900
    19  N   -0.030169
    20  C    0.226189
    21  C    0.074787
    22  O   -0.275815
    23  C   -0.074336
    24  C    0.131641
    25  C   -0.064906
    26  C    0.234490
    27  N    0.667584
    41  N    0.011565
    42  C    0.127943
    43  C    0.059764
    44  O   -0.297256
    45  C    0.160758
    46  C    0.032396
    47  O   -0.429766
    48  O   -0.419133
    53  N   -0.057997
    54  C    0.320117
    55  C    0.024748
    56  O   -0.308617
    60  N   -0.024009
    61  C    0.194398
    62  C    0.062588
    63  O   -0.296362
    64  C    0.134136
    65  C    0.069908
    66  N    0.191987
    67  O   -0.337374
    74  N   -0.011417
    75  C    0.307557
    76  C    0.033487
    77  O   -0.305961
    81  N    0.026262
    82  C    0.057493
    83  C    0.164772
    84  O   -0.372408
    85  C    0.138863
    86  C   -0.026586
    87  C   -0.073319
    88  C   -0.019578
    89  C   -0.030649
    90  C   -0.050949
    91  C    0.162952
    92  O   -0.032743
   102  N    0.062040
   103  C    0.123133
   104  C    0.051922
   105  O   -0.305950
   106  C   -0.063450
   107  C    0.037278
   108  C    0.086429
   109  C    0.006590
   121  N    0.030078
   122  C    0.104406
   123  C    0.112400
   124  O   -0.284441
   125  C    0.207046
   126  O   -0.182703
   132  N    0.003607
   133  C    0.128338
   134  C    0.043951
   135  O   -0.237848
   136  C    0.097687
   142  N   -0.007237
   143  C    0.116431
   144  C    0.062732
   145  O   -0.303024
   146  C    0.069341
   152  N    0.003909
   153  C    0.111847
   154  C    0.075853
   155  O   -0.300228
   156  C   -0.032326
   157  C    0.106024
   158  C    0.190234
   159  O   -0.375078
   160  O   -0.478884
   167  N   -0.027077
   168  C    0.211771
   173  Ca   1.254394
   174  O    0.110287
 DipInt: DoE/N= T F RetVal/Mat= T F Init=T NMatP=  1 IDeriv=0 Min/MaxMlt=  0  4
 Entering OneElI...
 OneElI was handed  1333951383 working-precision words.
 Multipole integrals L=0 to 4 MinM= 0 MaxM= 0.
 Requested accuracy = 0.1000D-12
 ShPair: Thresh= 1.00D-13 NBox=     0 BxSize= 0.00D+00 RnKept= 2.55D+01
         NSMCal=               327645 NSMKep=              166157
 PrmmSu-InSpLW:  IPartL=    0 NPrtUS=    1 NPrtUL=    1 DoSpLW=F IThBeg=    0 IThEnd=    0 NThAct=    1.
 PrsmSu:  NPrtUS=   1 ThrOK=F IAlg=1 NPAlg=1 LenDen=           0 ISkipM=0 DoSpLW=F IThBeg=    0 IThEnd=    0.
 Prism:   IPart=     0 DynPar=F LinDyn=F Incr=         512.
 PRISM was handed  1323662247 working-precision words and166157 shell-pairs
 IPart=  0 NShTot=      166157 NBatch=         380 AvBLen=       437.3
 PrsmSu-ThDecC:  IPartSL=    0    0 NPrtUSL=    1    1 IThBeg=    0 IThEnd=    0 CPU=   -1 GPU=   -1 NThAct=    1.
 PrSmSu:  NxtVal=            513.
 Electronic moments (au):
       -716.00000000         10.45537255         -1.45937187         -1.19996907
     -49133.22199035     -28301.13697644     -13236.46597268        128.39384997
         -5.93058688         63.04937820        349.74181046     -28308.82036410
     -14256.64136139       8218.35187710     101247.59355716      29166.93433179
     -16357.65785959      -7620.37485214      12293.11764839     -45503.60491562
   -7049128.25484651   -2206925.39792353    -616227.46805864    -505597.95426128
     317891.53478563    -276624.04934437      22445.27625029     -50546.70954202
     -35699.24643037   -2130206.64013128    -673832.19631935    -431354.29641669
    -109345.15204498      27988.00537373     127551.89968683
 Electronic spatial extent (au):  <R**2>=          90670.8249
 DipInt: DoE/N= F T RetVal/Mat= T F Init=T NMatP=  1 IDeriv=0 Min/MaxMlt=  0  4
 Nuclear    moments (au):
        716.00000000         -0.00000000          0.00000000          0.00000000
      48756.96887311      27923.22143417      12850.90186003         -0.00000000
          0.00000000          0.00000000       1080.76499211      28415.39180422
      14159.41584312      -6561.54856975    -100368.70039567     -29133.65695743
      16459.85020763       7242.33195331     -12085.60420269      45780.88374127
    6882128.09617426    2108552.45599574     572661.59685059     528911.22961453
    -319573.95254864     288032.07297794     -16221.22208037      49904.91048047
      39151.22658612    2099223.95919323     641795.76413065     408006.64876016
     114094.95923245     -28256.50646994    -126233.86471717
 Total      moments (au):
         -0.00000000         10.45537255         -1.45937187         -1.19996907
       -376.25311723       -377.91554226       -385.56411265        128.39384997
         -5.93058688         63.04937820       1430.50680257        106.57144012
        -97.22551827       1656.80330736        878.89316150         33.27737436
        102.19234804       -378.04289883        207.51344570        277.27882565
    -167000.15867225     -98372.94192779     -43565.87120805      23313.27535325
      -1682.41776301      11408.02363358       6224.05416992       -641.79906155
       3451.98015575     -30982.68093804     -32036.43218871     -23347.64765653
       4749.80718748       -268.50109620       1318.03496966
 Traceless Quadrup. (au):
          3.65780681          1.99538178         -5.65318860        128.39384997
         -5.93058688         63.04937820
 Charge=             -0.0000 electrons
 Dipole moment (field-independent basis, Debye):
    X=             26.5749    Y=             -3.7094    Z=             -3.0500  Tot=             27.0053
 Quadrupole moment (field-independent basis, Debye-Ang):
   XX=           -506.0733   YY=           -508.3093   ZZ=           -518.5969
   XY=            172.6941   XZ=             -7.9768   YZ=             84.8036
 Traceless Quadrupole moment (field-independent basis, Debye-Ang):
   XX=              4.9199   YY=              2.6839   ZZ=             -7.6037
   XY=            172.6941   XZ=             -7.9768   YZ=             84.8036
 Octapole moment (field-independent basis, Debye-Ang**2):
  XXX=           1018.1796  YYY=             75.8534  ZZZ=            -69.2014  XYY=           1179.2488
  XXY=            625.5623  XXZ=             23.6856  XZZ=             72.7366  YZZ=           -269.0764
  YYZ=            147.7001  XYZ=            197.3564
 Hexadecapole moment (field-independent basis, Debye-Ang**3):
 XXXX=         -62900.2677 YYYY=         -37051.9671 ZZZZ=         -16408.9961 XXXY=           8780.8974
 XXXZ=           -633.6792 YYYX=           4296.8087 YYYZ=           2344.2773 ZZZX=           -241.7323
 ZZZY=           1300.1813 XXYY=         -11669.5633 XXZZ=         -12066.4566 YYZZ=          -8793.8437
 XXYZ=           1789.0051 YYXZ=           -101.1304 ZZXY=            496.4352
 N-N= 2.202599241156D+04 E-N=-5.653560022253D+04  KE= 5.290496476051D+03
 Leave Link  601 at Wed Sep 18 20:37:21 2019, MaxMem=  1342177280 cpu:              57.3 elap:               1.5
 FitSet:  NAtFit=   176 NAtPot=   176 NAtFrz=     0 MDM=   180 TotChg=   0.00000
 Merz-Kollman atomic radii used.
 Read replacement radii for each type of atom:
 Rad(20) =   1.700000000000D+00
 Atom Element Radius
    1     6    1.50
    2     6    1.50
    3     8    1.40
    4     1    1.20
    5     1    1.20
    6     1    1.20
    7     7    1.50
    8     6    1.50
    9     6    1.50
   10     8    1.40
   11     6    1.50
   12     6    1.50
   13     8    1.40
   14     8    1.40
   15     1    1.20
   16     1    1.20
   17     1    1.20
   18     1    1.20
   19     7    1.50
   20     6    1.50
   21     6    1.50
   22     8    1.40
   23     6    1.50
   24     6    1.50
   25     6    1.50
   26     6    1.50
   27     7    1.50
   28     1    1.20
   29     1    1.20
   30     1    1.20
   31     1    1.20
   32     1    1.20
   33     1    1.20
   34     1    1.20
   35     1    1.20
   36     1    1.20
   37     1    1.20
   38     1    1.20
   39     1    1.20
   40     1    1.20
   41     7    1.50
   42     6    1.50
   43     6    1.50
   44     8    1.40
   45     6    1.50
   46     6    1.50
   47     8    1.40
   48     8    1.40
   49     1    1.20
   50     1    1.20
   51     1    1.20
   52     1    1.20
   53     7    1.50
   54     6    1.50
   55     6    1.50
   56     8    1.40
   57     1    1.20
   58     1    1.20
   59     1    1.20
   60     7    1.50
   61     6    1.50
   62     6    1.50
   63     8    1.40
   64     6    1.50
   65     6    1.50
   66     7    1.50
   67     8    1.40
   68     1    1.20
   69     1    1.20
   70     1    1.20
   71     1    1.20
   72     1    1.20
   73     1    1.20
   74     7    1.50
   75     6    1.50
   76     6    1.50
   77     8    1.40
   78     1    1.20
   79     1    1.20
   80     1    1.20
   81     7    1.50
   82     6    1.50
   83     6    1.50
   84     8    1.40
   85     6    1.50
   86     6    1.50
   87     6    1.50
   88     6    1.50
   89     6    1.50
   90     6    1.50
   91     6    1.50
   92     8    1.40
   93     1    1.20
   94     1    1.20
   95     1    1.20
   96     1    1.20
   97     1    1.20
   98     1    1.20
   99     1    1.20
  100     1    1.20
  101     1    1.20
  102     7    1.50
  103     6    1.50
  104     6    1.50
  105     8    1.40
  106     6    1.50
  107     6    1.50
  108     6    1.50
  109     6    1.50
  110     1    1.20
  111     1    1.20
  112     1    1.20
  113     1    1.20
  114     1    1.20
  115     1    1.20
  116     1    1.20
  117     1    1.20
  118     1    1.20
  119     1    1.20
  120     1    1.20
  121     7    1.50
  122     6    1.50
  123     6    1.50
  124     8    1.40
  125     6    1.50
  126     8    1.40
  127     1    1.20
  128     1    1.20
  129     1    1.20
  130     1    1.20
  131     1    1.20
  132     7    1.50
  133     6    1.50
  134     6    1.50
  135     8    1.40
  136     6    1.50
  137     1    1.20
  138     1    1.20
  139     1    1.20
  140     1    1.20
  141     1    1.20
  142     7    1.50
  143     6    1.50
  144     6    1.50
  145     8    1.40
  146     6    1.50
  147     1    1.20
  148     1    1.20
  149     1    1.20
  150     1    1.20
  151     1    1.20
  152     7    1.50
  153     6    1.50
  154     6    1.50
  155     8    1.40
  156     6    1.50
  157     6    1.50
  158     6    1.50
  159     8    1.40
  160     8    1.40
  161     1    1.20
  162     1    1.20
  163     1    1.20
  164     1    1.20
  165     1    1.20
  166     1    1.20
  167     7    1.50
  168     6    1.50
  169     1    1.20
  170     1    1.20
  171     1    1.20
  172     1    1.20
  173    20    1.70
  174     8    1.40
  175     1    1.20
  176     1    1.20
[...]
 **** Fit      -0.020551
 **** Fit      -0.018664
 **** Fit      -0.016308
 **** Fit      -0.013106
 **** Fit      -0.009198
 **** Fit      -0.004819
 **** Fit      -0.000358
 **** Fit       0.003633
 **** Fit       0.006496
 **** Fit       0.007613
 **** Fit       0.006490
 **** Fit       0.002728
 **** Fit      -0.003920
 **** Fit      -0.013437
 **** Fit      -0.020436
 **** Fit      -0.020073
 **** Fit      -0.018029
 **** Fit      -0.015410
 **** Fit      -0.011844
 **** Fit      -0.007393
 **** Fit      -0.002200
 **** Fit       0.003443
 **** Fit       0.009025
 **** Fit       0.013830
 **** Fit       0.017098
 **** Fit      -0.020265
 **** Fit      -0.019664
 **** Fit      -0.017591
 **** Fit      -0.014628
 **** Fit      -0.010552
 **** Fit      -0.005353
 **** Fit       0.000903
 **** Fit       0.007979
 **** Fit       0.015343
 **** Fit       0.022119
 **** Fit       0.027283
 **** Fit      -0.020204
 **** Fit      -0.019455
 **** Fit      -0.017479
 **** Fit      -0.014268
 **** Fit      -0.009810
 **** Fit      -0.004021
 **** Fit       0.003125
 **** Fit       0.011482
 **** Fit       0.020560
 **** Fit       0.029376
 **** Fit      -0.020402
 **** Fit      -0.019517
 **** Fit      -0.017858
 **** Fit      -0.014439
 **** Fit      -0.009628
 **** Fit      -0.003263
 **** Fit       0.004764
 **** Fit       0.014368
 **** Fit       0.025056
 **** Fit       0.035676
 **** Fit      -0.021035
 **** Fit      -0.020032
 **** Fit      -0.018929
 **** Fit      -0.015395
 **** Fit      -0.010307
 **** Fit      -0.003414
 **** Fit       0.005447
 **** Fit       0.016190
 **** Fit       0.028199
 **** Fit      -0.021151
 **** Fit      -0.020937
 **** Fit      -0.017601
 **** Fit      -0.012591
 **** Fit      -0.005579
 **** Fit       0.003617
 **** Fit       0.014849
 **** Fit       0.027356
 **** Fit      -0.021372
 **** Fit       0.000619
 **** Fit       0.012710
 **** Fit       0.023020
 **** Fit       0.023255
 **** Fit       0.023452
 **** Fit       0.015554
 **** Fit       0.001610
 **** Fit      -0.005928
 **** Fit      -0.015785
 **** Fit      -0.015240
 **** Fit       0.018291
 **** Fit       0.020954
 **** Fit       0.016464
 **** Fit       0.016740
 **** Fit       0.014911
 **** Fit       0.014273
 **** Fit       0.013625
 **** Fit       0.011506
 **** Fit       0.007540
 **** Fit       0.001731
 **** Fit      -0.005953
 **** Fit       0.011561
 **** Fit       0.009003
 **** Fit       0.004919
 **** Fit      -0.000937
 **** Fit      -0.008638
 **** Fit      -0.018196
 **** Fit       0.006460
 **** Fit       0.001858
 **** Fit      -0.004522
 **** Fit      -0.012478
 **** Fit      -0.020944
 **** Fit       0.003323
 **** Fit      -0.002273
 **** Fit      -0.009512
 **** Fit      -0.016162
 **** Fit      -0.018954
 **** Fit      -0.000089
 **** Fit      -0.006566
 **** Fit      -0.011032
 **** Fit      -0.009098
 **** Fit      -0.004044
 **** Fit      -0.022591
 **** Fit      -0.025149
 **** Fit      -0.025127
 **** Fit      -0.029569
 **** Fit      -0.028325
 **** Fit      -0.001696
 **** Fit      -0.001214
 **** Fit      -0.000912
 **** Fit      -0.000807
 **** Fit      -0.000906
 **** Fit      -0.001216
 **** Fit      -0.001337
 **** Fit      -0.000939
 **** Fit      -0.000628
 **** Fit      -0.000466
 **** Fit      -0.000459
 **** Fit      -0.000598
 **** Fit      -0.000886
 **** Fit      -0.001342
 **** Fit      -0.001993
 **** Fit      -0.003283
 **** Fit      -0.000090
 **** Fit      -0.000101
 **** Fit      -0.000212
 **** Fit      -0.000408
 **** Fit      -0.000694
 **** Fit      -0.001090
 **** Fit      -0.001625
 **** Fit      -0.002339
 **** Fit      -0.003671
 **** Fit      -0.005023
 **** Fit       0.000203
 **** Fit       0.000006
 **** Fit      -0.000233
 **** Fit      -0.000515
 **** Fit      -0.000859
 **** Fit      -0.001299
 **** Fit      -0.001879
 **** Fit      -0.002650
 **** Fit      -0.004024
 **** Fit      -0.005434
 **** Fit      -0.007315
 **** Fit       0.000138
 **** Fit      -0.000165
 **** Fit      -0.000463
 **** Fit      -0.000772
 **** Fit      -0.001123
 **** Fit      -0.001564
 **** Fit      -0.002155
 **** Fit      -0.002956
 **** Fit      -0.007766
 **** Fit      -0.010415
 **** Fit      -0.014177
 **** Fit      -0.000148
 **** Fit      -0.000500
 **** Fit      -0.000812
 **** Fit      -0.001102
 **** Fit      -0.010750
 **** Fit      -0.014385
 **** Fit      -0.019727
 **** Fit      -0.000239
 **** Fit      -0.000677
 **** Fit      -0.001036
 **** Fit      -0.014761
 **** Fit      -0.019889
 **** Fit      -0.000902
 **** Fit      -0.001381
 **** Fit      -0.015810
 **** Fit      -0.001627
 **** Fit      -0.002228
 **** Fit      -0.016958
 **** Fit      -0.002664
 **** Fit      -0.003456
 **** Fit      -0.003075
 **** Fit      -0.004120
 **** Fit      -0.004277
 **** Fit      -0.005554
 **** Fit      -0.007172
 **** Fit      -0.007016
 **** Fit      -0.009139
 **** Fit      -0.009342
 **** Fit      -0.011403
 **** Fit      -0.000827
 **** Fit      -0.000508
 **** Fit      -0.000535
 **** Fit      -0.000269
 **** Fit      -0.000027
 **** Fit       0.000095
 **** Fit      -0.000258
 **** Fit       0.000052
 **** Fit       0.000258
 **** Fit       0.000327
 **** Fit      -0.000590
 **** Fit      -0.000160
 **** Fit       0.000192
 **** Fit       0.000402
 **** Fit       0.000455
 **** Fit       0.000379
 **** Fit      -0.000662
 **** Fit      -0.000158
 **** Fit       0.000224
 **** Fit       0.000441
 **** Fit       0.000480
 **** Fit       0.000367
 **** Fit       0.000162
 **** Fit      -0.001280
 **** Fit      -0.000632
 **** Fit      -0.000096
 **** Fit       0.000262
 **** Fit       0.000402
 **** Fit       0.000328
 **** Fit       0.000084
 **** Fit      -0.002145
 **** Fit      -0.001386
 **** Fit      -0.000680
 **** Fit      -0.000144
 **** Fit       0.000148
 **** Fit       0.000171
 **** Fit      -0.000053
 **** Fit      -0.000457
 **** Fit      -0.002778
 **** Fit      -0.001874
 **** Fit      -0.001048
 **** Fit      -0.000458
 **** Fit      -0.000185
 **** Fit      -0.000250
 **** Fit      -0.000620
 **** Fit      -0.001214
 **** Fit      -0.003317
 **** Fit      -0.002171
 **** Fit      -0.001286
 **** Fit      -0.000807
 **** Fit      -0.000789
 **** Fit      -0.001220
 **** Fit      -0.002016
 **** Fit      -0.006138
 **** Fit      -0.004488
 **** Fit      -0.003005
 **** Fit      -0.002005
 **** Fit      -0.001633
 **** Fit      -0.001934
 **** Fit      -0.002860
 **** Fit      -0.004380
 **** Fit      -0.003295
 **** Fit      -0.003163
 **** Fit      -0.004011
 **** Fit      -0.005659
 **** Fit      -0.003369
 **** Fit      -0.001861
 **** Fit      -0.002501
 **** Fit      -0.003629
 **** Fit      -0.004766
 **** Fit      -0.006395
 **** Fit      -0.001386
 **** Fit      -0.001776
 **** Fit      -0.002233
 **** Fit      -0.002823
 **** Fit      -0.004048
 **** Fit      -0.005059
 **** Fit      -0.006502
 **** Fit      -0.008602
 **** Fit      -0.001676
 **** Fit      -0.002007
 **** Fit      -0.002362
 **** Fit      -0.002783
 **** Fit      -0.003322
 **** Fit      -0.004764
 **** Fit      -0.005697
 **** Fit      -0.007033
 **** Fit      -0.008996
 **** Fit      -0.002129
 **** Fit      -0.002480
 **** Fit      -0.002818
 **** Fit      -0.003173
 **** Fit      -0.003581
 **** Fit      -0.004090
 **** Fit      -0.005921
 **** Fit      -0.006754
 **** Fit      -0.007935
 **** Fit      -0.009659
 **** Fit      -0.012237
 **** Fit      -0.002869
 **** Fit      -0.003299
 **** Fit      -0.003692
 **** Fit      -0.004064
 **** Fit      -0.004435
 **** Fit      -0.004835
 **** Fit      -0.005310
 **** Fit      -0.007689
 **** Fit      -0.008429
 **** Fit      -0.009476
 **** Fit      -0.011001
 **** Fit      -0.013262
 **** Fit      -0.016663
 **** Fit      -0.003826
 **** Fit      -0.004414
 **** Fit      -0.004957
 **** Fit      -0.005449
 **** Fit      -0.005889
 **** Fit      -0.006295
 **** Fit      -0.006696
 **** Fit      -0.007140
 **** Fit      -0.010284
 **** Fit      -0.010941
 **** Fit      -0.011898
 **** Fit      -0.013323
 **** Fit      -0.015451
 **** Fit      -0.018603
 **** Fit      -0.005597
 **** Fit      -0.006426
 **** Fit      -0.007212
 **** Fit      -0.007906
 **** Fit      -0.008487
 **** Fit      -0.008967
 **** Fit      -0.009384
 **** Fit      -0.009798
 **** Fit      -0.013998
 **** Fit      -0.014522
 **** Fit      -0.015346
 **** Fit      -0.016646
 **** Fit      -0.018620
 **** Fit      -0.009154
 **** Fit      -0.010360
 **** Fit      -0.011412
 **** Fit      -0.012239
 **** Fit      -0.012843
 **** Fit      -0.013276
 **** Fit      -0.013625
 **** Fit      -0.019256
 **** Fit      -0.019500
 **** Fit      -0.020030
 **** Fit      -0.021016
 **** Fit      -0.022578
 **** Fit      -0.013157
 **** Fit      -0.014997
 **** Fit      -0.016600
 **** Fit      -0.017787
 **** Fit      -0.018539
 **** Fit      -0.018939
 **** Fit      -0.019125
 **** Fit      -0.026327
 **** Fit      -0.026778
 **** Fit      -0.004466
 **** Fit      -0.004171
 **** Fit      -0.005805
 **** Fit      -0.006281
 **** Fit      -0.004910
 **** Fit      -0.003477
 **** Fit      -0.003184
 **** Fit      -0.004051
 **** Fit      -0.005744
 **** Fit      -0.007626
 **** Fit      -0.008914
 **** Fit      -0.008836
 **** Fit      -0.007415
 **** Fit      -0.005454
 **** Fit      -0.003789
 **** Fit      -0.002732
 **** Fit      -0.002238
 **** Fit      -0.002282
 **** Fit      -0.002881
 **** Fit      -0.004121
 **** Fit      -0.005765
 **** Fit      -0.007836
 **** Fit      -0.010102
 **** Fit      -0.012019
 **** Fit      -0.012911
 **** Fit      -0.012413
 **** Fit      -0.010712
 **** Fit      -0.008367
 **** Fit      -0.006014
 **** Fit      -0.004152
 **** Fit      -0.002919
 **** Fit      -0.002141
 **** Fit      -0.001674
 **** Fit      -0.001500
 **** Fit      -0.001639
 **** Fit      -0.002107
 **** Fit      -0.002921
 **** Fit      -0.004386
 **** Fit      -0.006074
 **** Fit      -0.008277
 **** Fit      -0.010986
 **** Fit      -0.013956
 **** Fit      -0.016624
 **** Fit      -0.018238
 **** Fit      -0.018276
 **** Fit      -0.016757
 **** Fit      -0.014139
 **** Fit      -0.010993
 **** Fit      -0.007838
 **** Fit      -0.002444
 **** Fit      -0.001521
 **** Fit      -0.002186
 **** Fit      -0.003121
 **** Fit      -0.004840
 **** Fit      -0.006640
 **** Fit      -0.009029
 **** Fit      -0.012136
 **** Fit      -0.015945
 **** Fit      -0.020117
 **** Fit      -0.024384
 **** Fit      -0.020982
 **** Fit      -0.016854
 **** Fit      -0.003474
 **** Fit      -0.005468
 **** Fit      -0.007373
 **** Fit      -0.009904
 **** Fit      -0.013293
 **** Fit      -0.017731
 **** Fit      -0.025122
 **** Fit      -0.011284
 **** Fit      -0.015268
 **** Fit      -0.017262
 **** Fit       0.002741
 **** Fit       0.007756
 **** Fit       0.015541
 **** Fit      -0.003898
 **** Fit      -0.007684
 **** Fit      -0.013566
 **** Fit       0.011012
 **** Fit       0.007152
 **** Fit       0.003592
 **** Fit      -0.000523
 **** Fit      -0.005478
 **** Fit      -0.000741
 **** Fit       0.006008
 **** Fit       0.044538
 **** Fit       0.041744
 **** Fit       0.038936
 **** Fit       0.035875
 **** Fit       0.015920
 **** Fit       0.016936
 **** Fit       0.012852
 **** Fit       0.008910
 **** Fit       0.004789
 **** Fit       0.000646
 **** Fit      -0.002767
 **** Fit      -0.004476
 **** Fit      -0.004094
 **** Fit       0.000559
 **** Fit       0.004364
 **** Fit       0.009685
 **** Fit       0.016409
 **** Fit       0.023894
 **** Fit       0.031309
 **** Fit       0.037727
 **** Fit       0.042309
 **** Fit       0.044682
 **** Fit       0.045072
 **** Fit       0.044052
 **** Fit       0.042227
 **** Fit       0.039993
 **** Fit       0.037440
 **** Fit       0.034412
 **** Fit       0.030681
 **** Fit       0.026232
 **** Fit       0.021460
 **** Fit       0.020813
 **** Fit       0.016836
 **** Fit       0.013001
 **** Fit       0.009370
 **** Fit       0.006363
 **** Fit       0.004631
 **** Fit       0.004562
 **** Fit       0.006020
 **** Fit       0.008787
 **** Fit       0.012907
 **** Fit       0.018310
 **** Fit       0.024478
 **** Fit       0.030573
 **** Fit       0.035687
 **** Fit       0.039144
 **** Fit       0.040756
 **** Fit       0.040798
 **** Fit       0.039741
 **** Fit       0.037961
 **** Fit       0.035601
 **** Fit       0.032620
 **** Fit       0.028998
 **** Fit       0.024941
 **** Fit       0.023389
 **** Fit       0.019542
 **** Fit       0.016007
 **** Fit       0.013191
 **** Fit       0.011684
 **** Fit       0.011890
 **** Fit       0.013833
 **** Fit       0.017378
 **** Fit       0.022197
 **** Fit       0.027529
 **** Fit       0.032326
 **** Fit       0.035694
 **** Fit       0.037276
 **** Fit       0.037255
 **** Fit       0.036021
 **** Fit       0.033853
 **** Fit       0.030879
 **** Fit       0.027280
 **** Fit       0.025097
 **** Fit       0.021308
 **** Fit       0.018465
 **** Fit       0.017517
 **** Fit       0.018998
 **** Fit       0.022667
 **** Fit       0.027442
 **** Fit       0.031621
 **** Fit       0.033860
 **** Fit       0.033880
 **** Fit       0.032078
 **** Fit       0.028947
 **** Fit       0.026202
 **** Fit       0.022947
 **** Fit       0.023315
 **** Fit       0.027257
 **** Fit       0.030457
 **** Fit       0.029775
 **** Fit       0.026879
 **** Fit       0.010720
 **** Fit       0.029778
 **** Fit       0.024708
 **** Fit       0.020956
 **** Fit       0.038367
 **** Fit       0.033123
 **** Fit       0.029349
 **** Fit       0.026849
 **** Fit       0.041126
 **** Fit       0.036882
 **** Fit       0.033951
 **** Fit       0.032159
 **** Fit       0.045626
 **** Fit       0.041417
 **** Fit       0.038544
 **** Fit       0.036737
 **** Fit       0.045676
 **** Fit       0.042586
 **** Fit       0.040549
 **** Fit       0.039376
 **** Fit       0.048567
 **** Fit       0.045578
 **** Fit       0.043495
 **** Fit       0.042184
 **** Fit       0.041501
 **** Fit       0.048888
 **** Fit       0.046580
 **** Fit       0.044915
 **** Fit       0.043916
 **** Fit       0.043504
 **** Fit       0.049227
 **** Fit       0.048267
 **** Fit       0.046934
 **** Fit       0.045875
 **** Fit       0.045358
 **** Fit       0.045480
 **** Fit       0.041787
 **** Fit       0.045331
 **** Fit       0.046843
 **** Fit       0.046922
 **** Fit       0.046606
 **** Fit       0.046633
 **** Fit       0.045267
 **** Fit       0.046527
 -----------------------------------------------------------------
 Leave Link  602 at Wed Sep 18 20:37:23 2019, MaxMem=  1342177280 cpu:             108.1 elap:               2.4

 Test job not archived.
 1\1\GINC-C501-113\SP\RB3LYP\SVP\C54H83Ca1N15O23\JAEBEOMH\18-Sep-2019\0
 \\#b3lyp/svp scf=(tight,noincore) Test #IOP(5/87=12) Density=Current P
 op=(MK,readradii) iop(6/33=2) iop(6/42=6)\\holoCaM_loop3_60.0\\0,1\C,0
 ,77.57,52.12,90.33\C,0,78.41,53.,89.42\O,0,78.9,52.54,88.39\H,0,76.598
 ,51.946,89.869\H,0,78.076,51.166,90.482\H,0,77.433,52.616,91.291\N,0,7
 8.51,54.3,89.71\C,0,79.23,55.29,88.94\C,0,80.61,55.61,89.48\O,0,80.74,
 55.97,90.65\C,0,78.28,56.49,88.82\C,0,78.9,57.57,87.94\O,0,78.65,57.59
 ,86.72\O,0,79.59,58.48,88.43\H,0,78.12,54.61,90.59\H,0,79.37,54.83,87.
 96\H,0,78.1,56.9,89.81\H,0,77.32,56.23,88.37\N,0,81.53,55.71,88.52\C,0
 ,82.93,55.9,88.84\C,0,83.68,57.09,88.24\O,0,84.84,57.34,88.54\C,0,83.6
 ,54.57,88.51\C,0,83.14,53.31,89.24\C,0,83.81,52.09,88.61\C,0,83.62,50.
 76,89.34\N,0,84.56,49.73,88.86\H,0,81.19,55.5,87.59\H,0,83.,55.99,89.9
 2\H,0,84.69,54.61,88.59\H,0,83.49,54.42,87.43\H,0,82.06,53.23,89.07\H,
 0,83.46,53.44,90.27\H,0,84.85,52.37,88.51\H,0,83.54,52.02,87.56\H,0,82
 .6,50.44,89.15\H,0,83.62,50.87,90.42\H,0,84.88,49.92,87.92\H,0,85.4,49
 .96,89.37\H,0,84.33,48.76,89.04\N,0,82.96,57.9,87.46\C,0,83.55,58.99,8
 6.71\C,0,82.88,60.32,87.03\O,0,83.37,61.41,86.74\C,0,83.54,58.73,85.21
 \C,0,82.17,58.37,84.64\O,0,82.02,57.2,84.23\O,0,81.22,59.18,84.68\H,0,
 82.01,57.63,87.27\H,0,84.61,59.06,86.94\H,0,84.22,57.9,85.03\H,0,83.81
 ,59.58,84.58\N,0,81.75,60.31,87.74\C,0,80.97,61.4,88.3\C,0,79.8,61.94,
 87.5\O,0,79.11,62.82,88.01\H,0,81.38,59.4,87.97\H,0,81.7,62.18,88.5\H,
 0,80.52,61.02,89.22\N,0,79.43,61.44,86.31\C,0,78.27,61.88,85.57\C,0,76
 .96,61.21,85.97\O,0,75.88,61.6,85.54\C,0,78.57,61.95,84.07\C,0,78.33,6
 0.63,83.35\N,0,78.25,60.62,82.01\O,0,78.18,59.55,83.91\H,0,80.12,60.81
 ,85.92\H,0,78.22,62.95,85.77\H,0,79.59,62.3,83.93\H,0,77.82,62.58,83.5
 8\H,0,78.36,61.45,81.44\H,0,78.13,59.73,81.56\N,0,77.07,60.08,86.67\C,
 0,75.98,59.29,87.2\C,0,75.44,58.21,86.27\O,0,74.95,57.18,86.72\H,0,77.
 99,59.7,86.87\H,0,75.23,59.92,87.68\H,0,76.47,58.64,87.92\N,0,75.55,58
 .4,84.95\C,0,75.,57.52,83.94\C,0,75.94,56.34,83.74\O,0,77.07,56.65,83.
 39\C,0,74.79,58.27,82.63\C,0,74.05,59.57,82.75\C,0,74.16,60.39,81.61\C
 ,0,73.08,59.87,83.72\C,0,73.41,61.55,81.44\C,0,72.33,61.04,83.62\C,0,7
 2.54,61.88,82.5\O,0,71.91,63.09,82.52\H,0,75.96,59.28,84.65\H,0,74.02,
 57.22,84.31\H,0,74.19,57.6,82.02\H,0,75.75,58.43,82.14\H,0,74.93,60.1,
 80.92\H,0,72.94,59.26,84.6\H,0,73.52,62.14,80.54\H,0,71.49,61.22,84.27
 \H,0,71.44,63.25,83.34\N,0,75.42,55.13,83.97\C,0,76.28,53.96,83.92\C,0
 ,76.77,53.77,82.5\O,0,75.92,53.99,81.64\C,0,75.69,52.74,84.63\C,0,75.0
 9,53.25,85.94\C,0,76.6,51.53,84.8\C,0,76.,53.91,86.97\H,0,74.42,55.15,
 83.96\H,0,77.19,54.2,84.47\H,0,74.89,52.42,83.97\H,0,74.67,52.35,86.4\
 H,0,74.22,53.89,85.81\H,0,76.07,50.67,85.23\H,0,76.97,51.25,83.81\H,0,
 77.41,51.71,85.5\H,0,76.88,53.3,87.18\H,0,76.27,54.96,86.93\H,0,75.6,5
 3.99,87.98\N,0,78.03,53.4,82.27\C,0,78.55,53.08,80.95\C,0,78.93,51.62,
 80.76\O,0,78.8,50.88,81.74\C,0,79.7,54.01,80.59\O,0,80.72,53.87,81.56\
 H,0,78.62,53.39,83.09\H,0,77.78,53.26,80.21\H,0,79.44,55.07,80.62\H,0,
 80.06,53.74,79.59\H,0,80.47,54.25,82.4\N,0,79.39,51.23,79.57\C,0,79.84
 ,49.88,79.31\C,0,80.84,49.36,80.34\O,0,80.77,48.25,80.85\C,0,80.53,49.
 83,77.95\H,0,79.41,51.89,78.81\H,0,78.97,49.22,79.31\H,0,79.84,50.3,77
 .25\H,0,81.44,50.44,77.95\H,0,80.96,48.89,77.6\N,0,81.84,50.17,80.7\C,
 0,82.93,50.01,81.64\C,0,82.61,50.01,83.13\O,0,83.34,49.44,83.94\C,0,83
 .94,51.11,81.33\H,0,82.,50.98,80.12\H,0,83.54,49.11,81.55\H,0,84.41,50
 .82,80.39\H,0,83.4,52.05,81.21\H,0,84.75,51.29,82.02\N,0,81.45,50.56,8
 3.48\C,0,81.01,50.58,84.86\C,0,79.91,49.56,85.15\O,0,79.92,49.01,86.25
 \C,0,80.38,51.93,85.19\C,0,81.37,53.09,85.15\C,0,80.58,54.39,85.07\O,0
 ,80.53,55.27,85.95\O,0,79.87,54.63,84.06\H,0,80.97,51.11,82.78\H,0,81.
 81,50.52,85.6\H,0,79.96,51.86,86.2\H,0,79.57,52.21,84.51\H,0,82.09,53.
 08,84.33\H,0,81.95,53.17,86.07\N,0,79.1,49.24,84.14\C,0,78.07,48.21,84
 .16\H,0,77.183,48.574,83.641\H,0,78.441,47.315,83.661\H,0,77.814,47.97
 1,85.192\H,0,79.23,49.75,83.28\Ca,0,79.49,57.23,84.37\O,0,80.11,57.18,
 81.91\H,0,80.9,57.22,81.36\H,0,79.43,57.57,81.37\\Version=ES64L-G16Rev
 A.03\State=1-A\HF=-5333.6285802\RMSD=3.558e-09\Dipole=3.8751246,-9.394
 8933,-3.0990153\Quadrupole=11.2820385,-50.0803608,38.7983224,-93.91686
 53,23.543872,-95.2629341\PG=C01 [X(C54H83Ca1N15O23)]\\@


 THE ENLIGHTENED ONE, BECAUSE HE SAW MANKIND DROWNING  
 IN THE GREAT SEA OF BIRTH, DEATH, AND SORROW, LONGED TO SAVE 
 THEM, FOR THIS HE WAS MOVED TO PITY.                         
 BECAUSE HE SAW MEN OF THE WORLD STRAYING IN FALSE PATHS, AND 
 NONE TO GUIDE THEM, FOR THIS HE WAS MOVED TO PITY.           
                     ..................                       
 BECAUSE HE SAW THE MEN OF THE WORLD PLOUGHING THEIR FIELDS,  
 SOWING THE SEED, TRAFFICKING, HUCKSTERING, BUYING, SELLING,  
 AND AT THE END WINNOWING NOTHING BUT BITTERNESS,             
 FOR THIS HE WAS MOVED TO PITY......                   
                   BUDAH'S PITY - UPSAKA SILA SUTRA           
 Job cpu time:       0 days  7 hours 43 minutes 25.8 seconds.
 Elapsed time:       0 days  0 hours  9 minutes 45.9 seconds.
 File lengths (MBytes):  RWF=   1517 Int=      0 D2E=      0 Chk=    171 Scr=      1
 Normal termination of Gaussian 16 at Wed Sep 18 20:37:25 2019.
