 Entering Gaussian System, Link 0=g16
 Initial command:
 /home1/apps/gaussian/16rA.03/g16/l1.exe "/scratch/04905/jaebeomh/4357448/Gau-178547.inp" -scrdir="/scratch/04905/jaebeomh/4357448/"
 Entering Link 1 = /home1/apps/gaussian/16rA.03/g16/l1.exe PID=    178548.
  
 Copyright (c) 1988,1990,1992,1993,1995,1998,2003,2009,2016,
            Gaussian, Inc.  All Rights Reserved.
  
 This is part of the Gaussian(R) 16 program.  It is based on
 the Gaussian(R) 09 system (copyright 2009, Gaussian, Inc.),
 the Gaussian(R) 03 system (copyright 2003, Gaussian, Inc.),
 the Gaussian(R) 98 system (copyright 1998, Gaussian, Inc.),
 the Gaussian(R) 94 system (copyright 1995, Gaussian, Inc.),
 the Gaussian 92(TM) system (copyright 1992, Gaussian, Inc.),
 the Gaussian 90(TM) system (copyright 1990, Gaussian, Inc.),
 the Gaussian 88(TM) system (copyright 1988, Gaussian, Inc.),
 the Gaussian 86(TM) system (copyright 1986, Carnegie Mellon
 University), and the Gaussian 82(TM) system (copyright 1983,
 Carnegie Mellon University). Gaussian is a federally registered
 trademark of Gaussian, Inc.
  
 This software contains proprietary and confidential information,
 including trade secrets, belonging to Gaussian, Inc.
  
 This software is provided under written license and may be
 used, copied, transmitted, or stored only in accord with that
 written license.
  
 The following legend is applicable only to US Government
 contracts under FAR:
  
                    RESTRICTED RIGHTS LEGEND
  
 Use, reproduction and disclosure by the US Government is
 subject to restrictions as set forth in subparagraphs (a)
 and (c) of the Commercial Computer Software - Restricted
 Rights clause in FAR 52.227-19.
  
 Gaussian, Inc.
 340 Quinnipiac St., Bldg. 40, Wallingford CT 06492
  
  
 ---------------------------------------------------------------
 Warning -- This program may not be used in any manner that
 competes with the business of Gaussian, Inc. or will provide
 assistance to any competitor of Gaussian, Inc.  The licensee
 of this program is prohibited from giving any competitor of
 Gaussian, Inc. access to this program.  By using this program,
 the user acknowledges that Gaussian, Inc. is engaged in the
 business of creating and licensing software in the field of
 computational chemistry and represents and warrants to the
 licensee that it is not a competitor of Gaussian, Inc. and that
 it will not use this program in any manner prohibited above.
 ---------------------------------------------------------------
  

 Cite this work as:
 Gaussian 16, Revision A.03,
 M. J. Frisch, G. W. Trucks, H. B. Schlegel, G. E. Scuseria, 
 M. A. Robb, J. R. Cheeseman, G. Scalmani, V. Barone, 
 G. A. Petersson, H. Nakatsuji, X. Li, M. Caricato, A. V. Marenich, 
 J. Bloino, B. G. Janesko, R. Gomperts, B. Mennucci, H. P. Hratchian, 
 J. V. Ortiz, A. F. Izmaylov, J. L. Sonnenberg, D. Williams-Young, 
 F. Ding, F. Lipparini, F. Egidi, J. Goings, B. Peng, A. Petrone, 
 T. Henderson, D. Ranasinghe, V. G. Zakrzewski, J. Gao, N. Rega, 
 G. Zheng, W. Liang, M. Hada, M. Ehara, K. Toyota, R. Fukuda, 
 J. Hasegawa, M. Ishida, T. Nakajima, Y. Honda, O. Kitao, H. Nakai, 
 T. Vreven, K. Throssell, J. A. Montgomery, Jr., J. E. Peralta, 
 F. Ogliaro, M. J. Bearpark, J. J. Heyd, E. N. Brothers, K. N. Kudin, 
 V. N. Staroverov, T. A. Keith, R. Kobayashi, J. Normand, 
 K. Raghavachari, A. P. Rendell, J. C. Burant, S. S. Iyengar, 
 J. Tomasi, M. Cossi, J. M. Millam, M. Klene, C. Adamo, R. Cammi, 
 J. W. Ochterski, R. L. Martin, K. Morokuma, O. Farkas, 
 J. B. Foresman, and D. J. Fox, Gaussian, Inc., Wallingford CT, 2016.
 
 ******************************************
 Gaussian 16:  ES64L-G16RevA.03 25-Dec-2016
                18-Sep-2019 
 ******************************************
 %chk=holoCaM_loop3_34.0.chk
 %nprocshared=48
 Will use up to   48 processors via shared memory.
 %mem=10GB
 %nosave
 ----------------------------------------------------------------------
 #b3lyp/svp scf=(tight,noincore) Test #IOP(5/87=12) Density=Current Pop
 =(MK,readradii) iop(6/33=2) iop(6/42=6)
 ----------------------------------------------------------------------
 1/30=1,38=1,172=1/1;
 2/12=2,17=6,18=5,40=1/2;
 3/5=18,7=101,11=2,25=1,30=1,74=-5/1,2,3;
 4//1;
 5/5=4,32=2,38=5,87=12/2;
 6/7=2,8=2,9=2,10=2,15=8,20=101,22=-1,28=1,33=2,42=6/1,2;
 99/5=1,9=1/99;
 ------------------
 holoCaM_loop3_34.0
 ------------------
 Symbolic Z-matrix:
 Charge =  0 Multiplicity = 1
 C                     48.56     51.74     43.8 
 C                     49.09     51.37     45.18 
 O                     48.32     51.27     46.14 
 H                     47.68     52.374    43.907 
 H                     49.329    52.279    43.247 
 H                     48.29     50.833    43.259 
 N                     50.4      51.18     45.32 
 C                     51.09     51.14     46.59 
 C                     51.47     52.53     47.1 
 O                     52.66     52.84     47.05 
 C                     52.33     50.28     46.38 
 C                     52.89     49.75     47.69 
 O                     52.39     50.09     48.78 
 O                     53.88     48.98     47.73 
 H                     50.93     51.12     44.46 
 H                     50.47     50.73     47.38 
 H                     53.04     50.65     45.64 
 H                     52.01     49.39     45.84 
 N                     50.51     53.27     47.67 
 C                     50.71     54.62     48.16 
 C                     51.9      54.85     49.08 
 O                     52.63     55.81     48.88 
 C                     49.42     55.04     48.86 
 C                     49.18     56.54     49.06 
 C                     47.83     56.64     49.76 
 C                     47.3      58.03     50.1 
 N                     48.09     58.74     51.11 
 H                     49.55     52.96     47.58 
 H                     50.99     55.26     47.32 
 H                     49.38     54.53     49.82 
 H                     48.61     54.68     48.23 
 H                     49.07     57.11     48.14 
 H                     50.02     56.87     49.66 
 H                     47.88     56.2      50.76 
 H                     47.04     56.16     49.17 
 H                     46.24     58.06     50.37 
 H                     47.43     58.6      49.18 
 H                     48.95     59.12     50.75 
 H                     47.63     59.61     51.35 
 H                     48.24     58.27     51.99 
 N                     52.08     54.02     50.11 
 C                     53.18     54.09     51.06 
 C                     54.43     53.3      50.72 
 O                     55.41     53.36     51.46 
 C                     52.67     53.62     52.42 
 C                     52.06     52.24     52.54 
 O                     52.37     51.38     51.69 
 O                     51.41     51.89     53.56 
 H                     51.49     53.21     50.19 
 H                     53.42     55.15     51.07 
 H                     51.82     54.27     52.64 
 H                     53.38     53.83     53.22 
 N                     54.39     52.57     49.61 
 C                     55.49     51.89     48.97 
 C                     56.12     50.73     49.72 
 O                     57.35     50.62     49.72 
 H                     53.54     52.47     49.06 
 H                     56.31     52.58     48.76 
 H                     55.09     51.54     48.02 
 N                     55.28     50.02     50.48 
 C                     55.75     49.01     51.4 
 C                     55.84     47.61     50.8 
 O                     56.15     46.65     51.5 
 C                     54.96     49.15     52.7 
 C                     53.56     48.53     52.73 
 N                     52.89     48.33     53.87 
 O                     52.95     48.27     51.7 
 H                     54.3      50.28     50.44 
 H                     56.77     49.29     51.65 
 H                     54.8      50.2      52.95 
 H                     55.59     48.8      53.52 
 H                     53.23     48.77     54.71 
 H                     51.99     47.92     53.69 
 N                     55.59     47.46     49.5 
 C                     55.63     46.17     48.83 
 C                     54.31     45.46     48.58 
 O                     54.36     44.25     48.34 
 H                     55.17     48.2      48.96 
 H                     56.29     45.51     49.4 
 H                     56.05     46.37     47.85 
 N                     53.14     46.07     48.73 
 C                     51.85     45.41     48.8 
 C                     50.78     46.49     48.66 
 O                     50.97     47.6      49.16 
 C                     51.6      44.81     50.17 
 C                     52.44     43.64     50.6 
 C                     53.59     43.83     51.38 
 C                     52.02     42.33     50.31 
 C                     54.42     42.77     51.77 
 C                     52.84     41.27     50.69 
 C                     54.03     41.46     51.43 
 O                     54.84     40.45     51.84 
 H                     53.11     47.08     48.71 
 H                     51.67     44.74     47.96 
 H                     50.56     44.49     50.27 
 H                     51.75     45.65     50.85 
 H                     53.87     44.85     51.62 
 H                     51.04     42.2      49.86 
 H                     55.38     42.93     52.24 
 H                     52.52     40.26     50.49 
 H                     54.38     39.63     51.61 
 N                     49.74     46.12     47.91 
 C                     48.58     46.99     47.81 
 C                     47.58     46.41     48.8 
 O                     47.36     45.21     48.88 
 C                     48.1      47.07     46.36 
 C                     49.11     47.85     45.51 
 C                     46.73     47.72     46.16 
 C                     49.09     47.27     44.1 
 H                     49.72     45.28     47.35 
 H                     48.88     47.99     48.12 
 H                     48.08     46.02     46.1 
 H                     50.14     47.82     45.87 
 H                     48.89     48.91     45.48 
 H                     46.42     47.57     45.13 
 H                     45.96     47.35     46.84 
 H                     46.71     48.8      46.27 
 H                     48.08     47.47     43.75 
 H                     49.84     47.83     43.54 
 H                     49.29     46.2      44.14 
 N                     46.9      47.27     49.56 
 C                     45.81     46.97     50.47 
 C                     44.44     47.37     49.95 
 O                     44.47     48.36     49.23 
 C                     46.05     47.76     51.76 
 O                     46.24     49.14     51.57 
 H                     47.14     48.24     49.4 
 H                     45.88     45.9      50.71 
 H                     46.91     47.39     52.32 
 H                     45.24     47.57     52.45 
 H                     47.1      49.32     51.2 
 N                     43.35     46.75     50.42 
 C                     41.98     47.22     50.4 
 C                     41.83     48.71     50.63 
 O                     41.29     49.46     49.81 
 C                     41.29     46.46     51.53 
 H                     43.46     45.87     50.9 
 H                     41.47     46.97     49.47 
 H                     41.52     45.4      51.43 
 H                     41.69     46.78     52.49 
 H                     40.22     46.61     51.41 
 N                     42.45     49.24     51.69 
 C                     42.41     50.68     51.9 
 C                     43.04     51.59     50.86 
 O                     42.53     52.67     50.58 
 C                     42.99     51.05     53.26 
 H                     43.       48.72     52.35 
 H                     41.35     50.88     52.04 
 H                     42.67     50.41     54.08 
 H                     44.08     51.07     53.21 
 H                     42.79     52.11     53.41 
 N                     44.17     51.18     50.28 
 C                     44.71     51.93     49.17 
 C                     43.86     51.73     47.92 
 O                     43.73     52.74     47.23 
 C                     46.08     51.35     48.81 
 C                     47.08     51.77     49.88 
 C                     48.38     50.97     49.9 
 O                     48.38     49.74     50.11 
 O                     49.47     51.56     49.79 
 H                     44.51     50.25     50.44 
 H                     44.73     52.95     49.53 
 H                     46.35     51.73     47.83 
 H                     46.02     50.26     48.91 
 H                     46.66     51.65     50.87 
 H                     47.37     52.81     49.76 
 N                     43.25     50.57     47.67 
 C                     42.52     50.26     46.46 
 H                     41.621    50.874    46.411 
 H                     43.148    50.466    45.593 
 H                     42.24     49.207    46.464 
 H                     43.43     49.84     48.35 
 Ca                    50.87     49.65     50.8 
 O                     49.37     50.32     52.79 
 H                     49.21     49.83     53.6 
 H                     49.72     51.16     53.09 
 
 Stoichiometry    C54H83CaN15O23
 Framework group  C1[X(C54H83CaN15O23)]
 Deg. of freedom   522
 Full point group                 C1      NOp   1
 Largest Abelian subgroup         C1      NOp   1
 Largest concise Abelian subgroup C1      NOp   1
                         Standard orientation:                         
 ---------------------------------------------------------------------
 Center     Atomic      Atomic             Coordinates (Angstroms)
 Number     Number       Type             X           Y           Z
 ---------------------------------------------------------------------
      1          6           0        2.232603    1.705779    5.609475
      2          6           0        1.517977    1.507309    4.278265
      3          8           0        2.138447    1.107927    3.288309
      4          1           0        3.271817    1.978529    5.426587
      5          1           0        1.743158    2.501650    6.170478
      6          1           0        2.196238    0.779693    6.183297
      7          7           0        0.220057    1.795217    4.212599
      8          6           0       -0.519173    1.965442    2.981680
      9          6           0       -0.411416    3.382579    2.418909
     10          8           0       -1.407238    4.099938    2.510755
     11          6           0       -1.967831    1.614098    3.296716
     12          6           0       -2.762880    1.279290    2.045157
     13          8           0       -2.245848    1.383148    0.915736
     14          8           0       -3.962518    0.914474    2.093908
     15          1           0       -0.240063    1.956154    5.099441
     16          1           0       -0.137963    1.335917    2.184826
     17          1           0       -2.450402    2.236997    4.050190
     18          1           0       -1.951594    0.685919    3.866208
     19          7           0        0.710321    3.711050    1.764758
     20          6           0        0.972933    5.026971    1.215227
     21          6           0       -0.113789    5.639301    0.343741
     22          8           0       -0.439716    6.802937    0.528737
     23          6           0        2.280033    4.934513    0.432002
     24          6           0        3.024905    6.241756    0.142375
     25          6           0        4.274022    5.829223   -0.627057
     26          6           0        5.241083    6.925497   -1.064752
     27          7           0        4.692356    7.839479   -2.070652
     28          1           0        1.500730    3.080520    1.823798
     29          1           0        0.993792    5.750786    2.033308
     30          1           0        2.073988    4.414260   -0.500834
     31          1           0        2.947552    4.328016    1.039604
     32          1           0        3.389577    6.762969    1.024844
     33          1           0        2.320669    6.831955   -0.432269
     34          1           0        4.006418    5.405289   -1.599049
     35          1           0        4.877601    5.116679   -0.052102
     36          1           0        6.222592    6.565073   -1.387450
     37          1           0        5.382010    7.532738   -0.170550
     38          1           0        4.049051    8.513572   -1.689394
     39          1           0        5.415473    8.478805   -2.378001
     40          1           0        4.328567    7.427159   -2.916495
     41          7           0       -0.643357    4.897147   -0.631433
     42          6           0       -1.705066    5.326993   -1.528878
     43          6           0       -3.129760    5.048617   -1.087345
     44          8           0       -4.069643    5.432698   -1.780673
     45          6           0       -1.484445    4.663060   -2.885756
     46          6           0       -1.414762    3.153074   -2.963137
     47          8           0       -1.955225    2.488420   -2.055209
     48          8           0       -0.999024    2.561571   -3.994004
     49          1           0       -0.386826    3.927407   -0.697733
     50          1           0       -1.552095    6.401713   -1.582526
     51          1           0       -0.474775    4.957951   -3.180723
     52          1           0       -2.123076    5.088433   -3.659971
     53          7           0       -3.280919    4.387944    0.056010
     54          6           0       -4.507309    4.167831    0.783691
     55          6           0       -5.555859    3.287852    0.127048
     56          8           0       -6.741709    3.626112    0.192931
     57          1           0       -2.488698    4.007189    0.568272
     58          1           0       -5.012616    5.112124    0.997174
     59          1           0       -4.197868    3.727653    1.729994
     60          7           0       -5.074420    2.300500   -0.634957
     61          6           0       -5.931347    1.497798   -1.476827
     62          6           0       -6.475039    0.242621   -0.800786
     63          8           0       -7.150846   -0.563890   -1.433656
     64          6           0       -5.228671    1.304522   -2.819433
     65          6           0       -4.146145    0.223279   -2.885392
     66          7           0       -3.666085   -0.239198   -4.044770
     67          8           0       -3.603740   -0.205695   -1.874265
     68          1           0       -4.065663    2.193059   -0.656561
     69          1           0       -6.798668    2.116831   -1.690955
     70          1           0       -4.721797    2.219014   -3.131498
     71          1           0       -5.993367    1.178100   -3.588235
     72          1           0       -3.880471    0.266891   -4.888993
     73          1           0       -2.961420   -0.938704   -3.887801
     74          7           0       -6.211715    0.053779    0.491498
     75          6           0       -6.665129   -1.114495    1.229165
     76          6           0       -5.671207   -2.242263    1.451103
     77          8           0       -6.133134   -3.345781    1.756179
     78          1           0       -5.521974    0.610584    0.970900
     79          1           0       -7.552065   -1.511570    0.727392
     80          1           0       -6.922419   -0.746642    2.216731
     81          7           0       -4.372946   -2.097203    1.212403
     82          6           0       -3.409784   -3.177591    1.114014
     83          6           0       -2.018769   -2.549081    1.144892
     84          8           0       -1.832917   -1.460983    0.597443
     85          6           0       -3.478477   -3.869934   -0.233332
     86          6           0       -4.705771   -4.673944   -0.560006
     87          6           0       -5.760433   -4.108888   -1.291715
     88          6           0       -4.761915   -6.037669   -0.222809
     89          6           0       -6.936671   -4.812597   -1.584731
     90          6           0       -5.928186   -6.744650   -0.506338
     91          6           0       -7.017565   -6.164002   -1.196194
     92          8           0       -8.158645   -6.828855   -1.512750
     93          1           0       -3.984133   -1.164977    1.178091
     94          1           0       -3.426440   -3.840924    1.978082
     95          1           0       -2.629272   -4.544422   -0.367193
     96          1           0       -3.363036   -3.053729   -0.948162
     97          1           0       -5.673794   -3.064356   -1.570727
     98          1           0       -3.865614   -6.496146    0.184922
     99          1           0       -7.804934   -4.333925   -2.014955
    100          1           0       -5.976549   -7.795442   -0.269702
    101          1           0       -8.006920   -7.751616   -1.262966
    102          7           0       -1.132667   -3.243592    1.861465
    103          6           0        0.264918   -2.844531    1.859022
    104          6           0        0.927000   -3.775146    0.852989
    105          8           0        0.699752   -4.976139    0.825163
    106          6           0        0.834195   -2.896522    3.277655
    107          6           0        0.224981   -1.780102    4.134082
    108          6           0        2.355672   -2.774867    3.376189
    109          6           0        0.127882   -2.284255    5.569805
    110          1           0       -1.377024   -4.016959    2.462958
    111          1           0        0.321287   -1.813683    1.512213
    112          1           0        0.495773   -3.875220    3.590895
    113          1           0       -0.769101   -1.450168    3.826928
    114          1           0        0.809369   -0.869017    4.097842
    115          1           0        2.657556   -2.993674    4.396232
    116          1           0        2.898040   -3.417393    2.679628
    117          1           0        2.751717   -1.777816    3.209041
    118          1           0        1.163195   -2.448720    5.859076
    119          1           0       -0.335924   -1.475383    6.135764
    120          1           0       -0.442064   -3.212154    5.595615
    121          7           0        1.818194   -3.240299    0.016741
    122          6           0        2.669008   -3.939423   -0.928533
    123          6           0        4.122077   -4.040999   -0.497753
    124          8           0        4.492880   -3.083998    0.170120
    125          6           0        2.643490   -3.156717   -2.244786
    126          8           0        2.969864   -1.795087   -2.118118
    127          1           0        1.950065   -2.244227    0.137361
    128          1           0        2.207387   -4.920185   -1.108566
    129          1           0        1.673984   -3.211212   -2.741965
    130          1           0        3.286586   -3.645950   -2.962685
    131          1           0        2.256003   -1.307286   -1.716431
    132          7           0        4.887286   -5.024907   -0.987428
    133          6           0        6.333099   -5.076835   -1.059024
    134          6           0        6.988577   -3.747602   -1.373651
    135          8           0        7.811768   -3.215710   -0.621357
    136          6           0        6.633089   -6.068661   -2.180134
    137          1           0        4.440569   -5.821575   -1.414821
    138          1           0        6.779403   -5.463767   -0.143275
    139          1           0        6.047744   -6.972090   -2.013739
    140          1           0        6.312325   -5.656787   -3.134843
    141          1           0        7.691738   -6.308489   -2.120593
    142          7           0        6.531038   -3.064067   -2.428325
    143          6           0        7.067453   -1.741430   -2.715012
    144          6           0        6.871008   -0.633976   -1.694445
    145          8           0        7.748961    0.199651   -1.496549
    146          6           0        6.570940   -1.230914   -4.062509
    147          1           0        5.790700   -3.372767   -3.032563
    148          1           0        8.117848   -1.939167   -2.916929
    149          1           0        6.588659   -1.968440   -4.862597
    150          1           0        5.565105   -0.819977   -3.960394
    151          1           0        7.125100   -0.318298   -4.277309
    152          7           0        5.708909   -0.593299   -1.039258
    153          6           0        5.543912    0.334803    0.055093
    154          6           0        6.345579   -0.117326    1.270786
    155          8           0        6.870734    0.800044    1.899867
    156          6           0        4.083392    0.296002    0.511464
    157          6           0        3.231788    1.012803   -0.528857
    158          6           0        1.733753    0.731742   -0.443434
    159          8           0        1.282361   -0.422456   -0.588602
    160          8           0        0.934698    1.676381   -0.311267
    161          1           0        5.050563   -1.344150   -1.133613
    162          1           0        5.865219    1.282379   -0.356322
    163          1           0        4.030022    0.778032    1.482288
    164          1           0        3.744854   -0.745633    0.465762
    165          1           0        3.516913    0.719278   -1.530579
    166          1           0        3.339390    2.090857   -0.449349
    167          7           0        6.517392   -1.410456    1.550957
    168          6           0        7.165452   -1.923457    2.738369
    169          1           0        8.225298   -1.671291    2.711198
    170          1           0        6.709115   -1.478988    3.623080
    171          1           0        7.051363   -3.006421    2.775731
    172          1           0        6.045946   -2.048344    0.919658
    173         20           0       -1.115429    0.364496   -1.150396
    174          8           0        0.393435    0.389609   -3.243647
    175          1           0        0.316034   -0.150299   -4.033779
    176          1           0        0.346875    1.289408   -3.569674
 ---------------------------------------------------------------------
 Rotational constants (GHZ):           0.0223640           0.0160122           0.0119645
 Standard basis: SVP (5D, 7F)
 There are  1809 symmetry adapted cartesian basis functions of A   symmetry.
 There are  1717 symmetry adapted basis functions of A   symmetry.
  1717 basis functions,  2922 primitive gaussians,  1809 cartesian basis functions
   358 alpha electrons      358 beta electrons
       nuclear repulsion energy     21844.7766452912 Hartrees.
 NAtoms=  176 NActive=  176 NUniq=  176 SFac= 1.00D+00 NAtFMM=   60 NAOKFM=T Big=T
 Integral buffers will be    131072 words long.
 Raffenetti 2 integral format.
 Two-electron integral symmetry is turned on.
 One-electron integrals computed using PRISM.
 NBasis=  1717 RedAO= T EigKep=  2.77D-04  NBF=  1717
 NBsUse=  1717 1.00D-06 EigRej= -1.00D+00 NBFU=  1717
 ExpMin= 1.98D-02 ExpMax= 3.51D+04 ExpMxC= 5.28D+03 IAcc=3 IRadAn=         5 AccDes= 0.00D+00
 Harris functional with IExCor=  402 and IRadAn=       5 diagonalized for initial guess.
 HarFok:  IExCor=  402 AccDes= 0.00D+00 IRadAn=         5 IDoV= 1 UseB2=F ITyADJ=14
 ICtDFT=  3500011 ScaDFX=  1.000000  1.000000  1.000000  1.000000
 FoFCou: FMM=F IPFlag=           0 FMFlag=      100000 FMFlg1=        2001
         NFxFlg=           0 DoJE=T BraDBF=F KetDBF=T FulRan=T
         wScrn=  0.000000 ICntrl=       500 IOpCl=  0 I1Cent=   200000004 NGrid=           0
         NMat0=    1 NMatS0=      1 NMatT0=    0 NMatD0=    1 NMtDS0=    0 NMtDT0=    0
 Petite list used in FoFCou.
 Requested convergence on RMS density matrix=1.00D-08 within 128 cycles.
 Requested convergence on MAX density matrix=1.00D-06.
 Requested convergence on             energy=1.00D-06.
 No special actions if energy rises.
 EnCoef did     4 forward-backward iterations
 EnCoef did     3 forward-backward iterations
 EnCoef did     9 forward-backward iterations
 EnCoef did     2 forward-backward iterations
 Restarting incremental Fock formation.
 SCF Done:  E(RB3LYP) =  -5333.62119389     A.U. after   21 cycles
            NFock= 21  Conv=0.15D-08     -V/T= 2.0081
 SCF density gives NOpUse=  1 NOpAll=  1.
 Hyperfine terms turned off by default for NAtoms > 100.

 **********************************************************************

            Population analysis using the SCF density.

 **********************************************************************

 Orbital symmetries:
 BldTbl:  Degeneracy threshold= 1.00D-02
       Occupied  (A) (A) (A) (A) (A) (A) (A) (A) (A) (A) (A) (A)
                 (A) (A) (A) (A) (A) (A) (A) (A) (A) (A) (A) (A)
                 (A) (A) (A) (A) (A) (A) (A) (A) (A) (A) (A) (A)
                 (A) (A) (A) (A) (A) (A) (A) (A) (A) (A) (A) (A)
                 (A) (A) (A) (A) (A) (A) (A) (A) (A) (A) (A) (A)
                 (A) (A) (A) (A) (A) (A) (A) (A) (A) (A) (A) (A)
                 (A) (A) (A) (A) (A) (A) (A) (A) (A) (A) (A) (A)
                 (A) (A) (A) (A) (A) (A) (A) (A) (A) (A) (A) (A)
                 (A) (A) (A) (A) (A) (A) (A) (A) (A) (A) (A) (A)
                 (A) (A) (A) (A) (A) (A) (A) (A) (A) (A) (A) (A)
                 (A) (A) (A) (A) (A) (A) (A) (A) (A) (A) (A) (A)
                 (A) (A) (A) (A) (A) (A) (A) (A) (A) (A) (A) (A)
                 (A) (A) (A) (A) (A) (A) (A) (A) (A) (A) (A) (A)
                 (A) (A) (A) (A) (A) (A) (A) (A) (A) (A) (A) (A)
                 (A) (A) (A) (A) (A) (A) (A) (A) (A) (A) (A) (A)
                 (A) (A) (A) (A) (A) (A) (A) (A) (A) (A) (A) (A)
                 (A) (A) (A) (A) (A) (A) (A) (A) (A) (A) (A) (A)
                 (A) (A) (A) (A) (A) (A) (A) (A) (A) (A) (A) (A)
                 (A) (A) (A) (A) (A) (A) (A) (A) (A) (A) (A) (A)
                 (A) (A) (A) (A) (A) (A) (A) (A) (A) (A) (A) (A)
                 (A) (A) (A) (A) (A) (A) (A) (A) (A) (A) (A) (A)
                 (A) (A) (A) (A) (A) (A) (A) (A) (A) (A) (A) (A)
                 (A) (A) (A) (A) (A) (A) (A) (A) (A) (A) (A) (A)
                 (A) (A) (A) (A) (A) (A) (A) (A) (A) (A) (A) (A)
                 (A) (A) (A) (A) (A) (A) (A) (A) (A) (A) (A) (A)
                 (A) (A) (A) (A) (A) (A) (A) (A) (A) (A) (A) (A)
                 (A) (A) (A) (A) (A) (A) (A) (A) (A) (A) (A) (A)
                 (A) (A) (A) (A) (A) (A) (A) (A) (A) (A) (A) (A)
                 (A) (A) (A) (A) (A) (A) (A) (A) (A) (A) (A) (A)
                 (A) (A) (A) (A) (A) (A) (A) (A) (A) (A)
       Virtual   (A) (A) (A) (A) (A) (A) (A) (A) (A) (A) (A) (A)
                 (A) (A) (A) (A) (A) (A) (A) (A) (A) (A) (A) (A)
                 (A) (A) (A) (A) (A) (A) (A) (A) (A) (A) (A) (A)
                 (A) (A) (A) (A) (A) (A) (A) (A) (A) (A) (A) (A)
                 (A) (A) (A) (A) (A) (A) (A) (A) (A) (A) (A) (A)
                 (A) (A) (A) (A) (A) (A) (A) (A) (A) (A) (A) (A)
                 (A) (A) (A) (A) (A) (A) (A) (A) (A) (A) (A) (A)
                 (A) (A) (A) (A) (A) (A) (A) (A) (A) (A) (A) (A)
                 (A) (A) (A) (A) (A) (A) (A) (A) (A) (A) (A) (A)
                 (A) (A) (A) (A) (A) (A) (A) (A) (A) (A) (A) (A)
                 (A) (A) (A) (A) (A) (A) (A) (A) (A) (A) (A) (A)
                 (A) (A) (A) (A) (A) (A) (A) (A) (A) (A) (A) (A)
                 (A) (A) (A) (A) (A) (A) (A) (A) (A) (A) (A) (A)
                 (A) (A) (A) (A) (A) (A) (A) (A) (A) (A) (A) (A)
                 (A) (A) (A) (A) (A) (A) (A) (A) (A) (A) (A) (A)
                 (A) (A) (A) (A) (A) (A) (A) (A) (A) (A) (A) (A)
                 (A) (A) (A) (A) (A) (A) (A) (A) (A) (A) (A) (A)
                 (A) (A) (A) (A) (A) (A) (A) (A) (A) (A) (A) (A)
                 (A) (A) (A) (A) (A) (A) (A) (A) (A) (A) (A) (A)
                 (A) (A) (A) (A) (A) (A) (A) (A) (A) (A) (A) (A)
                 (A) (A) (A) (A) (A) (A) (A) (A) (A) (A) (A) (A)
                 (A) (A) (A) (A) (A) (A) (A) (A) (A) (A) (A) (A)
                 (A) (A) (A) (A) (A) (A) (A) (A) (A) (A) (A) (A)
                 (A) (A) (A) (A) (A) (A) (A) (A) (A) (A) (A) (A)
                 (A) (A) (A) (A) (A) (A) (A) (A) (A) (A) (A) (A)
                 (A) (A) (A) (A) (A) (A) (A) (A) (A) (A) (A) (A)
                 (A) (A) (A) (A) (A) (A) (A) (A) (A) (A) (A) (A)
                 (A) (A) (A) (A) (A) (A) (A) (A) (A) (A) (A) (A)
                 (A) (A) (A) (A) (A) (A) (A) (A) (A) (A) (A) (A)
                 (A) (A) (A) (A) (A) (A) (A) (A) (A) (A) (A) (A)
                 (A) (A) (A) (A) (A) (A) (A) (A) (A) (A) (A) (A)
                 (A) (A) (A) (A) (A) (A) (A) (A) (A) (A) (A) (A)
                 (A) (A) (A) (A) (A) (A) (A) (A) (A) (A) (A) (A)
                 (A) (A) (A) (A) (A) (A) (A) (A) (A) (A) (A) (A)
                 (A) (A) (A) (A) (A) (A) (A) (A) (A) (A) (A) (A)
                 (A) (A) (A) (A) (A) (A) (A) (A) (A) (A) (A) (A)
                 (A) (A) (A) (A) (A) (A) (A) (A) (A) (A) (A) (A)
                 (A) (A) (A) (A) (A) (A) (A) (A) (A) (A) (A) (A)
                 (A) (A) (A) (A) (A) (A) (A) (A) (A) (A) (A) (A)
                 (A) (A) (A) (A) (A) (A) (A) (A) (A) (A) (A) (A)
                 (A) (A) (A) (A) (A) (A) (A) (A) (A) (A) (A) (A)
                 (A) (A) (A) (A) (A) (A) (A) (A) (A) (A) (A) (A)
                 (A) (A) (A) (A) (A) (A) (A) (A) (A) (A) (A) (A)
                 (A) (A) (A) (A) (A) (A) (A) (A) (A) (A) (A) (A)
                 (A) (A) (A) (A) (A) (A) (A) (A) (A) (A) (A) (A)
                 (A) (A) (A) (A) (A) (A) (A) (A) (A) (A) (A) (A)
                 (A) (A) (A) (A) (A) (A) (A) (A) (A) (A) (A) (A)
                 (A) (A) (A) (A) (A) (A) (A) (A) (A) (A) (A) (A)
                 (A) (A) (A) (A) (A) (A) (A) (A) (A) (A) (A) (A)
                 (A) (A) (A) (A) (A) (A) (A) (A) (A) (A) (A) (A)
                 (A) (A) (A) (A) (A) (A) (A) (A) (A) (A) (A) (A)
                 (A) (A) (A) (A) (A) (A) (A) (A) (A) (A) (A) (A)
                 (A) (A) (A) (A) (A) (A) (A) (A) (A) (A) (A) (A)
                 (A) (A) (A) (A) (A) (A) (A) (A) (A) (A) (A) (A)
                 (A) (A) (A) (A) (A) (A) (A) (A) (A) (A) (A) (A)
                 (A) (A) (A) (A) (A) (A) (A) (A) (A) (A) (A) (A)
                 (A) (A) (A) (A) (A) (A) (A) (A) (A) (A) (A) (A)
                 (A) (A) (A) (A) (A) (A) (A) (A) (A) (A) (A) (A)
                 (A) (A) (A) (A) (A) (A) (A) (A) (A) (A) (A) (A)
                 (A) (A) (A) (A) (A) (A) (A) (A) (A) (A) (A) (A)
                 (A) (A) (A) (A) (A) (A) (A) (A) (A) (A) (A) (A)
                 (A) (A) (A) (A) (A) (A) (A) (A) (A) (A) (A) (A)
                 (A) (A) (A) (A) (A) (A) (A) (A) (A) (A) (A) (A)
                 (A) (A) (A) (A) (A) (A) (A) (A) (A) (A) (A) (A)
                 (A) (A) (A) (A) (A) (A) (A) (A) (A) (A) (A) (A)
                 (A) (A) (A) (A) (A) (A) (A) (A) (A) (A) (A) (A)
                 (A) (A) (A) (A) (A) (A) (A) (A) (A) (A) (A) (A)
                 (A) (A) (A) (A) (A) (A) (A) (A) (A) (A) (A) (A)
                 (A) (A) (A) (A) (A) (A) (A) (A) (A) (A) (A) (A)
                 (A) (A) (A) (A) (A) (A) (A) (A) (A) (A) (A) (A)
                 (A) (A) (A) (A) (A) (A) (A) (A) (A) (A) (A) (A)
                 (A) (A) (A) (A) (A) (A) (A) (A) (A) (A) (A) (A)
                 (A) (A) (A) (A) (A) (A) (A) (A) (A) (A) (A) (A)
                 (A) (A) (A) (A) (A) (A) (A) (A) (A) (A) (A) (A)
                 (A) (A) (A) (A) (A) (A) (A) (A) (A) (A) (A) (A)
                 (A) (A) (A) (A) (A) (A) (A) (A) (A) (A) (A) (A)
                 (A) (A) (A) (A) (A) (A) (A) (A) (A) (A) (A) (A)
                 (A) (A) (A) (A) (A) (A) (A) (A) (A) (A) (A) (A)
                 (A) (A) (A) (A) (A) (A) (A) (A) (A) (A) (A) (A)
                 (A) (A) (A) (A) (A) (A) (A) (A) (A) (A) (A) (A)
                 (A) (A) (A) (A) (A) (A) (A) (A) (A) (A) (A) (A)
                 (A) (A) (A) (A) (A) (A) (A) (A) (A) (A) (A) (A)
                 (A) (A) (A) (A) (A) (A) (A) (A) (A) (A) (A) (A)
                 (A) (A) (A) (A) (A) (A) (A) (A) (A) (A) (A) (A)
                 (A) (A) (A) (A) (A) (A) (A) (A) (A) (A) (A) (A)
                 (A) (A) (A) (A) (A) (A) (A) (A) (A) (A) (A) (A)
                 (A) (A) (A) (A) (A) (A) (A) (A) (A) (A) (A) (A)
                 (A) (A) (A) (A) (A) (A) (A) (A) (A) (A) (A) (A)
                 (A) (A) (A) (A) (A) (A) (A) (A) (A) (A) (A) (A)
                 (A) (A) (A) (A) (A) (A) (A) (A) (A) (A) (A) (A)
                 (A) (A) (A) (A) (A) (A) (A) (A) (A) (A) (A) (A)
                 (A) (A) (A) (A) (A) (A) (A) (A) (A) (A) (A) (A)
                 (A) (A) (A) (A) (A) (A) (A) (A) (A) (A) (A) (A)
                 (A) (A) (A) (A) (A) (A) (A) (A) (A) (A) (A) (A)
                 (A) (A) (A) (A) (A) (A) (A) (A) (A) (A) (A) (A)
                 (A) (A) (A) (A) (A) (A) (A) (A) (A) (A) (A) (A)
                 (A) (A) (A) (A) (A) (A) (A) (A) (A) (A) (A) (A)
                 (A) (A) (A) (A) (A) (A) (A) (A) (A) (A) (A) (A)
                 (A) (A) (A) (A) (A) (A) (A) (A) (A) (A) (A) (A)
                 (A) (A) (A) (A) (A) (A) (A) (A) (A) (A) (A) (A)
                 (A) (A) (A) (A) (A) (A) (A) (A) (A) (A) (A) (A)
                 (A) (A) (A) (A) (A) (A) (A) (A) (A) (A) (A) (A)
                 (A) (A) (A) (A) (A) (A) (A) (A) (A) (A) (A) (A)
                 (A) (A) (A) (A) (A) (A) (A) (A) (A) (A) (A) (A)
                 (A) (A) (A) (A) (A) (A) (A) (A) (A) (A) (A) (A)
                 (A) (A) (A) (A) (A) (A) (A) (A) (A) (A) (A) (A)
                 (A) (A) (A) (A) (A) (A) (A) (A) (A) (A) (A) (A)
                 (A) (A) (A) (A) (A) (A) (A) (A) (A) (A) (A) (A)
                 (A) (A) (A) (A) (A) (A) (A) (A) (A) (A) (A) (A)
                 (A) (A) (A) (A) (A) (A) (A) (A) (A) (A) (A) (A)
                 (A) (A) (A) (A) (A) (A) (A) (A) (A) (A) (A) (A)
                 (A) (A) (A) (A) (A) (A) (A) (A) (A) (A) (A) (A)
                 (A) (A) (A) (A) (A) (A) (A) (A) (A) (A) (A) (A)
                 (A) (A) (A)
 The electronic state is 1-A.
 Alpha  occ. eigenvalues -- -145.35642 -19.15256 -19.13730 -19.13399 -19.13087
 Alpha  occ. eigenvalues --  -19.11891 -19.11067 -19.10579 -19.09800 -19.09739
 Alpha  occ. eigenvalues --  -19.09238 -19.09088 -19.08721 -19.08354 -19.07910
 Alpha  occ. eigenvalues --  -19.06298 -19.05221 -19.05021 -19.05012 -19.04115
 Alpha  occ. eigenvalues --  -19.03923 -19.03881 -19.03652 -19.02304 -15.41451
 Alpha  occ. eigenvalues --  -14.59764 -14.39655 -14.37257 -14.36562 -14.35850
 Alpha  occ. eigenvalues --  -14.35502 -14.35283 -14.34895 -14.33859 -14.33014
 Alpha  occ. eigenvalues --  -14.31568 -14.30592 -14.30208 -14.29487 -14.28903
 Alpha  occ. eigenvalues --  -12.55063 -12.55019 -12.55002 -10.35920 -10.31608
 Alpha  occ. eigenvalues --  -10.30006 -10.29399 -10.29120 -10.28695 -10.28311
 Alpha  occ. eigenvalues --  -10.27759 -10.27668 -10.27414 -10.27325 -10.26722
 Alpha  occ. eigenvalues --  -10.26328 -10.25638 -10.25447 -10.25369 -10.25011
 Alpha  occ. eigenvalues --  -10.24096 -10.23920 -10.23768 -10.23327 -10.23300
 Alpha  occ. eigenvalues --  -10.23197 -10.22951 -10.22827 -10.22493 -10.22489
 Alpha  occ. eigenvalues --  -10.22274 -10.21638 -10.21556 -10.21466 -10.20709
 Alpha  occ. eigenvalues --  -10.20458 -10.19828 -10.19816 -10.19715 -10.19452
 Alpha  occ. eigenvalues --  -10.19433 -10.18322 -10.17503 -10.17417 -10.17414
 Alpha  occ. eigenvalues --  -10.17401 -10.17243 -10.17062 -10.16919 -10.16898
 Alpha  occ. eigenvalues --  -10.16889 -10.16463 -10.16077 -10.15911 -10.15520
 Alpha  occ. eigenvalues --  -10.15036 -10.14880  -1.78541  -1.15213  -1.06778
 Alpha  occ. eigenvalues --   -1.06667  -1.06195  -1.06125  -1.04336  -1.04189
 Alpha  occ. eigenvalues --   -1.04053  -1.03672  -1.02914  -1.02700  -1.02466
 Alpha  occ. eigenvalues --   -1.02318  -1.01797  -1.01528  -1.01379  -1.01195
 Alpha  occ. eigenvalues --   -1.00457  -0.98307  -0.98261  -0.97891  -0.97608
 Alpha  occ. eigenvalues --   -0.97026  -0.96737  -0.95987  -0.93741  -0.93616
 Alpha  occ. eigenvalues --   -0.93386  -0.92640  -0.92325  -0.91733  -0.90881
 Alpha  occ. eigenvalues --   -0.90623  -0.90129  -0.90095  -0.89847  -0.87890
 Alpha  occ. eigenvalues --   -0.87813  -0.87554  -0.87249  -0.86555  -0.85320
 Alpha  occ. eigenvalues --   -0.83543  -0.82131  -0.81564  -0.81269  -0.78853
 Alpha  occ. eigenvalues --   -0.78268  -0.77828  -0.77091  -0.76825  -0.76395
 Alpha  occ. eigenvalues --   -0.75615  -0.75168  -0.74712  -0.73778  -0.72501
 Alpha  occ. eigenvalues --   -0.72091  -0.71181  -0.71115  -0.70682  -0.69864
 Alpha  occ. eigenvalues --   -0.69568  -0.69181  -0.68883  -0.67705  -0.67518
 Alpha  occ. eigenvalues --   -0.66825  -0.65662  -0.65389  -0.65308  -0.64240
 Alpha  occ. eigenvalues --   -0.64122  -0.63057  -0.62815  -0.62522  -0.61885
 Alpha  occ. eigenvalues --   -0.61609  -0.61071  -0.60447  -0.60146  -0.58987
 Alpha  occ. eigenvalues --   -0.58679  -0.58296  -0.58085  -0.57859  -0.57767
 Alpha  occ. eigenvalues --   -0.57289  -0.56749  -0.55988  -0.55949  -0.55667
 Alpha  occ. eigenvalues --   -0.55369  -0.54880  -0.54823  -0.54466  -0.54338
 Alpha  occ. eigenvalues --   -0.54249  -0.53937  -0.53770  -0.53561  -0.53211
 Alpha  occ. eigenvalues --   -0.52931  -0.52626  -0.52474  -0.51699  -0.51222
 Alpha  occ. eigenvalues --   -0.51066  -0.50668  -0.50378  -0.50277  -0.49982
 Alpha  occ. eigenvalues --   -0.49699  -0.49413  -0.48931  -0.48765  -0.48446
 Alpha  occ. eigenvalues --   -0.48055  -0.48022  -0.47935  -0.47600  -0.47422
 Alpha  occ. eigenvalues --   -0.47104  -0.46941  -0.46479  -0.46439  -0.46300
 Alpha  occ. eigenvalues --   -0.46116  -0.45875  -0.45712  -0.45397  -0.45278
 Alpha  occ. eigenvalues --   -0.44996  -0.44690  -0.44439  -0.44048  -0.44001
 Alpha  occ. eigenvalues --   -0.43883  -0.43855  -0.43618  -0.43532  -0.43437
 Alpha  occ. eigenvalues --   -0.43276  -0.43187  -0.42863  -0.42786  -0.42732
 Alpha  occ. eigenvalues --   -0.42353  -0.42217  -0.42133  -0.42000  -0.41764
 Alpha  occ. eigenvalues --   -0.41681  -0.41660  -0.41574  -0.41432  -0.41363
 Alpha  occ. eigenvalues --   -0.41210  -0.41059  -0.40878  -0.40704  -0.40591
 Alpha  occ. eigenvalues --   -0.40384  -0.40315  -0.40199  -0.40072  -0.40044
 Alpha  occ. eigenvalues --   -0.39821  -0.39647  -0.39560  -0.39460  -0.39320
 Alpha  occ. eigenvalues --   -0.39114  -0.38995  -0.38969  -0.38814  -0.38659
 Alpha  occ. eigenvalues --   -0.38440  -0.38332  -0.38271  -0.38186  -0.37979
 Alpha  occ. eigenvalues --   -0.37889  -0.37713  -0.37657  -0.37603  -0.37363
 Alpha  occ. eigenvalues --   -0.37132  -0.36821  -0.36713  -0.36300  -0.36266
 Alpha  occ. eigenvalues --   -0.36098  -0.35874  -0.35817  -0.35518  -0.35449
 Alpha  occ. eigenvalues --   -0.35330  -0.35145  -0.34855  -0.34386  -0.34336
 Alpha  occ. eigenvalues --   -0.34100  -0.34050  -0.33686  -0.33649  -0.33513
 Alpha  occ. eigenvalues --   -0.33308  -0.33147  -0.32922  -0.32580  -0.32454
 Alpha  occ. eigenvalues --   -0.32287  -0.31860  -0.31675  -0.31415  -0.30921
 Alpha  occ. eigenvalues --   -0.30675  -0.30581  -0.30416  -0.30159  -0.29894
 Alpha  occ. eigenvalues --   -0.28383  -0.28264  -0.28071  -0.27873  -0.27819
 Alpha  occ. eigenvalues --   -0.27530  -0.27413  -0.26899  -0.26654  -0.26481
 Alpha  occ. eigenvalues --   -0.26339  -0.26190  -0.25876  -0.25572  -0.25482
 Alpha  occ. eigenvalues --   -0.25055  -0.24675  -0.24324  -0.24059  -0.23749
 Alpha  occ. eigenvalues --   -0.23572  -0.23543  -0.23133  -0.22408  -0.22295
 Alpha  occ. eigenvalues --   -0.22074  -0.22056  -0.21613  -0.21423  -0.20762
 Alpha  occ. eigenvalues --   -0.20707  -0.20439  -0.20338  -0.18949  -0.18904
 Alpha  occ. eigenvalues --   -0.18787  -0.18170  -0.17898
 Alpha virt. eigenvalues --   -0.11582  -0.05913  -0.05423  -0.02342  -0.02032
 Alpha virt. eigenvalues --   -0.01390  -0.00433   0.00394   0.00568   0.00892
 Alpha virt. eigenvalues --    0.01493   0.01880   0.01929   0.02004   0.02087
 Alpha virt. eigenvalues --    0.02196   0.02496   0.02998   0.03525   0.03662
 Alpha virt. eigenvalues --    0.03712   0.03924   0.04216   0.04774   0.04925
 Alpha virt. eigenvalues --    0.04982   0.05702   0.05796   0.06242   0.06490
 Alpha virt. eigenvalues --    0.06674   0.06717   0.06835   0.06976   0.07144
 Alpha virt. eigenvalues --    0.07228   0.07343   0.07435   0.07630   0.07866
 Alpha virt. eigenvalues --    0.08082   0.08277   0.08692   0.08832   0.09064
 Alpha virt. eigenvalues --    0.09424   0.09446   0.09670   0.09978   0.10344
 Alpha virt. eigenvalues --    0.10610   0.10618   0.10879   0.11042   0.11283
 Alpha virt. eigenvalues --    0.11433   0.11503   0.11798   0.11897   0.12142
 Alpha virt. eigenvalues --    0.12388   0.12543   0.12711   0.12855   0.12915
 Alpha virt. eigenvalues --    0.13086   0.13146   0.13457   0.13620   0.13756
 Alpha virt. eigenvalues --    0.13939   0.14190   0.14402   0.14526   0.14722
 Alpha virt. eigenvalues --    0.14879   0.14907   0.15281   0.15455   0.15751
 Alpha virt. eigenvalues --    0.15843   0.16104   0.16398   0.16585   0.16638
 Alpha virt. eigenvalues --    0.16705   0.16915   0.16950   0.17323   0.17435
 Alpha virt. eigenvalues --    0.17480   0.17580   0.17790   0.18018   0.18253
 Alpha virt. eigenvalues --    0.18377   0.18515   0.18608   0.18912   0.18987
 Alpha virt. eigenvalues --    0.19159   0.19428   0.19499   0.19578   0.19774
 Alpha virt. eigenvalues --    0.19826   0.20167   0.20537   0.20707   0.20967
 Alpha virt. eigenvalues --    0.21174   0.21432   0.21555   0.21631   0.21840
 Alpha virt. eigenvalues --    0.22032   0.22332   0.22463   0.22521   0.22865
 Alpha virt. eigenvalues --    0.23317   0.23506   0.23733   0.23792   0.24215
 Alpha virt. eigenvalues --    0.24269   0.24512   0.24689   0.24804   0.25020
 Alpha virt. eigenvalues --    0.25232   0.25512   0.25606   0.25832   0.26007
 Alpha virt. eigenvalues --    0.26167   0.26239   0.26598   0.26709   0.26910
 Alpha virt. eigenvalues --    0.27265   0.27580   0.27685   0.27796   0.27937
 Alpha virt. eigenvalues --    0.28498   0.28684   0.28895   0.29202   0.29540
 Alpha virt. eigenvalues --    0.29646   0.29834   0.30040   0.30419   0.30590
 Alpha virt. eigenvalues --    0.30755   0.31095   0.31264   0.31354   0.31596
 Alpha virt. eigenvalues --    0.31783   0.32043   0.32540   0.32699   0.33035
 Alpha virt. eigenvalues --    0.33102   0.33490   0.33841   0.34011   0.34246
 Alpha virt. eigenvalues --    0.34564   0.34719   0.34949   0.35274   0.35637
 Alpha virt. eigenvalues --    0.35786   0.35893   0.36234   0.36490   0.36894
 Alpha virt. eigenvalues --    0.37149   0.37485   0.37858   0.38071   0.38480
 Alpha virt. eigenvalues --    0.38705   0.39208   0.39496   0.39565   0.39699
 Alpha virt. eigenvalues --    0.39909   0.40092   0.40529   0.40632   0.40779
 Alpha virt. eigenvalues --    0.41105   0.41322   0.41395   0.41461   0.41744
 Alpha virt. eigenvalues --    0.42008   0.42531   0.42637   0.42960   0.43403
 Alpha virt. eigenvalues --    0.43663   0.43769   0.44351   0.44599   0.44845
 Alpha virt. eigenvalues --    0.45215   0.45440   0.45594   0.45629   0.45821
 Alpha virt. eigenvalues --    0.45981   0.46201   0.46307   0.46617   0.46715
 Alpha virt. eigenvalues --    0.46896   0.47103   0.47380   0.47596   0.47618
 Alpha virt. eigenvalues --    0.47837   0.47979   0.48216   0.48357   0.48602
 Alpha virt. eigenvalues --    0.49014   0.49219   0.49402   0.49573   0.49819
 Alpha virt. eigenvalues --    0.49930   0.50069   0.50296   0.50508   0.50570
 Alpha virt. eigenvalues --    0.50846   0.50930   0.51143   0.51205   0.51549
 Alpha virt. eigenvalues --    0.51701   0.52140   0.52320   0.52329   0.52462
 Alpha virt. eigenvalues --    0.52821   0.53038   0.53201   0.53284   0.53402
 Alpha virt. eigenvalues --    0.53598   0.53942   0.54057   0.54197   0.54376
 Alpha virt. eigenvalues --    0.54559   0.54748   0.54932   0.55113   0.55426
 Alpha virt. eigenvalues --    0.55498   0.55817   0.56147   0.56237   0.56379
 Alpha virt. eigenvalues --    0.56500   0.56667   0.57113   0.57260   0.57487
 Alpha virt. eigenvalues --    0.57658   0.57824   0.57919   0.58043   0.58164
 Alpha virt. eigenvalues --    0.58319   0.58441   0.58702   0.58797   0.59020
 Alpha virt. eigenvalues --    0.59145   0.59426   0.59717   0.59849   0.59999
 Alpha virt. eigenvalues --    0.60134   0.60286   0.60309   0.60534   0.60565
 Alpha virt. eigenvalues --    0.60944   0.60996   0.61083   0.61132   0.61344
 Alpha virt. eigenvalues --    0.61539   0.61612   0.61614   0.61834   0.62063
 Alpha virt. eigenvalues --    0.62151   0.62339   0.62479   0.62715   0.62918
 Alpha virt. eigenvalues --    0.63067   0.63151   0.63263   0.63349   0.63493
 Alpha virt. eigenvalues --    0.63578   0.63747   0.63872   0.64012   0.64094
 Alpha virt. eigenvalues --    0.64211   0.64317   0.64455   0.64477   0.64650
 Alpha virt. eigenvalues --    0.64741   0.64973   0.65090   0.65264   0.65294
 Alpha virt. eigenvalues --    0.65432   0.65483   0.65640   0.65762   0.65882
 Alpha virt. eigenvalues --    0.66132   0.66198   0.66271   0.66385   0.66427
 Alpha virt. eigenvalues --    0.66546   0.66645   0.66792   0.66854   0.67018
 Alpha virt. eigenvalues --    0.67062   0.67304   0.67320   0.67364   0.67565
 Alpha virt. eigenvalues --    0.67697   0.67773   0.67807   0.67980   0.68004
 Alpha virt. eigenvalues --    0.68054   0.68264   0.68390   0.68498   0.68565
 Alpha virt. eigenvalues --    0.68725   0.68868   0.68895   0.69139   0.69207
 Alpha virt. eigenvalues --    0.69398   0.69449   0.69680   0.69767   0.69876
 Alpha virt. eigenvalues --    0.69969   0.70077   0.70134   0.70488   0.70592
 Alpha virt. eigenvalues --    0.70643   0.70776   0.70820   0.71045   0.71080
 Alpha virt. eigenvalues --    0.71407   0.71622   0.71712   0.71864   0.71938
 Alpha virt. eigenvalues --    0.72075   0.72282   0.72377   0.72580   0.72728
 Alpha virt. eigenvalues --    0.72793   0.73042   0.73175   0.73327   0.73489
 Alpha virt. eigenvalues --    0.73635   0.73781   0.73852   0.74099   0.74134
 Alpha virt. eigenvalues --    0.74473   0.74794   0.74934   0.75075   0.75313
 Alpha virt. eigenvalues --    0.75395   0.75609   0.75849   0.76087   0.76202
 Alpha virt. eigenvalues --    0.76366   0.76775   0.76879   0.76981   0.77269
 Alpha virt. eigenvalues --    0.77381   0.77664   0.77930   0.78509   0.78701
 Alpha virt. eigenvalues --    0.78912   0.79234   0.79479   0.79829   0.80059
 Alpha virt. eigenvalues --    0.80186   0.80369   0.80413   0.80624   0.81051
 Alpha virt. eigenvalues --    0.81172   0.81472   0.81674   0.81867   0.82019
 Alpha virt. eigenvalues --    0.82382   0.82478   0.82848   0.83227   0.83491
 Alpha virt. eigenvalues --    0.83813   0.83888   0.84091   0.84639   0.84763
 Alpha virt. eigenvalues --    0.84935   0.85049   0.85667   0.85864   0.86048
 Alpha virt. eigenvalues --    0.86285   0.86595   0.86912   0.87162   0.87311
 Alpha virt. eigenvalues --    0.87828   0.87981   0.88200   0.88507   0.88561
 Alpha virt. eigenvalues --    0.88961   0.89123   0.89479   0.89780   0.90319
 Alpha virt. eigenvalues --    0.90686   0.90837   0.91104   0.91310   0.91534
 Alpha virt. eigenvalues --    0.91802   0.92326   0.92445   0.92983   0.93420
 Alpha virt. eigenvalues --    0.93684   0.94020   0.94138   0.94372   0.94806
 Alpha virt. eigenvalues --    0.94960   0.95268   0.95588   0.95934   0.96319
 Alpha virt. eigenvalues --    0.96484   0.96729   0.96993   0.97393   0.97436
 Alpha virt. eigenvalues --    0.97705   0.98177   0.98469   0.98602   0.99107
 Alpha virt. eigenvalues --    0.99279   0.99625   0.99759   0.99866   1.00189
 Alpha virt. eigenvalues --    1.00614   1.00702   1.01065   1.01302   1.01786
 Alpha virt. eigenvalues --    1.01954   1.02199   1.02453   1.03205   1.03315
 Alpha virt. eigenvalues --    1.03440   1.03870   1.03960   1.04441   1.05006
 Alpha virt. eigenvalues --    1.05134   1.05623   1.06135   1.06263   1.06557
 Alpha virt. eigenvalues --    1.06579   1.07058   1.07328   1.07705   1.07860
 Alpha virt. eigenvalues --    1.08100   1.08328   1.08457   1.08632   1.08913
 Alpha virt. eigenvalues --    1.09084   1.09809   1.10165   1.10245   1.10683
 Alpha virt. eigenvalues --    1.10948   1.11217   1.11731   1.11995   1.12238
 Alpha virt. eigenvalues --    1.12355   1.12788   1.12995   1.13244   1.13664
 Alpha virt. eigenvalues --    1.13920   1.14006   1.14276   1.14661   1.14801
 Alpha virt. eigenvalues --    1.15178   1.15197   1.15497   1.15631   1.16107
 Alpha virt. eigenvalues --    1.16653   1.16708   1.17099   1.17722   1.17923
 Alpha virt. eigenvalues --    1.18162   1.18418   1.18823   1.19013   1.19351
 Alpha virt. eigenvalues --    1.19503   1.19905   1.20003   1.20092   1.20239
 Alpha virt. eigenvalues --    1.20846   1.21304   1.21413   1.22090   1.22325
 Alpha virt. eigenvalues --    1.22607   1.22651   1.22871   1.22986   1.23288
 Alpha virt. eigenvalues --    1.23749   1.23945   1.24072   1.24372   1.24493
 Alpha virt. eigenvalues --    1.24709   1.24869   1.25136   1.25488   1.25776
 Alpha virt. eigenvalues --    1.25893   1.26095   1.26410   1.26491   1.26692
 Alpha virt. eigenvalues --    1.26976   1.27141   1.27516   1.27568   1.28260
 Alpha virt. eigenvalues --    1.28395   1.28699   1.28862   1.29005   1.29121
 Alpha virt. eigenvalues --    1.29526   1.29844   1.29974   1.30222   1.30784
 Alpha virt. eigenvalues --    1.30983   1.31244   1.31527   1.32098   1.32447
 Alpha virt. eigenvalues --    1.32765   1.32869   1.33082   1.33373   1.33667
 Alpha virt. eigenvalues --    1.33857   1.34216   1.34517   1.34877   1.35006
 Alpha virt. eigenvalues --    1.35342   1.35679   1.35746   1.36153   1.36639
 Alpha virt. eigenvalues --    1.36869   1.37173   1.37353   1.37879   1.38109
 Alpha virt. eigenvalues --    1.38440   1.38548   1.39166   1.39330   1.39411
 Alpha virt. eigenvalues --    1.39822   1.39851   1.40105   1.40249   1.40497
 Alpha virt. eigenvalues --    1.40642   1.40693   1.41280   1.41460   1.42086
 Alpha virt. eigenvalues --    1.42403   1.42714   1.42981   1.43232   1.43460
 Alpha virt. eigenvalues --    1.43753   1.44033   1.44314   1.44415   1.44552
 Alpha virt. eigenvalues --    1.45204   1.45621   1.45944   1.46010   1.46928
 Alpha virt. eigenvalues --    1.47140   1.47160   1.47358   1.47560   1.48110
 Alpha virt. eigenvalues --    1.48552   1.48623   1.48733   1.49260   1.49577
 Alpha virt. eigenvalues --    1.50017   1.50111   1.50257   1.50428   1.50904
 Alpha virt. eigenvalues --    1.50985   1.51478   1.51636   1.51939   1.52021
 Alpha virt. eigenvalues --    1.52335   1.52596   1.52649   1.52919   1.53072
 Alpha virt. eigenvalues --    1.53287   1.53608   1.54227   1.54257   1.54471
 Alpha virt. eigenvalues --    1.54890   1.55015   1.55134   1.55440   1.55984
 Alpha virt. eigenvalues --    1.56377   1.56988   1.57397   1.57660   1.57764
 Alpha virt. eigenvalues --    1.58252   1.58575   1.58943   1.59474   1.59554
 Alpha virt. eigenvalues --    1.60127   1.60309   1.60898   1.61505   1.61886
 Alpha virt. eigenvalues --    1.62040   1.62256   1.62710   1.62773   1.63177
 Alpha virt. eigenvalues --    1.63574   1.63688   1.64139   1.64181   1.64271
 Alpha virt. eigenvalues --    1.64966   1.65189   1.65278   1.65471   1.65925
 Alpha virt. eigenvalues --    1.66252   1.66368   1.66996   1.67102   1.67351
 Alpha virt. eigenvalues --    1.67545   1.67880   1.68067   1.68376   1.68567
 Alpha virt. eigenvalues --    1.68951   1.69041   1.69450   1.69558   1.69926
 Alpha virt. eigenvalues --    1.70144   1.70364   1.70904   1.71053   1.71232
 Alpha virt. eigenvalues --    1.71334   1.71865   1.71916   1.72137   1.72584
 Alpha virt. eigenvalues --    1.72634   1.72908   1.73006   1.73464   1.73732
 Alpha virt. eigenvalues --    1.74003   1.74079   1.74301   1.74626   1.75091
 Alpha virt. eigenvalues --    1.75218   1.75431   1.75503   1.75703   1.75812
 Alpha virt. eigenvalues --    1.76016   1.76245   1.76337   1.76660   1.76711
 Alpha virt. eigenvalues --    1.76791   1.77099   1.77294   1.77427   1.77456
 Alpha virt. eigenvalues --    1.77841   1.78010   1.78112   1.78349   1.78470
 Alpha virt. eigenvalues --    1.78568   1.78837   1.78909   1.79014   1.79313
 Alpha virt. eigenvalues --    1.79411   1.79523   1.79824   1.79940   1.80143
 Alpha virt. eigenvalues --    1.80344   1.80525   1.80712   1.80814   1.81063
 Alpha virt. eigenvalues --    1.81260   1.81312   1.81490   1.81671   1.81894
 Alpha virt. eigenvalues --    1.82045   1.82257   1.82265   1.82432   1.82647
 Alpha virt. eigenvalues --    1.82787   1.83022   1.83137   1.83437   1.83533
 Alpha virt. eigenvalues --    1.83724   1.84023   1.84318   1.84413   1.84762
 Alpha virt. eigenvalues --    1.84978   1.85175   1.85342   1.85366   1.85446
 Alpha virt. eigenvalues --    1.85754   1.85826   1.86002   1.86083   1.86185
 Alpha virt. eigenvalues --    1.86286   1.86453   1.86553   1.86769   1.86902
 Alpha virt. eigenvalues --    1.86994   1.87187   1.87294   1.87737   1.87826
 Alpha virt. eigenvalues --    1.88382   1.88720   1.88830   1.88939   1.88991
 Alpha virt. eigenvalues --    1.89339   1.89470   1.89632   1.89734   1.90118
 Alpha virt. eigenvalues --    1.90392   1.90405   1.90539   1.90692   1.90799
 Alpha virt. eigenvalues --    1.91183   1.91294   1.91361   1.91620   1.92003
 Alpha virt. eigenvalues --    1.92149   1.92368   1.92417   1.92694   1.92929
 Alpha virt. eigenvalues --    1.93296   1.93493   1.93558   1.93747   1.94096
 Alpha virt. eigenvalues --    1.94209   1.94302   1.94615   1.95052   1.95138
 Alpha virt. eigenvalues --    1.95496   1.95587   1.95666   1.95936   1.96020
 Alpha virt. eigenvalues --    1.96161   1.96681   1.96857   1.97061   1.97309
 Alpha virt. eigenvalues --    1.97475   1.97805   1.98007   1.98411   1.98495
 Alpha virt. eigenvalues --    1.99009   1.99387   1.99515   1.99614   2.00063
 Alpha virt. eigenvalues --    2.00139   2.00417   2.00759   2.00875   2.01091
 Alpha virt. eigenvalues --    2.01414   2.01927   2.02231   2.02395   2.02896
 Alpha virt. eigenvalues --    2.03014   2.03232   2.03339   2.03447   2.03677
 Alpha virt. eigenvalues --    2.03798   2.03919   2.03940   2.04144   2.04457
 Alpha virt. eigenvalues --    2.04661   2.04729   2.05193   2.05343   2.05706
 Alpha virt. eigenvalues --    2.05799   2.06240   2.06684   2.06974   2.07374
 Alpha virt. eigenvalues --    2.07547   2.07664   2.08066   2.08333   2.08600
 Alpha virt. eigenvalues --    2.09159   2.09298   2.09742   2.10183   2.10816
 Alpha virt. eigenvalues --    2.11012   2.11164   2.11434   2.11578   2.11809
 Alpha virt. eigenvalues --    2.12077   2.12141   2.12274   2.12715   2.12968
 Alpha virt. eigenvalues --    2.13271   2.13329   2.13831   2.14037   2.14081
 Alpha virt. eigenvalues --    2.14469   2.14918   2.15081   2.15357   2.15673
 Alpha virt. eigenvalues --    2.16056   2.16331   2.16475   2.16652   2.17003
 Alpha virt. eigenvalues --    2.17104   2.17190   2.17248   2.17726   2.17988
 Alpha virt. eigenvalues --    2.18004   2.18255   2.19006   2.19695   2.19747
 Alpha virt. eigenvalues --    2.20141   2.20447   2.20854   2.21014   2.21169
 Alpha virt. eigenvalues --    2.21508   2.21762   2.21870   2.21953   2.22564
 Alpha virt. eigenvalues --    2.23371   2.23661   2.23989   2.24372   2.24456
 Alpha virt. eigenvalues --    2.24893   2.25299   2.25338   2.25947   2.26196
 Alpha virt. eigenvalues --    2.26521   2.26631   2.26816   2.27180   2.27615
 Alpha virt. eigenvalues --    2.27783   2.28733   2.28887   2.29276   2.29601
 Alpha virt. eigenvalues --    2.29869   2.30015   2.30324   2.30685   2.30722
 Alpha virt. eigenvalues --    2.30933   2.31529   2.31979   2.32356   2.32465
 Alpha virt. eigenvalues --    2.32894   2.33439   2.33581   2.34175   2.34264
 Alpha virt. eigenvalues --    2.34722   2.34776   2.35255   2.35680   2.36241
 Alpha virt. eigenvalues --    2.36356   2.36782   2.36977   2.37283   2.37594
 Alpha virt. eigenvalues --    2.38022   2.38151   2.38666   2.38912   2.39173
 Alpha virt. eigenvalues --    2.39204   2.39918   2.40366   2.40593   2.40721
 Alpha virt. eigenvalues --    2.41111   2.41136   2.41468   2.41539   2.42215
 Alpha virt. eigenvalues --    2.42584   2.42659   2.42953   2.43258   2.43506
 Alpha virt. eigenvalues --    2.43932   2.44169   2.44264   2.44978   2.45314
 Alpha virt. eigenvalues --    2.45455   2.45978   2.46117   2.46299   2.46636
 Alpha virt. eigenvalues --    2.46714   2.47035   2.47228   2.47820   2.48195
 Alpha virt. eigenvalues --    2.48675   2.49099   2.49440   2.49541   2.49717
 Alpha virt. eigenvalues --    2.50073   2.50895   2.51582   2.51644   2.51888
 Alpha virt. eigenvalues --    2.52369   2.52777   2.53533   2.53625   2.53997
 Alpha virt. eigenvalues --    2.54339   2.54617   2.54831   2.55650   2.56281
 Alpha virt. eigenvalues --    2.56637   2.57111   2.57371   2.57417   2.57699
 Alpha virt. eigenvalues --    2.58098   2.58325   2.58713   2.59123   2.59345
 Alpha virt. eigenvalues --    2.59450   2.59704   2.59853   2.59913   2.60640
 Alpha virt. eigenvalues --    2.60869   2.61299   2.61376   2.62095   2.62489
 Alpha virt. eigenvalues --    2.62764   2.62833   2.62877   2.63106   2.63664
 Alpha virt. eigenvalues --    2.64111   2.64350   2.65038   2.65138   2.65431
 Alpha virt. eigenvalues --    2.65551   2.65967   2.66353   2.66697   2.66840
 Alpha virt. eigenvalues --    2.67537   2.67863   2.68171   2.68293   2.68625
 Alpha virt. eigenvalues --    2.68829   2.68896   2.69181   2.69317   2.69539
 Alpha virt. eigenvalues --    2.69947   2.70130   2.70651   2.70826   2.70937
 Alpha virt. eigenvalues --    2.71731   2.71830   2.71943   2.72154   2.72328
 Alpha virt. eigenvalues --    2.72413   2.72655   2.73419   2.73648   2.73890
 Alpha virt. eigenvalues --    2.74152   2.74353   2.74481   2.74754   2.75096
 Alpha virt. eigenvalues --    2.75177   2.75586   2.76040   2.76146   2.76365
 Alpha virt. eigenvalues --    2.76441   2.77152   2.77243   2.77385   2.77826
 Alpha virt. eigenvalues --    2.78169   2.78283   2.78541   2.78639   2.78912
 Alpha virt. eigenvalues --    2.79055   2.79148   2.79621   2.79730   2.80001
 Alpha virt. eigenvalues --    2.80199   2.80745   2.80762   2.81038   2.81257
 Alpha virt. eigenvalues --    2.81762   2.82074   2.82180   2.82647   2.82702
 Alpha virt. eigenvalues --    2.82890   2.83012   2.83199   2.83409   2.84177
 Alpha virt. eigenvalues --    2.84524   2.85321   2.85554   2.85681   2.86068
 Alpha virt. eigenvalues --    2.86249   2.86825   2.87466   2.87582   2.87758
 Alpha virt. eigenvalues --    2.88124   2.88341   2.88766   2.89002   2.89136
 Alpha virt. eigenvalues --    2.89614   2.89692   2.89909   2.90877   2.91003
 Alpha virt. eigenvalues --    2.91137   2.91308   2.91588   2.91656   2.92369
 Alpha virt. eigenvalues --    2.92613   2.92893   2.93115   2.93204   2.93839
 Alpha virt. eigenvalues --    2.94254   2.94409   2.94526   2.94609   2.95221
 Alpha virt. eigenvalues --    2.95242   2.95614   2.95824   2.95903   2.96586
 Alpha virt. eigenvalues --    2.96786   2.96873   2.97969   2.98636   2.99486
 Alpha virt. eigenvalues --    2.99704   3.00204   3.00398   3.00702   3.00790
 Alpha virt. eigenvalues --    3.01447   3.01593   3.01955   3.02196   3.02411
 Alpha virt. eigenvalues --    3.02648   3.02964   3.03011   3.03722   3.03921
 Alpha virt. eigenvalues --    3.04177   3.04611   3.05059   3.05548   3.05809
 Alpha virt. eigenvalues --    3.05881   3.06373   3.06795   3.07009   3.07349
 Alpha virt. eigenvalues --    3.07931   3.08543   3.08774   3.09267   3.09463
 Alpha virt. eigenvalues --    3.09589   3.09902   3.10001   3.11973   3.12512
 Alpha virt. eigenvalues --    3.14119   3.14337   3.14399   3.14874   3.15409
 Alpha virt. eigenvalues --    3.15529   3.15753   3.15944   3.16059   3.16317
 Alpha virt. eigenvalues --    3.16797   3.16971   3.17136   3.17713   3.18277
 Alpha virt. eigenvalues --    3.18897   3.19378   3.19471   3.19654   3.20103
 Alpha virt. eigenvalues --    3.20210   3.20621   3.20995   3.21056   3.21476
 Alpha virt. eigenvalues --    3.21479   3.21588   3.22339   3.22775   3.23111
 Alpha virt. eigenvalues --    3.23609   3.24097   3.24550   3.24700   3.25228
 Alpha virt. eigenvalues --    3.25457   3.25890   3.26204   3.27234   3.27649
 Alpha virt. eigenvalues --    3.27927   3.28431   3.29490   3.30075   3.31599
 Alpha virt. eigenvalues --    3.32605   3.33902   3.35071   3.35140   3.35592
 Alpha virt. eigenvalues --    3.37322   3.37516   3.37792   3.40015   3.42266
 Alpha virt. eigenvalues --    3.43237   3.46486   3.49087   3.50055   3.50724
 Alpha virt. eigenvalues --    3.51930   3.52457   3.54293   3.55952   3.56221
 Alpha virt. eigenvalues --    3.57015   3.58099   3.58283   3.59523   3.60297
 Alpha virt. eigenvalues --    3.61553   3.62240   3.62673   3.62881   3.63172
 Alpha virt. eigenvalues --    3.64301   3.66152   3.68181   3.68457   3.69211
 Alpha virt. eigenvalues --    3.69753   3.69915   3.70216   3.70467   3.71168
 Alpha virt. eigenvalues --    3.71702   3.71762   3.71918   3.72208   3.72307
 Alpha virt. eigenvalues --    3.72628   3.73752   3.73986   3.74502   3.74585
 Alpha virt. eigenvalues --    3.77687   3.84018   3.84739   3.90317
          Condensed to atoms (all electrons):
 Mulliken charges:
               1
     1  C    0.066773
     2  C    0.023338
     3  O   -0.309196
     4  H    0.042575
     5  H    0.009584
     6  H    0.036403
     7  N   -0.121383
     8  C    0.088147
     9  C    0.089868
    10  O   -0.279944
    11  C    0.079025
    12  C    0.157452
    13  O   -0.450720
    14  O   -0.391511
    15  H    0.120190
    16  H    0.033555
    17  H    0.007984
    18  H   -0.016783
    19  N   -0.099164
    20  C    0.178569
    21  C    0.025402
    22  O   -0.266913
    23  C   -0.033447
    24  C    0.035397
    25  C   -0.052165
    26  C    0.052726
    27  N    0.077026
    28  H    0.141313
    29  H   -0.002732
    30  H    0.035904
    31  H    0.015581
    32  H    0.014656
    33  H    0.006017
    34  H    0.015889
    35  H    0.075468
    36  H    0.086655
    37  H    0.053167
    38  H    0.191597
    39  H    0.183941
    40  H    0.192260
    41  N   -0.174062
    42  C    0.144887
    43  C    0.087468
    44  O   -0.286132
    45  C    0.071855
    46  C    0.104933
    47  O   -0.459427
    48  O   -0.408308
    49  H    0.149223
    50  H    0.001225
    51  H   -0.038635
    52  H    0.037821
    53  N   -0.152799
    54  C    0.213745
    55  C    0.035307
    56  O   -0.290620
    57  H    0.153097
    58  H    0.009345
    59  H    0.030136
    60  N   -0.186074
    61  C    0.181938
    62  C    0.060686
    63  O   -0.304623
    64  C    0.057761
    65  C    0.058575
    66  N   -0.021368
    67  O   -0.352619
    68  H    0.162043
    69  H    0.022571
    70  H    0.055413
    71  H    0.018085
    72  H    0.131914
    73  H    0.116350
    74  N   -0.149939
    75  C    0.229245
    76  C    0.027009
    77  O   -0.309932
    78  H    0.145639
    79  H    0.040621
    80  H    0.017011
    81  N   -0.132318
    82  C    0.167101
    83  C    0.099212
    84  O   -0.351273
    85  C    0.112142
    86  C    0.008376
    87  C    0.016668
    88  C   -0.007696
    89  C   -0.016687
    90  C   -0.028540
    91  C    0.150700
    92  O   -0.190263
    93  H    0.150155
    94  H   -0.020029
    95  H   -0.010659
    96  H   -0.013572
    97  H   -0.015016
    98  H   -0.045337
    99  H   -0.019433
   100  H   -0.063294
   101  H    0.167799
   102  N   -0.118972
   103  C    0.100215
   104  C    0.053643
   105  O   -0.287685
   106  C   -0.076439
   107  C   -0.013545
   108  C    0.061969
   109  C    0.047265
   110  H    0.138340
   111  H    0.025864
   112  H   -0.024361
   113  H    0.008435
   114  H    0.014278
   115  H   -0.006236
   116  H    0.015531
   117  H    0.029992
   118  H   -0.001196
   119  H    0.002058
   120  H    0.009085
   121  N   -0.135236
   122  C    0.085356
   123  C    0.121068
   124  O   -0.277143
   125  C    0.259208
   126  O   -0.340489
   127  H    0.152913
   128  H    0.007672
   129  H   -0.004678
   130  H   -0.042485
   131  H    0.180616
   132  N   -0.106049
   133  C    0.102541
   134  C    0.063910
   135  O   -0.243569
   136  C    0.023354
   137  H    0.126174
   138  H    0.020227
   139  H    0.017545
   140  H    0.009734
   141  H    0.043389
   142  N   -0.149749
   143  C    0.105894
   144  C    0.076993
   145  O   -0.277281
   146  C    0.031271
   147  H    0.115486
   148  H    0.008233
   149  H    0.014781
   150  H    0.007728
   151  H    0.021974
   152  N   -0.175796
   153  C    0.130694
   154  C    0.052388
   155  O   -0.305924
   156  C    0.012159
   157  C    0.081074
   158  C    0.168794
   159  O   -0.467803
   160  O   -0.409988
   161  H    0.133596
   162  H   -0.025471
   163  H    0.032344
   164  H    0.015828
   165  H    0.005139
   166  H   -0.048181
   167  N   -0.146344
   168  C    0.159852
   169  H    0.025228
   170  H    0.012041
   171  H    0.004907
   172  H    0.129392
   173  Ca   1.276994
   174  O   -0.304833
   175  H    0.169523
   176  H    0.176858
 Sum of Mulliken charges =  -0.00000
 Mulliken charges with hydrogens summed into heavy atoms:
               1
     1  C    0.155334
     2  C    0.023338
     3  O   -0.309196
     7  N   -0.001193
     8  C    0.121703
     9  C    0.089868
    10  O   -0.279944
    11  C    0.070225
    12  C    0.157452
    13  O   -0.450720
    14  O   -0.391511
    19  N    0.042149
    20  C    0.175837
    21  C    0.025402
    22  O   -0.266913
    23  C    0.018037
    24  C    0.056070
    25  C    0.039193
    26  C    0.192548
    27  N    0.644823
    41  N   -0.024839
    42  C    0.146112
    43  C    0.087468
    44  O   -0.286132
    45  C    0.071040
    46  C    0.104933
    47  O   -0.459427
    48  O   -0.408308
    53  N    0.000298
    54  C    0.253226
    55  C    0.035307
    56  O   -0.290620
    60  N   -0.024031
    61  C    0.204509
    62  C    0.060686
    63  O   -0.304623
    64  C    0.131259
    65  C    0.058575
    66  N    0.226896
    67  O   -0.352619
    74  N   -0.004300
    75  C    0.286878
    76  C    0.027009
    77  O   -0.309932
    81  N    0.017837
    82  C    0.147071
    83  C    0.099212
    84  O   -0.351273
    85  C    0.087911
    86  C    0.008376
    87  C    0.001652
    88  C   -0.053033
    89  C   -0.036121
    90  C   -0.091833
    91  C    0.150700
    92  O   -0.022465
   102  N    0.019368
   103  C    0.126079
   104  C    0.053643
   105  O   -0.287685
   106  C   -0.100801
   107  C    0.009168
   108  C    0.101256
   109  C    0.057212
   121  N    0.017677
   122  C    0.093027
   123  C    0.121068
   124  O   -0.277143
   125  C    0.212045
   126  O   -0.159873
   132  N    0.020125
   133  C    0.122768
   134  C    0.063910
   135  O   -0.243569
   136  C    0.094022
   142  N   -0.034263
   143  C    0.114127
   144  C    0.076993
   145  O   -0.277281
   146  C    0.075753
   152  N   -0.042200
   153  C    0.105223
   154  C    0.052388
   155  O   -0.305924
   156  C    0.060331
   157  C    0.038032
   158  C    0.168794
   159  O   -0.467803
   160  O   -0.409988
   167  N   -0.016952
   168  C    0.202028
   173  Ca   1.276994
   174  O    0.041549
 DipInt: DoE/N= T F RetVal/Mat= T F Init=T NMatP=  1 IDeriv=0 Min/MaxMlt=  0  4
 Entering OneElI...
 OneElI was handed  1333951383 working-precision words.
 Multipole integrals L=0 to 4 MinM= 0 MaxM= 0.
 Requested accuracy = 0.1000D-12
 ShPair: Thresh= 1.00D-13 NBox=     0 BxSize= 0.00D+00 RnKept= 2.55D+01
         NSMCal=               327645 NSMKep=              162107
 PrmmSu-InSpLW:  IPartL=    0 NPrtUS=    1 NPrtUL=    1 DoSpLW=F IThBeg=    0 IThEnd=    0 NThAct=    1.
 PrsmSu:  NPrtUS=   1 ThrOK=F IAlg=1 NPAlg=1 LenDen=           0 ISkipM=0 DoSpLW=F IThBeg=    0 IThEnd=    0.
 Prism:   IPart=     0 DynPar=F LinDyn=F Incr=         512.
 PRISM was handed  1323816687 working-precision words and162107 shell-pairs
 IPart=  0 NShTot=      162107 NBatch=         372 AvBLen=       435.8
 PrsmSu-ThDecC:  IPartSL=    0    0 NPrtUSL=    1    1 IThBeg=    0 IThEnd=    0 CPU=   -1 GPU=   -1 NThAct=    1.
 PrSmSu:  NxtVal=            513.
 Electronic moments (au):
       -716.00000000         12.73794118          4.75810868         -4.52325366
     -49109.46865128     -32337.63451682     -12230.80926666        109.56492940
        -41.31457536        -25.69920962     -32266.79027275     -32460.25808862
     -22153.75133873      10752.05340221     111362.47091371      52095.45093970
     -13117.04400524      -1905.44303936      24966.47961143      -6461.38044839
   -6738266.79297274   -3423954.72332959    -633136.93627978    -151779.12336296
     121803.34234429    -770660.98739187      18071.64772724     -58089.48840754
      22607.70311706   -2401759.28895458    -593234.40556658    -333934.46278859
    -224767.42668476      56578.10706226      57978.54375366
 Electronic spatial extent (au):  <R**2>=          93677.9124
 DipInt: DoE/N= F T RetVal/Mat= T F Init=T NMatP=  1 IDeriv=0 Min/MaxMlt=  0  4
 Nuclear    moments (au):
        716.00000000          0.00000000          0.00000000          0.00000000
      48588.78599417      32079.12266040      11864.78505099         -0.00000000
         -0.00000000         -0.00000000      33165.76088970      34248.12278912
      22108.53963602      -8239.64347290    -110770.42720628     -52612.39890979
      13346.77363435       2065.24634489     -25836.02706906       6121.05499329
    6534048.33411409    3354336.35984838     594370.33531685     158850.99920328
    -126749.38105876     800840.62336943     -28141.15131282      57844.80544294
     -22331.46079307    2371117.59429528     559586.59187538     311381.18954664
     221814.10229949     -65020.13206670     -57213.33595603
 Total      moments (au):
         -0.00000000         12.73794118          4.75810868         -4.52325366
       -520.68265711       -258.51185642       -366.02421567        109.56492940
        -41.31457536        -25.69920962        898.97061695       1787.86470050
        -45.21170271       2512.40992931        592.04370743       -516.94797009
        229.72962911        159.80330553       -869.54745763       -340.32545510
    -204218.45885865     -69618.36348121     -38766.60096294       7071.87584032
      -4946.03871447      30179.63597756     -10069.50358558       -244.68296460
        276.24232399     -30641.69465930     -33647.81369120     -22553.27324195
      -2953.32438528      -8442.02500444        765.20779762
 Traceless Quadrup. (au):
       -138.94308071        123.22771998         15.71536073        109.56492940
        -41.31457536        -25.69920962
 Charge=             -0.0000 electrons
 Dipole moment (field-independent basis, Debye):
    X=             32.3766    Y=             12.0939    Z=            -11.4970  Tot=             36.4237
 Quadrupole moment (field-independent basis, Debye-Ang):
   XX=           -700.3360   YY=           -347.7073   ZZ=           -492.3151
   XY=            147.3686   XZ=            -55.5695   YZ=            -34.5663
 Traceless Quadrupole moment (field-independent basis, Debye-Ang):
   XX=           -186.8832   YY=            165.7455   ZZ=             21.1377
   XY=            147.3686   XZ=            -55.5695   YZ=            -34.5663
 Octapole moment (field-independent basis, Debye-Ang**2):
  XXX=            639.8527  YYY=           1272.5332  ZZZ=            -32.1799  XYY=           1788.2366
  XXY=            421.3939  XXZ=           -367.9436  XZZ=            163.5127  YZZ=            113.7418
  YYZ=           -618.9104  XYZ=           -242.2305
 Hexadecapole moment (field-independent basis, Debye-Ang**3):
 XXXX=         -76918.4642 YYYY=         -26221.6140 ZZZZ=         -14601.3608 XXXY=           2663.6075
 XXXZ=          -1862.9154 YYYX=          11367.0981 YYYZ=          -3792.6579 ZZZX=            -92.1593
 ZZZY=            104.0461 XXYY=         -11541.1315 XXZZ=         -12673.3801 YYZZ=          -8494.6442
 XXYZ=          -1112.3636 YYXZ=          -3179.6714 ZZXY=            288.2139
 N-N= 2.184477664529D+04 E-N=-5.617384853773D+04  KE= 5.290682035825D+03
 Leave Link  601 at Wed Sep 18 17:31:40 2019, MaxMem=  1342177280 cpu:              47.2 elap:               1.2
 FitSet:  NAtFit=   176 NAtPot=   176 NAtFrz=     0 MDM=   180 TotChg=   0.00000
 Merz-Kollman atomic radii used.
 Read replacement radii for each type of atom:
 Rad(20) =   1.700000000000D+00
 Atom Element Radius
    1     6    1.50
    2     6    1.50
    3     8    1.40
    4     1    1.20
    5     1    1.20
    6     1    1.20
    7     7    1.50
    8     6    1.50
    9     6    1.50
   10     8    1.40
   11     6    1.50
   12     6    1.50
   13     8    1.40
   14     8    1.40
   15     1    1.20
   16     1    1.20
   17     1    1.20
   18     1    1.20
   19     7    1.50
   20     6    1.50
   21     6    1.50
   22     8    1.40
   23     6    1.50
   24     6    1.50
   25     6    1.50
   26     6    1.50
   27     7    1.50
   28     1    1.20
   29     1    1.20
   30     1    1.20
   31     1    1.20
   32     1    1.20
   33     1    1.20
   34     1    1.20
   35     1    1.20
   36     1    1.20
   37     1    1.20
   38     1    1.20
   39     1    1.20
   40     1    1.20
   41     7    1.50
   42     6    1.50
   43     6    1.50
   44     8    1.40
   45     6    1.50
   46     6    1.50
   47     8    1.40
   48     8    1.40
   49     1    1.20
   50     1    1.20
   51     1    1.20
   52     1    1.20
   53     7    1.50
   54     6    1.50
   55     6    1.50
   56     8    1.40
   57     1    1.20
   58     1    1.20
   59     1    1.20
   60     7    1.50
   61     6    1.50
   62     6    1.50
   63     8    1.40
   64     6    1.50
   65     6    1.50
   66     7    1.50
   67     8    1.40
   68     1    1.20
   69     1    1.20
   70     1    1.20
   71     1    1.20
   72     1    1.20
   73     1    1.20
   74     7    1.50
   75     6    1.50
   76     6    1.50
   77     8    1.40
   78     1    1.20
   79     1    1.20
   80     1    1.20
   81     7    1.50
   82     6    1.50
   83     6    1.50
   84     8    1.40
   85     6    1.50
   86     6    1.50
   87     6    1.50
   88     6    1.50
   89     6    1.50
   90     6    1.50
   91     6    1.50
   92     8    1.40
   93     1    1.20
   94     1    1.20
   95     1    1.20
   96     1    1.20
   97     1    1.20
   98     1    1.20
   99     1    1.20
  100     1    1.20
  101     1    1.20
  102     7    1.50
  103     6    1.50
  104     6    1.50
  105     8    1.40
  106     6    1.50
  107     6    1.50
  108     6    1.50
  109     6    1.50
  110     1    1.20
  111     1    1.20
  112     1    1.20
  113     1    1.20
  114     1    1.20
  115     1    1.20
  116     1    1.20
  117     1    1.20
  118     1    1.20
  119     1    1.20
  120     1    1.20
  121     7    1.50
  122     6    1.50
  123     6    1.50
  124     8    1.40
  125     6    1.50
  126     8    1.40
  127     1    1.20
  128     1    1.20
  129     1    1.20
  130     1    1.20
  131     1    1.20
  132     7    1.50
  133     6    1.50
  134     6    1.50
  135     8    1.40
  136     6    1.50
  137     1    1.20
  138     1    1.20
  139     1    1.20
  140     1    1.20
  141     1    1.20
  142     7    1.50
  143     6    1.50
  144     6    1.50
  145     8    1.40
  146     6    1.50
  147     1    1.20
  148     1    1.20
  149     1    1.20
  150     1    1.20
  151     1    1.20
  152     7    1.50
  153     6    1.50
  154     6    1.50
  155     8    1.40
  156     6    1.50
  157     6    1.50
  158     6    1.50
  159     8    1.40
  160     8    1.40
  161     1    1.20
  162     1    1.20
  163     1    1.20
  164     1    1.20
  165     1    1.20
[...]
 **** Fit      -0.005650
 **** Fit      -0.000617
 **** Fit      -0.053575
 **** Fit      -0.052907
 **** Fit      -0.050713
 **** Fit      -0.045920
 **** Fit      -0.040498
 **** Fit      -0.034530
 **** Fit      -0.028104
 **** Fit      -0.021350
 **** Fit      -0.014477
 **** Fit      -0.034559
 **** Fit      -0.026440
 **** Fit       0.021626
 **** Fit       0.027942
 **** Fit       0.022754
 **** Fit       0.027598
 **** Fit       0.030852
 **** Fit       0.031816
 **** Fit       0.030015
 **** Fit       0.025524
 **** Fit       0.018987
 **** Fit       0.011526
 **** Fit       0.025370
 **** Fit       0.026287
 **** Fit       0.024760
 **** Fit       0.020902
 **** Fit       0.015491
 **** Fit       0.018706
 **** Fit       0.014473
 **** Fit       0.008565
 **** Fit      -0.000477
 **** Fit      -0.022702
 **** Fit      -0.009052
 **** Fit       0.003955
 **** Fit      -0.019175
 **** Fit      -0.005292
 **** Fit       0.007699
 **** Fit       0.019730
 **** Fit      -0.000171
 **** Fit       0.012968
 **** Fit       0.024606
 **** Fit       0.005072
 **** Fit       0.017847
 **** Fit       0.028328
 **** Fit       0.008624
 **** Fit       0.020189
 **** Fit       0.028820
 **** Fit       0.033921
 **** Fit       0.014413
 **** Fit       0.023449
 **** Fit       0.028664
 **** Fit       0.029878
 **** Fit       0.007940
 **** Fit       0.017345
 **** Fit       0.022695
 **** Fit       0.023967
 **** Fit       0.012785
 **** Fit       0.017359
 **** Fit       0.017653
 **** Fit       0.009985
 **** Fit       0.012237
 **** Fit      -0.023969
 **** Fit      -0.018402
 **** Fit      -0.011388
 **** Fit      -0.004812
 **** Fit      -0.009637
 **** Fit       0.000071
 **** Fit       0.013052
 **** Fit       0.018356
 **** Fit       0.011343
 **** Fit       0.015634
 **** Fit       0.019508
 **** Fit       0.021982
 **** Fit       0.022369
 **** Fit       0.013528
 **** Fit       0.016542
 **** Fit       0.018708
 **** Fit       0.019129
 **** Fit       0.017462
 **** Fit       0.014086
 **** Fit       0.014158
 **** Fit       0.015774
 **** Fit       0.015810
 **** Fit       0.013865
 **** Fit       0.010383
 **** Fit       0.012964
 **** Fit       0.012197
 **** Fit       0.009180
 **** Fit       0.009857
 **** Fit       0.007786
 **** Fit       0.003354
 **** Fit       0.001035
 **** Fit       0.006077
 **** Fit       0.029512
 **** Fit      -0.052443
 **** Fit      -0.006789
 **** Fit      -0.003960
 **** Fit      -0.004545
 **** Fit      -0.005538
 **** Fit      -0.007437
 **** Fit      -0.008859
 **** Fit      -0.003251
 **** Fit      -0.003511
 **** Fit      -0.004105
 **** Fit      -0.004996
 **** Fit      -0.006123
 **** Fit      -0.008058
 **** Fit      -0.009643
 **** Fit      -0.011370
 **** Fit      -0.002937
 **** Fit      -0.002681
 **** Fit      -0.002651
 **** Fit      -0.002944
 **** Fit      -0.003555
 **** Fit      -0.004417
 **** Fit      -0.005463
 **** Fit      -0.006671
 **** Fit      -0.008653
 **** Fit      -0.010245
 **** Fit      -0.012112
 **** Fit      -0.014197
 **** Fit      -0.016320
 **** Fit      -0.003078
 **** Fit      -0.002565
 **** Fit      -0.002130
 **** Fit      -0.001915
 **** Fit      -0.002020
 **** Fit      -0.002459
 **** Fit      -0.003168
 **** Fit      -0.004055
 **** Fit      -0.005049
 **** Fit      -0.006124
 **** Fit      -0.007304
 **** Fit      -0.015390
 **** Fit      -0.018189
 **** Fit      -0.021109
 **** Fit      -0.003457
 **** Fit      -0.002700
 **** Fit      -0.002519
 **** Fit      -0.003512
 **** Fit      -0.004569
 **** Fit      -0.005639
 **** Fit      -0.006725
 **** Fit      -0.007884
 **** Fit      -0.023381
 **** Fit      -0.027447
 **** Fit      -0.031378
 **** Fit      -0.004260
 **** Fit      -0.003237
 **** Fit      -0.003010
 **** Fit      -0.004205
 **** Fit      -0.005349
 **** Fit      -0.006420
 **** Fit      -0.007448
 **** Fit      -0.031027
 **** Fit      -0.003748
 **** Fit      -0.005095
 **** Fit      -0.006289
 **** Fit      -0.007330
 **** Fit      -0.004956
 **** Fit      -0.006377
 **** Fit      -0.007558
 **** Fit      -0.006491
 **** Fit      -0.007982
 **** Fit      -0.008235
 **** Fit      -0.009907
 **** Fit      -0.010865
 **** Fit      -0.012687
 **** Fit      -0.014828
 **** Fit      -0.016716
 **** Fit      -0.022309
 **** Fit      -0.023482
 **** Fit      -0.010123
 **** Fit      -0.011926
 **** Fit      -0.014122
 **** Fit      -0.008680
 **** Fit      -0.010459
 **** Fit      -0.012168
 **** Fit      -0.014352
 **** Fit      -0.017054
 **** Fit      -0.020171
 **** Fit      -0.008010
 **** Fit      -0.009117
 **** Fit      -0.010949
 **** Fit      -0.012604
 **** Fit      -0.014769
 **** Fit      -0.017572
 **** Fit      -0.021106
 **** Fit      -0.025352
 **** Fit      -0.007714
 **** Fit      -0.008637
 **** Fit      -0.009671
 **** Fit      -0.011674
 **** Fit      -0.013248
 **** Fit      -0.015325
 **** Fit      -0.018057
 **** Fit      -0.021624
 **** Fit      -0.026220
 **** Fit      -0.031981
 **** Fit      -0.007864
 **** Fit      -0.008684
 **** Fit      -0.009511
 **** Fit      -0.010469
 **** Fit      -0.012719
 **** Fit      -0.014307
 **** Fit      -0.016437
 **** Fit      -0.019292
 **** Fit      -0.023117
 **** Fit      -0.028247
 **** Fit      -0.035116
 **** Fit      -0.009098
 **** Fit      -0.009843
 **** Fit      -0.010611
 **** Fit      -0.011530
 **** Fit      -0.014180
 **** Fit      -0.015752
 **** Fit      -0.017886
 **** Fit      -0.020774
 **** Fit      -0.024686
 **** Fit      -0.030031
 **** Fit      -0.010108
 **** Fit      -0.010834
 **** Fit      -0.011471
 **** Fit      -0.012160
 **** Fit      -0.013023
 **** Fit      -0.016165
 **** Fit      -0.017747
 **** Fit      -0.019932
 **** Fit      -0.022918
 **** Fit      -0.027001
 **** Fit      -0.032645
 **** Fit      -0.012599
 **** Fit      -0.013155
 **** Fit      -0.013653
 **** Fit      -0.014238
 **** Fit      -0.015037
 **** Fit      -0.018807
 **** Fit      -0.020471
 **** Fit      -0.022851
 **** Fit      -0.026177
 **** Fit      -0.030804
 **** Fit      -0.037319
 **** Fit      -0.016004
 **** Fit      -0.016308
 **** Fit      -0.016580
 **** Fit      -0.016994
 **** Fit      -0.017694
 **** Fit      -0.022272
 **** Fit      -0.024035
 **** Fit      -0.026691
 **** Fit      -0.030505
 **** Fit      -0.035894
 **** Fit      -0.020861
 **** Fit      -0.020662
 **** Fit      -0.020728
 **** Fit      -0.021219
 **** Fit      -0.026764
 **** Fit      -0.028556
 **** Fit      -0.031447
 **** Fit      -0.035691
 **** Fit      -0.041686
 **** Fit      -0.027586
 **** Fit      -0.026433
 **** Fit      -0.025823
 **** Fit      -0.025896
 **** Fit      -0.032519
 **** Fit      -0.034382
 **** Fit      -0.037785
 **** Fit      -0.042940
 **** Fit      -0.032920
 **** Fit      -0.032055
 **** Fit      -0.039768
 **** Fit      -0.041501
 **** Fit      -0.045342
 **** Fit      -0.005500
 **** Fit      -0.006204
 **** Fit      -0.006900
 **** Fit      -0.006189
 **** Fit      -0.004960
 **** Fit      -0.004504
 **** Fit      -0.005043
 **** Fit      -0.007045
 **** Fit      -0.008225
 **** Fit      -0.008812
 **** Fit      -0.008437
 **** Fit      -0.007234
 **** Fit      -0.005786
 **** Fit      -0.004626
 **** Fit      -0.003984
 **** Fit      -0.003830
 **** Fit      -0.004074
 **** Fit      -0.004719
 **** Fit      -0.005761
 **** Fit      -0.008004
 **** Fit      -0.009452
 **** Fit      -0.010687
 **** Fit      -0.011384
 **** Fit      -0.011269
 **** Fit      -0.010308
 **** Fit      -0.008794
 **** Fit      -0.007154
 **** Fit      -0.005692
 **** Fit      -0.004569
 **** Fit      -0.003855
 **** Fit      -0.003509
 **** Fit      -0.003416
 **** Fit      -0.003513
 **** Fit      -0.003832
 **** Fit      -0.004443
 **** Fit      -0.005374
 **** Fit      -0.006592
 **** Fit      -0.010815
 **** Fit      -0.012553
 **** Fit      -0.014027
 **** Fit      -0.014921
 **** Fit      -0.014949
 **** Fit      -0.014026
 **** Fit      -0.012377
 **** Fit      -0.010434
 **** Fit      -0.008557
 **** Fit      -0.006887
 **** Fit      -0.005481
 **** Fit      -0.004425
 **** Fit      -0.003763
 **** Fit      -0.003421
 **** Fit      -0.003253
 **** Fit      -0.003174
 **** Fit      -0.016844
 **** Fit      -0.018745
 **** Fit      -0.019907
 **** Fit      -0.019980
 **** Fit      -0.018861
 **** Fit      -0.016822
 **** Fit      -0.014410
 **** Fit      -0.012115
 **** Fit      -0.010074
 **** Fit      -0.008195
 **** Fit      -0.006504
 **** Fit      -0.005165
 **** Fit      -0.004275
 **** Fit      -0.003776
 **** Fit      -0.003470
 **** Fit      -0.003194
 **** Fit      -0.022762
 **** Fit      -0.025347
 **** Fit      -0.026973
 **** Fit      -0.027174
 **** Fit      -0.025805
 **** Fit      -0.023216
 **** Fit      -0.020133
 **** Fit      -0.017262
 **** Fit      -0.014853
 **** Fit      -0.012648
 **** Fit      -0.010393
 **** Fit      -0.008237
 **** Fit      -0.004162
 **** Fit      -0.025558
 **** Fit      -0.022055
 **** Fit      -0.019341
 **** Fit      -0.016669
 **** Fit      -0.027534
 **** Fit      -0.024407
 **** Fit      -0.021092
 **** Fit      -0.001339
 **** Fit      -0.001039
 **** Fit      -0.001188
 **** Fit      -0.001758
 **** Fit      -0.001784
 **** Fit      -0.000925
 **** Fit      -0.000376
 **** Fit      -0.000229
 **** Fit      -0.000512
 **** Fit      -0.001176
 **** Fit      -0.002116
 **** Fit      -0.002204
 **** Fit      -0.001019
 **** Fit      -0.000092
 **** Fit       0.000463
 **** Fit       0.000578
 **** Fit       0.000245
 **** Fit      -0.000487
 **** Fit      -0.001519
 **** Fit      -0.002729
 **** Fit      -0.003010
 **** Fit      -0.001475
 **** Fit      -0.000165
 **** Fit       0.000801
 **** Fit       0.001339
 **** Fit       0.001404
 **** Fit       0.001000
 **** Fit       0.000182
 **** Fit      -0.000958
 **** Fit      -0.002302
 **** Fit      -0.003728
 **** Fit      -0.001874
 **** Fit      -0.000153
 **** Fit       0.001187
 **** Fit       0.002041
 **** Fit       0.002341
 **** Fit       0.002071
 **** Fit       0.001275
 **** Fit       0.000048
 **** Fit      -0.001479
 **** Fit      -0.003168
 **** Fit      -0.004879
 **** Fit      -0.002467
 **** Fit      -0.000303
 **** Fit       0.001466
 **** Fit       0.002699
 **** Fit       0.003300
 **** Fit       0.003222
 **** Fit       0.002487
 **** Fit       0.001188
 **** Fit      -0.000529
 **** Fit      -0.002501
 **** Fit      -0.004563
 **** Fit      -0.006569
 **** Fit      -0.001746
 **** Fit       0.000825
 **** Fit       0.002811
 **** Fit       0.004075
 **** Fit       0.004518
 **** Fit       0.004097
 **** Fit       0.002866
 **** Fit       0.000984
 **** Fit      -0.001337
 **** Fit      -0.003873
 **** Fit      -0.006425
 **** Fit      -0.008827
 **** Fit      -0.000013
 **** Fit       0.002994
 **** Fit       0.004992
 **** Fit       0.005866
 **** Fit       0.005501
 **** Fit       0.003919
 **** Fit       0.001359
 **** Fit      -0.001813
 **** Fit      -0.005232
 **** Fit      -0.008600
 **** Fit      -0.011691
 **** Fit      -0.001973
 **** Fit      -0.006813
 **** Fit      -0.011502
 **** Fit      -0.015690
 **** Fit       0.021916
 **** Fit       0.026579
 **** Fit       0.028466
 **** Fit       0.031639
 **** Fit       0.033284
 **** Fit       0.038900
 **** Fit       0.044539
 **** Fit       0.010495
 **** Fit       0.007069
 **** Fit       0.009731
 **** Fit       0.004523
 **** Fit       0.006993
 **** Fit       0.009262
 **** Fit       0.011220
 **** Fit       0.009119
 **** Fit       0.010327
 **** Fit       0.011604
 **** Fit       0.012596
 **** Fit       0.008402
 **** Fit       0.008306
 **** Fit       0.013337
 **** Fit       0.013384
 **** Fit       0.013572
 **** Fit       0.013907
 **** Fit       0.017034
 **** Fit       0.015941
 **** Fit       0.014909
 **** Fit       0.017812
 **** Fit       0.015355
 **** Fit       0.014370
 **** Fit       0.041010
 **** Fit       0.042493
 **** Fit       0.039272
 **** Fit       0.039131
 **** Fit       0.037331
 **** Fit       0.039288
 **** Fit       0.037340
 **** Fit       0.036089
 **** Fit       0.035019
 **** Fit       0.033556
 **** Fit       0.027568
 **** Fit       0.023052
 **** Fit       0.018492
 **** Fit       0.014970
 **** Fit       0.012998
 **** Fit       0.017313
 **** Fit       0.038344
 **** Fit       0.036865
 **** Fit       0.035755
 **** Fit       0.034817
 **** Fit       0.033711
 **** Fit       0.032084
 **** Fit       0.029723
 **** Fit       0.026705
 **** Fit       0.023460
 **** Fit       0.020595
 **** Fit       0.018534
 **** Fit       0.020677
 **** Fit       0.019496
 **** Fit       0.018361
 **** Fit       0.035374
 **** Fit       0.035699
 **** Fit       0.035246
 **** Fit       0.034617
 **** Fit       0.033891
 **** Fit       0.032888
 **** Fit       0.031392
 **** Fit       0.029321
 **** Fit       0.026847
 **** Fit       0.024363
 **** Fit       0.022256
 **** Fit       0.022760
 **** Fit       0.021090
 **** Fit       0.019162
 **** Fit       0.016312
 **** Fit       0.011739
 **** Fit       0.008247
 **** Fit       0.017808
 **** Fit       0.025272
 **** Fit       0.029951
 **** Fit       0.032243
 **** Fit       0.033038
 **** Fit       0.033076
 **** Fit       0.032675
 **** Fit       0.031840
 **** Fit       0.030494
 **** Fit       0.028670
 **** Fit       0.026590
 **** Fit       0.024561
 **** Fit       0.023847
 **** Fit       0.021661
 **** Fit       0.018894
 **** Fit       0.015009
 **** Fit       0.010059
 **** Fit       0.005631
 **** Fit       0.008035
 **** Fit       0.014663
 **** Fit       0.021507
 **** Fit       0.026614
 **** Fit       0.029568
 **** Fit       0.030879
 **** Fit       0.031146
 **** Fit       0.030660
 **** Fit       0.029512
 **** Fit       0.027834
 **** Fit       0.025878
 **** Fit       0.024171
 **** Fit       0.021313
 **** Fit       0.017716
 **** Fit       0.014146
 **** Fit       0.013181
 **** Fit       0.016450
 **** Fit       0.021839
 **** Fit       0.026231
 **** Fit       0.028514
 **** Fit       0.029026
 **** Fit       0.028227
 **** Fit       0.026490
 **** Fit       0.023932
 **** Fit       0.020535
 **** Fit       0.019152
 **** Fit       0.022542
 **** Fit       0.025993
 **** Fit       0.026233
 **** Fit       0.023321
 **** Fit       0.010051
 **** Fit       0.009314
 **** Fit       0.012372
 **** Fit       0.013303
 **** Fit       0.012139
 **** Fit       0.011822
 **** Fit       0.013904
 **** Fit       0.014310
 **** Fit       0.012416
 **** Fit       0.013056
 **** Fit       0.014186
 **** Fit       0.013379
 **** Fit       0.009895
 **** Fit       0.013379
 **** Fit       0.013089
 **** Fit       0.010534
 **** Fit       0.013023
 **** Fit       0.012679
 **** Fit       0.010760
 **** Fit       0.006337
 **** Fit       0.012886
 **** Fit       0.010696
 **** Fit       0.006482
 **** Fit       0.011606
 **** Fit       0.007396
 **** Fit       0.013888
 **** Fit       0.008914
 **** Fit       0.002206
 **** Fit       0.011697
 **** Fit       0.004248
 **** Fit       0.007963
 -----------------------------------------------------------------
 Leave Link  602 at Wed Sep 18 17:31:42 2019, MaxMem=  1342177280 cpu:             112.3 elap:               2.4

 Test job not archived.
 1\1\GINC-C502-124\SP\RB3LYP\SVP\C54H83Ca1N15O23\JAEBEOMH\18-Sep-2019\0
 \\#b3lyp/svp scf=(tight,noincore) Test #IOP(5/87=12) Density=Current P
 op=(MK,readradii) iop(6/33=2) iop(6/42=6)\\holoCaM_loop3_34.0\\0,1\C,0
 ,48.56,51.74,43.8\C,0,49.09,51.37,45.18\O,0,48.32,51.27,46.14\H,0,47.6
 8,52.374,43.907\H,0,49.329,52.279,43.247\H,0,48.29,50.833,43.259\N,0,5
 0.4,51.18,45.32\C,0,51.09,51.14,46.59\C,0,51.47,52.53,47.1\O,0,52.66,5
 2.84,47.05\C,0,52.33,50.28,46.38\C,0,52.89,49.75,47.69\O,0,52.39,50.09
 ,48.78\O,0,53.88,48.98,47.73\H,0,50.93,51.12,44.46\H,0,50.47,50.73,47.
 38\H,0,53.04,50.65,45.64\H,0,52.01,49.39,45.84\N,0,50.51,53.27,47.67\C
 ,0,50.71,54.62,48.16\C,0,51.9,54.85,49.08\O,0,52.63,55.81,48.88\C,0,49
 .42,55.04,48.86\C,0,49.18,56.54,49.06\C,0,47.83,56.64,49.76\C,0,47.3,5
 8.03,50.1\N,0,48.09,58.74,51.11\H,0,49.55,52.96,47.58\H,0,50.99,55.26,
 47.32\H,0,49.38,54.53,49.82\H,0,48.61,54.68,48.23\H,0,49.07,57.11,48.1
 4\H,0,50.02,56.87,49.66\H,0,47.88,56.2,50.76\H,0,47.04,56.16,49.17\H,0
 ,46.24,58.06,50.37\H,0,47.43,58.6,49.18\H,0,48.95,59.12,50.75\H,0,47.6
 3,59.61,51.35\H,0,48.24,58.27,51.99\N,0,52.08,54.02,50.11\C,0,53.18,54
 .09,51.06\C,0,54.43,53.3,50.72\O,0,55.41,53.36,51.46\C,0,52.67,53.62,5
 2.42\C,0,52.06,52.24,52.54\O,0,52.37,51.38,51.69\O,0,51.41,51.89,53.56
 \H,0,51.49,53.21,50.19\H,0,53.42,55.15,51.07\H,0,51.82,54.27,52.64\H,0
 ,53.38,53.83,53.22\N,0,54.39,52.57,49.61\C,0,55.49,51.89,48.97\C,0,56.
 12,50.73,49.72\O,0,57.35,50.62,49.72\H,0,53.54,52.47,49.06\H,0,56.31,5
 2.58,48.76\H,0,55.09,51.54,48.02\N,0,55.28,50.02,50.48\C,0,55.75,49.01
 ,51.4\C,0,55.84,47.61,50.8\O,0,56.15,46.65,51.5\C,0,54.96,49.15,52.7\C
 ,0,53.56,48.53,52.73\N,0,52.89,48.33,53.87\O,0,52.95,48.27,51.7\H,0,54
 .3,50.28,50.44\H,0,56.77,49.29,51.65\H,0,54.8,50.2,52.95\H,0,55.59,48.
 8,53.52\H,0,53.23,48.77,54.71\H,0,51.99,47.92,53.69\N,0,55.59,47.46,49
 .5\C,0,55.63,46.17,48.83\C,0,54.31,45.46,48.58\O,0,54.36,44.25,48.34\H
 ,0,55.17,48.2,48.96\H,0,56.29,45.51,49.4\H,0,56.05,46.37,47.85\N,0,53.
 14,46.07,48.73\C,0,51.85,45.41,48.8\C,0,50.78,46.49,48.66\O,0,50.97,47
 .6,49.16\C,0,51.6,44.81,50.17\C,0,52.44,43.64,50.6\C,0,53.59,43.83,51.
 38\C,0,52.02,42.33,50.31\C,0,54.42,42.77,51.77\C,0,52.84,41.27,50.69\C
 ,0,54.03,41.46,51.43\O,0,54.84,40.45,51.84\H,0,53.11,47.08,48.71\H,0,5
 1.67,44.74,47.96\H,0,50.56,44.49,50.27\H,0,51.75,45.65,50.85\H,0,53.87
 ,44.85,51.62\H,0,51.04,42.2,49.86\H,0,55.38,42.93,52.24\H,0,52.52,40.2
 6,50.49\H,0,54.38,39.63,51.61\N,0,49.74,46.12,47.91\C,0,48.58,46.99,47
 .81\C,0,47.58,46.41,48.8\O,0,47.36,45.21,48.88\C,0,48.1,47.07,46.36\C,
 0,49.11,47.85,45.51\C,0,46.73,47.72,46.16\C,0,49.09,47.27,44.1\H,0,49.
 72,45.28,47.35\H,0,48.88,47.99,48.12\H,0,48.08,46.02,46.1\H,0,50.14,47
 .82,45.87\H,0,48.89,48.91,45.48\H,0,46.42,47.57,45.13\H,0,45.96,47.35,
 46.84\H,0,46.71,48.8,46.27\H,0,48.08,47.47,43.75\H,0,49.84,47.83,43.54
 \H,0,49.29,46.2,44.14\N,0,46.9,47.27,49.56\C,0,45.81,46.97,50.47\C,0,4
 4.44,47.37,49.95\O,0,44.47,48.36,49.23\C,0,46.05,47.76,51.76\O,0,46.24
 ,49.14,51.57\H,0,47.14,48.24,49.4\H,0,45.88,45.9,50.71\H,0,46.91,47.39
 ,52.32\H,0,45.24,47.57,52.45\H,0,47.1,49.32,51.2\N,0,43.35,46.75,50.42
 \C,0,41.98,47.22,50.4\C,0,41.83,48.71,50.63\O,0,41.29,49.46,49.81\C,0,
 41.29,46.46,51.53\H,0,43.46,45.87,50.9\H,0,41.47,46.97,49.47\H,0,41.52
 ,45.4,51.43\H,0,41.69,46.78,52.49\H,0,40.22,46.61,51.41\N,0,42.45,49.2
 4,51.69\C,0,42.41,50.68,51.9\C,0,43.04,51.59,50.86\O,0,42.53,52.67,50.
 58\C,0,42.99,51.05,53.26\H,0,43.,48.72,52.35\H,0,41.35,50.88,52.04\H,0
 ,42.67,50.41,54.08\H,0,44.08,51.07,53.21\H,0,42.79,52.11,53.41\N,0,44.
 17,51.18,50.28\C,0,44.71,51.93,49.17\C,0,43.86,51.73,47.92\O,0,43.73,5
 2.74,47.23\C,0,46.08,51.35,48.81\C,0,47.08,51.77,49.88\C,0,48.38,50.97
 ,49.9\O,0,48.38,49.74,50.11\O,0,49.47,51.56,49.79\H,0,44.51,50.25,50.4
 4\H,0,44.73,52.95,49.53\H,0,46.35,51.73,47.83\H,0,46.02,50.26,48.91\H,
 0,46.66,51.65,50.87\H,0,47.37,52.81,49.76\N,0,43.25,50.57,47.67\C,0,42
 .52,50.26,46.46\H,0,41.621,50.874,46.411\H,0,43.148,50.466,45.593\H,0,
 42.24,49.207,46.464\H,0,43.43,49.84,48.35\Ca,0,50.87,49.65,50.8\O,0,49
 .37,50.32,52.79\H,0,49.21,49.83,53.6\H,0,49.72,51.16,53.09\\Version=ES
 64L-G16RevA.03\State=1-A\HF=-5333.6211939\RMSD=1.541e-09\Dipole=-10.39
 07727,9.2105498,3.5429058\Quadrupole=-175.2496893,166.5371216,8.712567
 7,2.5411844,-38.8729522,31.0060832\PG=C01 [X(C54H83Ca1N15O23)]\\@


 THE ONLY TROUBLE WITH A SURE THING IS THE UNCERTAINTY.
     -- FROM A TEABAG (BELONGING TO W.H.?)
 Job cpu time:       0 days 10 hours 46 minutes 31.4 seconds.
 Elapsed time:       0 days  0 hours 13 minutes 37.2 seconds.
 File lengths (MBytes):  RWF=   1517 Int=      0 D2E=      0 Chk=    171 Scr=      1
 Normal termination of Gaussian 16 at Wed Sep 18 17:31:44 2019.
