 Entering Gaussian System, Link 0=g16
 Initial command:
 /home1/apps/gaussian/16rA.03/g16/l1.exe "/scratch/04905/jaebeomh/4357455/Gau-403250.inp" -scrdir="/scratch/04905/jaebeomh/4357455/"
 Entering Link 1 = /home1/apps/gaussian/16rA.03/g16/l1.exe PID=    403251.
  
 Copyright (c) 1988,1990,1992,1993,1995,1998,2003,2009,2016,
            Gaussian, Inc.  All Rights Reserved.
  
 This is part of the Gaussian(R) 16 program.  It is based on
 the Gaussian(R) 09 system (copyright 2009, Gaussian, Inc.),
 the Gaussian(R) 03 system (copyright 2003, Gaussian, Inc.),
 the Gaussian(R) 98 system (copyright 1998, Gaussian, Inc.),
 the Gaussian(R) 94 system (copyright 1995, Gaussian, Inc.),
 the Gaussian 92(TM) system (copyright 1992, Gaussian, Inc.),
 the Gaussian 90(TM) system (copyright 1990, Gaussian, Inc.),
 the Gaussian 88(TM) system (copyright 1988, Gaussian, Inc.),
 the Gaussian 86(TM) system (copyright 1986, Carnegie Mellon
 University), and the Gaussian 82(TM) system (copyright 1983,
 Carnegie Mellon University). Gaussian is a federally registered
 trademark of Gaussian, Inc.
  
 This software contains proprietary and confidential information,
 including trade secrets, belonging to Gaussian, Inc.
  
 This software is provided under written license and may be
 used, copied, transmitted, or stored only in accord with that
 written license.
  
 The following legend is applicable only to US Government
 contracts under FAR:
  
                    RESTRICTED RIGHTS LEGEND
  
 Use, reproduction and disclosure by the US Government is
 subject to restrictions as set forth in subparagraphs (a)
 and (c) of the Commercial Computer Software - Restricted
 Rights clause in FAR 52.227-19.
  
 Gaussian, Inc.
 340 Quinnipiac St., Bldg. 40, Wallingford CT 06492
  
  
 ---------------------------------------------------------------
 Warning -- This program may not be used in any manner that
 competes with the business of Gaussian, Inc. or will provide
 assistance to any competitor of Gaussian, Inc.  The licensee
 of this program is prohibited from giving any competitor of
 Gaussian, Inc. access to this program.  By using this program,
 the user acknowledges that Gaussian, Inc. is engaged in the
 business of creating and licensing software in the field of
 computational chemistry and represents and warrants to the
 licensee that it is not a competitor of Gaussian, Inc. and that
 it will not use this program in any manner prohibited above.
 ---------------------------------------------------------------
  

 Cite this work as:
 Gaussian 16, Revision A.03,
 M. J. Frisch, G. W. Trucks, H. B. Schlegel, G. E. Scuseria, 
 M. A. Robb, J. R. Cheeseman, G. Scalmani, V. Barone, 
 G. A. Petersson, H. Nakatsuji, X. Li, M. Caricato, A. V. Marenich, 
 J. Bloino, B. G. Janesko, R. Gomperts, B. Mennucci, H. P. Hratchian, 
 J. V. Ortiz, A. F. Izmaylov, J. L. Sonnenberg, D. Williams-Young, 
 F. Ding, F. Lipparini, F. Egidi, J. Goings, B. Peng, A. Petrone, 
 T. Henderson, D. Ranasinghe, V. G. Zakrzewski, J. Gao, N. Rega, 
 G. Zheng, W. Liang, M. Hada, M. Ehara, K. Toyota, R. Fukuda, 
 J. Hasegawa, M. Ishida, T. Nakajima, Y. Honda, O. Kitao, H. Nakai, 
 T. Vreven, K. Throssell, J. A. Montgomery, Jr., J. E. Peralta, 
 F. Ogliaro, M. J. Bearpark, J. J. Heyd, E. N. Brothers, K. N. Kudin, 
 V. N. Staroverov, T. A. Keith, R. Kobayashi, J. Normand, 
 K. Raghavachari, A. P. Rendell, J. C. Burant, S. S. Iyengar, 
 J. Tomasi, M. Cossi, J. M. Millam, M. Klene, C. Adamo, R. Cammi, 
 J. W. Ochterski, R. L. Martin, K. Morokuma, O. Farkas, 
 J. B. Foresman, and D. J. Fox, Gaussian, Inc., Wallingford CT, 2016.
 
 ******************************************
 Gaussian 16:  ES64L-G16RevA.03 25-Dec-2016
                18-Sep-2019 
 ******************************************
 %chk=holoCaM_loop3_39.0.chk
 %nprocshared=48
 Will use up to   48 processors via shared memory.
 %mem=10GB
 %nosave
 ----------------------------------------------------------------------
 #b3lyp/svp scf=(tight,noincore) Test #IOP(5/87=12) Density=Current Pop
 =(MK,readradii) iop(6/33=2) iop(6/42=6)
 ----------------------------------------------------------------------
 1/30=1,38=1,172=1/1;
 2/12=2,17=6,18=5,40=1/2;
 3/5=18,7=101,11=2,25=1,30=1,74=-5/1,2,3;
 4//1;
 5/5=4,32=2,38=5,87=12/2;
 6/7=2,8=2,9=2,10=2,15=8,20=101,22=-1,28=1,33=2,42=6/1,2;
 99/5=1,9=1/99;
 ------------------
 holoCaM_loop3_39.0
 ------------------
 Symbolic Z-matrix:
 Charge =  0 Multiplicity = 1
 C                     94.5      55.62     3.503 
 C                     95.62     56.54     3.023 
 O                     96.74     56.13     2.743 
 H                     93.614    55.775    2.887 
 H                     94.822    54.582    3.421 
 H                     94.263    55.846    4.543 
 N                     95.44     57.85     3.183 
 C                     96.47     58.87     3.213 
 C                     97.16     58.85     4.563 
 O                     96.54     58.83     5.633 
 C                     95.7      60.17     2.963 
 C                     96.66     61.35     2.993 
 O                     96.45     62.31     3.753 
 O                     97.65     61.29     2.223 
 H                     94.52     58.18     3.433 
 H                     97.14     58.8      2.353 
 H                     94.97     60.29     3.763 
 H                     95.22     60.14     1.993 
 N                     98.49     58.78     4.433 
 C                     99.38     58.7      5.563 
 C                     100.21    59.95     5.793 
 O                     100.9     60.05     6.813 
 C                     100.33    57.53     5.293 
 C                     99.59     56.19     5.313 
 C                     98.97     55.88     6.673 
 C                     98.9      54.36     6.733 
 N                     97.78     53.76     5.993 
 H                     98.97     58.83     3.543 
 H                     98.89     58.5      6.513 
 H                     101.15    57.39     5.993 
 H                     100.77    57.65     4.303 
 H                     100.32    55.4      5.143 
 H                     98.78     56.18     4.583 
 H                     98.       56.35     6.853 
 H                     99.69     56.22     7.423 
 H                     98.89     54.03     7.773 
 H                     99.79     53.82     6.423 
 H                     97.79     53.99     5.003 
 H                     97.64     52.78     6.183 
 H                     96.92     54.17     6.323 
 N                     100.09    61.       4.973 
 C                     100.87    62.21     5.173 
 C                     100.14    63.51     5.463 
 O                     100.6     64.49     6.043 
 C                     101.77    62.52     3.983 
 C                     101.15    62.33     2.613 
 O                     101.69    61.67     1.703 
 O                     99.98     62.72     2.413 
 H                     99.4      60.96     4.243 
 H                     101.52    62.08     6.043 
 H                     102.64    61.85     4.023 
 H                     102.23    63.5      4.083 
 N                     98.86     63.54     5.063 
 C                     97.96     64.66     5.223 
 C                     97.76     65.51     3.973 
 O                     97.12     66.55     4.053 
 H                     98.38     62.78     4.603 
 H                     98.33     65.33     6.003 
 H                     96.99     64.21     5.403 
 N                     98.22     65.11     2.783 
 C                     97.92     65.67     1.483 
 C                     96.71     65.07     0.803 
 O                     96.3      65.58    -0.237 
 C                     99.21     65.63     0.663 
 C                     99.45     64.37    -0.157 
 N                     100.65    64.23    -0.727 
 O                     98.64     63.49    -0.447 
 H                     98.62     64.18     2.743 
 H                     97.74     66.74     1.583 
 H                     100.06    65.86     1.293 
 H                     99.2      66.4     -0.107 
 H                     101.42    64.8     -0.407 
 H                     100.74    63.67    -1.567 
 N                     96.08     64.03     1.363 
 C                     94.8      63.44     1.003 
 C                     94.7      62.8     -0.377 
 O                     93.62     62.32    -0.697 
 H                     96.5      63.53     2.143 
 H                     93.97     64.13     1.143 
 H                     94.7      62.71     1.803 
 N                     95.75     62.64    -1.167 
 C                     95.9      61.95    -2.437 
 C                     96.61     60.64    -2.117 
 O                     97.59     60.65    -1.377 
 C                     96.72     62.75    -3.447 
 C                     96.23     64.14    -3.747 
 C                     97.15     65.1     -4.177 
 C                     94.85     64.42    -3.727 
 C                     96.72     66.38    -4.517 
 C                     94.37     65.7     -4.047 
 C                     95.33     66.64    -4.477 
 O                     94.93     67.9     -4.807 
 H                     96.6      63.07    -0.827 
 H                     94.88     61.78    -2.777 
 H                     96.68     62.17    -4.377 
 H                     97.73     62.8     -3.047 
 H                     98.21     64.89    -4.207 
 H                     94.19     63.7     -3.287 
 H                     97.42     67.16    -4.797 
 H                     93.33     65.9     -3.837 
 H                     93.98     67.98    -4.697 
 N                     96.19     59.57    -2.807 
 C                     96.83     58.28    -2.657 
 C                     97.91     57.95    -3.677 
 O                     97.58     57.75    -4.847 
 C                     95.75     57.21    -2.517 
 C                     94.69     57.37    -1.427 
 C                     96.5      55.9     -2.247 
 C                     95.33     57.91    -0.157 
 H                     95.46     59.61    -3.497 
 H                     97.34     58.38    -1.697 
 H                     95.19     57.19    -3.447 
 H                     94.21     56.4     -1.317 
 H                     94.       58.17    -1.687 
 H                     95.8      55.1     -2.477 
 H                     97.36     55.76    -2.907 
 H                     96.69     55.69    -1.197 
 H                     94.55     57.97     0.603 
 H                     96.22     57.35     0.153 
 H                     95.56     58.97    -0.237 
 N                     99.14     57.78    -3.167 
 C                     100.32    57.38    -3.907 
 C                     100.68    55.92    -3.697 
 O                     100.07    55.2     -2.917 
 C                     101.45    58.34    -3.527 
 O                     102.02    58.1     -2.267 
 H                     99.25     57.95    -2.177 
 H                     100.11    57.44    -4.977 
 H                     101.07    59.36    -3.427 
 H                     102.24    58.36    -4.277 
 H                     101.36    58.25    -1.587 
 N                     101.61    55.46    -4.547 
 C                     101.63    54.05    -4.867 
 C                     101.98    53.23    -3.627 
 O                     101.61    52.07    -3.497 
 C                     102.46    53.85    -6.127 
 H                     102.07    56.04    -5.227 
 H                     100.63    53.68    -5.107 
 H                     101.81    54.25    -6.897 
 H                     103.34    54.49    -6.007 
 H                     102.75    52.81    -6.257 
 N                     102.71    53.78    -2.657 
 C                     103.06    53.1     -1.427 
 C                     101.93    53.08    -0.407 
 O                     101.74    52.14     0.363 
 C                     104.24    53.8     -0.757 
 H                     102.88    54.77    -2.807 
 H                     103.21    52.08    -1.757 
 H                     104.64    53.17     0.053 
 H                     105.06    53.64    -1.457 
 H                     104.09    54.83    -0.457 
 N                     101.12    54.14    -0.397 
 C                     99.91     54.26     0.393 
 C                     98.9      53.18     0.053 
 O                     98.3      52.54     0.913 
 C                     99.33     55.67     0.283 
 C                     100.3     56.58     1.023 
 C                     100.03    58.07     0.823 
 O                     99.85     58.85     1.773 
 O                     99.91     58.57    -0.317 
 H                     101.46    54.94    -0.927 
 H                     100.3     54.09     1.393 
 H                     98.43     55.69     0.893 
 H                     99.       55.95    -0.717 
 H                     101.32    56.34     0.733 
 H                     100.23    56.45     2.103 
 N                     98.66     53.03    -1.257 
 C                     97.88     51.95    -1.817 
 H                     96.956    52.349   -2.236 
 H                     98.452    51.458   -2.604 
 H                     97.642    51.229   -1.035 
 H                     99.18     53.65    -1.867 
 Ca                    99.42     61.06     0.42 
 O                     101.057   61.47    -1.687 
 H                     100.607   61.61    -2.517 
 H                     101.947   61.21    -1.927 
 
 Stoichiometry    C54H83CaN15O23
 Framework group  C1[X(C54H83CaN15O23)]
 Deg. of freedom   522
 Full point group                 C1      NOp   1
 Largest Abelian subgroup         C1      NOp   1
 Largest concise Abelian subgroup C1      NOp   1
                         Standard orientation:                         
 ---------------------------------------------------------------------
 Center     Atomic      Atomic             Coordinates (Angstroms)
 Number     Number       Type             X           Y           Z
 ---------------------------------------------------------------------
      1          6           0        1.983747    3.108717    5.177737
      2          6           0        1.506672    2.628660    3.809108
      3          8           0        2.257358    2.517329    2.847352
      4          1           0        1.677883    2.392336    5.940444
      5          1           0        3.070301    3.193812    5.174626
      6          1           0        1.543532    4.081938    5.396594
      7          7           0        0.191467    2.599676    3.600553
      8          6           0       -0.483745    2.600891    2.317475
      9          6           0       -0.473601    4.004424    1.743897
     10          8           0       -0.795114    5.000620    2.402626
     11          6           0       -1.895549    2.109649    2.650480
     12          6           0       -2.742137    2.083239    1.386561
     13          8           0       -3.826332    2.688318    1.345329
     14          8           0       -2.284969    1.430358    0.416332
     15          1           0       -0.421800    2.711733    4.393740
     16          1           0       -0.094836    1.828483    1.649991
     17          1           0       -2.339755    2.810413    3.356816
     18          1           0       -1.856351    1.108481    3.060757
     19          7           0       -0.007449    4.018279    0.489620
     20          6           0        0.150181    5.232506   -0.269460
     21          6           0       -0.830298    5.381386   -1.418719
     22          8           0       -0.883334    6.443876   -2.047051
     23          6           0        1.569773    5.211975   -0.842731
     24          6           0        2.622976    5.330351    0.261964
     25          6           0        2.531579    6.650034    1.023660
     26          6           0        3.940448    6.898117    1.545621
     27          7           0        4.300913    6.133283    2.748573
     28          1           0        0.218210    3.181795   -0.034186
     29          1           0        0.054421    6.146517    0.311930
     30          1           0        1.829767    6.002693   -1.542136
     31          1           0        1.733032    4.263807   -1.355004
     32          1           0        3.604931    5.337491   -0.208795
     33          1           0        2.512327    4.530367    0.994686
     34          1           0        1.782253    6.669984    1.818841
     35          1           0        2.301253    7.418215    0.279786
     36          1           0        4.091122    7.965709    1.713390
     37          1           0        4.752970    6.750926    0.839971
     38          1           0        4.237218    5.127910    2.613419
     39          1           0        5.159065    6.433026    3.184268
     40          1           0        3.616902    6.319963    3.465427
     41          7           0       -1.732860    4.425046   -1.663865
     42          6           0       -2.685208    4.544479   -2.755317
     43          6           0       -4.167967    4.590003   -2.429201
     44          8           0       -5.052146    5.081963   -3.125335
     45          6           0       -2.539728    3.420536   -3.774036
     46          6           0       -2.328141    2.031340   -3.205913
     47          8           0       -1.410573    1.272631   -3.577032
     48          8           0       -3.000962    1.666678   -2.218323
     49          1           0       -1.780833    3.640937   -1.036592
     50          1           0       -2.509194    5.484618   -3.285842
     51          1           0       -1.663331    3.633407   -4.401742
     52          1           0       -3.350674    3.438929   -4.497935
     53          7           0       -4.501125    4.063410   -1.241344
     54          6           0       -5.842341    3.986862   -0.707227
     55          6           0       -6.512948    2.624055   -0.841556
     56          8           0       -7.691969    2.504908   -0.536084
     57          1           0       -3.849106    3.659487   -0.584596
     58          1           0       -6.489473    4.707087   -1.213880
     59          1           0       -5.721282    4.125378    0.361397
     60          7           0       -5.821502    1.547585   -1.229904
     61          6           0       -6.238697    0.162815   -1.185625
     62          6           0       -5.913106   -0.551829    0.106572
     63          8           0       -6.354102   -1.684647    0.285587
     64          6           0       -5.707087   -0.511953   -2.450607
     65          6           0       -4.321343   -1.134563   -2.352271
     66          7           0       -3.758988   -1.558799   -3.487295
     67          8           0       -3.676040   -1.388321   -1.335515
     68          1           0       -4.821239    1.668003   -1.337024
     69          1           0       -7.317691    0.105565   -1.326318
     70          1           0       -5.777885    0.165021   -3.292625
     71          1           0       -6.320941   -1.371869   -2.714474
     72          1           0       -4.127017   -1.239494   -4.372055
     73          1           0       -3.075310   -2.306365   -3.455213
     74          7           0       -5.194675    0.071654    1.048498
     75          6           0       -4.947372   -0.335572    2.422947
     76          6           0       -4.159920   -1.624605    2.628653
     77          8           0       -3.965630   -1.986530    3.782109
     78          1           0       -4.720614    0.947668    0.841942
     79          1           0       -5.858721   -0.369430    3.016997
     80          1           0       -4.407373    0.537780    2.781497
     81          7           0       -3.587946   -2.278325    1.629806
     82          6           0       -2.698527   -3.427371    1.618472
     83          6           0       -1.305089   -2.871782    1.349672
     84          8           0       -1.147383   -2.044921    0.455509
     85          6           0       -3.066946   -4.444880    0.540770
     86          6           0       -4.476249   -4.969032    0.577277
     87          6           0       -5.055951   -5.424928   -0.609738
     88          6           0       -5.138582   -5.123480    1.810428
     89          6           0       -6.337936   -5.968362   -0.600033
     90          6           0       -6.437907   -5.652186    1.868942
     91          6           0       -6.987256   -6.101502    0.649749
     92          8           0       -8.243272   -6.629491    0.637385
     93          1           0       -3.803713   -1.913240    0.711570
     94          1           0       -2.777321   -3.842975    2.621450
     95          1           0       -2.387768   -5.291672    0.697489
     96          1           0       -2.886636   -3.955615   -0.413540
     97          1           0       -4.549768   -5.321389   -1.559295
     98          1           0       -4.713158   -4.662631    2.678894
     99          1           0       -6.833103   -6.275086   -1.515200
    100          1           0       -6.956376   -5.574847    2.812821
    101          1           0       -8.607235   -6.626340    1.525372
    102          7           0       -0.307550   -3.456667    2.028072
    103          6           0        1.072898   -3.078382    1.810208
    104          6           0        1.849368   -3.934110    0.819994
    105          8           0        2.122779   -5.095678    1.126272
    106          6           0        1.755188   -2.910435    3.165632
    107          6           0        1.134585   -1.961735    4.191362
    108          6           0        3.167685   -2.400174    2.855818
    109          6           0        0.612846   -0.714304    3.494366
    110          1           0       -0.448743   -4.215625    2.672003
    111          1           0        0.977574   -2.093100    1.349956
    112          1           0        1.755959   -3.881433    3.651495
    113          1           0        1.898315   -1.776232    4.943496
    114          1           0        0.220206   -2.390399    4.596154
    115          1           0        3.759584   -2.594039    3.747430
    116          1           0        3.646604   -2.947227    2.039627
    117          1           0        3.260462   -1.318168    2.797888
    118          1           0        0.217218   -0.050275    4.263875
    119          1           0        1.349697   -0.247227    2.830522
    120          1           0       -0.312053   -0.906825    2.955481
    121          7           0        2.283904   -3.285951   -0.272237
    122          6           0        3.112458   -3.846403   -1.320756
    123          6           0        4.564565   -3.415033   -1.217766
    124          8           0        4.952404   -2.613737   -0.377287
    125          6           0        2.469190   -3.482139   -2.661061
    126          8           0        2.666907   -2.151055   -3.060089
    127          1           0        2.003465   -2.320120   -0.370338
    128          1           0        3.158928   -4.930811   -1.200338
    129          1           0        1.380343   -3.552959   -2.596282
    130          1           0        2.790464   -4.145612   -3.463300
    131          1           0        2.232632   -1.565545   -2.436324
    132          7           0        5.395220   -4.101295   -2.016550
    133          6           0        6.783718   -4.233290   -1.635038
    134          6           0        7.470335   -2.869204   -1.653163
    135          8           0        8.442203   -2.628475   -0.948237
    136          6           0        7.402369   -5.367572   -2.439510
    137          1           0        5.081706   -4.800899   -2.666676
    138          1           0        6.884597   -4.522458   -0.585893
    139          1           0        6.955659   -6.243848   -1.983450
    140          1           0        7.030065   -5.243600   -3.461479
    141          1           0        8.488994   -5.332778   -2.414305
    142          7           0        7.010627   -1.910036   -2.456259
    143          6           0        7.566320   -0.573859   -2.516573
    144          6           0        7.106685    0.321972   -1.374678
    145          8           0        7.824215    1.183783   -0.869672
    146          6           0        7.139074    0.115030   -3.810479
    147          1           0        6.145485   -2.168601   -2.921204
    148          1           0        8.624527   -0.752973   -2.375453
    149          1           0        7.725831    1.035394   -3.957600
    150          1           0        7.631586   -0.472913   -4.584918
    151          1           0        6.075982    0.263256   -3.956307
    152          7           0        5.870839    0.114173   -0.917180
    153          6           0        5.290983    0.757038    0.246044
    154          6           0        6.075971    0.459712    1.509963
    155          8           0        6.378777    1.330626    2.321761
    156          6           0        3.808051    0.408757    0.373372
    157          6           0        3.111435    1.118629   -0.778761
    158          6           0        1.655142    0.702265   -0.975864
    159          8           0        0.720825    1.520998   -0.981197
    160          8           0        1.321741   -0.498904   -1.076047
    161          1           0        5.292010   -0.477802   -1.509652
    162          1           0        5.410702    1.804573   -0.017278
    163          1           0        3.438857    0.917943    1.260460
    164          1           0        3.601411   -0.646950    0.546817
    165          1           0        3.674237    0.965515   -1.696318
    166          1           0        3.049646    2.193905   -0.610939
    167          7           0        6.349159   -0.837418    1.707508
    168          6           0        7.233443   -1.328780    2.739498
    169          1           0        6.655822   -1.886050    3.477294
    170          1           0        7.982450   -1.984587    2.295063
    171          1           0        7.728234   -0.488156    3.225854
    172          1           0        6.004269   -1.467111    0.992359
    173         20           0       -1.286453   -0.141717   -1.306502
    174          8           0       -0.885052   -2.109507   -3.110385
    175          1           0       -1.019473   -2.991458   -2.771130
    176          1           0       -0.348109   -2.223722   -3.895209
 ---------------------------------------------------------------------
 Rotational constants (GHZ):           0.0235022           0.0156893           0.0121586
 Standard basis: SVP (5D, 7F)
 There are  1809 symmetry adapted cartesian basis functions of A   symmetry.
 There are  1717 symmetry adapted basis functions of A   symmetry.
  1717 basis functions,  2922 primitive gaussians,  1809 cartesian basis functions
   358 alpha electrons      358 beta electrons
       nuclear repulsion energy     21923.2728084600 Hartrees.
 NAtoms=  176 NActive=  176 NUniq=  176 SFac= 1.00D+00 NAtFMM=   60 NAOKFM=T Big=T
 Integral buffers will be    131072 words long.
 Raffenetti 2 integral format.
 Two-electron integral symmetry is turned on.
 One-electron integrals computed using PRISM.
 NBasis=  1717 RedAO= T EigKep=  3.06D-04  NBF=  1717
 NBsUse=  1717 1.00D-06 EigRej= -1.00D+00 NBFU=  1717
 ExpMin= 1.98D-02 ExpMax= 3.51D+04 ExpMxC= 5.28D+03 IAcc=3 IRadAn=         5 AccDes= 0.00D+00
 Harris functional with IExCor=  402 and IRadAn=       5 diagonalized for initial guess.
 HarFok:  IExCor=  402 AccDes= 0.00D+00 IRadAn=         5 IDoV= 1 UseB2=F ITyADJ=14
 ICtDFT=  3500011 ScaDFX=  1.000000  1.000000  1.000000  1.000000
 FoFCou: FMM=F IPFlag=           0 FMFlag=      100000 FMFlg1=        2001
         NFxFlg=           0 DoJE=T BraDBF=F KetDBF=T FulRan=T
         wScrn=  0.000000 ICntrl=       500 IOpCl=  0 I1Cent=   200000004 NGrid=           0
         NMat0=    1 NMatS0=      1 NMatT0=    0 NMatD0=    1 NMtDS0=    0 NMtDT0=    0
 Petite list used in FoFCou.
 Requested convergence on RMS density matrix=1.00D-08 within 128 cycles.
 Requested convergence on MAX density matrix=1.00D-06.
 Requested convergence on             energy=1.00D-06.
 No special actions if energy rises.
 SCF Done:  E(RB3LYP) =  -5333.63436453     A.U. after   15 cycles
            NFock= 15  Conv=0.44D-08     -V/T= 2.0081
 SCF density gives NOpUse=  1 NOpAll=  1.
 Hyperfine terms turned off by default for NAtoms > 100.

 **********************************************************************

            Population analysis using the SCF density.

 **********************************************************************

 Orbital symmetries:
 BldTbl:  Degeneracy threshold= 1.00D-02
       Occupied  (A) (A) (A) (A) (A) (A) (A) (A) (A) (A) (A) (A)
                 (A) (A) (A) (A) (A) (A) (A) (A) (A) (A) (A) (A)
                 (A) (A) (A) (A) (A) (A) (A) (A) (A) (A) (A) (A)
                 (A) (A) (A) (A) (A) (A) (A) (A) (A) (A) (A) (A)
                 (A) (A) (A) (A) (A) (A) (A) (A) (A) (A) (A) (A)
                 (A) (A) (A) (A) (A) (A) (A) (A) (A) (A) (A) (A)
                 (A) (A) (A) (A) (A) (A) (A) (A) (A) (A) (A) (A)
                 (A) (A) (A) (A) (A) (A) (A) (A) (A) (A) (A) (A)
                 (A) (A) (A) (A) (A) (A) (A) (A) (A) (A) (A) (A)
                 (A) (A) (A) (A) (A) (A) (A) (A) (A) (A) (A) (A)
                 (A) (A) (A) (A) (A) (A) (A) (A) (A) (A) (A) (A)
                 (A) (A) (A) (A) (A) (A) (A) (A) (A) (A) (A) (A)
                 (A) (A) (A) (A) (A) (A) (A) (A) (A) (A) (A) (A)
                 (A) (A) (A) (A) (A) (A) (A) (A) (A) (A) (A) (A)
                 (A) (A) (A) (A) (A) (A) (A) (A) (A) (A) (A) (A)
                 (A) (A) (A) (A) (A) (A) (A) (A) (A) (A) (A) (A)
                 (A) (A) (A) (A) (A) (A) (A) (A) (A) (A) (A) (A)
                 (A) (A) (A) (A) (A) (A) (A) (A) (A) (A) (A) (A)
                 (A) (A) (A) (A) (A) (A) (A) (A) (A) (A) (A) (A)
                 (A) (A) (A) (A) (A) (A) (A) (A) (A) (A) (A) (A)
                 (A) (A) (A) (A) (A) (A) (A) (A) (A) (A) (A) (A)
                 (A) (A) (A) (A) (A) (A) (A) (A) (A) (A) (A) (A)
                 (A) (A) (A) (A) (A) (A) (A) (A) (A) (A) (A) (A)
                 (A) (A) (A) (A) (A) (A) (A) (A) (A) (A) (A) (A)
                 (A) (A) (A) (A) (A) (A) (A) (A) (A) (A) (A) (A)
                 (A) (A) (A) (A) (A) (A) (A) (A) (A) (A) (A) (A)
                 (A) (A) (A) (A) (A) (A) (A) (A) (A) (A) (A) (A)
                 (A) (A) (A) (A) (A) (A) (A) (A) (A) (A) (A) (A)
                 (A) (A) (A) (A) (A) (A) (A) (A) (A) (A) (A) (A)
                 (A) (A) (A) (A) (A) (A) (A) (A) (A) (A)
       Virtual   (A) (A) (A) (A) (A) (A) (A) (A) (A) (A) (A) (A)
                 (A) (A) (A) (A) (A) (A) (A) (A) (A) (A) (A) (A)
                 (A) (A) (A) (A) (A) (A) (A) (A) (A) (A) (A) (A)
                 (A) (A) (A) (A) (A) (A) (A) (A) (A) (A) (A) (A)
                 (A) (A) (A) (A) (A) (A) (A) (A) (A) (A) (A) (A)
                 (A) (A) (A) (A) (A) (A) (A) (A) (A) (A) (A) (A)
                 (A) (A) (A) (A) (A) (A) (A) (A) (A) (A) (A) (A)
                 (A) (A) (A) (A) (A) (A) (A) (A) (A) (A) (A) (A)
                 (A) (A) (A) (A) (A) (A) (A) (A) (A) (A) (A) (A)
                 (A) (A) (A) (A) (A) (A) (A) (A) (A) (A) (A) (A)
                 (A) (A) (A) (A) (A) (A) (A) (A) (A) (A) (A) (A)
                 (A) (A) (A) (A) (A) (A) (A) (A) (A) (A) (A) (A)
                 (A) (A) (A) (A) (A) (A) (A) (A) (A) (A) (A) (A)
                 (A) (A) (A) (A) (A) (A) (A) (A) (A) (A) (A) (A)
                 (A) (A) (A) (A) (A) (A) (A) (A) (A) (A) (A) (A)
                 (A) (A) (A) (A) (A) (A) (A) (A) (A) (A) (A) (A)
                 (A) (A) (A) (A) (A) (A) (A) (A) (A) (A) (A) (A)
                 (A) (A) (A) (A) (A) (A) (A) (A) (A) (A) (A) (A)
                 (A) (A) (A) (A) (A) (A) (A) (A) (A) (A) (A) (A)
                 (A) (A) (A) (A) (A) (A) (A) (A) (A) (A) (A) (A)
                 (A) (A) (A) (A) (A) (A) (A) (A) (A) (A) (A) (A)
                 (A) (A) (A) (A) (A) (A) (A) (A) (A) (A) (A) (A)
                 (A) (A) (A) (A) (A) (A) (A) (A) (A) (A) (A) (A)
                 (A) (A) (A) (A) (A) (A) (A) (A) (A) (A) (A) (A)
                 (A) (A) (A) (A) (A) (A) (A) (A) (A) (A) (A) (A)
                 (A) (A) (A) (A) (A) (A) (A) (A) (A) (A) (A) (A)
                 (A) (A) (A) (A) (A) (A) (A) (A) (A) (A) (A) (A)
                 (A) (A) (A) (A) (A) (A) (A) (A) (A) (A) (A) (A)
                 (A) (A) (A) (A) (A) (A) (A) (A) (A) (A) (A) (A)
                 (A) (A) (A) (A) (A) (A) (A) (A) (A) (A) (A) (A)
                 (A) (A) (A) (A) (A) (A) (A) (A) (A) (A) (A) (A)
                 (A) (A) (A) (A) (A) (A) (A) (A) (A) (A) (A) (A)
                 (A) (A) (A) (A) (A) (A) (A) (A) (A) (A) (A) (A)
                 (A) (A) (A) (A) (A) (A) (A) (A) (A) (A) (A) (A)
                 (A) (A) (A) (A) (A) (A) (A) (A) (A) (A) (A) (A)
                 (A) (A) (A) (A) (A) (A) (A) (A) (A) (A) (A) (A)
                 (A) (A) (A) (A) (A) (A) (A) (A) (A) (A) (A) (A)
                 (A) (A) (A) (A) (A) (A) (A) (A) (A) (A) (A) (A)
                 (A) (A) (A) (A) (A) (A) (A) (A) (A) (A) (A) (A)
                 (A) (A) (A) (A) (A) (A) (A) (A) (A) (A) (A) (A)
                 (A) (A) (A) (A) (A) (A) (A) (A) (A) (A) (A) (A)
                 (A) (A) (A) (A) (A) (A) (A) (A) (A) (A) (A) (A)
                 (A) (A) (A) (A) (A) (A) (A) (A) (A) (A) (A) (A)
                 (A) (A) (A) (A) (A) (A) (A) (A) (A) (A) (A) (A)
                 (A) (A) (A) (A) (A) (A) (A) (A) (A) (A) (A) (A)
                 (A) (A) (A) (A) (A) (A) (A) (A) (A) (A) (A) (A)
                 (A) (A) (A) (A) (A) (A) (A) (A) (A) (A) (A) (A)
                 (A) (A) (A) (A) (A) (A) (A) (A) (A) (A) (A) (A)
                 (A) (A) (A) (A) (A) (A) (A) (A) (A) (A) (A) (A)
                 (A) (A) (A) (A) (A) (A) (A) (A) (A) (A) (A) (A)
                 (A) (A) (A) (A) (A) (A) (A) (A) (A) (A) (A) (A)
                 (A) (A) (A) (A) (A) (A) (A) (A) (A) (A) (A) (A)
                 (A) (A) (A) (A) (A) (A) (A) (A) (A) (A) (A) (A)
                 (A) (A) (A) (A) (A) (A) (A) (A) (A) (A) (A) (A)
                 (A) (A) (A) (A) (A) (A) (A) (A) (A) (A) (A) (A)
                 (A) (A) (A) (A) (A) (A) (A) (A) (A) (A) (A) (A)
                 (A) (A) (A) (A) (A) (A) (A) (A) (A) (A) (A) (A)
                 (A) (A) (A) (A) (A) (A) (A) (A) (A) (A) (A) (A)
                 (A) (A) (A) (A) (A) (A) (A) (A) (A) (A) (A) (A)
                 (A) (A) (A) (A) (A) (A) (A) (A) (A) (A) (A) (A)
                 (A) (A) (A) (A) (A) (A) (A) (A) (A) (A) (A) (A)
                 (A) (A) (A) (A) (A) (A) (A) (A) (A) (A) (A) (A)
                 (A) (A) (A) (A) (A) (A) (A) (A) (A) (A) (A) (A)
                 (A) (A) (A) (A) (A) (A) (A) (A) (A) (A) (A) (A)
                 (A) (A) (A) (A) (A) (A) (A) (A) (A) (A) (A) (A)
                 (A) (A) (A) (A) (A) (A) (A) (A) (A) (A) (A) (A)
                 (A) (A) (A) (A) (A) (A) (A) (A) (A) (A) (A) (A)
                 (A) (A) (A) (A) (A) (A) (A) (A) (A) (A) (A) (A)
                 (A) (A) (A) (A) (A) (A) (A) (A) (A) (A) (A) (A)
                 (A) (A) (A) (A) (A) (A) (A) (A) (A) (A) (A) (A)
                 (A) (A) (A) (A) (A) (A) (A) (A) (A) (A) (A) (A)
                 (A) (A) (A) (A) (A) (A) (A) (A) (A) (A) (A) (A)
                 (A) (A) (A) (A) (A) (A) (A) (A) (A) (A) (A) (A)
                 (A) (A) (A) (A) (A) (A) (A) (A) (A) (A) (A) (A)
                 (A) (A) (A) (A) (A) (A) (A) (A) (A) (A) (A) (A)
                 (A) (A) (A) (A) (A) (A) (A) (A) (A) (A) (A) (A)
                 (A) (A) (A) (A) (A) (A) (A) (A) (A) (A) (A) (A)
                 (A) (A) (A) (A) (A) (A) (A) (A) (A) (A) (A) (A)
                 (A) (A) (A) (A) (A) (A) (A) (A) (A) (A) (A) (A)
                 (A) (A) (A) (A) (A) (A) (A) (A) (A) (A) (A) (A)
                 (A) (A) (A) (A) (A) (A) (A) (A) (A) (A) (A) (A)
                 (A) (A) (A) (A) (A) (A) (A) (A) (A) (A) (A) (A)
                 (A) (A) (A) (A) (A) (A) (A) (A) (A) (A) (A) (A)
                 (A) (A) (A) (A) (A) (A) (A) (A) (A) (A) (A) (A)
                 (A) (A) (A) (A) (A) (A) (A) (A) (A) (A) (A) (A)
                 (A) (A) (A) (A) (A) (A) (A) (A) (A) (A) (A) (A)
                 (A) (A) (A) (A) (A) (A) (A) (A) (A) (A) (A) (A)
                 (A) (A) (A) (A) (A) (A) (A) (A) (A) (A) (A) (A)
                 (A) (A) (A) (A) (A) (A) (A) (A) (A) (A) (A) (A)
                 (A) (A) (A) (A) (A) (A) (A) (A) (A) (A) (A) (A)
                 (A) (A) (A) (A) (A) (A) (A) (A) (A) (A) (A) (A)
                 (A) (A) (A) (A) (A) (A) (A) (A) (A) (A) (A) (A)
                 (A) (A) (A) (A) (A) (A) (A) (A) (A) (A) (A) (A)
                 (A) (A) (A) (A) (A) (A) (A) (A) (A) (A) (A) (A)
                 (A) (A) (A) (A) (A) (A) (A) (A) (A) (A) (A) (A)
                 (A) (A) (A) (A) (A) (A) (A) (A) (A) (A) (A) (A)
                 (A) (A) (A) (A) (A) (A) (A) (A) (A) (A) (A) (A)
                 (A) (A) (A) (A) (A) (A) (A) (A) (A) (A) (A) (A)
                 (A) (A) (A) (A) (A) (A) (A) (A) (A) (A) (A) (A)
                 (A) (A) (A) (A) (A) (A) (A) (A) (A) (A) (A) (A)
                 (A) (A) (A) (A) (A) (A) (A) (A) (A) (A) (A) (A)
                 (A) (A) (A) (A) (A) (A) (A) (A) (A) (A) (A) (A)
                 (A) (A) (A) (A) (A) (A) (A) (A) (A) (A) (A) (A)
                 (A) (A) (A) (A) (A) (A) (A) (A) (A) (A) (A) (A)
                 (A) (A) (A) (A) (A) (A) (A) (A) (A) (A) (A) (A)
                 (A) (A) (A) (A) (A) (A) (A) (A) (A) (A) (A) (A)
                 (A) (A) (A) (A) (A) (A) (A) (A) (A) (A) (A) (A)
                 (A) (A) (A) (A) (A) (A) (A) (A) (A) (A) (A) (A)
                 (A) (A) (A) (A) (A) (A) (A) (A) (A) (A) (A) (A)
                 (A) (A) (A) (A) (A) (A) (A) (A) (A) (A) (A) (A)
                 (A) (A) (A) (A) (A) (A) (A) (A) (A) (A) (A) (A)
                 (A) (A) (A) (A) (A) (A) (A) (A) (A) (A) (A) (A)
                 (A) (A) (A) (A) (A) (A) (A) (A) (A) (A) (A) (A)
                 (A) (A) (A)
 The electronic state is 1-A.
 Alpha  occ. eigenvalues -- -145.36175 -19.20612 -19.15124 -19.14869 -19.14765
 Alpha  occ. eigenvalues --  -19.13838 -19.12019 -19.11645 -19.11091 -19.10643
 Alpha  occ. eigenvalues --  -19.10180 -19.10114 -19.09757 -19.08810 -19.07698
 Alpha  occ. eigenvalues --  -19.07278 -19.06361 -19.06032 -19.05575 -19.05549
 Alpha  occ. eigenvalues --  -19.04713 -19.04432 -19.04417 -19.03730 -15.41925
 Alpha  occ. eigenvalues --  -14.56736 -14.39969 -14.38305 -14.37045 -14.36351
 Alpha  occ. eigenvalues --  -14.36249 -14.35903 -14.35230 -14.34824 -14.33496
 Alpha  occ. eigenvalues --  -14.33170 -14.32618 -14.31044 -14.29797 -14.29487
 Alpha  occ. eigenvalues --  -12.55527 -12.55512 -12.55491 -10.33348 -10.32957
 Alpha  occ. eigenvalues --  -10.31382 -10.30551 -10.30316 -10.29754 -10.29060
 Alpha  occ. eigenvalues --  -10.29040 -10.28449 -10.27338 -10.27115 -10.26509
 Alpha  occ. eigenvalues --  -10.26420 -10.26387 -10.26060 -10.25805 -10.25764
 Alpha  occ. eigenvalues --  -10.25245 -10.24675 -10.24050 -10.23984 -10.23795
 Alpha  occ. eigenvalues --  -10.23720 -10.23581 -10.23563 -10.23298 -10.22854
 Alpha  occ. eigenvalues --  -10.22834 -10.22576 -10.22459 -10.22403 -10.22313
 Alpha  occ. eigenvalues --  -10.20720 -10.20486 -10.20461 -10.20433 -10.20327
 Alpha  occ. eigenvalues --  -10.19875 -10.19875 -10.19862 -10.19740 -10.19595
 Alpha  occ. eigenvalues --  -10.19268 -10.18868 -10.18273 -10.18117 -10.17982
 Alpha  occ. eigenvalues --  -10.17817 -10.17770 -10.17714 -10.17680 -10.17511
 Alpha  occ. eigenvalues --  -10.17284 -10.15465  -1.78853  -1.11994  -1.08156
 Alpha  occ. eigenvalues --   -1.07268  -1.07037  -1.06797  -1.05919  -1.05824
 Alpha  occ. eigenvalues --   -1.05359  -1.04804  -1.04654  -1.04059  -1.03840
 Alpha  occ. eigenvalues --   -1.03681  -1.03319  -1.02345  -1.02022  -1.00559
 Alpha  occ. eigenvalues --   -1.00553  -1.00276  -1.00247  -0.99987  -0.98738
 Alpha  occ. eigenvalues --   -0.97833  -0.97394  -0.97117  -0.95096  -0.94408
 Alpha  occ. eigenvalues --   -0.93993  -0.93330  -0.93184  -0.92894  -0.91720
 Alpha  occ. eigenvalues --   -0.90825  -0.90728  -0.90254  -0.89662  -0.89311
 Alpha  occ. eigenvalues --   -0.88732  -0.88298  -0.87719  -0.87051  -0.85869
 Alpha  occ. eigenvalues --   -0.83820  -0.82937  -0.82050  -0.81092  -0.80409
 Alpha  occ. eigenvalues --   -0.79001  -0.78654  -0.78333  -0.77906  -0.76708
 Alpha  occ. eigenvalues --   -0.76109  -0.74748  -0.74694  -0.74103  -0.73569
 Alpha  occ. eigenvalues --   -0.73054  -0.72743  -0.71400  -0.71025  -0.70547
 Alpha  occ. eigenvalues --   -0.69951  -0.69711  -0.68604  -0.68478  -0.68277
 Alpha  occ. eigenvalues --   -0.68091  -0.66166  -0.65759  -0.65607  -0.65435
 Alpha  occ. eigenvalues --   -0.64724  -0.63877  -0.63094  -0.62578  -0.62127
 Alpha  occ. eigenvalues --   -0.62008  -0.61298  -0.61277  -0.61061  -0.60173
 Alpha  occ. eigenvalues --   -0.59928  -0.59918  -0.59330  -0.59198  -0.58866
 Alpha  occ. eigenvalues --   -0.58209  -0.57988  -0.57665  -0.57260  -0.56306
 Alpha  occ. eigenvalues --   -0.56190  -0.55992  -0.55758  -0.55576  -0.55327
 Alpha  occ. eigenvalues --   -0.55058  -0.54585  -0.53898  -0.53807  -0.53687
 Alpha  occ. eigenvalues --   -0.53655  -0.53289  -0.52573  -0.52477  -0.52080
 Alpha  occ. eigenvalues --   -0.51842  -0.51119  -0.51025  -0.50712  -0.50476
 Alpha  occ. eigenvalues --   -0.50247  -0.50118  -0.50035  -0.49532  -0.49165
 Alpha  occ. eigenvalues --   -0.49015  -0.48860  -0.48662  -0.48461  -0.48208
 Alpha  occ. eigenvalues --   -0.48149  -0.47828  -0.47691  -0.47444  -0.47276
 Alpha  occ. eigenvalues --   -0.47126  -0.46858  -0.46734  -0.46395  -0.46304
 Alpha  occ. eigenvalues --   -0.46110  -0.45860  -0.45679  -0.45380  -0.45105
 Alpha  occ. eigenvalues --   -0.45026  -0.44957  -0.44884  -0.44807  -0.44679
 Alpha  occ. eigenvalues --   -0.44318  -0.44144  -0.44081  -0.43850  -0.43791
 Alpha  occ. eigenvalues --   -0.43694  -0.43559  -0.43439  -0.42943  -0.42770
 Alpha  occ. eigenvalues --   -0.42598  -0.42514  -0.42314  -0.42122  -0.42060
 Alpha  occ. eigenvalues --   -0.42042  -0.41906  -0.41859  -0.41724  -0.41574
 Alpha  occ. eigenvalues --   -0.41465  -0.41281  -0.41217  -0.40941  -0.40739
 Alpha  occ. eigenvalues --   -0.40542  -0.40458  -0.40380  -0.40261  -0.40147
 Alpha  occ. eigenvalues --   -0.39886  -0.39856  -0.39605  -0.39480  -0.39407
 Alpha  occ. eigenvalues --   -0.39295  -0.39215  -0.39158  -0.39041  -0.38865
 Alpha  occ. eigenvalues --   -0.38792  -0.38754  -0.38458  -0.38393  -0.38044
 Alpha  occ. eigenvalues --   -0.37943  -0.37788  -0.37659  -0.37297  -0.37263
 Alpha  occ. eigenvalues --   -0.37119  -0.36984  -0.36939  -0.36782  -0.36675
 Alpha  occ. eigenvalues --   -0.36181  -0.35770  -0.35670  -0.35649  -0.35588
 Alpha  occ. eigenvalues --   -0.35235  -0.35205  -0.35021  -0.34922  -0.34790
 Alpha  occ. eigenvalues --   -0.34578  -0.34468  -0.34084  -0.33994  -0.33646
 Alpha  occ. eigenvalues --   -0.33510  -0.33234  -0.32833  -0.32273  -0.32024
 Alpha  occ. eigenvalues --   -0.31927  -0.31813  -0.31693  -0.31215  -0.31126
 Alpha  occ. eigenvalues --   -0.30220  -0.30017  -0.29485  -0.28959  -0.28810
 Alpha  occ. eigenvalues --   -0.28473  -0.28341  -0.27913  -0.27758  -0.27656
 Alpha  occ. eigenvalues --   -0.27590  -0.27142  -0.26277  -0.26114  -0.25918
 Alpha  occ. eigenvalues --   -0.25725  -0.25428  -0.24995  -0.24928  -0.24568
 Alpha  occ. eigenvalues --   -0.24243  -0.23931  -0.23868  -0.23772  -0.23719
 Alpha  occ. eigenvalues --   -0.23254  -0.23114  -0.22959  -0.22871  -0.22636
 Alpha  occ. eigenvalues --   -0.21683  -0.21355  -0.21137  -0.20766  -0.20423
 Alpha  occ. eigenvalues --   -0.20001  -0.19525  -0.18506
 Alpha virt. eigenvalues --   -0.08521  -0.03533  -0.03230  -0.02537  -0.01786
 Alpha virt. eigenvalues --   -0.01081  -0.00570  -0.00511  -0.00199  -0.00062
 Alpha virt. eigenvalues --    0.00187   0.00492   0.00695   0.01243   0.01603
 Alpha virt. eigenvalues --    0.01876   0.02383   0.02723   0.03163   0.03246
 Alpha virt. eigenvalues --    0.03410   0.03826   0.04241   0.04356   0.04800
 Alpha virt. eigenvalues --    0.04980   0.05292   0.05412   0.05447   0.05666
 Alpha virt. eigenvalues --    0.05718   0.05959   0.06188   0.06295   0.06448
 Alpha virt. eigenvalues --    0.06487   0.06918   0.07768   0.07820   0.07911
 Alpha virt. eigenvalues --    0.08090   0.08211   0.08359   0.08534   0.08693
 Alpha virt. eigenvalues --    0.08989   0.09196   0.09247   0.09569   0.09595
 Alpha virt. eigenvalues --    0.09921   0.10084   0.10272   0.10384   0.10544
 Alpha virt. eigenvalues --    0.10623   0.10809   0.11111   0.11326   0.11390
 Alpha virt. eigenvalues --    0.11636   0.11805   0.11869   0.12292   0.12399
 Alpha virt. eigenvalues --    0.12417   0.12721   0.12787   0.13077   0.13228
 Alpha virt. eigenvalues --    0.13301   0.13448   0.13636   0.13774   0.13896
 Alpha virt. eigenvalues --    0.14151   0.14348   0.14446   0.14610   0.14708
 Alpha virt. eigenvalues --    0.14813   0.15121   0.15151   0.15374   0.15611
 Alpha virt. eigenvalues --    0.15790   0.15990   0.16375   0.16542   0.16734
 Alpha virt. eigenvalues --    0.16860   0.17023   0.17053   0.17286   0.17436
 Alpha virt. eigenvalues --    0.17590   0.17780   0.17969   0.18113   0.18358
 Alpha virt. eigenvalues --    0.18652   0.18827   0.18929   0.19129   0.19170
 Alpha virt. eigenvalues --    0.19300   0.19519   0.19679   0.19915   0.19995
 Alpha virt. eigenvalues --    0.20261   0.20496   0.20631   0.21018   0.21149
 Alpha virt. eigenvalues --    0.21329   0.21524   0.21715   0.21985   0.22200
 Alpha virt. eigenvalues --    0.22305   0.22491   0.22590   0.22908   0.23154
 Alpha virt. eigenvalues --    0.23254   0.23494   0.23676   0.23743   0.23972
 Alpha virt. eigenvalues --    0.24066   0.24251   0.24388   0.24710   0.24830
 Alpha virt. eigenvalues --    0.25325   0.25407   0.25583   0.25822   0.26016
 Alpha virt. eigenvalues --    0.26180   0.26498   0.26701   0.26846   0.26897
 Alpha virt. eigenvalues --    0.26998   0.27370   0.27601   0.28380   0.28536
 Alpha virt. eigenvalues --    0.28708   0.28883   0.29341   0.29724   0.29969
 Alpha virt. eigenvalues --    0.30012   0.30239   0.30607   0.31122   0.31201
 Alpha virt. eigenvalues --    0.31347   0.31427   0.31695   0.32271   0.32435
 Alpha virt. eigenvalues --    0.32586   0.32700   0.32837   0.33077   0.33306
 Alpha virt. eigenvalues --    0.33534   0.33715   0.33899   0.34100   0.34400
 Alpha virt. eigenvalues --    0.34788   0.35019   0.35074   0.35946   0.36181
 Alpha virt. eigenvalues --    0.36423   0.36699   0.37116   0.37198   0.37940
 Alpha virt. eigenvalues --    0.38148   0.38294   0.38447   0.38609   0.38905
 Alpha virt. eigenvalues --    0.39063   0.39365   0.39841   0.39996   0.40507
 Alpha virt. eigenvalues --    0.40594   0.40892   0.41196   0.41224   0.41464
 Alpha virt. eigenvalues --    0.41767   0.41897   0.41954   0.42376   0.42462
 Alpha virt. eigenvalues --    0.42793   0.42973   0.43287   0.43453   0.43552
 Alpha virt. eigenvalues --    0.43729   0.44043   0.44358   0.44514   0.44594
 Alpha virt. eigenvalues --    0.45093   0.45192   0.45434   0.45512   0.45778
 Alpha virt. eigenvalues --    0.45931   0.46291   0.46374   0.46673   0.46780
 Alpha virt. eigenvalues --    0.46959   0.47164   0.47224   0.47453   0.47627
 Alpha virt. eigenvalues --    0.47813   0.48162   0.48375   0.48627   0.48663
 Alpha virt. eigenvalues --    0.48798   0.49044   0.49204   0.49363   0.49495
 Alpha virt. eigenvalues --    0.49666   0.49965   0.50369   0.50508   0.50699
 Alpha virt. eigenvalues --    0.51005   0.51065   0.51296   0.51419   0.51748
 Alpha virt. eigenvalues --    0.51933   0.52132   0.52315   0.52557   0.52773
 Alpha virt. eigenvalues --    0.53128   0.53370   0.53458   0.53707   0.53839
 Alpha virt. eigenvalues --    0.54137   0.54397   0.54542   0.54966   0.55209
 Alpha virt. eigenvalues --    0.55297   0.55484   0.55581   0.55637   0.55907
 Alpha virt. eigenvalues --    0.56031   0.56232   0.56461   0.56689   0.56908
 Alpha virt. eigenvalues --    0.56963   0.57215   0.57398   0.57628   0.57768
 Alpha virt. eigenvalues --    0.57811   0.57951   0.58017   0.58356   0.58456
 Alpha virt. eigenvalues --    0.58506   0.58700   0.58818   0.59139   0.59426
 Alpha virt. eigenvalues --    0.59570   0.59641   0.59802   0.59871   0.60009
 Alpha virt. eigenvalues --    0.60109   0.60205   0.60699   0.60740   0.60855
 Alpha virt. eigenvalues --    0.60998   0.61069   0.61104   0.61415   0.61447
 Alpha virt. eigenvalues --    0.61631   0.61761   0.61901   0.62018   0.62130
 Alpha virt. eigenvalues --    0.62173   0.62429   0.62478   0.62657   0.62892
 Alpha virt. eigenvalues --    0.62957   0.63105   0.63236   0.63339   0.63543
 Alpha virt. eigenvalues --    0.63633   0.63697   0.63859   0.63888   0.64039
 Alpha virt. eigenvalues --    0.64203   0.64260   0.64343   0.64476   0.64696
 Alpha virt. eigenvalues --    0.64780   0.64883   0.65052   0.65080   0.65218
 Alpha virt. eigenvalues --    0.65247   0.65353   0.65413   0.65480   0.65714
 Alpha virt. eigenvalues --    0.65782   0.65990   0.66052   0.66086   0.66159
 Alpha virt. eigenvalues --    0.66361   0.66449   0.66601   0.66708   0.66736
 Alpha virt. eigenvalues --    0.66946   0.66990   0.67247   0.67276   0.67399
 Alpha virt. eigenvalues --    0.67520   0.67571   0.67711   0.67884   0.68045
 Alpha virt. eigenvalues --    0.68147   0.68271   0.68323   0.68425   0.68758
 Alpha virt. eigenvalues --    0.68828   0.68913   0.69151   0.69213   0.69305
 Alpha virt. eigenvalues --    0.69338   0.69495   0.69689   0.69744   0.69892
 Alpha virt. eigenvalues --    0.70202   0.70281   0.70478   0.70615   0.70789
 Alpha virt. eigenvalues --    0.70965   0.71028   0.71112   0.71274   0.71371
 Alpha virt. eigenvalues --    0.71572   0.71676   0.71713   0.72004   0.72136
 Alpha virt. eigenvalues --    0.72244   0.72443   0.72599   0.72842   0.73066
 Alpha virt. eigenvalues --    0.73372   0.73483   0.73623   0.73645   0.73898
 Alpha virt. eigenvalues --    0.74083   0.74273   0.74360   0.74373   0.74482
 Alpha virt. eigenvalues --    0.74915   0.75039   0.75307   0.75415   0.75602
 Alpha virt. eigenvalues --    0.76062   0.76223   0.76427   0.76574   0.76802
 Alpha virt. eigenvalues --    0.77087   0.77306   0.77519   0.77697   0.77847
 Alpha virt. eigenvalues --    0.78200   0.78362   0.78588   0.78765   0.78946
 Alpha virt. eigenvalues --    0.79287   0.79551   0.79651   0.79759   0.79988
 Alpha virt. eigenvalues --    0.80425   0.80605   0.80849   0.81379   0.81633
 Alpha virt. eigenvalues --    0.82020   0.82316   0.82353   0.82744   0.83016
 Alpha virt. eigenvalues --    0.83541   0.83740   0.84150   0.84279   0.84600
 Alpha virt. eigenvalues --    0.84709   0.84824   0.85010   0.85157   0.85770
 Alpha virt. eigenvalues --    0.85971   0.86482   0.86723   0.86915   0.87039
 Alpha virt. eigenvalues --    0.87265   0.87487   0.87596   0.87863   0.88205
 Alpha virt. eigenvalues --    0.88639   0.88675   0.89039   0.89208   0.89462
 Alpha virt. eigenvalues --    0.89893   0.90165   0.90447   0.90816   0.91198
 Alpha virt. eigenvalues --    0.91357   0.91741   0.92099   0.92287   0.92749
 Alpha virt. eigenvalues --    0.92897   0.93062   0.93338   0.93782   0.94070
 Alpha virt. eigenvalues --    0.94390   0.94701   0.94788   0.95209   0.95706
 Alpha virt. eigenvalues --    0.95821   0.96242   0.96408   0.96625   0.96878
 Alpha virt. eigenvalues --    0.97153   0.97346   0.97461   0.97729   0.98042
 Alpha virt. eigenvalues --    0.98257   0.98404   0.98716   0.99010   0.99376
 Alpha virt. eigenvalues --    0.99447   0.99573   0.99925   1.00205   1.00856
 Alpha virt. eigenvalues --    1.00957   1.01574   1.01704   1.02198   1.02319
 Alpha virt. eigenvalues --    1.02758   1.03052   1.03519   1.03822   1.03992
 Alpha virt. eigenvalues --    1.04325   1.04490   1.04969   1.05358   1.05544
 Alpha virt. eigenvalues --    1.06108   1.06482   1.06813   1.07230   1.07622
 Alpha virt. eigenvalues --    1.07827   1.07943   1.08176   1.08429   1.08978
 Alpha virt. eigenvalues --    1.09207   1.09452   1.09579   1.09775   1.10280
 Alpha virt. eigenvalues --    1.10398   1.11093   1.11239   1.11371   1.11777
 Alpha virt. eigenvalues --    1.12118   1.12233   1.12498   1.12727   1.13004
 Alpha virt. eigenvalues --    1.13177   1.13435   1.13639   1.13678   1.13953
 Alpha virt. eigenvalues --    1.14415   1.14735   1.14840   1.15365   1.15553
 Alpha virt. eigenvalues --    1.15745   1.15892   1.16294   1.16444   1.16570
 Alpha virt. eigenvalues --    1.17010   1.17367   1.17719   1.17769   1.17940
 Alpha virt. eigenvalues --    1.18470   1.18620   1.18903   1.19039   1.19229
 Alpha virt. eigenvalues --    1.19418   1.19709   1.19964   1.20101   1.20413
 Alpha virt. eigenvalues --    1.20725   1.21030   1.21158   1.21409   1.21565
 Alpha virt. eigenvalues --    1.21652   1.22026   1.22433   1.22696   1.22878
 Alpha virt. eigenvalues --    1.23110   1.23384   1.23645   1.23816   1.23970
 Alpha virt. eigenvalues --    1.24679   1.24885   1.25049   1.25213   1.25363
 Alpha virt. eigenvalues --    1.25557   1.26023   1.26205   1.26562   1.26605
 Alpha virt. eigenvalues --    1.26804   1.27041   1.27563   1.27907   1.28204
 Alpha virt. eigenvalues --    1.28546   1.29108   1.29167   1.29417   1.29737
 Alpha virt. eigenvalues --    1.30153   1.30611   1.30710   1.31222   1.31518
 Alpha virt. eigenvalues --    1.31711   1.32580   1.32814   1.32927   1.33230
 Alpha virt. eigenvalues --    1.33642   1.33878   1.34212   1.34242   1.34770
 Alpha virt. eigenvalues --    1.35020   1.35233   1.35453   1.35796   1.35939
 Alpha virt. eigenvalues --    1.36289   1.36596   1.36857   1.37028   1.37352
 Alpha virt. eigenvalues --    1.37469   1.37834   1.38013   1.38491   1.38747
 Alpha virt. eigenvalues --    1.38833   1.39180   1.39644   1.39711   1.40263
 Alpha virt. eigenvalues --    1.40473   1.40886   1.41083   1.41149   1.41407
 Alpha virt. eigenvalues --    1.41798   1.41930   1.42219   1.42587   1.42957
 Alpha virt. eigenvalues --    1.43033   1.43138   1.43333   1.43558   1.43608
 Alpha virt. eigenvalues --    1.43907   1.44181   1.44286   1.44411   1.45179
 Alpha virt. eigenvalues --    1.45721   1.45892   1.46099   1.46307   1.46856
 Alpha virt. eigenvalues --    1.46967   1.47073   1.47491   1.47897   1.48111
 Alpha virt. eigenvalues --    1.48218   1.48419   1.48755   1.48945   1.49047
 Alpha virt. eigenvalues --    1.49290   1.49586   1.49819   1.50233   1.50341
 Alpha virt. eigenvalues --    1.50776   1.50918   1.50964   1.51316   1.51937
 Alpha virt. eigenvalues --    1.51978   1.52497   1.52572   1.52938   1.52971
 Alpha virt. eigenvalues --    1.53245   1.53378   1.54132   1.54422   1.54960
 Alpha virt. eigenvalues --    1.55129   1.55687   1.55989   1.56229   1.56474
 Alpha virt. eigenvalues --    1.56887   1.57433   1.57566   1.57983   1.58053
 Alpha virt. eigenvalues --    1.58163   1.58327   1.58574   1.59376   1.59800
 Alpha virt. eigenvalues --    1.59948   1.60523   1.60668   1.61157   1.61645
 Alpha virt. eigenvalues --    1.61926   1.61980   1.62211   1.62737   1.62805
 Alpha virt. eigenvalues --    1.63063   1.63691   1.64158   1.64589   1.64795
 Alpha virt. eigenvalues --    1.64936   1.65365   1.65734   1.66173   1.66407
 Alpha virt. eigenvalues --    1.66544   1.66743   1.66941   1.67375   1.67735
 Alpha virt. eigenvalues --    1.67798   1.68110   1.68319   1.68735   1.69102
 Alpha virt. eigenvalues --    1.69439   1.69638   1.69711   1.69952   1.70381
 Alpha virt. eigenvalues --    1.70561   1.70632   1.70707   1.71020   1.71406
 Alpha virt. eigenvalues --    1.71601   1.71730   1.71761   1.72239   1.72604
 Alpha virt. eigenvalues --    1.73130   1.73151   1.73265   1.73588   1.73790
 Alpha virt. eigenvalues --    1.73850   1.73866   1.74135   1.74282   1.74690
 Alpha virt. eigenvalues --    1.74773   1.74798   1.74998   1.75245   1.75530
 Alpha virt. eigenvalues --    1.75784   1.75958   1.76066   1.76284   1.76531
 Alpha virt. eigenvalues --    1.76664   1.76732   1.77027   1.77261   1.77296
 Alpha virt. eigenvalues --    1.77379   1.77803   1.77892   1.78014   1.78228
 Alpha virt. eigenvalues --    1.78376   1.78846   1.79204   1.79395   1.79558
 Alpha virt. eigenvalues --    1.79726   1.79924   1.80039   1.80348   1.80483
 Alpha virt. eigenvalues --    1.80558   1.80874   1.81055   1.81146   1.81313
 Alpha virt. eigenvalues --    1.81699   1.81914   1.82068   1.82228   1.82370
 Alpha virt. eigenvalues --    1.82711   1.82929   1.83095   1.83313   1.83455
 Alpha virt. eigenvalues --    1.83492   1.83510   1.83866   1.83991   1.84220
 Alpha virt. eigenvalues --    1.84398   1.84838   1.84968   1.85213   1.85346
 Alpha virt. eigenvalues --    1.85407   1.85784   1.85889   1.85961   1.86125
 Alpha virt. eigenvalues --    1.86236   1.86369   1.86457   1.86522   1.86986
 Alpha virt. eigenvalues --    1.87324   1.87384   1.87420   1.87491   1.87836
 Alpha virt. eigenvalues --    1.88133   1.88211   1.88528   1.88803   1.88962
 Alpha virt. eigenvalues --    1.89197   1.89245   1.89423   1.89725   1.89932
 Alpha virt. eigenvalues --    1.90219   1.90241   1.90454   1.90620   1.90856
 Alpha virt. eigenvalues --    1.91002   1.91087   1.91319   1.91459   1.91662
 Alpha virt. eigenvalues --    1.92047   1.92136   1.92354   1.92640   1.92727
 Alpha virt. eigenvalues --    1.93040   1.93604   1.93789   1.93875   1.94055
 Alpha virt. eigenvalues --    1.94306   1.94513   1.94717   1.94816   1.95156
 Alpha virt. eigenvalues --    1.95549   1.95561   1.95730   1.95897   1.96085
 Alpha virt. eigenvalues --    1.96197   1.96570   1.96828   1.96956   1.97228
 Alpha virt. eigenvalues --    1.97435   1.97566   1.97818   1.98130   1.98208
 Alpha virt. eigenvalues --    1.98226   1.98619   1.98723   1.99187   1.99524
 Alpha virt. eigenvalues --    1.99749   1.99972   2.00088   2.00182   2.00347
 Alpha virt. eigenvalues --    2.00721   2.00776   2.01274   2.01488   2.01754
 Alpha virt. eigenvalues --    2.01952   2.02117   2.02300   2.02496   2.02542
 Alpha virt. eigenvalues --    2.02828   2.03053   2.03296   2.03500   2.03748
 Alpha virt. eigenvalues --    2.04156   2.04429   2.04893   2.05075   2.05247
 Alpha virt. eigenvalues --    2.05460   2.05652   2.06218   2.06415   2.06808
 Alpha virt. eigenvalues --    2.06987   2.07369   2.07490   2.07849   2.07988
 Alpha virt. eigenvalues --    2.08308   2.08469   2.09026   2.09408   2.09614
 Alpha virt. eigenvalues --    2.09911   2.09978   2.10702   2.10756   2.11020
 Alpha virt. eigenvalues --    2.11568   2.11748   2.11909   2.12234   2.12454
 Alpha virt. eigenvalues --    2.12688   2.13257   2.13561   2.13780   2.13889
 Alpha virt. eigenvalues --    2.14064   2.14249   2.14639   2.14747   2.15107
 Alpha virt. eigenvalues --    2.15488   2.15651   2.16431   2.16597   2.16876
 Alpha virt. eigenvalues --    2.17480   2.17526   2.17584   2.18097   2.18295
 Alpha virt. eigenvalues --    2.18637   2.18720   2.18901   2.19232   2.19507
 Alpha virt. eigenvalues --    2.19864   2.19978   2.20183   2.20965   2.21425
 Alpha virt. eigenvalues --    2.21588   2.21670   2.22034   2.22115   2.22278
 Alpha virt. eigenvalues --    2.22306   2.22528   2.22631   2.22809   2.23403
 Alpha virt. eigenvalues --    2.24028   2.24096   2.24417   2.24785   2.25327
 Alpha virt. eigenvalues --    2.25494   2.25950   2.26176   2.27012   2.27109
 Alpha virt. eigenvalues --    2.27389   2.27554   2.27630   2.27993   2.28886
 Alpha virt. eigenvalues --    2.29196   2.29559   2.29589   2.30091   2.30454
 Alpha virt. eigenvalues --    2.30642   2.31430   2.31913   2.32236   2.32988
 Alpha virt. eigenvalues --    2.33268   2.33463   2.33718   2.33794   2.34280
 Alpha virt. eigenvalues --    2.34530   2.34829   2.35139   2.35438   2.35581
 Alpha virt. eigenvalues --    2.35859   2.36187   2.36303   2.36579   2.36728
 Alpha virt. eigenvalues --    2.36867   2.37140   2.37376   2.37784   2.37842
 Alpha virt. eigenvalues --    2.38236   2.38543   2.38678   2.39031   2.39537
 Alpha virt. eigenvalues --    2.40153   2.40477   2.40764   2.40890   2.41020
 Alpha virt. eigenvalues --    2.41345   2.41819   2.42359   2.42542   2.42764
 Alpha virt. eigenvalues --    2.43432   2.43720   2.44000   2.44236   2.44910
 Alpha virt. eigenvalues --    2.45376   2.45642   2.45725   2.46424   2.46870
 Alpha virt. eigenvalues --    2.47167   2.47412   2.47873   2.48140   2.48430
 Alpha virt. eigenvalues --    2.48518   2.49252   2.49418   2.49660   2.49859
 Alpha virt. eigenvalues --    2.50403   2.50571   2.50750   2.51295   2.51409
 Alpha virt. eigenvalues --    2.51723   2.52191   2.52372   2.52779   2.53279
 Alpha virt. eigenvalues --    2.53916   2.54284   2.54643   2.55365   2.55463
 Alpha virt. eigenvalues --    2.55667   2.55847   2.56374   2.56541   2.56635
 Alpha virt. eigenvalues --    2.57273   2.57380   2.57574   2.57764   2.57927
 Alpha virt. eigenvalues --    2.58436   2.58529   2.58637   2.58818   2.59400
 Alpha virt. eigenvalues --    2.59692   2.59905   2.59990   2.60492   2.61121
 Alpha virt. eigenvalues --    2.61226   2.61547   2.62123   2.62964   2.63228
 Alpha virt. eigenvalues --    2.63357   2.63618   2.63964   2.64062   2.64643
 Alpha virt. eigenvalues --    2.65104   2.65234   2.65444   2.65956   2.66215
 Alpha virt. eigenvalues --    2.66392   2.66686   2.67004   2.67048   2.67485
 Alpha virt. eigenvalues --    2.67800   2.67883   2.68089   2.68187   2.68837
 Alpha virt. eigenvalues --    2.69191   2.69363   2.69562   2.70062   2.70534
 Alpha virt. eigenvalues --    2.70868   2.70999   2.71160   2.71331   2.71395
 Alpha virt. eigenvalues --    2.71818   2.72119   2.72405   2.72754   2.72809
 Alpha virt. eigenvalues --    2.73098   2.73276   2.73638   2.73872   2.74203
 Alpha virt. eigenvalues --    2.74245   2.74390   2.74669   2.74838   2.75045
 Alpha virt. eigenvalues --    2.75127   2.75694   2.75825   2.76075   2.76314
 Alpha virt. eigenvalues --    2.76451   2.76625   2.76855   2.77243   2.77547
 Alpha virt. eigenvalues --    2.78403   2.78429   2.78644   2.79007   2.79161
 Alpha virt. eigenvalues --    2.79538   2.79820   2.80287   2.80830   2.81154
 Alpha virt. eigenvalues --    2.81401   2.81581   2.81852   2.82020   2.82612
 Alpha virt. eigenvalues --    2.82917   2.83150   2.83384   2.83798   2.84074
 Alpha virt. eigenvalues --    2.84120   2.84719   2.85003   2.85165   2.85250
 Alpha virt. eigenvalues --    2.85947   2.86436   2.86780   2.87151   2.87402
 Alpha virt. eigenvalues --    2.87693   2.87786   2.88235   2.88551   2.88936
 Alpha virt. eigenvalues --    2.89406   2.89793   2.89941   2.89995   2.90315
 Alpha virt. eigenvalues --    2.90408   2.90849   2.90899   2.91271   2.91789
 Alpha virt. eigenvalues --    2.92011   2.92389   2.92455   2.92740   2.92908
 Alpha virt. eigenvalues --    2.93268   2.93381   2.93963   2.94637   2.94924
 Alpha virt. eigenvalues --    2.95190   2.95578   2.95946   2.96289   2.96554
 Alpha virt. eigenvalues --    2.96784   2.96944   2.97490   2.97860   2.97890
 Alpha virt. eigenvalues --    2.98261   2.98463   2.98795   2.99103   2.99333
 Alpha virt. eigenvalues --    2.99567   3.00089   3.00271   3.00447   3.00600
 Alpha virt. eigenvalues --    3.00815   3.01071   3.01205   3.01492   3.01575
 Alpha virt. eigenvalues --    3.02306   3.02987   3.03363   3.03648   3.03930
 Alpha virt. eigenvalues --    3.04715   3.04956   3.05341   3.05538   3.06126
 Alpha virt. eigenvalues --    3.06277   3.06758   3.07378   3.07981   3.08335
 Alpha virt. eigenvalues --    3.08737   3.09298   3.10300   3.10539   3.10920
 Alpha virt. eigenvalues --    3.11077   3.11877   3.12902   3.13155   3.13268
 Alpha virt. eigenvalues --    3.13451   3.14007   3.14421   3.14717   3.15114
 Alpha virt. eigenvalues --    3.15600   3.16106   3.16283   3.16456   3.16638
 Alpha virt. eigenvalues --    3.17367   3.17540   3.17682   3.17883   3.18261
 Alpha virt. eigenvalues --    3.18992   3.19127   3.19764   3.20233   3.20371
 Alpha virt. eigenvalues --    3.21190   3.21462   3.21897   3.21997   3.22331
 Alpha virt. eigenvalues --    3.22769   3.23227   3.23318   3.23639   3.23972
 Alpha virt. eigenvalues --    3.24818   3.24868   3.25626   3.26042   3.26613
 Alpha virt. eigenvalues --    3.27840   3.28407   3.28452   3.28884   3.29623
 Alpha virt. eigenvalues --    3.30378   3.30578   3.31540   3.32924   3.34323
 Alpha virt. eigenvalues --    3.36134   3.37126   3.37558   3.39729   3.40774
 Alpha virt. eigenvalues --    3.40960   3.42428   3.46983   3.48608   3.51315
 Alpha virt. eigenvalues --    3.51815   3.52062   3.53179   3.54420   3.55356
 Alpha virt. eigenvalues --    3.56781   3.57291   3.57417   3.58439   3.59613
 Alpha virt. eigenvalues --    3.60132   3.60287   3.60935   3.63890   3.64572
 Alpha virt. eigenvalues --    3.65717   3.66870   3.67180   3.67394   3.67505
 Alpha virt. eigenvalues --    3.67989   3.68576   3.68654   3.69433   3.70134
 Alpha virt. eigenvalues --    3.70338   3.70354   3.70911   3.71250   3.71672
 Alpha virt. eigenvalues --    3.71798   3.72587   3.73608   3.73823   3.75146
 Alpha virt. eigenvalues --    3.78323   3.78431   3.82474   3.83320
          Condensed to atoms (all electrons):
 Mulliken charges:
               1
     1  C    0.028657
     2  C    0.046683
     3  O   -0.296935
     4  H    0.043026
     5  H    0.013195
     6  H    0.033712
     7  N   -0.114096
     8  C    0.078711
     9  C    0.104138
    10  O   -0.288218
    11  C    0.078661
    12  C    0.119025
    13  O   -0.371594
    14  O   -0.459621
    15  H    0.119350
    16  H    0.017791
    17  H   -0.000491
    18  H    0.023922
    19  N   -0.168543
    20  C    0.118119
    21  C    0.067348
    22  O   -0.295755
    23  C    0.036113
    24  C   -0.014105
    25  C   -0.032512
    26  C    0.016889
    27  N    0.078270
    28  H    0.160115
    29  H    0.022767
    30  H    0.012762
    31  H    0.018400
    32  H    0.000937
    33  H    0.027340
    34  H    0.058277
    35  H    0.049147
    36  H    0.052540
    37  H    0.059681
    38  H    0.207443
    39  H    0.191402
    40  H    0.178027
    41  N   -0.131724
    42  C    0.118595
    43  C    0.063922
    44  O   -0.282746
    45  C    0.117464
    46  C    0.083051
    47  O   -0.409787
    48  O   -0.427688
    49  H    0.152658
    50  H    0.026808
    51  H   -0.007942
    52  H    0.013482
    53  N   -0.181095
    54  C    0.239174
    55  C   -0.000564
    56  O   -0.298450
    57  H    0.119092
    58  H    0.034933
    59  H    0.035140
    60  N   -0.162032
    61  C    0.171912
    62  C    0.065361
    63  O   -0.294007
    64  C    0.053795
    65  C    0.073569
    66  N   -0.038875
    67  O   -0.359726
    68  H    0.143560
    69  H    0.016873
    70  H    0.036437
    71  H    0.036919
    72  H    0.124581
    73  H    0.102541
    74  N   -0.183380
    75  C    0.215930
    76  C    0.026625
    77  O   -0.322197
    78  H    0.146301
    79  H    0.031190
    80  H    0.023554
    81  N   -0.124842
    82  C    0.068715
    83  C    0.161604
    84  O   -0.369265
    85  C    0.161526
    86  C    0.019928
    87  C   -0.010290
    88  C   -0.014371
    89  C    0.004837
    90  C   -0.031576
    91  C    0.162010
    92  O   -0.199973
    93  H    0.160164
    94  H   -0.002324
    95  H    0.008738
    96  H   -0.027101
    97  H   -0.055581
    98  H   -0.012416
    99  H   -0.027868
   100  H   -0.030390
   101  H    0.169237
   102  N   -0.114189
   103  C    0.119319
   104  C    0.073475
   105  O   -0.280446
   106  C   -0.108308
   107  C    0.079257
   108  C    0.046506
   109  C   -0.048064
   110  H    0.134251
   111  H   -0.005889
   112  H   -0.009892
   113  H    0.001497
   114  H   -0.010155
   115  H   -0.009869
   116  H    0.035902
   117  H    0.014819
   118  H   -0.007024
   119  H    0.050635
   120  H    0.023426
   121  N   -0.152211
   122  C    0.063033
   123  C    0.128528
   124  O   -0.248748
   125  C    0.261501
   126  O   -0.342236
   127  H    0.147637
   128  H    0.023597
   129  H   -0.050653
   130  H   -0.003665
   131  H    0.164840
   132  N   -0.152684
   133  C    0.063960
   134  C    0.040102
   135  O   -0.272044
   136  C    0.057795
   137  H    0.118644
   138  H    0.025452
   139  H    0.033538
   140  H    0.009530
   141  H    0.052726
   142  N   -0.134014
   143  C    0.091270
   144  C    0.058901
   145  O   -0.273019
   146  C    0.060153
   147  H    0.109588
   148  H    0.022393
   149  H    0.028782
   150  H    0.009943
   151  H    0.029812
   152  N   -0.155071
   153  C    0.136602
   154  C    0.075496
   155  O   -0.289817
   156  C   -0.012404
   157  C    0.069185
   158  C    0.180260
   159  O   -0.387388
   160  O   -0.459271
   161  H    0.108224
   162  H   -0.032469
   163  H    0.036858
   164  H    0.022757
   165  H    0.000864
   166  H   -0.001385
   167  N   -0.179801
   168  C    0.131711
   169  H    0.008081
   170  H    0.029558
   171  H    0.032049
   172  H    0.139577
   173  Ca   1.255132
   174  O   -0.258224
   175  H    0.189176
   176  H    0.198006
 Sum of Mulliken charges =  -0.00000
 Mulliken charges with hydrogens summed into heavy atoms:
               1
     1  C    0.118591
     2  C    0.046683
     3  O   -0.296935
     7  N    0.005255
     8  C    0.096502
     9  C    0.104138
    10  O   -0.288218
    11  C    0.102092
    12  C    0.119025
    13  O   -0.371594
    14  O   -0.459621
    19  N   -0.008428
    20  C    0.140886
    21  C    0.067348
    22  O   -0.295755
    23  C    0.067275
    24  C    0.014171
    25  C    0.074911
    26  C    0.129110
    27  N    0.655142
    41  N    0.020934
    42  C    0.145403
    43  C    0.063922
    44  O   -0.282746
    45  C    0.123004
    46  C    0.083051
    47  O   -0.409787
    48  O   -0.427688
    53  N   -0.062003
    54  C    0.309248
    55  C   -0.000564
    56  O   -0.298450
    60  N   -0.018472
    61  C    0.188786
    62  C    0.065361
    63  O   -0.294007
    64  C    0.127151
    65  C    0.073569
    66  N    0.188247
    67  O   -0.359726
    74  N   -0.037079
    75  C    0.270674
    76  C    0.026625
    77  O   -0.322197
    81  N    0.035322
    82  C    0.066391
    83  C    0.161604
    84  O   -0.369265
    85  C    0.143163
    86  C    0.019928
    87  C   -0.065870
    88  C   -0.026787
    89  C   -0.023031
    90  C   -0.061966
    91  C    0.162010
    92  O   -0.030736
   102  N    0.020061
   103  C    0.113429
   104  C    0.073475
   105  O   -0.280446
   106  C   -0.118200
   107  C    0.070599
   108  C    0.087358
   109  C    0.018972
   121  N   -0.004574
   122  C    0.086631
   123  C    0.128528
   124  O   -0.248748
   125  C    0.207182
   126  O   -0.177396
   132  N   -0.034039
   133  C    0.089412
   134  C    0.040102
   135  O   -0.272044
   136  C    0.153589
   142  N   -0.024427
   143  C    0.113663
   144  C    0.058901
   145  O   -0.273019
   146  C    0.128689
   152  N   -0.046847
   153  C    0.104133
   154  C    0.075496
   155  O   -0.289817
   156  C    0.047211
   157  C    0.068664
   158  C    0.180260
   159  O   -0.387388
   160  O   -0.459271
   167  N   -0.040224
   168  C    0.201399
   173  Ca   1.255132
   174  O    0.128958
 DipInt: DoE/N= T F RetVal/Mat= T F Init=T NMatP=  1 IDeriv=0 Min/MaxMlt=  0  4
 Entering OneElI...
 OneElI was handed  1333951383 working-precision words.
 Multipole integrals L=0 to 4 MinM= 0 MaxM= 0.
 Requested accuracy = 0.1000D-12
 ShPair: Thresh= 1.00D-13 NBox=     0 BxSize= 0.00D+00 RnKept= 2.55D+01
         NSMCal=               327645 NSMKep=              164816
 PrmmSu-InSpLW:  IPartL=    0 NPrtUS=    1 NPrtUL=    1 DoSpLW=F IThBeg=    0 IThEnd=    0 NThAct=    1.
 PrsmSu:  NPrtUS=   1 ThrOK=F IAlg=1 NPAlg=1 LenDen=           0 ISkipM=0 DoSpLW=F IThBeg=    0 IThEnd=    0.
 Prism:   IPart=     0 DynPar=F LinDyn=F Incr=         512.
 PRISM was handed  1323711379 working-precision words and164816 shell-pairs
 IPart=  0 NShTot=      164816 NBatch=         378 AvBLen=       436.0
 PrsmSu-ThDecC:  IPartSL=    0    0 NPrtUSL=    1    1 IThBeg=    0 IThEnd=    0 CPU=   -1 GPU=   -1 NThAct=    1.
 PrSmSu:  NxtVal=            513.
 Electronic moments (au):
       -716.00000000          9.09310680         -0.48757329          1.48797348
     -50129.86043303     -29996.41676818     -12356.08823169         88.46020620
          4.75846197         86.83243741     -62539.11147179     -24546.73501593
      -9698.18836278      34227.32715713      96384.73405154      36951.71728878
     -10261.28991977      -8522.67010235      -4646.43704655     -48625.03864040
   -7141481.73511869   -2782251.66201528    -496865.82857933       -789.33417977
     399954.10408971    -590401.55651393       2420.87802137     -49519.02156512
     -29647.69787092   -2111386.98346094    -691677.00156682    -422586.94573921
     -35898.16262073     -15903.07353818      55362.46528349
 Electronic spatial extent (au):  <R**2>=          92482.3654
 DipInt: DoE/N= F T RetVal/Mat= T F Init=T NMatP=  1 IDeriv=0 Min/MaxMlt=  0  4
 Nuclear    moments (au):
        716.00000000          0.00000000          0.00000000         -0.00000000
      49627.52354806      29648.27062783      11982.32756411         -0.00000000
          0.00000000          0.00000000      62921.28731084      25251.36966939
       9762.83578319     -32743.93513198     -96541.27811585     -36956.08578275
      10548.52747665       8482.43091666       5246.60458336      48992.81250369
    6939520.98948655    2686110.18325384     456579.04439256       8055.65375092
    -403745.47129586     603500.73672947       8103.86353536      51279.11333109
      33935.89669810    2071080.38018893     659542.65017809     401381.00773753
      40271.35714419      16687.66765207     -52117.71770496
 Total      moments (au):
         -0.00000000          9.09310680         -0.48757329          1.48797348
       -502.33688497       -348.14614035       -373.76066758         88.46020620
          4.75846197         86.83243741        382.17583905        704.63465346
         64.64742041       1483.39202516       -156.54406431         -4.36849397
        287.23755688        -40.23918569        600.16753681        367.77386329
    -201960.74563214     -96141.47876144     -40286.78418677       7266.31957115
      -3791.36720615      13099.18021554      10524.74155673       1760.09176597
       4288.19882719     -40306.60327201     -32134.35138873     -21205.93800168
       4373.19452346        784.59411389       3244.74757852
 Traceless Quadrup. (au):
        -94.25565400         59.93509062         34.32056339         88.46020620
          4.75846197         86.83243741
 Charge=             -0.0000 electrons
 Dipole moment (field-independent basis, Debye):
    X=             23.1124    Y=             -1.2393    Z=              3.7821  Tot=             23.4525
 Quadrupole moment (field-independent basis, Debye-Ang):
   XX=           -675.6603   YY=           -468.2685   ZZ=           -502.7209
   XY=            118.9820   XZ=              6.4003   YZ=            116.7926
 Traceless Quadrupole moment (field-independent basis, Debye-Ang):
   XX=           -126.7771   YY=             80.6147   ZZ=             46.1623
   XY=            118.9820   XZ=              6.4003   YZ=            116.7926
 Octapole moment (field-independent basis, Debye-Ang**2):
  XXX=            272.0180  YYY=            501.5318  ZZZ=             46.0135  XYY=           1055.8213
  XXY=           -111.4220  XXZ=             -3.1093  XZZ=            204.4446  YZZ=            -28.6407
  YYZ=            427.1761  XYZ=            261.7673
 Hexadecapole moment (field-independent basis, Debye-Ang**3):
 XXXX=         -76068.1011 YYYY=         -36211.4910 ZZZZ=         -15173.9347 XXXY=           2736.8444
 XXXZ=          -1428.0107 YYYX=           4933.7794 YYYZ=           3964.1223 ZZZX=            662.9350
 ZZZY=           1615.1413 XXYY=         -15181.3996 XXZZ=         -12103.3376 YYZZ=          -7987.1731
 XXYZ=           1647.1548 YYXZ=            295.5158 ZZXY=           1222.1275
 N-N= 2.192327280846D+04 E-N=-5.632439100032D+04  KE= 5.290680746076D+03
 Leave Link  601 at Wed Sep 18 18:03:20 2019, MaxMem=  1342177280 cpu:              43.1 elap:               1.1
 FitSet:  NAtFit=   176 NAtPot=   176 NAtFrz=     0 MDM=   180 TotChg=   0.00000
 Merz-Kollman atomic radii used.
 Read replacement radii for each type of atom:
 Rad(20) =   1.700000000000D+00
 Atom Element Radius
    1     6    1.50
    2     6    1.50
    3     8    1.40
    4     1    1.20
    5     1    1.20
    6     1    1.20
    7     7    1.50
    8     6    1.50
    9     6    1.50
   10     8    1.40
   11     6    1.50
   12     6    1.50
   13     8    1.40
   14     8    1.40
   15     1    1.20
   16     1    1.20
   17     1    1.20
   18     1    1.20
   19     7    1.50
   20     6    1.50
   21     6    1.50
   22     8    1.40
   23     6    1.50
   24     6    1.50
   25     6    1.50
   26     6    1.50
   27     7    1.50
   28     1    1.20
   29     1    1.20
   30     1    1.20
   31     1    1.20
   32     1    1.20
   33     1    1.20
   34     1    1.20
   35     1    1.20
   36     1    1.20
   37     1    1.20
   38     1    1.20
   39     1    1.20
   40     1    1.20
   41     7    1.50
   42     6    1.50
   43     6    1.50
   44     8    1.40
   45     6    1.50
   46     6    1.50
   47     8    1.40
   48     8    1.40
   49     1    1.20
   50     1    1.20
   51     1    1.20
   52     1    1.20
   53     7    1.50
   54     6    1.50
   55     6    1.50
   56     8    1.40
   57     1    1.20
   58     1    1.20
   59     1    1.20
   60     7    1.50
   61     6    1.50
   62     6    1.50
   63     8    1.40
   64     6    1.50
   65     6    1.50
   66     7    1.50
   67     8    1.40
   68     1    1.20
   69     1    1.20
   70     1    1.20
   71     1    1.20
   72     1    1.20
   73     1    1.20
   74     7    1.50
   75     6    1.50
   76     6    1.50
   77     8    1.40
   78     1    1.20
   79     1    1.20
   80     1    1.20
   81     7    1.50
   82     6    1.50
   83     6    1.50
   84     8    1.40
   85     6    1.50
   86     6    1.50
   87     6    1.50
   88     6    1.50
   89     6    1.50
   90     6    1.50
   91     6    1.50
   92     8    1.40
   93     1    1.20
   94     1    1.20
   95     1    1.20
   96     1    1.20
   97     1    1.20
   98     1    1.20
   99     1    1.20
  100     1    1.20
  101     1    1.20
  102     7    1.50
  103     6    1.50
  104     6    1.50
  105     8    1.40
  106     6    1.50
  107     6    1.50
  108     6    1.50
  109     6    1.50
  110     1    1.20
  111     1    1.20
  112     1    1.20
  113     1    1.20
  114     1    1.20
  115     1    1.20
  116     1    1.20
  117     1    1.20
  118     1    1.20
  119     1    1.20
  120     1    1.20
  121     7    1.50
  122     6    1.50
  123     6    1.50
  124     8    1.40
  125     6    1.50
  126     8    1.40
  127     1    1.20
  128     1    1.20
  129     1    1.20
  130     1    1.20
  131     1    1.20
  132     7    1.50
  133     6    1.50
  134     6    1.50
  135     8    1.40
  136     6    1.50
  137     1    1.20
  138     1    1.20
  139     1    1.20
  140     1    1.20
  141     1    1.20
  142     7    1.50
  143     6    1.50
  144     6    1.50
  145     8    1.40
  146     6    1.50
  147     1    1.20
  148     1    1.20
  149     1    1.20
  150     1    1.20
  151     1    1.20
  152     7    1.50
  153     6    1.50
  154     6    1.50
  155     8    1.40
  156     6    1.50
  157     6    1.50
  158     6    1.50
  159     8    1.40
  160     8    1.40
  161     1    1.20
  162     1    1.20
  163     1    1.20
  164     1    1.20
  165     1    1.20
  166     1    1.20
  167     7    1.50
  168     6    1.50
  169     1    1.20
  170     1    1.20
  171     1    1.20
  172     1    1.20
  173    20    1.70
  174     8    1.40
  175     1    1.20
[...]
 **** Fit      -0.024464
 **** Fit      -0.023319
 **** Fit      -0.020781
 **** Fit      -0.016891
 **** Fit      -0.011611
 **** Fit      -0.004842
 **** Fit       0.003546
 **** Fit       0.013649
 **** Fit       0.025380
 **** Fit       0.038239
 **** Fit      -0.027972
 **** Fit      -0.028090
 **** Fit      -0.026790
 **** Fit      -0.024151
 **** Fit      -0.020195
 **** Fit      -0.014890
 **** Fit      -0.008146
 **** Fit       0.000168
 **** Fit       0.010172
 **** Fit       0.021874
 **** Fit       0.034980
 **** Fit      -0.032776
 **** Fit      -0.032630
 **** Fit      -0.031076
 **** Fit      -0.028165
 **** Fit      -0.023932
 **** Fit      -0.018371
 **** Fit      -0.011430
 **** Fit      -0.003020
 **** Fit       0.006932
 **** Fit       0.018383
 **** Fit       0.031015
 **** Fit      -0.038977
 **** Fit      -0.038572
 **** Fit      -0.036602
 **** Fit      -0.033152
 **** Fit      -0.028318
 **** Fit      -0.022165
 **** Fit      -0.014713
 **** Fit      -0.005955
 **** Fit       0.004078
 **** Fit       0.015193
 **** Fit       0.026871
 **** Fit      -0.037800
 **** Fit      -0.034214
 **** Fit      -0.027250
 **** Fit      -0.019190
 **** Fit      -0.010140
 **** Fit      -0.000261
 **** Fit       0.010104
 **** Fit       0.020267
 **** Fit       0.029059
 **** Fit      -0.022008
 **** Fit      -0.011859
 **** Fit      -0.001559
 **** Fit       0.008294
 **** Fit       0.013956
 **** Fit       0.015843
 **** Fit       0.014469
 **** Fit       0.014598
 **** Fit       0.012318
 **** Fit       0.011008
 **** Fit       0.009059
 **** Fit       0.006232
 **** Fit       0.002237
 **** Fit       0.002723
 **** Fit      -0.002537
 **** Fit      -0.004277
 **** Fit      -0.009602
 **** Fit      -0.006533
 **** Fit      -0.014308
 **** Fit      -0.008462
 **** Fit      -0.016663
 **** Fit      -0.027009
 **** Fit      -0.002112
 **** Fit      -0.004916
 **** Fit      -0.011229
 **** Fit      -0.020410
 **** Fit      -0.007906
 **** Fit      -0.013423
 **** Fit      -0.022283
 **** Fit      -0.013888
 **** Fit      -0.014542
 **** Fit      -0.015750
 **** Fit      -0.033553
 **** Fit      -0.027771
 **** Fit       0.032200
 **** Fit       0.014990
 **** Fit       0.029513
 **** Fit       0.041130
 **** Fit      -0.004245
 **** Fit       0.010570
 **** Fit       0.023844
 **** Fit       0.034882
 **** Fit       0.007093
 **** Fit       0.019238
 **** Fit       0.029270
 **** Fit       0.007042
 **** Fit       0.017952
 **** Fit       0.026537
 **** Fit       0.008417
 **** Fit       0.017671
 **** Fit       0.009311
 **** Fit       0.016658
 **** Fit       0.021622
 **** Fit       0.005330
 **** Fit       0.012521
 **** Fit       0.017262
 **** Fit       0.019705
 **** Fit       0.009577
 **** Fit       0.014020
 **** Fit       0.009122
 **** Fit       0.012837
 **** Fit       0.013145
 **** Fit       0.013145
 **** Fit       0.013104
 **** Fit       0.012803
 **** Fit       0.013445
 **** Fit       0.012183
 **** Fit       0.010538
 **** Fit       0.008120
 **** Fit       0.012409
 **** Fit       0.010045
 **** Fit       0.007194
 **** Fit       0.003636
 **** Fit       0.012796
 **** Fit       0.009574
 **** Fit       0.006172
 **** Fit       0.002512
 **** Fit      -0.000783
 **** Fit      -0.002561
 **** Fit       0.012588
 **** Fit       0.008499
 **** Fit       0.004739
 **** Fit       0.002075
 **** Fit       0.001636
 **** Fit       0.002975
 **** Fit       0.011871
 **** Fit       0.007417
 **** Fit       0.005767
 **** Fit       0.008181
 **** Fit       0.010433
 **** Fit       0.020550
 **** Fit       0.018245
 **** Fit       0.015053
 **** Fit       0.001980
 **** Fit       0.001745
 **** Fit       0.001079
 **** Fit       0.001145
 **** Fit       0.001528
 **** Fit       0.000911
 **** Fit       0.000168
 **** Fit      -0.000403
 **** Fit      -0.000147
 **** Fit       0.002106
 **** Fit       0.001268
 **** Fit      -0.002112
 **** Fit      -0.000725
 **** Fit       0.002216
 **** Fit       0.001717
 **** Fit       0.000894
 **** Fit      -0.004594
 **** Fit      -0.002512
 **** Fit       0.002221
 **** Fit       0.001723
 **** Fit       0.001282
 **** Fit       0.000340
 **** Fit      -0.008936
 **** Fit      -0.006211
 **** Fit      -0.003127
 **** Fit       0.002560
 **** Fit       0.002031
 **** Fit       0.001551
 **** Fit       0.001102
 **** Fit       0.000692
 **** Fit      -0.000443
 **** Fit      -0.008394
 **** Fit      -0.004244
 **** Fit       0.002421
 **** Fit       0.001889
 **** Fit       0.001383
 **** Fit       0.000883
 **** Fit       0.000393
 **** Fit      -0.000059
 **** Fit      -0.001490
 **** Fit      -0.005312
 **** Fit       0.002217
 **** Fit       0.001690
 **** Fit       0.001165
 **** Fit       0.000621
 **** Fit       0.000056
 **** Fit      -0.000509
 **** Fit      -0.001037
 **** Fit      -0.002817
 **** Fit       0.002089
 **** Fit       0.001553
 **** Fit       0.000999
 **** Fit       0.000407
 **** Fit      -0.000235
 **** Fit      -0.000915
 **** Fit      -0.001600
 **** Fit      -0.002247
 **** Fit      -0.004438
 **** Fit       0.002490
 **** Fit       0.001975
 **** Fit       0.001420
 **** Fit      -0.002941
 **** Fit      -0.003727
 **** Fit      -0.006379
 **** Fit      -0.007190
 **** Fit       0.002547
 **** Fit       0.002038
 **** Fit      -0.005503
 **** Fit      -0.008705
 **** Fit      -0.009724
 **** Fit       0.002988
 **** Fit       0.002923
 **** Fit       0.002519
 **** Fit      -0.012717
 **** Fit      -0.013999
 **** Fit       0.002868
 **** Fit       0.003297
 **** Fit       0.003217
 **** Fit       0.002616
 **** Fit      -0.016296
 **** Fit      -0.017738
 **** Fit      -0.019560
 **** Fit       0.003349
 **** Fit       0.003914
 **** Fit       0.003721
 **** Fit      -0.022278
 **** Fit      -0.024468
 **** Fit      -0.027517
 **** Fit      -0.031678
 **** Fit       0.004241
 **** Fit      -0.027706
 **** Fit      -0.030368
 **** Fit      -0.034322
 **** Fit      -0.033934
 **** Fit       0.003873
 **** Fit       0.003307
 **** Fit       0.002901
 **** Fit       0.003442
 **** Fit       0.004470
 **** Fit       0.004635
 **** Fit       0.004038
 **** Fit       0.002782
 **** Fit       0.001706
 **** Fit       0.001739
 **** Fit       0.002622
 **** Fit       0.003995
 **** Fit       0.005100
 **** Fit       0.005466
 **** Fit       0.005195
 **** Fit       0.004645
 **** Fit       0.004018
 **** Fit       0.003389
 **** Fit       0.001229
 **** Fit       0.002930
 **** Fit       0.004595
 **** Fit       0.005791
 **** Fit       0.006260
 **** Fit       0.006063
 **** Fit       0.005549
 **** Fit       0.004978
 **** Fit       0.004417
 **** Fit       0.003866
 **** Fit       0.003331
 **** Fit       0.002820
 **** Fit      -0.000295
 **** Fit       0.001998
 **** Fit       0.004184
 **** Fit       0.005904
 **** Fit       0.005249
 **** Fit       0.004702
 **** Fit       0.004197
 **** Fit       0.003700
 **** Fit       0.003215
 **** Fit       0.002758
 **** Fit      -0.001359
 **** Fit       0.001687
 **** Fit       0.005513
 **** Fit       0.004890
 **** Fit       0.004423
 **** Fit       0.003987
 **** Fit       0.003536
 **** Fit       0.003077
 **** Fit      -0.002412
 **** Fit       0.004797
 **** Fit       0.004361
 **** Fit       0.004040
 **** Fit       0.003703
 **** Fit       0.003310
 **** Fit       0.002881
 **** Fit       0.003844
 **** Fit       0.003705
 **** Fit       0.003515
 **** Fit       0.003211
 **** Fit       0.002809
 **** Fit       0.003059
 **** Fit       0.003209
 **** Fit       0.003246
 **** Fit       0.003092
 **** Fit       0.002757
 **** Fit       0.002492
 **** Fit       0.002884
 **** Fit       0.003005
 **** Fit       0.002833
 **** Fit       0.001989
 **** Fit       0.002663
 **** Fit       0.002969
 **** Fit       0.000211
 **** Fit      -0.000520
 **** Fit      -0.001257
 **** Fit       0.001287
 **** Fit       0.000568
 **** Fit      -0.000224
 **** Fit      -0.001051
 **** Fit      -0.001885
 **** Fit      -0.002707
 **** Fit      -0.003509
 **** Fit      -0.006238
 **** Fit       0.001351
 **** Fit       0.000492
 **** Fit      -0.000480
 **** Fit      -0.001499
 **** Fit      -0.002512
 **** Fit      -0.003492
 **** Fit      -0.004432
 **** Fit      -0.005341
 **** Fit      -0.008642
 **** Fit      -0.009642
 **** Fit       0.001521
 **** Fit       0.000447
 **** Fit      -0.000798
 **** Fit      -0.002104
 **** Fit      -0.003383
 **** Fit      -0.004582
 **** Fit      -0.005686
 **** Fit      -0.006707
 **** Fit      -0.007678
 **** Fit      -0.011697
 **** Fit      -0.012746
 **** Fit      -0.013937
 **** Fit       0.002149
 **** Fit       0.000817
 **** Fit      -0.000840
 **** Fit      -0.002629
 **** Fit      -0.004384
 **** Fit      -0.005995
 **** Fit      -0.007414
 **** Fit      -0.008642
 **** Fit      -0.009721
 **** Fit      -0.010715
 **** Fit      -0.015692
 **** Fit      -0.016729
 **** Fit      -0.017998
 **** Fit       0.002478
 **** Fit       0.000471
 **** Fit      -0.002064
 **** Fit      -0.004746
 **** Fit      -0.007271
 **** Fit      -0.009460
 **** Fit      -0.011248
 **** Fit      -0.012663
 **** Fit      -0.013792
 **** Fit      -0.014758
 **** Fit      -0.021059
 **** Fit      -0.021903
 **** Fit      -0.023109
 **** Fit      -0.003205
 **** Fit      -0.007418
 **** Fit      -0.011310
 **** Fit      -0.014505
 **** Fit      -0.016884
 **** Fit      -0.018519
 **** Fit      -0.019601
 **** Fit      -0.020367
 **** Fit      -0.029506
 **** Fit      -0.031080
 **** Fit      -0.000074
 **** Fit       0.000188
 **** Fit      -0.000758
 **** Fit      -0.001362
 **** Fit       0.000180
 **** Fit      -0.000605
 **** Fit      -0.001676
 **** Fit      -0.002832
 **** Fit      -0.003428
 **** Fit      -0.002869
 **** Fit       0.000752
 **** Fit      -0.000106
 **** Fit      -0.000774
 **** Fit      -0.001691
 **** Fit      -0.002947
 **** Fit      -0.004481
 **** Fit      -0.005946
 **** Fit      -0.006710
 **** Fit      -0.006248
 **** Fit       0.000436
 **** Fit      -0.000686
 **** Fit      -0.001319
 **** Fit      -0.002164
 **** Fit      -0.003354
 **** Fit      -0.004995
 **** Fit      -0.007089
 **** Fit      -0.009388
 **** Fit      -0.011286
 **** Fit      -0.011967
 **** Fit      -0.010944
 **** Fit      -0.000141
 **** Fit      -0.001577
 **** Fit      -0.002223
 **** Fit      -0.003066
 **** Fit      -0.004250
 **** Fit      -0.005936
 **** Fit      -0.008279
 **** Fit      -0.011337
 **** Fit      -0.000999
 **** Fit      -0.002803
 **** Fit      -0.003479
 **** Fit      -0.004335
 **** Fit      -0.005513
 **** Fit      -0.007185
 **** Fit      -0.009563
 **** Fit      -0.012885
 **** Fit      -0.002186
 **** Fit      -0.004398
 **** Fit      -0.005166
 **** Fit      -0.006133
 **** Fit      -0.007457
 **** Fit      -0.009341
 **** Fit      -0.012061
 **** Fit      -0.015994
 **** Fit      -0.003690
 **** Fit      -0.006401
 **** Fit      -0.007276
 **** Fit      -0.008369
 **** Fit      -0.009846
 **** Fit      -0.011927
 **** Fit      -0.014922
 **** Fit      -0.019301
 **** Fit      -0.008866
 **** Fit      -0.009890
 **** Fit      -0.011169
 **** Fit      -0.012890
 **** Fit      -0.015291
 **** Fit      -0.018729
 **** Fit      -0.013116
 **** Fit      -0.014719
 **** Fit      -0.016900
 **** Fit      -0.019957
 **** Fit      -0.024360
 **** Fit      -0.017012
 **** Fit      -0.019081
 **** Fit      -0.021937
 **** Fit      -0.025959
 **** Fit      -0.024207
 **** Fit      -0.027850
 **** Fit      -0.032907
 **** Fit       0.049669
 **** Fit       0.050654
 **** Fit       0.052090
 **** Fit       0.047051
 **** Fit       0.048371
 **** Fit       0.043433
 **** Fit       0.035989
 **** Fit       0.038539
 **** Fit       0.038797
 **** Fit       0.040142
 **** Fit       0.040780
 **** Fit       0.041371
 **** Fit       0.041763
 **** Fit       0.042161
 **** Fit       0.042772
 **** Fit       0.043500
 **** Fit       0.043932
 **** Fit       0.043967
 **** Fit       0.044375
 **** Fit       0.045047
 **** Fit       0.045930
 **** Fit       0.046866
 **** Fit       0.045998
 **** Fit       0.045773
 **** Fit       0.046044
 **** Fit       0.046688
 **** Fit       0.047626
 **** Fit       0.048836
 **** Fit       0.048394
 **** Fit       0.047515
 **** Fit       0.047429
 **** Fit       0.047893
 **** Fit       0.048766
 **** Fit       0.049970
 **** Fit       0.049487
 **** Fit       0.048830
 **** Fit       0.048991
 **** Fit       0.049716
 **** Fit       0.050866
 **** Fit       0.052359
 **** Fit       0.050167
 **** Fit       0.050239
 **** Fit       0.051065
 **** Fit       0.052453
 **** Fit       0.054301
 **** Fit       0.051374
 **** Fit       0.051448
 **** Fit       0.052467
 **** Fit       0.054238
 **** Fit       0.055324
 **** Fit      -0.004486
 **** Fit       0.053379
 **** Fit       0.052488
 **** Fit       0.051337
 **** Fit       0.002904
 **** Fit      -0.002067
 **** Fit      -0.009606
 **** Fit       0.049799
 **** Fit       0.049837
 **** Fit       0.049524
 **** Fit       0.048828
 **** Fit       0.047662
 **** Fit       0.045780
 **** Fit       0.012194
 **** Fit       0.009390
 **** Fit       0.005327
 **** Fit      -0.000255
 **** Fit      -0.006508
 **** Fit       0.045130
 **** Fit       0.045968
 **** Fit       0.046403
 **** Fit       0.046367
 **** Fit       0.045781
 **** Fit       0.044486
 **** Fit       0.042170
 **** Fit       0.038373
 **** Fit       0.032790
 **** Fit       0.024215
 **** Fit       0.019830
 **** Fit       0.016132
 **** Fit       0.012326
 **** Fit       0.007974
 **** Fit       0.003613
 **** Fit       0.000765
 **** Fit       0.001200
 **** Fit       0.005588
 **** Fit       0.012941
 **** Fit       0.021377
 **** Fit       0.034666
 **** Fit       0.038386
 **** Fit       0.040753
 **** Fit       0.042262
 **** Fit       0.043109
 **** Fit       0.043296
 **** Fit       0.042733
 **** Fit       0.041238
 **** Fit       0.038547
 **** Fit       0.034494
 **** Fit       0.029397
 **** Fit       0.026738
 **** Fit       0.022387
 **** Fit       0.018351
 **** Fit       0.014489
 **** Fit       0.011342
 **** Fit       0.010283
 **** Fit       0.012490
 **** Fit       0.017690
 **** Fit       0.024219
 **** Fit       0.030209
 **** Fit       0.034679
 **** Fit       0.037638
 **** Fit       0.039401
 **** Fit       0.040132
 **** Fit       0.039800
 **** Fit       0.038258
 **** Fit       0.035369
 **** Fit       0.031303
 **** Fit       0.028020
 **** Fit       0.023566
 **** Fit       0.019782
 **** Fit       0.017825
 **** Fit       0.019217
 **** Fit       0.023804
 **** Fit       0.029309
 **** Fit       0.033634
 **** Fit       0.036127
 **** Fit       0.036763
 **** Fit       0.035481
 **** Fit       0.032344
 **** Fit       0.028593
 **** Fit       0.024548
 **** Fit       0.024517
 **** Fit       0.028954
 **** Fit       0.032637
 **** Fit       0.032391
 **** Fit       0.028810
 -----------------------------------------------------------------
 Leave Link  602 at Wed Sep 18 18:03:23 2019, MaxMem=  1342177280 cpu:             111.3 elap:               2.4

 Test job not archived.
 1\1\GINC-C504-111\SP\RB3LYP\SVP\C54H83Ca1N15O23\JAEBEOMH\18-Sep-2019\0
 \\#b3lyp/svp scf=(tight,noincore) Test #IOP(5/87=12) Density=Current P
 op=(MK,readradii) iop(6/33=2) iop(6/42=6)\\holoCaM_loop3_39.0\\0,1\C,0
 ,94.5,55.62,3.503\C,0,95.62,56.54,3.023\O,0,96.74,56.13,2.743\H,0,93.6
 14,55.775,2.887\H,0,94.822,54.582,3.421\H,0,94.263,55.846,4.543\N,0,95
 .44,57.85,3.183\C,0,96.47,58.87,3.213\C,0,97.16,58.85,4.563\O,0,96.54,
 58.83,5.633\C,0,95.7,60.17,2.963\C,0,96.66,61.35,2.993\O,0,96.45,62.31
 ,3.753\O,0,97.65,61.29,2.223\H,0,94.52,58.18,3.433\H,0,97.14,58.8,2.35
 3\H,0,94.97,60.29,3.763\H,0,95.22,60.14,1.993\N,0,98.49,58.78,4.433\C,
 0,99.38,58.7,5.563\C,0,100.21,59.95,5.793\O,0,100.9,60.05,6.813\C,0,10
 0.33,57.53,5.293\C,0,99.59,56.19,5.313\C,0,98.97,55.88,6.673\C,0,98.9,
 54.36,6.733\N,0,97.78,53.76,5.993\H,0,98.97,58.83,3.543\H,0,98.89,58.5
 ,6.513\H,0,101.15,57.39,5.993\H,0,100.77,57.65,4.303\H,0,100.32,55.4,5
 .143\H,0,98.78,56.18,4.583\H,0,98.,56.35,6.853\H,0,99.69,56.22,7.423\H
 ,0,98.89,54.03,7.773\H,0,99.79,53.82,6.423\H,0,97.79,53.99,5.003\H,0,9
 7.64,52.78,6.183\H,0,96.92,54.17,6.323\N,0,100.09,61.,4.973\C,0,100.87
 ,62.21,5.173\C,0,100.14,63.51,5.463\O,0,100.6,64.49,6.043\C,0,101.77,6
 2.52,3.983\C,0,101.15,62.33,2.613\O,0,101.69,61.67,1.703\O,0,99.98,62.
 72,2.413\H,0,99.4,60.96,4.243\H,0,101.52,62.08,6.043\H,0,102.64,61.85,
 4.023\H,0,102.23,63.5,4.083\N,0,98.86,63.54,5.063\C,0,97.96,64.66,5.22
 3\C,0,97.76,65.51,3.973\O,0,97.12,66.55,4.053\H,0,98.38,62.78,4.603\H,
 0,98.33,65.33,6.003\H,0,96.99,64.21,5.403\N,0,98.22,65.11,2.783\C,0,97
 .92,65.67,1.483\C,0,96.71,65.07,0.803\O,0,96.3,65.58,-0.237\C,0,99.21,
 65.63,0.663\C,0,99.45,64.37,-0.157\N,0,100.65,64.23,-0.727\O,0,98.64,6
 3.49,-0.447\H,0,98.62,64.18,2.743\H,0,97.74,66.74,1.583\H,0,100.06,65.
 86,1.293\H,0,99.2,66.4,-0.107\H,0,101.42,64.8,-0.407\H,0,100.74,63.67,
 -1.567\N,0,96.08,64.03,1.363\C,0,94.8,63.44,1.003\C,0,94.7,62.8,-0.377
 \O,0,93.62,62.32,-0.697\H,0,96.5,63.53,2.143\H,0,93.97,64.13,1.143\H,0
 ,94.7,62.71,1.803\N,0,95.75,62.64,-1.167\C,0,95.9,61.95,-2.437\C,0,96.
 61,60.64,-2.117\O,0,97.59,60.65,-1.377\C,0,96.72,62.75,-3.447\C,0,96.2
 3,64.14,-3.747\C,0,97.15,65.1,-4.177\C,0,94.85,64.42,-3.727\C,0,96.72,
 66.38,-4.517\C,0,94.37,65.7,-4.047\C,0,95.33,66.64,-4.477\O,0,94.93,67
 .9,-4.807\H,0,96.6,63.07,-0.827\H,0,94.88,61.78,-2.777\H,0,96.68,62.17
 ,-4.377\H,0,97.73,62.8,-3.047\H,0,98.21,64.89,-4.207\H,0,94.19,63.7,-3
 .287\H,0,97.42,67.16,-4.797\H,0,93.33,65.9,-3.837\H,0,93.98,67.98,-4.6
 97\N,0,96.19,59.57,-2.807\C,0,96.83,58.28,-2.657\C,0,97.91,57.95,-3.67
 7\O,0,97.58,57.75,-4.847\C,0,95.75,57.21,-2.517\C,0,94.69,57.37,-1.427
 \C,0,96.5,55.9,-2.247\C,0,95.33,57.91,-0.157\H,0,95.46,59.61,-3.497\H,
 0,97.34,58.38,-1.697\H,0,95.19,57.19,-3.447\H,0,94.21,56.4,-1.317\H,0,
 94.,58.17,-1.687\H,0,95.8,55.1,-2.477\H,0,97.36,55.76,-2.907\H,0,96.69
 ,55.69,-1.197\H,0,94.55,57.97,0.603\H,0,96.22,57.35,0.153\H,0,95.56,58
 .97,-0.237\N,0,99.14,57.78,-3.167\C,0,100.32,57.38,-3.907\C,0,100.68,5
 5.92,-3.697\O,0,100.07,55.2,-2.917\C,0,101.45,58.34,-3.527\O,0,102.02,
 58.1,-2.267\H,0,99.25,57.95,-2.177\H,0,100.11,57.44,-4.977\H,0,101.07,
 59.36,-3.427\H,0,102.24,58.36,-4.277\H,0,101.36,58.25,-1.587\N,0,101.6
 1,55.46,-4.547\C,0,101.63,54.05,-4.867\C,0,101.98,53.23,-3.627\O,0,101
 .61,52.07,-3.497\C,0,102.46,53.85,-6.127\H,0,102.07,56.04,-5.227\H,0,1
 00.63,53.68,-5.107\H,0,101.81,54.25,-6.897\H,0,103.34,54.49,-6.007\H,0
 ,102.75,52.81,-6.257\N,0,102.71,53.78,-2.657\C,0,103.06,53.1,-1.427\C,
 0,101.93,53.08,-0.407\O,0,101.74,52.14,0.363\C,0,104.24,53.8,-0.757\H,
 0,102.88,54.77,-2.807\H,0,103.21,52.08,-1.757\H,0,104.64,53.17,0.053\H
 ,0,105.06,53.64,-1.457\H,0,104.09,54.83,-0.457\N,0,101.12,54.14,-0.397
 \C,0,99.91,54.26,0.393\C,0,98.9,53.18,0.053\O,0,98.3,52.54,0.913\C,0,9
 9.33,55.67,0.283\C,0,100.3,56.58,1.023\C,0,100.03,58.07,0.823\O,0,99.8
 5,58.85,1.773\O,0,99.91,58.57,-0.317\H,0,101.46,54.94,-0.927\H,0,100.3
 ,54.09,1.393\H,0,98.43,55.69,0.893\H,0,99.,55.95,-0.717\H,0,101.32,56.
 34,0.733\H,0,100.23,56.45,2.103\N,0,98.66,53.03,-1.257\C,0,97.88,51.95
 ,-1.817\H,0,96.956,52.349,-2.236\H,0,98.452,51.458,-2.604\H,0,97.642,5
 1.229,-1.035\H,0,99.18,53.65,-1.867\Ca,0,99.42,61.06,0.42\O,0,101.057,
 61.47,-1.687\H,0,100.607,61.61,-2.517\H,0,101.947,61.21,-1.927\\Versio
 n=ES64L-G16RevA.03\State=1-A\HF=-5333.6343645\RMSD=4.421e-09\Dipole=1.
 1317519,-8.9821455,-1.7822973\Quadrupole=9.9808234,-49.4366688,39.4558
 453,34.7692915,-48.6477349,-128.7989027\PG=C01 [X(C54H83Ca1N15O23)]\\@


 When cryptography is outlawed, bayl bhgynjf jvyy unir cevinpl.
 Job cpu time:       0 days  7 hours 45 minutes 44.3 seconds.
 Elapsed time:       0 days  0 hours  9 minutes 48.8 seconds.
 File lengths (MBytes):  RWF=   1517 Int=      0 D2E=      0 Chk=    171 Scr=      1
 Normal termination of Gaussian 16 at Wed Sep 18 18:03:24 2019.
