 Entering Gaussian System, Link 0=g16
 Initial command:
 /home1/apps/gaussian/16rA.03/g16/l1.exe "/scratch/04905/jaebeomh/4357452/Gau-393899.inp" -scrdir="/scratch/04905/jaebeomh/4357452/"
 Entering Link 1 = /home1/apps/gaussian/16rA.03/g16/l1.exe PID=    393900.
  
 Copyright (c) 1988,1990,1992,1993,1995,1998,2003,2009,2016,
            Gaussian, Inc.  All Rights Reserved.
  
 This is part of the Gaussian(R) 16 program.  It is based on
 the Gaussian(R) 09 system (copyright 2009, Gaussian, Inc.),
 the Gaussian(R) 03 system (copyright 2003, Gaussian, Inc.),
 the Gaussian(R) 98 system (copyright 1998, Gaussian, Inc.),
 the Gaussian(R) 94 system (copyright 1995, Gaussian, Inc.),
 the Gaussian 92(TM) system (copyright 1992, Gaussian, Inc.),
 the Gaussian 90(TM) system (copyright 1990, Gaussian, Inc.),
 the Gaussian 88(TM) system (copyright 1988, Gaussian, Inc.),
 the Gaussian 86(TM) system (copyright 1986, Carnegie Mellon
 University), and the Gaussian 82(TM) system (copyright 1983,
 Carnegie Mellon University). Gaussian is a federally registered
 trademark of Gaussian, Inc.
  
 This software contains proprietary and confidential information,
 including trade secrets, belonging to Gaussian, Inc.
  
 This software is provided under written license and may be
 used, copied, transmitted, or stored only in accord with that
 written license.
  
 The following legend is applicable only to US Government
 contracts under FAR:
  
                    RESTRICTED RIGHTS LEGEND
  
 Use, reproduction and disclosure by the US Government is
 subject to restrictions as set forth in subparagraphs (a)
 and (c) of the Commercial Computer Software - Restricted
 Rights clause in FAR 52.227-19.
  
 Gaussian, Inc.
 340 Quinnipiac St., Bldg. 40, Wallingford CT 06492
  
  
 ---------------------------------------------------------------
 Warning -- This program may not be used in any manner that
 competes with the business of Gaussian, Inc. or will provide
 assistance to any competitor of Gaussian, Inc.  The licensee
 of this program is prohibited from giving any competitor of
 Gaussian, Inc. access to this program.  By using this program,
 the user acknowledges that Gaussian, Inc. is engaged in the
 business of creating and licensing software in the field of
 computational chemistry and represents and warrants to the
 licensee that it is not a competitor of Gaussian, Inc. and that
 it will not use this program in any manner prohibited above.
 ---------------------------------------------------------------
  

 Cite this work as:
 Gaussian 16, Revision A.03,
 M. J. Frisch, G. W. Trucks, H. B. Schlegel, G. E. Scuseria, 
 M. A. Robb, J. R. Cheeseman, G. Scalmani, V. Barone, 
 G. A. Petersson, H. Nakatsuji, X. Li, M. Caricato, A. V. Marenich, 
 J. Bloino, B. G. Janesko, R. Gomperts, B. Mennucci, H. P. Hratchian, 
 J. V. Ortiz, A. F. Izmaylov, J. L. Sonnenberg, D. Williams-Young, 
 F. Ding, F. Lipparini, F. Egidi, J. Goings, B. Peng, A. Petrone, 
 T. Henderson, D. Ranasinghe, V. G. Zakrzewski, J. Gao, N. Rega, 
 G. Zheng, W. Liang, M. Hada, M. Ehara, K. Toyota, R. Fukuda, 
 J. Hasegawa, M. Ishida, T. Nakajima, Y. Honda, O. Kitao, H. Nakai, 
 T. Vreven, K. Throssell, J. A. Montgomery, Jr., J. E. Peralta, 
 F. Ogliaro, M. J. Bearpark, J. J. Heyd, E. N. Brothers, K. N. Kudin, 
 V. N. Staroverov, T. A. Keith, R. Kobayashi, J. Normand, 
 K. Raghavachari, A. P. Rendell, J. C. Burant, S. S. Iyengar, 
 J. Tomasi, M. Cossi, J. M. Millam, M. Klene, C. Adamo, R. Cammi, 
 J. W. Ochterski, R. L. Martin, K. Morokuma, O. Farkas, 
 J. B. Foresman, and D. J. Fox, Gaussian, Inc., Wallingford CT, 2016.
 
 ******************************************
 Gaussian 16:  ES64L-G16RevA.03 25-Dec-2016
                18-Sep-2019 
 ******************************************
 %chk=holoCaM_loop3_37.0.chk
 %nprocshared=48
 Will use up to   48 processors via shared memory.
 %mem=10GB
 %nosave
 ----------------------------------------------------------------------
 #b3lyp/svp scf=(tight,noincore) Test #IOP(5/87=12) Density=Current Pop
 =(MK,readradii) iop(6/33=2) iop(6/42=6)
 ----------------------------------------------------------------------
 1/30=1,38=1,172=1/1;
 2/12=2,17=6,18=5,40=1/2;
 3/5=18,7=101,11=2,25=1,30=1,74=-5/1,2,3;
 4//1;
 5/5=4,32=2,38=5,87=12/2;
 6/7=2,8=2,9=2,10=2,15=8,20=101,22=-1,28=1,33=2,42=6/1,2;
 99/5=1,9=1/99;
 ------------------
 holoCaM_loop3_37.0
 ------------------
 Symbolic Z-matrix:
 Charge =  0 Multiplicity = 1
 C                     75.25     61.28     96.07 
 C                     76.66     61.84     96.07 
 O                     77.52     61.01     95.81 
 H                     74.584    61.974    95.557 
 H                     75.24     60.319    95.555 
 H                     74.912    61.146    97.097 
 N                     77.02     63.04     96.54 
 C                     78.36     63.57     96.71 
 C                     79.09     62.97     97.91 
 O                     78.63     63.06     99.05 
 C                     78.22     65.08     96.81 
 C                     79.48     65.83     97.24 
 O                     79.38     66.85     97.95 
 O                     80.56     65.31     96.89 
 H                     76.37     63.52     97.15 
 H                     78.95     63.38     95.82 
 H                     77.44     65.33     97.54 
 H                     77.78     65.44     95.88 
 N                     80.23     62.32     97.69 
 C                     80.95     61.6      98.73 
 C                     81.6      62.48     99.79 
 O                     81.64     62.11     100.96 
 C                     82.01     60.64     98.21 
 C                     81.48     59.75     97.09 
 C                     80.28     58.85     97.36 
 C                     79.62     58.31     96.09 
 N                     78.3      57.81     96.49 
 H                     80.66     62.43     96.78 
 H                     80.19     61.07     99.3 
 H                     82.31     60.02     99.06 
 H                     82.86     61.25     97.92 
 H                     82.15     58.98     96.71 
 H                     81.19     60.28     96.18 
 H                     79.57     59.39     97.99 
 H                     80.72     57.98     97.85 
 H                     80.3      57.55     95.7 
 H                     79.51     59.11     95.36 
 H                     77.75     57.39     95.75 
 H                     78.4      57.02     97.11 
 H                     77.75     58.55     96.9 
 N                     82.07     63.64     99.34 
 C                     83.06     64.44     100.03 
 C                     82.53     65.81     100.44 
 O                     83.26     66.54     101.11 
 C                     84.38     64.56     99.26 
 C                     84.02     64.76     97.8 
 O                     84.18     65.84     97.18 
 O                     83.61     63.77     97.16 
 H                     81.82     63.89     98.39 
 H                     83.3      63.87     100.92 
 H                     84.82     63.58     99.42 
 H                     85.06     65.26     99.74 
 N                     81.29     66.18     100.12 
 C                     80.64     67.35     100.68 
 C                     81.       68.63     99.93 
 O                     80.6      69.75     100.24 
 H                     80.65     65.6      99.59 
 H                     80.92     67.48     101.72 
 H                     79.55     67.32     100.62 
 N                     81.71     68.49     98.81 
 C                     82.3      69.58     98.06 
 C                     81.44     70.28     97.02 
 O                     81.75     71.31     96.41 
 C                     83.56     69.01     97.41 
 C                     83.47     68.41     96.01 
 N                     84.47     68.56     95.14 
 O                     82.48     67.76     95.68 
 H                     81.64     67.63     98.29 
 H                     82.51     70.45     98.69 
 H                     83.97     68.21     98.02 
 H                     84.22     69.87     97.36 
 H                     85.2      69.18     95.46 
 H                     84.33     68.19     94.22 
 N                     80.27     69.72     96.72 
 C                     79.24     70.27     95.86 
 C                     79.41     69.86     94.41 
 O                     78.89     70.55     93.54 
 H                     80.13     68.81     97.14 
 H                     79.05     71.34     95.89 
 H                     78.31     69.81     96.2 
 N                     80.12     68.8      94.02 
 C                     80.47     68.47     92.65 
 C                     80.48     66.95     92.57 
 O                     81.07     66.31     93.44 
 C                     81.88     68.97     92.32 
 C                     82.09     70.46     92.16 
 C                     82.64     71.27     93.15 
 C                     81.58     71.04     90.99 
 C                     82.88     72.65     93.02 
 C                     81.91     72.39     90.8 
 C                     82.53     73.2      91.77 
 O                     82.87     74.49     91.52 
 H                     80.57     68.31     94.78 
 H                     79.74     68.86     91.95 
 H                     82.17     68.5      91.39 
 H                     82.58     68.56     93.05 
 H                     82.98     70.9      94.11 
 H                     81.11     70.41     90.26 
 H                     83.33     73.17     93.85 
 H                     81.58     72.89     89.9 
 H                     82.61     74.92     90.7 
 N                     80.08     66.45     91.4 
 C                     80.01     65.05     91.04 
 C                     81.05     64.82     89.95 
 O                     81.12     65.57     88.98 
 C                     78.58     64.67     90.64 
 C                     77.58     64.74     91.79 
 C                     78.56     63.31     89.96 
 C                     77.52     63.64     92.84 
 H                     79.62     67.11     90.79 
 H                     80.32     64.41     91.87 
 H                     78.13     65.34     89.91 
 H                     76.55     64.7      91.44 
 H                     77.71     65.65     92.38 
 H                     79.09     63.36     89. 
 H                     78.92     62.5      90.6 
 H                     77.57     62.88     89.89 
 H                     77.21     62.69     92.4 
 H                     78.48     63.48     93.31 
 H                     76.7      63.86     93.53 
 N                     81.88     63.83     90.26 
 C                     82.9      63.32     89.36 
 C                     82.49     61.93     88.9 
 O                     81.47     61.43     89.37 
 C                     84.3      63.49     89.95 
 O                     84.4      62.81     91.18 
 H                     81.79     63.33     91.13 
 H                     82.88     63.96     88.48 
 H                     84.55     64.53     90.13 
 H                     85.08     63.14     89.27 
 H                     83.71     63.11     91.77 
 N                     83.25     61.29     88.02 
 C                     82.9      60.14     87.2 
 C                     82.29     59.05     88.06 
 O                     81.22     58.51     87.79 
 C                     84.09     59.66     86.38 
 H                     84.17     61.62     87.74 
 H                     82.15     60.47     86.48 
 H                     84.61     60.5      85.9 
 H                     84.86     59.2      87. 
 H                     83.79     58.92     85.64 
 N                     83.08     58.6      89.05 
 C                     82.77     57.52     89.95 
 C                     81.56     57.72     90.86 
 O                     80.83     56.77     91.12 
 C                     83.96     57.16     90.83 
 H                     83.92     59.14     89.23 
 H                     82.51     56.62     89.39 
 H                     84.       57.94     91.59 
 H                     83.64     56.18     91.18 
 H                     84.92     57.16     90.3 
 N                     81.31     58.97     91.27 
 C                     80.16     59.51     91.96 
 C                     78.89     59.54     91.12 
 O                     77.84     59.37     91.72 
 C                     80.55     60.87     92.55 
 C                     81.9      61.02     93.24 
 C                     81.97     62.44     93.78 
 O                     81.45     62.75     94.88 
 O                     82.57     63.28     93.08 
 H                     81.94     59.68     90.93 
 H                     79.81     58.84     92.74 
 H                     79.76     61.03     93.27 
 H                     80.47     61.74     91.9 
 H                     82.73     60.87     92.54 
 H                     82.13     60.23     93.96 
 N                     79.       59.72     89.8 
 C                     77.94     59.58     88.82 
 H                     77.104    60.223    89.095 
 H                     78.312    59.87     87.837 
 H                     77.605    58.543    88.791 
 H                     79.85     60.1      89.42 
 Ca                    82.64     65.15     95.23 
 O                     84.25     66.21     93.34 
 H                     84.13     66.45     92.43 
 H                     85.13     65.84     93.38 
 
 Stoichiometry    C54H83CaN15O23
 Framework group  C1[X(C54H83CaN15O23)]
 Deg. of freedom   522
 Full point group                 C1      NOp   1
 Largest Abelian subgroup         C1      NOp   1
 Largest concise Abelian subgroup C1      NOp   1
                         Standard orientation:                         
 ---------------------------------------------------------------------
 Center     Atomic      Atomic             Coordinates (Angstroms)
 Number     Number       Type             X           Y           Z
 ---------------------------------------------------------------------
      1          6           0       -1.908290   -4.163091    5.176279
      2          6           0       -1.361407   -3.633282    3.864059
      3          8           0       -2.152223   -3.709030    2.934020
      4          1           0       -1.638633   -3.481610    5.983267
      5          1           0       -2.994081   -4.240269    5.113462
      6          1           0       -1.484537   -5.146666    5.376136
      7          7           0       -0.080186   -3.334496    3.619723
      8          6           0        0.529511   -2.973955    2.353358
      9          6           0        0.713301   -4.168420    1.419348
     10          8           0        1.379588   -5.148895    1.757032
     11          6           0        1.844120   -2.287086    2.684588
     12          6           0        2.774662   -2.041157    1.497739
     13          8           0        4.009346   -2.114002    1.655055
     14          8           0        2.207545   -1.842151    0.403173
     15          1           0        0.617100   -3.699601    4.256504
     16          1           0       -0.078689   -2.232874    1.846216
     17          1           0        2.405985   -2.894892    3.404782
     18          1           0        1.620323   -1.395564    3.270424
     19          7           0        0.110467   -4.136166    0.233578
     20          6           0        0.106520   -5.261906   -0.688970
     21          6           0        1.453366   -5.575048   -1.328069
     22          8           0        1.776662   -6.738828   -1.548288
     23          6           0       -0.923037   -5.155698   -1.804466
     24          6           0       -2.304170   -4.777722   -1.278154
     25          6           0       -2.979389   -5.676395   -0.248899
     26          6           0       -4.154636   -5.011039    0.469570
     27          7           0       -4.430214   -5.827952    1.656630
     28          1           0       -0.265259   -3.247440   -0.073172
     29          1           0       -0.072038   -6.142877   -0.076265
     30          1           0       -0.968413   -6.140523   -2.278765
     31          1           0       -0.521184   -4.451217   -2.526215
     32          1           0       -3.119718   -4.753563   -1.999610
     33          1           0       -2.366243   -3.788480   -0.819189
     34          1           0       -2.224168   -6.036667    0.452845
     35          1           0       -3.421555   -6.468939   -0.854674
     36          1           0       -4.966642   -4.971613   -0.259258
     37          1           0       -3.882960   -3.999976    0.767802
     38          1           0       -5.212469   -5.523267    2.223854
     39          1           0       -4.753442   -6.743670    1.381886
     40          1           0       -3.617145   -5.872865    2.252534
     41          7           0        2.210105   -4.511475   -1.583333
     42          6           0        3.308397   -4.501241   -2.526651
     43          6           0        4.651670   -4.211681   -1.865082
     44          8           0        5.666254   -4.264976   -2.559689
     45          6           0        3.065001   -3.575414   -3.723856
     46          6           0        2.424934   -2.312516   -3.179242
     47          8           0        3.005841   -1.200952   -3.121169
     48          8           0        1.225560   -2.367465   -2.838239
     49          1           0        1.893437   -3.629357   -1.197213
     50          1           0        3.323360   -5.503173   -2.939577
     51          1           0        2.352228   -4.150497   -4.307667
     52          1           0        3.949061   -3.494334   -4.352078
     53          7           0        4.722276   -3.957350   -0.558471
     54          6           0        5.972069   -3.918078    0.177378
     55          6           0        6.661601   -2.559550    0.080179
     56          8           0        7.747958   -2.296264    0.591070
     57          1           0        3.914169   -3.926969    0.052216
     58          1           0        6.658122   -4.670531   -0.196847
     59          1           0        5.855288   -4.065825    1.253080
     60          7           0        5.977695   -1.580289   -0.512629
     61          6           0        6.520139   -0.283216   -0.861995
     62          6           0        6.499687    0.808632    0.195668
     63          8           0        7.052145    1.910624    0.098180
     64          6           0        5.758782    0.169822   -2.107022
     65          6           0        4.493882    1.007273   -1.943301
     66          7           0        4.204301    1.978846   -2.810243
     67          8           0        3.715994    0.775577   -1.019880
     68          1           0        4.970772   -1.610229   -0.502136
     69          1           0        7.602469   -0.316398   -1.021247
     70          1           0        5.438586   -0.691041   -2.687186
     71          1           0        6.489901    0.773772   -2.634666
     72          1           0        4.937476    2.159696   -3.480652
     73          1           0        3.389088    2.528433   -2.619764
     74          7           0        5.803816    0.569155    1.305133
     75          6           0        5.745365    1.403620    2.489722
     76          6           0        4.627155    2.426066    2.428811
     77          8           0        4.708576    3.427627    3.131410
     78          1           0        5.258760   -0.282881    1.272747
     79          1           0        6.649913    1.909265    2.818384
     80          1           0        5.492153    0.722912    3.304965
     81          7           0        3.564816    2.312820    1.629804
     82          6           0        2.566773    3.340640    1.393591
     83          6           0        1.247508    2.610122    1.186751
     84          8           0        1.211881    1.646530    0.422015
     85          6           0        2.885042    4.114191    0.110109
     86          6           0        4.061440    5.065883    0.123116
     87          6           0        5.306261    4.757641   -0.419201
     88          6           0        3.888999    6.261550    0.834483
     89          6           0        6.408104    5.631501   -0.453983
     90          6           0        4.938129    7.184723    0.713738
     91          6           0        6.175949    6.904854    0.104744
     92          8           0        7.142826    7.848211   -0.027272
     93          1           0        3.588161    1.496449    1.035503
     94          1           0        2.476642    4.007640    2.243289
     95          1           0        2.003788    4.691368   -0.135161
     96          1           0        2.972949    3.406643   -0.716117
     97          1           0        5.532432    3.819138   -0.911297
     98          1           0        2.940115    6.460876    1.293382
     99          1           0        7.317523    5.287601   -0.919268
    100          1           0        4.854088    8.143174    1.206899
    101          1           0        7.047000    8.714826    0.378556
    102          7           0        0.173979    3.256503    1.643508
    103          6           0       -1.200063    2.809267    1.562965
    104          6           0       -1.925438    3.771308    0.629740
    105          8           0       -1.815597    4.986353    0.770808
    106          6           0       -1.812881    2.704397    2.963949
    107          6           0       -1.187310    1.614888    3.829415
    108          6           0       -3.323435    2.553471    2.875353
    109          6           0       -1.547357    0.150817    3.622147
    110          1           0        0.373878    4.035431    2.253927
    111          1           0       -1.272495    1.832283    1.078346
    112          1           0       -1.668848    3.590352    3.579285
    113          1           0       -1.465851    1.713816    4.877093
    114          1           0       -0.097331    1.622737    3.758809
    115          1           0       -3.771127    3.469069    2.467614
    116          1           0       -3.638542    1.653977    2.339706
    117          1           0       -3.776135    2.220523    3.799533
    118          1           0       -2.599693   -0.033243    3.847779
    119          1           0       -1.375783   -0.165023    2.602879
    120          1           0       -1.034462   -0.446070    4.382124
    121          7           0       -2.544425    3.130972   -0.356123
    122          6           0       -3.403437    3.784010   -1.328820
    123          6           0       -4.841547    3.368667   -1.062120
    124          8           0       -5.063032    2.543462   -0.178219
    125          6           0       -2.866008    3.614999   -2.749949
    126          8           0       -2.767410    2.248251   -3.077938
    127          1           0       -2.499390    2.127406   -0.432459
    128          1           0       -3.342263    4.851133   -1.124109
    129          1           0       -1.881758    4.053229   -2.875273
    130          1           0       -3.484857    4.128535   -3.489277
    131          1           0       -2.234274    1.798540   -2.423931
    132          7           0       -5.813057    3.893273   -1.798704
    133          6           0       -7.240764    3.914399   -1.518336
    134          6           0       -7.724886    2.522227   -1.161570
    135          8           0       -8.382329    2.284937   -0.151192
    136          6           0       -8.022144    4.544860   -2.663265
    137          1           0       -5.637167    4.453932   -2.628418
    138          1           0       -7.393174    4.563206   -0.654843
    139          1           0       -7.547651    5.473614   -3.007754
    140          1           0       -8.031838    3.914482   -3.552888
    141          1           0       -9.059585    4.723101   -2.385510
    142          7           0       -7.525271    1.591799   -2.110864
    143          6           0       -7.963104    0.221616   -2.052549
    144          6           0       -7.369367   -0.634431   -0.935921
    145          8           0       -8.066462   -1.472553   -0.375019
    146          6           0       -7.725590   -0.502947   -3.371145
    147          1           0       -6.928922    1.865755   -2.884760
    148          1           0       -9.035540    0.172288   -1.855960
    149          1           0       -6.657870   -0.720267   -3.389755
    150          1           0       -8.377014   -1.363443   -3.227992
    151          1           0       -7.959701    0.099485   -4.257016
    152          7           0       -6.111677   -0.361184   -0.566259
    153          6           0       -5.347941   -0.844987    0.561944
    154          6           0       -5.845353   -0.340601    1.910119
    155          8           0       -5.721101   -1.105809    2.853739
    156          6           0       -3.865904   -0.557195    0.296345
    157          6           0       -3.293981   -0.828486   -1.089442
    158          6           0       -1.805930   -0.520889   -1.026299
    159          8           0       -0.979732   -1.362383   -0.595273
    160          8           0       -1.445907    0.604744   -1.424967
    161          1           0       -5.664785    0.400826   -1.052292
    162          1           0       -5.508406   -1.906250    0.728591
    163          1           0       -3.385571   -1.205634    1.015307
    164          1           0       -3.490602    0.428937    0.565589
    165          1           0       -3.752942   -0.184795   -1.848663
    166          1           0       -3.556144   -1.805912   -1.503337
    167          7           0       -6.401090    0.873490    1.973686
    168          6           0       -7.105487    1.440377    3.107733
    169          1           0       -6.462323    1.409333    3.987134
    170          1           0       -7.372611    2.474921    2.890624
    171          1           0       -8.010283    0.863569    3.300273
    172          1           0       -6.241013    1.532157    1.230831
    173         20           0        1.289590   -0.194158   -1.480727
    174          8           0        1.246544    2.208446   -2.710947
    175          1           0        0.950139    3.073651   -2.458631
    176          1           0        1.005174    2.127563   -3.631870
 ---------------------------------------------------------------------
 Rotational constants (GHZ):           0.0239933           0.0154191           0.0117096
 Standard basis: SVP (5D, 7F)
 There are  1809 symmetry adapted cartesian basis functions of A   symmetry.
 There are  1717 symmetry adapted basis functions of A   symmetry.
  1717 basis functions,  2922 primitive gaussians,  1809 cartesian basis functions
   358 alpha electrons      358 beta electrons
       nuclear repulsion energy     21841.7002058049 Hartrees.
 NAtoms=  176 NActive=  176 NUniq=  176 SFac= 1.00D+00 NAtFMM=   60 NAOKFM=T Big=T
 Integral buffers will be    131072 words long.
 Raffenetti 2 integral format.
 Two-electron integral symmetry is turned on.
 One-electron integrals computed using PRISM.
 NBasis=  1717 RedAO= T EigKep=  3.17D-04  NBF=  1717
 NBsUse=  1717 1.00D-06 EigRej= -1.00D+00 NBFU=  1717
 ExpMin= 1.98D-02 ExpMax= 3.51D+04 ExpMxC= 5.28D+03 IAcc=3 IRadAn=         5 AccDes= 0.00D+00
 Harris functional with IExCor=  402 and IRadAn=       5 diagonalized for initial guess.
 HarFok:  IExCor=  402 AccDes= 0.00D+00 IRadAn=         5 IDoV= 1 UseB2=F ITyADJ=14
 ICtDFT=  3500011 ScaDFX=  1.000000  1.000000  1.000000  1.000000
 FoFCou: FMM=F IPFlag=           0 FMFlag=      100000 FMFlg1=        2001
         NFxFlg=           0 DoJE=T BraDBF=F KetDBF=T FulRan=T
         wScrn=  0.000000 ICntrl=       500 IOpCl=  0 I1Cent=   200000004 NGrid=           0
         NMat0=    1 NMatS0=      1 NMatT0=    0 NMatD0=    1 NMtDS0=    0 NMtDT0=    0
 Petite list used in FoFCou.
 Requested convergence on RMS density matrix=1.00D-08 within 128 cycles.
 Requested convergence on MAX density matrix=1.00D-06.
 Requested convergence on             energy=1.00D-06.
 No special actions if energy rises.
 EnCoef did     2 forward-backward iterations
 SCF Done:  E(RB3LYP) =  -5333.63202081     A.U. after   16 cycles
            NFock= 16  Conv=0.74D-08     -V/T= 2.0082
 SCF density gives NOpUse=  1 NOpAll=  1.
 Hyperfine terms turned off by default for NAtoms > 100.

 **********************************************************************

            Population analysis using the SCF density.

 **********************************************************************

 Orbital symmetries:
 BldTbl:  Degeneracy threshold= 1.00D-02
       Occupied  (A) (A) (A) (A) (A) (A) (A) (A) (A) (A) (A) (A)
                 (A) (A) (A) (A) (A) (A) (A) (A) (A) (A) (A) (A)
                 (A) (A) (A) (A) (A) (A) (A) (A) (A) (A) (A) (A)
                 (A) (A) (A) (A) (A) (A) (A) (A) (A) (A) (A) (A)
                 (A) (A) (A) (A) (A) (A) (A) (A) (A) (A) (A) (A)
                 (A) (A) (A) (A) (A) (A) (A) (A) (A) (A) (A) (A)
                 (A) (A) (A) (A) (A) (A) (A) (A) (A) (A) (A) (A)
                 (A) (A) (A) (A) (A) (A) (A) (A) (A) (A) (A) (A)
                 (A) (A) (A) (A) (A) (A) (A) (A) (A) (A) (A) (A)
                 (A) (A) (A) (A) (A) (A) (A) (A) (A) (A) (A) (A)
                 (A) (A) (A) (A) (A) (A) (A) (A) (A) (A) (A) (A)
                 (A) (A) (A) (A) (A) (A) (A) (A) (A) (A) (A) (A)
                 (A) (A) (A) (A) (A) (A) (A) (A) (A) (A) (A) (A)
                 (A) (A) (A) (A) (A) (A) (A) (A) (A) (A) (A) (A)
                 (A) (A) (A) (A) (A) (A) (A) (A) (A) (A) (A) (A)
                 (A) (A) (A) (A) (A) (A) (A) (A) (A) (A) (A) (A)
                 (A) (A) (A) (A) (A) (A) (A) (A) (A) (A) (A) (A)
                 (A) (A) (A) (A) (A) (A) (A) (A) (A) (A) (A) (A)
                 (A) (A) (A) (A) (A) (A) (A) (A) (A) (A) (A) (A)
                 (A) (A) (A) (A) (A) (A) (A) (A) (A) (A) (A) (A)
                 (A) (A) (A) (A) (A) (A) (A) (A) (A) (A) (A) (A)
                 (A) (A) (A) (A) (A) (A) (A) (A) (A) (A) (A) (A)
                 (A) (A) (A) (A) (A) (A) (A) (A) (A) (A) (A) (A)
                 (A) (A) (A) (A) (A) (A) (A) (A) (A) (A) (A) (A)
                 (A) (A) (A) (A) (A) (A) (A) (A) (A) (A) (A) (A)
                 (A) (A) (A) (A) (A) (A) (A) (A) (A) (A) (A) (A)
                 (A) (A) (A) (A) (A) (A) (A) (A) (A) (A) (A) (A)
                 (A) (A) (A) (A) (A) (A) (A) (A) (A) (A) (A) (A)
                 (A) (A) (A) (A) (A) (A) (A) (A) (A) (A) (A) (A)
                 (A) (A) (A) (A) (A) (A) (A) (A) (A) (A)
       Virtual   (A) (A) (A) (A) (A) (A) (A) (A) (A) (A) (A) (A)
                 (A) (A) (A) (A) (A) (A) (A) (A) (A) (A) (A) (A)
                 (A) (A) (A) (A) (A) (A) (A) (A) (A) (A) (A) (A)
                 (A) (A) (A) (A) (A) (A) (A) (A) (A) (A) (A) (A)
                 (A) (A) (A) (A) (A) (A) (A) (A) (A) (A) (A) (A)
                 (A) (A) (A) (A) (A) (A) (A) (A) (A) (A) (A) (A)
                 (A) (A) (A) (A) (A) (A) (A) (A) (A) (A) (A) (A)
                 (A) (A) (A) (A) (A) (A) (A) (A) (A) (A) (A) (A)
                 (A) (A) (A) (A) (A) (A) (A) (A) (A) (A) (A) (A)
                 (A) (A) (A) (A) (A) (A) (A) (A) (A) (A) (A) (A)
                 (A) (A) (A) (A) (A) (A) (A) (A) (A) (A) (A) (A)
                 (A) (A) (A) (A) (A) (A) (A) (A) (A) (A) (A) (A)
                 (A) (A) (A) (A) (A) (A) (A) (A) (A) (A) (A) (A)
                 (A) (A) (A) (A) (A) (A) (A) (A) (A) (A) (A) (A)
                 (A) (A) (A) (A) (A) (A) (A) (A) (A) (A) (A) (A)
                 (A) (A) (A) (A) (A) (A) (A) (A) (A) (A) (A) (A)
                 (A) (A) (A) (A) (A) (A) (A) (A) (A) (A) (A) (A)
                 (A) (A) (A) (A) (A) (A) (A) (A) (A) (A) (A) (A)
                 (A) (A) (A) (A) (A) (A) (A) (A) (A) (A) (A) (A)
                 (A) (A) (A) (A) (A) (A) (A) (A) (A) (A) (A) (A)
                 (A) (A) (A) (A) (A) (A) (A) (A) (A) (A) (A) (A)
                 (A) (A) (A) (A) (A) (A) (A) (A) (A) (A) (A) (A)
                 (A) (A) (A) (A) (A) (A) (A) (A) (A) (A) (A) (A)
                 (A) (A) (A) (A) (A) (A) (A) (A) (A) (A) (A) (A)
                 (A) (A) (A) (A) (A) (A) (A) (A) (A) (A) (A) (A)
                 (A) (A) (A) (A) (A) (A) (A) (A) (A) (A) (A) (A)
                 (A) (A) (A) (A) (A) (A) (A) (A) (A) (A) (A) (A)
                 (A) (A) (A) (A) (A) (A) (A) (A) (A) (A) (A) (A)
                 (A) (A) (A) (A) (A) (A) (A) (A) (A) (A) (A) (A)
                 (A) (A) (A) (A) (A) (A) (A) (A) (A) (A) (A) (A)
                 (A) (A) (A) (A) (A) (A) (A) (A) (A) (A) (A) (A)
                 (A) (A) (A) (A) (A) (A) (A) (A) (A) (A) (A) (A)
                 (A) (A) (A) (A) (A) (A) (A) (A) (A) (A) (A) (A)
                 (A) (A) (A) (A) (A) (A) (A) (A) (A) (A) (A) (A)
                 (A) (A) (A) (A) (A) (A) (A) (A) (A) (A) (A) (A)
                 (A) (A) (A) (A) (A) (A) (A) (A) (A) (A) (A) (A)
                 (A) (A) (A) (A) (A) (A) (A) (A) (A) (A) (A) (A)
                 (A) (A) (A) (A) (A) (A) (A) (A) (A) (A) (A) (A)
                 (A) (A) (A) (A) (A) (A) (A) (A) (A) (A) (A) (A)
                 (A) (A) (A) (A) (A) (A) (A) (A) (A) (A) (A) (A)
                 (A) (A) (A) (A) (A) (A) (A) (A) (A) (A) (A) (A)
                 (A) (A) (A) (A) (A) (A) (A) (A) (A) (A) (A) (A)
                 (A) (A) (A) (A) (A) (A) (A) (A) (A) (A) (A) (A)
                 (A) (A) (A) (A) (A) (A) (A) (A) (A) (A) (A) (A)
                 (A) (A) (A) (A) (A) (A) (A) (A) (A) (A) (A) (A)
                 (A) (A) (A) (A) (A) (A) (A) (A) (A) (A) (A) (A)
                 (A) (A) (A) (A) (A) (A) (A) (A) (A) (A) (A) (A)
                 (A) (A) (A) (A) (A) (A) (A) (A) (A) (A) (A) (A)
                 (A) (A) (A) (A) (A) (A) (A) (A) (A) (A) (A) (A)
                 (A) (A) (A) (A) (A) (A) (A) (A) (A) (A) (A) (A)
                 (A) (A) (A) (A) (A) (A) (A) (A) (A) (A) (A) (A)
                 (A) (A) (A) (A) (A) (A) (A) (A) (A) (A) (A) (A)
                 (A) (A) (A) (A) (A) (A) (A) (A) (A) (A) (A) (A)
                 (A) (A) (A) (A) (A) (A) (A) (A) (A) (A) (A) (A)
                 (A) (A) (A) (A) (A) (A) (A) (A) (A) (A) (A) (A)
                 (A) (A) (A) (A) (A) (A) (A) (A) (A) (A) (A) (A)
                 (A) (A) (A) (A) (A) (A) (A) (A) (A) (A) (A) (A)
                 (A) (A) (A) (A) (A) (A) (A) (A) (A) (A) (A) (A)
                 (A) (A) (A) (A) (A) (A) (A) (A) (A) (A) (A) (A)
                 (A) (A) (A) (A) (A) (A) (A) (A) (A) (A) (A) (A)
                 (A) (A) (A) (A) (A) (A) (A) (A) (A) (A) (A) (A)
                 (A) (A) (A) (A) (A) (A) (A) (A) (A) (A) (A) (A)
                 (A) (A) (A) (A) (A) (A) (A) (A) (A) (A) (A) (A)
                 (A) (A) (A) (A) (A) (A) (A) (A) (A) (A) (A) (A)
                 (A) (A) (A) (A) (A) (A) (A) (A) (A) (A) (A) (A)
                 (A) (A) (A) (A) (A) (A) (A) (A) (A) (A) (A) (A)
                 (A) (A) (A) (A) (A) (A) (A) (A) (A) (A) (A) (A)
                 (A) (A) (A) (A) (A) (A) (A) (A) (A) (A) (A) (A)
                 (A) (A) (A) (A) (A) (A) (A) (A) (A) (A) (A) (A)
                 (A) (A) (A) (A) (A) (A) (A) (A) (A) (A) (A) (A)
                 (A) (A) (A) (A) (A) (A) (A) (A) (A) (A) (A) (A)
                 (A) (A) (A) (A) (A) (A) (A) (A) (A) (A) (A) (A)
                 (A) (A) (A) (A) (A) (A) (A) (A) (A) (A) (A) (A)
                 (A) (A) (A) (A) (A) (A) (A) (A) (A) (A) (A) (A)
                 (A) (A) (A) (A) (A) (A) (A) (A) (A) (A) (A) (A)
                 (A) (A) (A) (A) (A) (A) (A) (A) (A) (A) (A) (A)
                 (A) (A) (A) (A) (A) (A) (A) (A) (A) (A) (A) (A)
                 (A) (A) (A) (A) (A) (A) (A) (A) (A) (A) (A) (A)
                 (A) (A) (A) (A) (A) (A) (A) (A) (A) (A) (A) (A)
                 (A) (A) (A) (A) (A) (A) (A) (A) (A) (A) (A) (A)
                 (A) (A) (A) (A) (A) (A) (A) (A) (A) (A) (A) (A)
                 (A) (A) (A) (A) (A) (A) (A) (A) (A) (A) (A) (A)
                 (A) (A) (A) (A) (A) (A) (A) (A) (A) (A) (A) (A)
                 (A) (A) (A) (A) (A) (A) (A) (A) (A) (A) (A) (A)
                 (A) (A) (A) (A) (A) (A) (A) (A) (A) (A) (A) (A)
                 (A) (A) (A) (A) (A) (A) (A) (A) (A) (A) (A) (A)
                 (A) (A) (A) (A) (A) (A) (A) (A) (A) (A) (A) (A)
                 (A) (A) (A) (A) (A) (A) (A) (A) (A) (A) (A) (A)
                 (A) (A) (A) (A) (A) (A) (A) (A) (A) (A) (A) (A)
                 (A) (A) (A) (A) (A) (A) (A) (A) (A) (A) (A) (A)
                 (A) (A) (A) (A) (A) (A) (A) (A) (A) (A) (A) (A)
                 (A) (A) (A) (A) (A) (A) (A) (A) (A) (A) (A) (A)
                 (A) (A) (A) (A) (A) (A) (A) (A) (A) (A) (A) (A)
                 (A) (A) (A) (A) (A) (A) (A) (A) (A) (A) (A) (A)
                 (A) (A) (A) (A) (A) (A) (A) (A) (A) (A) (A) (A)
                 (A) (A) (A) (A) (A) (A) (A) (A) (A) (A) (A) (A)
                 (A) (A) (A) (A) (A) (A) (A) (A) (A) (A) (A) (A)
                 (A) (A) (A) (A) (A) (A) (A) (A) (A) (A) (A) (A)
                 (A) (A) (A) (A) (A) (A) (A) (A) (A) (A) (A) (A)
                 (A) (A) (A) (A) (A) (A) (A) (A) (A) (A) (A) (A)
                 (A) (A) (A) (A) (A) (A) (A) (A) (A) (A) (A) (A)
                 (A) (A) (A) (A) (A) (A) (A) (A) (A) (A) (A) (A)
                 (A) (A) (A) (A) (A) (A) (A) (A) (A) (A) (A) (A)
                 (A) (A) (A) (A) (A) (A) (A) (A) (A) (A) (A) (A)
                 (A) (A) (A) (A) (A) (A) (A) (A) (A) (A) (A) (A)
                 (A) (A) (A) (A) (A) (A) (A) (A) (A) (A) (A) (A)
                 (A) (A) (A) (A) (A) (A) (A) (A) (A) (A) (A) (A)
                 (A) (A) (A) (A) (A) (A) (A) (A) (A) (A) (A) (A)
                 (A) (A) (A) (A) (A) (A) (A) (A) (A) (A) (A) (A)
                 (A) (A) (A) (A) (A) (A) (A) (A) (A) (A) (A) (A)
                 (A) (A) (A) (A) (A) (A) (A) (A) (A) (A) (A) (A)
                 (A) (A) (A) (A) (A) (A) (A) (A) (A) (A) (A) (A)
                 (A) (A) (A) (A) (A) (A) (A) (A) (A) (A) (A) (A)
                 (A) (A) (A)
 The electronic state is 1-A.
 Alpha  occ. eigenvalues -- -145.37084 -19.20804 -19.14969 -19.14410 -19.13494
 Alpha  occ. eigenvalues --  -19.12609 -19.12363 -19.11575 -19.11414 -19.11352
 Alpha  occ. eigenvalues --  -19.10453 -19.10376 -19.10291 -19.09276 -19.08070
 Alpha  occ. eigenvalues --  -19.06664 -19.06278 -19.06209 -19.05883 -19.05814
 Alpha  occ. eigenvalues --  -19.05329 -19.05086 -19.04698 -19.04566 -15.42842
 Alpha  occ. eigenvalues --  -14.55116 -14.40776 -14.38524 -14.37918 -14.37390
 Alpha  occ. eigenvalues --  -14.36478 -14.36190 -14.35665 -14.34290 -14.33509
 Alpha  occ. eigenvalues --  -14.32282 -14.31620 -14.31406 -14.31226 -14.29998
 Alpha  occ. eigenvalues --  -12.56461 -12.56418 -12.56401 -10.33457 -10.31478
 Alpha  occ. eigenvalues --  -10.31189 -10.30533 -10.30378 -10.29915 -10.29661
 Alpha  occ. eigenvalues --  -10.29157 -10.29123 -10.27676 -10.27582 -10.26883
 Alpha  occ. eigenvalues --  -10.26521 -10.26330 -10.25387 -10.25132 -10.25075
 Alpha  occ. eigenvalues --  -10.24877 -10.24704 -10.24536 -10.24411 -10.24311
 Alpha  occ. eigenvalues --  -10.24136 -10.24043 -10.23827 -10.23686 -10.23367
 Alpha  occ. eigenvalues --  -10.23355 -10.22250 -10.21667 -10.21585 -10.21579
 Alpha  occ. eigenvalues --  -10.21518 -10.21265 -10.20679 -10.20605 -10.20597
 Alpha  occ. eigenvalues --  -10.20196 -10.20130 -10.20095 -10.19716 -10.18977
 Alpha  occ. eigenvalues --  -10.18645 -10.18467 -10.18306 -10.17910 -10.17840
 Alpha  occ. eigenvalues --  -10.17633 -10.17422 -10.17303 -10.16898 -10.16764
 Alpha  occ. eigenvalues --  -10.16729 -10.16064  -1.79731  -1.10379  -1.08273
 Alpha  occ. eigenvalues --   -1.07774  -1.07415  -1.07354  -1.06598  -1.05434
 Alpha  occ. eigenvalues --   -1.05289  -1.05211  -1.04787  -1.04176  -1.03469
 Alpha  occ. eigenvalues --   -1.03379  -1.02899  -1.02577  -1.02159  -1.01544
 Alpha  occ. eigenvalues --   -1.01212  -0.99770  -0.99576  -0.99416  -0.98764
 Alpha  occ. eigenvalues --   -0.98322  -0.97742  -0.97425  -0.95316  -0.95174
 Alpha  occ. eigenvalues --   -0.94831  -0.94483  -0.93319  -0.92918  -0.90997
 Alpha  occ. eigenvalues --   -0.90753  -0.90700  -0.90526  -0.90246  -0.89380
 Alpha  occ. eigenvalues --   -0.89025  -0.88395  -0.87469  -0.86435  -0.86083
 Alpha  occ. eigenvalues --   -0.83489  -0.83226  -0.82689  -0.81039  -0.79652
 Alpha  occ. eigenvalues --   -0.79544  -0.78765  -0.77867  -0.77777  -0.76109
 Alpha  occ. eigenvalues --   -0.75609  -0.75041  -0.74287  -0.74167  -0.73192
 Alpha  occ. eigenvalues --   -0.72979  -0.72264  -0.71408  -0.70669  -0.70258
 Alpha  occ. eigenvalues --   -0.70055  -0.69807  -0.69279  -0.68943  -0.68542
 Alpha  occ. eigenvalues --   -0.67108  -0.66476  -0.65895  -0.65560  -0.64889
 Alpha  occ. eigenvalues --   -0.64576  -0.64072  -0.63351  -0.62821  -0.62078
 Alpha  occ. eigenvalues --   -0.61748  -0.61233  -0.60968  -0.60794  -0.60497
 Alpha  occ. eigenvalues --   -0.60181  -0.59602  -0.58653  -0.58365  -0.58293
 Alpha  occ. eigenvalues --   -0.58142  -0.57732  -0.57621  -0.57321  -0.56488
 Alpha  occ. eigenvalues --   -0.56446  -0.56247  -0.56008  -0.55838  -0.55493
 Alpha  occ. eigenvalues --   -0.54565  -0.54479  -0.54232  -0.54027  -0.53961
 Alpha  occ. eigenvalues --   -0.53744  -0.53488  -0.53315  -0.52301  -0.52129
 Alpha  occ. eigenvalues --   -0.51938  -0.51453  -0.51085  -0.50658  -0.50555
 Alpha  occ. eigenvalues --   -0.50115  -0.49912  -0.49454  -0.49402  -0.49213
 Alpha  occ. eigenvalues --   -0.49067  -0.48588  -0.48402  -0.48249  -0.48180
 Alpha  occ. eigenvalues --   -0.47661  -0.47602  -0.47284  -0.47160  -0.46997
 Alpha  occ. eigenvalues --   -0.46829  -0.46719  -0.46700  -0.46514  -0.46409
 Alpha  occ. eigenvalues --   -0.46004  -0.45943  -0.45883  -0.45675  -0.45521
 Alpha  occ. eigenvalues --   -0.45378  -0.45241  -0.45098  -0.44841  -0.44819
 Alpha  occ. eigenvalues --   -0.44247  -0.44214  -0.43963  -0.43848  -0.43763
 Alpha  occ. eigenvalues --   -0.43421  -0.43318  -0.43126  -0.43070  -0.42888
 Alpha  occ. eigenvalues --   -0.42675  -0.42559  -0.42519  -0.42373  -0.42091
 Alpha  occ. eigenvalues --   -0.41993  -0.41919  -0.41719  -0.41606  -0.41493
 Alpha  occ. eigenvalues --   -0.41372  -0.41242  -0.41146  -0.41090  -0.40965
 Alpha  occ. eigenvalues --   -0.40696  -0.40667  -0.40566  -0.40387  -0.40276
 Alpha  occ. eigenvalues --   -0.40203  -0.40137  -0.40102  -0.40067  -0.39466
 Alpha  occ. eigenvalues --   -0.39310  -0.39131  -0.39115  -0.38915  -0.38852
 Alpha  occ. eigenvalues --   -0.38641  -0.38588  -0.38529  -0.38460  -0.38124
 Alpha  occ. eigenvalues --   -0.37975  -0.37828  -0.37714  -0.37409  -0.37120
 Alpha  occ. eigenvalues --   -0.36997  -0.36894  -0.36591  -0.36341  -0.36313
 Alpha  occ. eigenvalues --   -0.36228  -0.35822  -0.35708  -0.35539  -0.35444
 Alpha  occ. eigenvalues --   -0.35177  -0.35035  -0.34863  -0.34726  -0.34560
 Alpha  occ. eigenvalues --   -0.34530  -0.33834  -0.33663  -0.33331  -0.33302
 Alpha  occ. eigenvalues --   -0.33092  -0.32965  -0.32643  -0.32508  -0.32271
 Alpha  occ. eigenvalues --   -0.32119  -0.31803  -0.31556  -0.31257  -0.31145
 Alpha  occ. eigenvalues --   -0.30035  -0.29685  -0.29261  -0.29105  -0.28858
 Alpha  occ. eigenvalues --   -0.28682  -0.28560  -0.28372  -0.28018  -0.27885
 Alpha  occ. eigenvalues --   -0.27730  -0.26915  -0.26653  -0.26509  -0.26156
 Alpha  occ. eigenvalues --   -0.25981  -0.25741  -0.25687  -0.25126  -0.24636
 Alpha  occ. eigenvalues --   -0.24381  -0.24348  -0.24043  -0.23775  -0.23631
 Alpha  occ. eigenvalues --   -0.23436  -0.23345  -0.23069  -0.22881  -0.22384
 Alpha  occ. eigenvalues --   -0.21843  -0.21624  -0.20870  -0.20535  -0.20330
 Alpha  occ. eigenvalues --   -0.20207  -0.20009  -0.19140
 Alpha virt. eigenvalues --   -0.06996  -0.03461  -0.02940  -0.01764  -0.01558
 Alpha virt. eigenvalues --   -0.01413  -0.01055  -0.00451  -0.00011   0.00189
 Alpha virt. eigenvalues --    0.00547   0.00745   0.01200   0.01498   0.01688
 Alpha virt. eigenvalues --    0.02125   0.02531   0.02928   0.03198   0.03417
 Alpha virt. eigenvalues --    0.03637   0.03981   0.04230   0.04687   0.04793
 Alpha virt. eigenvalues --    0.05010   0.05272   0.05368   0.05426   0.05566
 Alpha virt. eigenvalues --    0.05764   0.05897   0.06023   0.06161   0.06313
 Alpha virt. eigenvalues --    0.06460   0.06634   0.06832   0.07252   0.07335
 Alpha virt. eigenvalues --    0.07443   0.07695   0.07763   0.08416   0.08751
 Alpha virt. eigenvalues --    0.08978   0.09205   0.09494   0.09531   0.09738
 Alpha virt. eigenvalues --    0.09884   0.10014   0.10114   0.10504   0.10679
 Alpha virt. eigenvalues --    0.10801   0.11035   0.11150   0.11273   0.11445
 Alpha virt. eigenvalues --    0.11534   0.11723   0.12025   0.12157   0.12324
 Alpha virt. eigenvalues --    0.12378   0.12562   0.12801   0.12944   0.12977
 Alpha virt. eigenvalues --    0.13335   0.13472   0.13572   0.13759   0.14037
 Alpha virt. eigenvalues --    0.14123   0.14475   0.14690   0.14835   0.15035
 Alpha virt. eigenvalues --    0.15138   0.15404   0.15544   0.15648   0.15791
 Alpha virt. eigenvalues --    0.16009   0.16088   0.16329   0.16386   0.16685
 Alpha virt. eigenvalues --    0.16878   0.16997   0.17082   0.17345   0.17422
 Alpha virt. eigenvalues --    0.17579   0.17655   0.17959   0.18082   0.18218
 Alpha virt. eigenvalues --    0.18363   0.18594   0.18862   0.18904   0.18967
 Alpha virt. eigenvalues --    0.19296   0.19484   0.19503   0.19722   0.19914
 Alpha virt. eigenvalues --    0.20174   0.20385   0.20505   0.20725   0.20803
 Alpha virt. eigenvalues --    0.21029   0.21207   0.21435   0.21636   0.21765
 Alpha virt. eigenvalues --    0.22107   0.22352   0.22626   0.22724   0.22734
 Alpha virt. eigenvalues --    0.23126   0.23530   0.23688   0.23904   0.24278
 Alpha virt. eigenvalues --    0.24361   0.24466   0.24661   0.25101   0.25228
 Alpha virt. eigenvalues --    0.25504   0.25638   0.25711   0.25874   0.26073
 Alpha virt. eigenvalues --    0.26174   0.26347   0.26653   0.27002   0.27025
 Alpha virt. eigenvalues --    0.27092   0.27813   0.27869   0.28004   0.28301
 Alpha virt. eigenvalues --    0.28795   0.28961   0.29235   0.29324   0.29615
 Alpha virt. eigenvalues --    0.30107   0.30411   0.30492   0.30741   0.30818
 Alpha virt. eigenvalues --    0.31022   0.31149   0.31738   0.31796   0.31985
 Alpha virt. eigenvalues --    0.32215   0.32409   0.32713   0.32811   0.33338
 Alpha virt. eigenvalues --    0.33505   0.33767   0.33974   0.34288   0.34593
 Alpha virt. eigenvalues --    0.35280   0.35637   0.35762   0.36004   0.36425
 Alpha virt. eigenvalues --    0.36712   0.36817   0.37032   0.37455   0.37498
 Alpha virt. eigenvalues --    0.37888   0.38072   0.38848   0.39217   0.39458
 Alpha virt. eigenvalues --    0.39667   0.39815   0.40093   0.40311   0.40546
 Alpha virt. eigenvalues --    0.40657   0.40896   0.41077   0.41123   0.41272
 Alpha virt. eigenvalues --    0.41504   0.41761   0.41851   0.41971   0.42711
 Alpha virt. eigenvalues --    0.42758   0.42892   0.43112   0.43329   0.43402
 Alpha virt. eigenvalues --    0.43695   0.43702   0.43926   0.44012   0.44597
 Alpha virt. eigenvalues --    0.44677   0.44918   0.45193   0.45357   0.45495
 Alpha virt. eigenvalues --    0.45730   0.45883   0.46122   0.46167   0.46567
 Alpha virt. eigenvalues --    0.46757   0.46801   0.47083   0.47352   0.47543
 Alpha virt. eigenvalues --    0.47684   0.47920   0.48226   0.48387   0.48630
 Alpha virt. eigenvalues --    0.49074   0.49228   0.49487   0.49671   0.49909
 Alpha virt. eigenvalues --    0.50140   0.50273   0.50428   0.50813   0.50832
 Alpha virt. eigenvalues --    0.51112   0.51396   0.51540   0.51632   0.51792
 Alpha virt. eigenvalues --    0.52110   0.52295   0.52399   0.52826   0.52885
 Alpha virt. eigenvalues --    0.53248   0.53381   0.53602   0.53919   0.54011
 Alpha virt. eigenvalues --    0.54411   0.54609   0.54728   0.54752   0.55017
 Alpha virt. eigenvalues --    0.55122   0.55394   0.55541   0.55614   0.55831
 Alpha virt. eigenvalues --    0.55959   0.56163   0.56326   0.56506   0.56693
 Alpha virt. eigenvalues --    0.57012   0.57137   0.57479   0.57564   0.57672
 Alpha virt. eigenvalues --    0.57746   0.57860   0.58165   0.58311   0.58387
 Alpha virt. eigenvalues --    0.58719   0.58836   0.59026   0.59180   0.59317
 Alpha virt. eigenvalues --    0.59465   0.59616   0.59748   0.59809   0.59868
 Alpha virt. eigenvalues --    0.60035   0.60387   0.60431   0.60591   0.60771
 Alpha virt. eigenvalues --    0.60925   0.61015   0.61156   0.61341   0.61439
 Alpha virt. eigenvalues --    0.61559   0.61655   0.61894   0.62020   0.62133
 Alpha virt. eigenvalues --    0.62242   0.62429   0.62448   0.62678   0.62774
 Alpha virt. eigenvalues --    0.62968   0.62987   0.63104   0.63303   0.63396
 Alpha virt. eigenvalues --    0.63483   0.63544   0.63763   0.63851   0.63919
 Alpha virt. eigenvalues --    0.64114   0.64263   0.64314   0.64458   0.64605
 Alpha virt. eigenvalues --    0.64743   0.64880   0.64975   0.65174   0.65273
 Alpha virt. eigenvalues --    0.65352   0.65457   0.65561   0.65726   0.65819
 Alpha virt. eigenvalues --    0.65836   0.65916   0.65962   0.66199   0.66259
 Alpha virt. eigenvalues --    0.66327   0.66405   0.66605   0.66652   0.66776
 Alpha virt. eigenvalues --    0.66824   0.66909   0.67009   0.67092   0.67260
 Alpha virt. eigenvalues --    0.67289   0.67477   0.67676   0.67758   0.67825
 Alpha virt. eigenvalues --    0.67917   0.68283   0.68403   0.68625   0.68729
 Alpha virt. eigenvalues --    0.68799   0.68967   0.69116   0.69185   0.69315
 Alpha virt. eigenvalues --    0.69359   0.69601   0.69753   0.69818   0.69943
 Alpha virt. eigenvalues --    0.70018   0.70116   0.70202   0.70262   0.70653
 Alpha virt. eigenvalues --    0.70700   0.70942   0.70978   0.71296   0.71382
 Alpha virt. eigenvalues --    0.71476   0.71703   0.71824   0.71901   0.72131
 Alpha virt. eigenvalues --    0.72221   0.72512   0.72679   0.72928   0.72974
 Alpha virt. eigenvalues --    0.73157   0.73252   0.73434   0.73483   0.73688
 Alpha virt. eigenvalues --    0.73900   0.74131   0.74304   0.74455   0.74632
 Alpha virt. eigenvalues --    0.74849   0.75081   0.75264   0.75284   0.75688
 Alpha virt. eigenvalues --    0.75988   0.76047   0.76371   0.76546   0.76731
 Alpha virt. eigenvalues --    0.76961   0.77103   0.77222   0.77521   0.77667
 Alpha virt. eigenvalues --    0.77972   0.78160   0.78352   0.78631   0.78806
 Alpha virt. eigenvalues --    0.79229   0.79384   0.79732   0.79899   0.80186
 Alpha virt. eigenvalues --    0.80627   0.80902   0.81043   0.81246   0.81862
 Alpha virt. eigenvalues --    0.82085   0.82281   0.82429   0.82571   0.83102
 Alpha virt. eigenvalues --    0.83227   0.83452   0.83656   0.83981   0.84124
 Alpha virt. eigenvalues --    0.84429   0.84625   0.85046   0.85322   0.85692
 Alpha virt. eigenvalues --    0.85699   0.86119   0.86576   0.86766   0.87160
 Alpha virt. eigenvalues --    0.87621   0.87812   0.88139   0.88554   0.88714
 Alpha virt. eigenvalues --    0.88956   0.89143   0.89684   0.89752   0.89934
 Alpha virt. eigenvalues --    0.90170   0.90470   0.91136   0.91471   0.91624
 Alpha virt. eigenvalues --    0.91654   0.92056   0.92396   0.92668   0.93106
 Alpha virt. eigenvalues --    0.93286   0.93554   0.93711   0.94031   0.94120
 Alpha virt. eigenvalues --    0.94535   0.94785   0.95199   0.95432   0.95546
 Alpha virt. eigenvalues --    0.95630   0.95840   0.96311   0.96462   0.96789
 Alpha virt. eigenvalues --    0.97139   0.97200   0.97592   0.98083   0.98275
 Alpha virt. eigenvalues --    0.98513   0.98716   0.99269   0.99495   0.99639
 Alpha virt. eigenvalues --    0.99972   1.00257   1.00450   1.00781   1.00944
 Alpha virt. eigenvalues --    1.01180   1.01629   1.01734   1.01923   1.02316
 Alpha virt. eigenvalues --    1.02505   1.02765   1.02898   1.03671   1.03832
 Alpha virt. eigenvalues --    1.04088   1.04311   1.04618   1.04657   1.05164
 Alpha virt. eigenvalues --    1.05693   1.05934   1.06009   1.06346   1.06574
 Alpha virt. eigenvalues --    1.06991   1.07230   1.07444   1.07889   1.08053
 Alpha virt. eigenvalues --    1.08074   1.08602   1.08748   1.08890   1.09147
 Alpha virt. eigenvalues --    1.09852   1.10413   1.10479   1.10582   1.10620
 Alpha virt. eigenvalues --    1.11287   1.11574   1.11970   1.12326   1.12682
 Alpha virt. eigenvalues --    1.13073   1.13249   1.14022   1.14182   1.14416
 Alpha virt. eigenvalues --    1.14551   1.14800   1.15300   1.15492   1.15653
 Alpha virt. eigenvalues --    1.15946   1.16050   1.16371   1.16402   1.16625
 Alpha virt. eigenvalues --    1.17285   1.17415   1.17612   1.18099   1.18497
 Alpha virt. eigenvalues --    1.18614   1.18949   1.19336   1.19546   1.19644
 Alpha virt. eigenvalues --    1.19888   1.20442   1.20607   1.21085   1.21334
 Alpha virt. eigenvalues --    1.21523   1.21666   1.21977   1.22218   1.22428
 Alpha virt. eigenvalues --    1.22635   1.22802   1.23056   1.23211   1.23497
 Alpha virt. eigenvalues --    1.23557   1.23829   1.24520   1.24751   1.25006
 Alpha virt. eigenvalues --    1.25394   1.25520   1.25900   1.26344   1.26539
 Alpha virt. eigenvalues --    1.26749   1.26933   1.27074   1.27126   1.27478
 Alpha virt. eigenvalues --    1.27740   1.28061   1.28125   1.28532   1.28583
 Alpha virt. eigenvalues --    1.28799   1.29046   1.29362   1.29788   1.29980
 Alpha virt. eigenvalues --    1.30153   1.30703   1.30863   1.30920   1.31248
 Alpha virt. eigenvalues --    1.31521   1.31871   1.32138   1.32403   1.32592
 Alpha virt. eigenvalues --    1.32786   1.32966   1.33216   1.33689   1.34181
 Alpha virt. eigenvalues --    1.34210   1.34629   1.34874   1.35233   1.35366
 Alpha virt. eigenvalues --    1.35617   1.36058   1.36394   1.36517   1.36574
 Alpha virt. eigenvalues --    1.36641   1.36876   1.37248   1.37693   1.37968
 Alpha virt. eigenvalues --    1.38324   1.38679   1.38965   1.39162   1.39499
 Alpha virt. eigenvalues --    1.39653   1.39776   1.40245   1.40330   1.40621
 Alpha virt. eigenvalues --    1.40892   1.41034   1.41250   1.41584   1.41866
 Alpha virt. eigenvalues --    1.42009   1.42176   1.42562   1.42899   1.43129
 Alpha virt. eigenvalues --    1.43594   1.44023   1.44156   1.44641   1.45039
 Alpha virt. eigenvalues --    1.45281   1.45392   1.45728   1.46245   1.46865
 Alpha virt. eigenvalues --    1.46889   1.47098   1.47424   1.47713   1.47950
 Alpha virt. eigenvalues --    1.48478   1.48721   1.48886   1.48991   1.49215
 Alpha virt. eigenvalues --    1.49447   1.49610   1.49726   1.49911   1.50172
 Alpha virt. eigenvalues --    1.50802   1.50945   1.51095   1.51499   1.51787
 Alpha virt. eigenvalues --    1.51954   1.52215   1.52490   1.52662   1.53263
 Alpha virt. eigenvalues --    1.53522   1.53870   1.54319   1.54740   1.55242
 Alpha virt. eigenvalues --    1.55452   1.55793   1.55947   1.56136   1.56428
 Alpha virt. eigenvalues --    1.56789   1.57063   1.57597   1.57870   1.58144
 Alpha virt. eigenvalues --    1.58706   1.59200   1.59673   1.60001   1.60164
 Alpha virt. eigenvalues --    1.60563   1.61021   1.61259   1.61682   1.61791
 Alpha virt. eigenvalues --    1.62130   1.62266   1.62972   1.63122   1.63862
 Alpha virt. eigenvalues --    1.64254   1.64294   1.64670   1.65137   1.65295
 Alpha virt. eigenvalues --    1.65702   1.66371   1.66621   1.66711   1.66855
 Alpha virt. eigenvalues --    1.67261   1.67336   1.67822   1.67971   1.67983
 Alpha virt. eigenvalues --    1.68178   1.68674   1.69034   1.69299   1.69372
 Alpha virt. eigenvalues --    1.69508   1.69630   1.70326   1.70649   1.70673
 Alpha virt. eigenvalues --    1.70885   1.71096   1.71369   1.71486   1.71565
 Alpha virt. eigenvalues --    1.72103   1.72227   1.72486   1.72847   1.72907
 Alpha virt. eigenvalues --    1.73247   1.73480   1.73651   1.73748   1.74009
 Alpha virt. eigenvalues --    1.74104   1.74322   1.74636   1.74791   1.74888
 Alpha virt. eigenvalues --    1.75092   1.75275   1.75364   1.75582   1.75832
 Alpha virt. eigenvalues --    1.76266   1.76307   1.76375   1.76732   1.76778
 Alpha virt. eigenvalues --    1.76927   1.77004   1.77283   1.77372   1.77477
 Alpha virt. eigenvalues --    1.77502   1.77800   1.77898   1.78146   1.78521
 Alpha virt. eigenvalues --    1.78640   1.79006   1.79204   1.79405   1.79580
 Alpha virt. eigenvalues --    1.79687   1.79766   1.79916   1.80003   1.80242
 Alpha virt. eigenvalues --    1.80413   1.80696   1.80749   1.80921   1.81075
 Alpha virt. eigenvalues --    1.81485   1.81611   1.81797   1.81898   1.81934
 Alpha virt. eigenvalues --    1.82041   1.82198   1.82558   1.82655   1.82938
 Alpha virt. eigenvalues --    1.83005   1.83222   1.83363   1.83649   1.83909
 Alpha virt. eigenvalues --    1.84209   1.84609   1.84749   1.85014   1.85096
 Alpha virt. eigenvalues --    1.85355   1.85604   1.85879   1.85974   1.86079
 Alpha virt. eigenvalues --    1.86228   1.86348   1.86508   1.86597   1.86832
 Alpha virt. eigenvalues --    1.86944   1.87143   1.87260   1.87366   1.87607
 Alpha virt. eigenvalues --    1.87743   1.87858   1.87978   1.88416   1.88708
 Alpha virt. eigenvalues --    1.88766   1.88940   1.89131   1.89338   1.89414
 Alpha virt. eigenvalues --    1.89622   1.89722   1.89872   1.90023   1.90151
 Alpha virt. eigenvalues --    1.90385   1.90615   1.90863   1.91013   1.91269
 Alpha virt. eigenvalues --    1.91419   1.91707   1.91750   1.92200   1.92746
 Alpha virt. eigenvalues --    1.92922   1.93025   1.93328   1.93486   1.93743
 Alpha virt. eigenvalues --    1.93972   1.94070   1.94293   1.94438   1.94596
 Alpha virt. eigenvalues --    1.94966   1.95115   1.95228   1.95457   1.95963
 Alpha virt. eigenvalues --    1.96194   1.96454   1.96650   1.96824   1.96961
 Alpha virt. eigenvalues --    1.97122   1.97331   1.97567   1.97873   1.98026
 Alpha virt. eigenvalues --    1.98378   1.98622   1.98895   1.99126   1.99407
 Alpha virt. eigenvalues --    1.99737   1.99897   2.00014   2.00211   2.00455
 Alpha virt. eigenvalues --    2.00542   2.00808   2.01148   2.01295   2.01589
 Alpha virt. eigenvalues --    2.01852   2.01948   2.02220   2.02368   2.02699
 Alpha virt. eigenvalues --    2.02852   2.03117   2.03292   2.03618   2.03914
 Alpha virt. eigenvalues --    2.04268   2.04363   2.04614   2.04905   2.04985
 Alpha virt. eigenvalues --    2.05193   2.05498   2.05588   2.05777   2.05937
 Alpha virt. eigenvalues --    2.06284   2.06410   2.06947   2.07370   2.07740
 Alpha virt. eigenvalues --    2.08284   2.08477   2.08664   2.08789   2.09042
 Alpha virt. eigenvalues --    2.09411   2.09514   2.09632   2.10103   2.10614
 Alpha virt. eigenvalues --    2.10753   2.10835   2.11139   2.11420   2.11896
 Alpha virt. eigenvalues --    2.12399   2.12671   2.12850   2.13019   2.13338
 Alpha virt. eigenvalues --    2.13611   2.13900   2.14061   2.14422   2.14771
 Alpha virt. eigenvalues --    2.15169   2.15571   2.15931   2.16375   2.16415
 Alpha virt. eigenvalues --    2.16655   2.16861   2.17133   2.17518   2.17747
 Alpha virt. eigenvalues --    2.18053   2.18770   2.18976   2.19160   2.19282
 Alpha virt. eigenvalues --    2.19580   2.19657   2.20193   2.20404   2.20643
 Alpha virt. eigenvalues --    2.21314   2.21818   2.21830   2.22531   2.22580
 Alpha virt. eigenvalues --    2.22883   2.23134   2.23192   2.23475   2.23683
 Alpha virt. eigenvalues --    2.23957   2.24238   2.24440   2.24856   2.25282
 Alpha virt. eigenvalues --    2.25362   2.25891   2.26308   2.26364   2.26781
 Alpha virt. eigenvalues --    2.27290   2.27588   2.27921   2.28008   2.28777
 Alpha virt. eigenvalues --    2.29081   2.29234   2.29573   2.29911   2.30624
 Alpha virt. eigenvalues --    2.31035   2.31353   2.31604   2.31816   2.32172
 Alpha virt. eigenvalues --    2.32507   2.32614   2.32968   2.33022   2.33470
 Alpha virt. eigenvalues --    2.34233   2.34545   2.34733   2.34950   2.35624
 Alpha virt. eigenvalues --    2.35903   2.36430   2.36668   2.36775   2.37060
 Alpha virt. eigenvalues --    2.37394   2.37809   2.38252   2.38385   2.38801
 Alpha virt. eigenvalues --    2.39283   2.39350   2.39550   2.39676   2.39726
 Alpha virt. eigenvalues --    2.40174   2.40344   2.40639   2.40836   2.41016
 Alpha virt. eigenvalues --    2.41643   2.42004   2.42226   2.42638   2.42849
 Alpha virt. eigenvalues --    2.43064   2.43588   2.43816   2.44221   2.44587
 Alpha virt. eigenvalues --    2.44792   2.45329   2.45750   2.45939   2.46364
 Alpha virt. eigenvalues --    2.46875   2.47085   2.47310   2.47437   2.47650
 Alpha virt. eigenvalues --    2.48167   2.48392   2.48669   2.49005   2.49440
 Alpha virt. eigenvalues --    2.49781   2.50292   2.50493   2.50594   2.51003
 Alpha virt. eigenvalues --    2.51410   2.51642   2.52750   2.53330   2.53523
 Alpha virt. eigenvalues --    2.53635   2.54154   2.54392   2.54981   2.55322
 Alpha virt. eigenvalues --    2.55433   2.55913   2.56249   2.56709   2.57110
 Alpha virt. eigenvalues --    2.57133   2.57257   2.57429   2.57647   2.57966
 Alpha virt. eigenvalues --    2.58734   2.59012   2.59141   2.59267   2.59422
 Alpha virt. eigenvalues --    2.59992   2.60449   2.60832   2.61022   2.61311
 Alpha virt. eigenvalues --    2.61425   2.61793   2.62117   2.62211   2.62382
 Alpha virt. eigenvalues --    2.62831   2.63043   2.63353   2.63731   2.63864
 Alpha virt. eigenvalues --    2.64285   2.64650   2.65078   2.65389   2.65836
 Alpha virt. eigenvalues --    2.66033   2.66532   2.66912   2.67242   2.67491
 Alpha virt. eigenvalues --    2.67923   2.68122   2.68428   2.68627   2.68847
 Alpha virt. eigenvalues --    2.69011   2.69299   2.69394   2.69840   2.70222
 Alpha virt. eigenvalues --    2.70536   2.70648   2.70996   2.71056   2.71122
 Alpha virt. eigenvalues --    2.71421   2.71656   2.71729   2.72060   2.72843
 Alpha virt. eigenvalues --    2.72881   2.73224   2.73520   2.73675   2.73855
 Alpha virt. eigenvalues --    2.74139   2.74330   2.74630   2.75028   2.75070
 Alpha virt. eigenvalues --    2.75196   2.75555   2.75746   2.76170   2.76310
 Alpha virt. eigenvalues --    2.76801   2.77060   2.77347   2.77415   2.77556
 Alpha virt. eigenvalues --    2.77909   2.78147   2.78925   2.79160   2.79446
 Alpha virt. eigenvalues --    2.79616   2.79853   2.80018   2.80102   2.80677
 Alpha virt. eigenvalues --    2.81331   2.81492   2.81877   2.82088   2.82528
 Alpha virt. eigenvalues --    2.82756   2.82961   2.83286   2.83678   2.84296
 Alpha virt. eigenvalues --    2.84612   2.85049   2.85300   2.85813   2.86350
 Alpha virt. eigenvalues --    2.86624   2.87033   2.87345   2.87407   2.87478
 Alpha virt. eigenvalues --    2.87684   2.88053   2.88188   2.88397   2.88582
 Alpha virt. eigenvalues --    2.88810   2.89328   2.89459   2.89879   2.90164
 Alpha virt. eigenvalues --    2.90490   2.90605   2.90868   2.91381   2.91689
 Alpha virt. eigenvalues --    2.92099   2.92155   2.92885   2.93024   2.93131
 Alpha virt. eigenvalues --    2.93350   2.93708   2.93814   2.93902   2.94200
 Alpha virt. eigenvalues --    2.94313   2.94975   2.95262   2.95779   2.96216
 Alpha virt. eigenvalues --    2.96263   2.96624   2.97283   2.97738   2.97797
 Alpha virt. eigenvalues --    2.97944   2.98693   2.99010   2.99126   3.00061
 Alpha virt. eigenvalues --    3.00392   3.00430   3.00721   3.00942   3.01232
 Alpha virt. eigenvalues --    3.01469   3.01635   3.01967   3.02279   3.02643
 Alpha virt. eigenvalues --    3.02782   3.03600   3.03865   3.04126   3.04593
 Alpha virt. eigenvalues --    3.04972   3.05144   3.05300   3.05541   3.06297
 Alpha virt. eigenvalues --    3.06345   3.06688   3.07745   3.08476   3.08969
 Alpha virt. eigenvalues --    3.09626   3.10293   3.10637   3.10845   3.11624
 Alpha virt. eigenvalues --    3.11948   3.12115   3.12498   3.13355   3.14403
 Alpha virt. eigenvalues --    3.14632   3.15454   3.15579   3.15962   3.16313
 Alpha virt. eigenvalues --    3.16459   3.17079   3.17122   3.17388   3.17550
 Alpha virt. eigenvalues --    3.17988   3.18846   3.19003   3.19135   3.19358
 Alpha virt. eigenvalues --    3.19573   3.19898   3.19997   3.20200   3.20348
 Alpha virt. eigenvalues --    3.20916   3.21296   3.21731   3.22303   3.22613
 Alpha virt. eigenvalues --    3.23032   3.23587   3.24035   3.24085   3.24960
 Alpha virt. eigenvalues --    3.25256   3.25514   3.26048   3.26206   3.27148
 Alpha virt. eigenvalues --    3.27327   3.27600   3.27790   3.30153   3.30253
 Alpha virt. eigenvalues --    3.30767   3.31899   3.32064   3.33381   3.35497
 Alpha virt. eigenvalues --    3.35525   3.36933   3.37011   3.37840   3.40507
 Alpha virt. eigenvalues --    3.42203   3.43856   3.44623   3.47528   3.49608
 Alpha virt. eigenvalues --    3.50677   3.51458   3.52394   3.54454   3.55322
 Alpha virt. eigenvalues --    3.55756   3.56055   3.56338   3.58133   3.60283
 Alpha virt. eigenvalues --    3.60520   3.61387   3.61981   3.63145   3.64809
 Alpha virt. eigenvalues --    3.65032   3.65299   3.65677   3.66630   3.67415
 Alpha virt. eigenvalues --    3.68283   3.68405   3.68816   3.69539   3.69591
 Alpha virt. eigenvalues --    3.70071   3.70669   3.70786   3.70983   3.71138
 Alpha virt. eigenvalues --    3.71322   3.72662   3.72755   3.73058   3.74767
 Alpha virt. eigenvalues --    3.78928   3.79634   3.81981   3.85816
          Condensed to atoms (all electrons):
 Mulliken charges:
               1
     1  C    0.052294
     2  C    0.040270
     3  O   -0.336093
     4  H    0.030604
     5  H    0.016345
     6  H    0.039949
     7  N   -0.115952
     8  C    0.144248
     9  C    0.038241
    10  O   -0.289508
    11  C    0.046248
    12  C    0.156161
    13  O   -0.371168
    14  O   -0.461660
    15  H    0.124470
    16  H    0.003861
    17  H   -0.008047
    18  H    0.009499
    19  N   -0.147204
    20  C    0.083801
    21  C    0.048093
    22  O   -0.273843
    23  C    0.125036
    24  C    0.018479
    25  C   -0.086038
    26  C    0.033065
    27  N    0.086332
    28  H    0.166516
    29  H   -0.013187
    30  H    0.006222
    31  H    0.027730
    32  H   -0.016607
    33  H    0.018480
    34  H    0.031957
    35  H    0.010806
    36  H    0.072797
    37  H    0.110269
    38  H    0.183569
    39  H    0.173564
    40  H    0.189149
    41  N   -0.157282
    42  C    0.044623
    43  C    0.085652
    44  O   -0.291265
    45  C    0.203869
    46  C    0.073769
    47  O   -0.420208
    48  O   -0.441126
    49  H    0.158048
    50  H    0.022178
    51  H   -0.017043
    52  H    0.014186
    53  N   -0.149575
    54  C    0.241498
    55  C    0.025325
    56  O   -0.293082
    57  H    0.143638
    58  H    0.024195
    59  H    0.036046
    60  N   -0.152475
    61  C    0.128237
    62  C    0.034603
    63  O   -0.297644
    64  C    0.108507
    65  C    0.057195
    66  N   -0.012853
    67  O   -0.376028
    68  H    0.139828
    69  H    0.034653
    70  H    0.070392
    71  H   -0.008119
    72  H    0.129366
    73  H    0.102214
    74  N   -0.159195
    75  C    0.266825
    76  C   -0.008945
    77  O   -0.302954
    78  H    0.142048
    79  H    0.036701
    80  H    0.021539
    81  N   -0.147727
    82  C    0.152617
    83  C    0.102401
    84  O   -0.355682
    85  C    0.157719
    86  C    0.005736
    87  C   -0.000043
    88  C    0.021274
    89  C   -0.030124
    90  C   -0.029597
    91  C    0.189015
    92  O   -0.214496
    93  H    0.147855
    94  H   -0.008934
    95  H   -0.030016
    96  H   -0.051187
    97  H   -0.038839
    98  H   -0.043673
    99  H   -0.021107
   100  H   -0.052985
   101  H    0.174621
   102  N   -0.099417
   103  C    0.142766
   104  C    0.066878
   105  O   -0.275637
   106  C   -0.051472
   107  C    0.014781
   108  C    0.058134
   109  C   -0.034076
   110  H    0.133980
   111  H    0.003536
   112  H   -0.006590
   113  H   -0.003781
   114  H   -0.004217
   115  H    0.028652
   116  H   -0.004159
   117  H   -0.004086
   118  H    0.008009
   119  H    0.037724
   120  H    0.009047
   121  N   -0.147152
   122  C    0.055476
   123  C    0.113998
   124  O   -0.280643
   125  C    0.277173
   126  O   -0.338762
   127  H    0.145601
   128  H    0.025385
   129  H   -0.022118
   130  H   -0.016625
   131  H    0.162178
   132  N   -0.123249
   133  C    0.064210
   134  C    0.074184
   135  O   -0.247981
   136  C    0.043595
   137  H    0.118243
   138  H    0.019428
   139  H    0.025083
   140  H    0.006579
   141  H    0.053633
   142  N   -0.134086
   143  C    0.061060
   144  C    0.043394
   145  O   -0.268165
   146  C    0.051161
   147  H    0.111601
   148  H    0.021579
   149  H    0.009166
   150  H    0.043707
   151  H    0.022119
   152  N   -0.141205
   153  C    0.166645
   154  C    0.062286
   155  O   -0.286803
   156  C   -0.055981
   157  C    0.101346
   158  C    0.162094
   159  O   -0.387398
   160  O   -0.436621
   161  H    0.127170
   162  H   -0.026331
   163  H    0.032237
   164  H    0.008205
   165  H   -0.023287
   166  H   -0.016004
   167  N   -0.167196
   168  C    0.140991
   169  H    0.016775
   170  H    0.020291
   171  H    0.028675
   172  H    0.142702
   173  Ca   1.269842
   174  O   -0.256961
   175  H    0.185999
   176  H    0.189767
 Sum of Mulliken charges =  -0.00000
 Mulliken charges with hydrogens summed into heavy atoms:
               1
     1  C    0.139192
     2  C    0.040270
     3  O   -0.336093
     7  N    0.008518
     8  C    0.148109
     9  C    0.038241
    10  O   -0.289508
    11  C    0.047700
    12  C    0.156161
    13  O   -0.371168
    14  O   -0.461660
    19  N    0.019312
    20  C    0.070614
    21  C    0.048093
    22  O   -0.273843
    23  C    0.158988
    24  C    0.020352
    25  C   -0.043275
    26  C    0.216131
    27  N    0.632614
    41  N    0.000766
    42  C    0.066801
    43  C    0.085652
    44  O   -0.291265
    45  C    0.201012
    46  C    0.073769
    47  O   -0.420208
    48  O   -0.441126
    53  N   -0.005937
    54  C    0.301739
    55  C    0.025325
    56  O   -0.293082
    60  N   -0.012647
    61  C    0.162890
    62  C    0.034603
    63  O   -0.297644
    64  C    0.170780
    65  C    0.057195
    66  N    0.218727
    67  O   -0.376028
    74  N   -0.017148
    75  C    0.325065
    76  C   -0.008945
    77  O   -0.302954
    81  N    0.000127
    82  C    0.143683
    83  C    0.102401
    84  O   -0.355682
    85  C    0.076516
    86  C    0.005736
    87  C   -0.038882
    88  C   -0.022400
    89  C   -0.051231
    90  C   -0.082581
    91  C    0.189015
    92  O   -0.039875
   102  N    0.034563
   103  C    0.146302
   104  C    0.066878
   105  O   -0.275637
   106  C   -0.058062
   107  C    0.006783
   108  C    0.078542
   109  C    0.020705
   121  N   -0.001551
   122  C    0.080861
   123  C    0.113998
   124  O   -0.280643
   125  C    0.238430
   126  O   -0.176583
   132  N   -0.005007
   133  C    0.083639
   134  C    0.074184
   135  O   -0.247981
   136  C    0.128890
   142  N   -0.022485
   143  C    0.082639
   144  C    0.043394
   145  O   -0.268165
   146  C    0.126153
   152  N   -0.014036
   153  C    0.140315
   154  C    0.062286
   155  O   -0.286803
   156  C   -0.015539
   157  C    0.062055
   158  C    0.162094
   159  O   -0.387398
   160  O   -0.436621
   167  N   -0.024494
   168  C    0.206733
   173  Ca   1.269842
   174  O    0.118805
 DipInt: DoE/N= T F RetVal/Mat= T F Init=T NMatP=  1 IDeriv=0 Min/MaxMlt=  0  4
 Entering OneElI...
 OneElI was handed  1333951383 working-precision words.
 Multipole integrals L=0 to 4 MinM= 0 MaxM= 0.
 Requested accuracy = 0.1000D-12
 ShPair: Thresh= 1.00D-13 NBox=     0 BxSize= 0.00D+00 RnKept= 2.55D+01
         NSMCal=               327645 NSMKep=              163955
 PrmmSu-InSpLW:  IPartL=    0 NPrtUS=    1 NPrtUL=    1 DoSpLW=F IThBeg=    0 IThEnd=    0 NThAct=    1.
 PrsmSu:  NPrtUS=   1 ThrOK=F IAlg=1 NPAlg=1 LenDen=           0 ISkipM=0 DoSpLW=F IThBeg=    0 IThEnd=    0.
 Prism:   IPart=     0 DynPar=F LinDyn=F Incr=         512.
 PRISM was handed  1323739239 working-precision words and163955 shell-pairs
 IPart=  0 NShTot=      163955 NBatch=         376 AvBLen=       436.1
 PrsmSu-ThDecC:  IPartSL=    0    0 NPrtUSL=    1    1 IThBeg=    0 IThEnd=    0 CPU=   -1 GPU=   -1 NThAct=    1.
 PrSmSu:  NxtVal=            513.
 Electronic moments (au):
       -716.00000000        -11.81990013          0.98668050         -1.21702686
     -52646.10737238     -30476.30895934     -10953.38539427         61.52740592
          9.80305090        -59.60208702      88498.65486162     -10448.22055456
     -12303.55270743     -59555.56360276     -87377.20417893      31265.50862333
      14053.96027648      11901.65979949        892.77177289     -33396.87681527
   -7701371.71547766   -2937200.43650368    -422468.91940552     173293.15451771
    -409752.41880862    -727255.72876049     -50788.60853223      65713.03084137
      59936.49740816   -2074129.35262206    -645186.64658665    -374427.98757203
      72497.18333983      -2056.90136978      66913.71386169
 Electronic spatial extent (au):  <R**2>=          94075.8017
 DipInt: DoE/N= F T RetVal/Mat= T F Init=T NMatP=  1 IDeriv=0 Min/MaxMlt=  0  4
 Nuclear    moments (au):
        716.00000000         -0.00000000          0.00000000         -0.00000000
      52163.08052975      30118.02242490      10568.74187261          0.00000000
          0.00000000         -0.00000000     -89817.83594408      10443.15263719
      12319.01787302      58303.89324534      87512.05238970     -31728.92205027
     -14298.46007178     -11895.74729000       -636.62732985      33576.84395284
    7494646.22904422    2842509.71694926     386497.06886218    -171844.78143227
     413730.63406168     741903.92290294      45483.69878864     -66020.37685223
     -62835.27444300    2033844.41297595     610434.13501227     352360.24276639
     -77232.69634552       2268.21007617     -66830.53490574
 Total      moments (au):
         -0.00000000        -11.81990013          0.98668050         -1.21702686
       -483.02684263       -358.28653445       -384.64352165         61.52740592
          9.80305090        -59.60208702      -1319.18108245         -5.06791737
         15.46516559      -1251.67035742        134.84821077       -463.41342694
       -244.49979530          5.91250949        256.14444303        179.96713757
    -206725.48643344     -94690.71955442     -35971.85054334       1448.37308545
       3978.21525306      14648.19414245      -5304.90974359       -307.34601086
      -2898.77703484     -40284.93964610     -34752.51157438     -22067.74480564
      -4735.51300569        211.30870639         83.17895594
 Traceless Quadrup. (au):
        -74.37454305         50.36576513         24.00877792         61.52740592
          9.80305090        -59.60208702
 Charge=             -0.0000 electrons
 Dipole moment (field-independent basis, Debye):
    X=            -30.0432    Y=              2.5079    Z=             -3.0934  Tot=             30.3060
 Quadrupole moment (field-independent basis, Debye-Ang):
   XX=           -649.6876   YY=           -481.9077   ZZ=           -517.3587
   XY=             82.7565   XZ=             13.1854   YZ=            -80.1668
 Traceless Quadrupole moment (field-independent basis, Debye-Ang):
   XX=           -100.0363   YY=             67.7437   ZZ=             32.2926
   XY=             82.7565   XZ=             13.1854   YZ=            -80.1668
 Octapole moment (field-independent basis, Debye-Ang**2):
  XXX=           -938.9423  YYY=             -3.6071  ZZZ=             11.0075  XYY=           -890.8907
  XXY=             95.9798  XXZ=           -329.8398  XZZ=           -174.0255  YZZ=              4.2083
  YYZ=            182.3137  XYZ=            128.0937
 Hexadecapole moment (field-independent basis, Debye-Ang**3):
 XXXX=         -77862.7310 YYYY=         -35665.0656 ZZZZ=         -13548.7238 XXXY=            545.5268
 XXXZ=           1498.3866 YYYX=           5517.2123 YYYZ=          -1998.0834 ZZZX=           -115.7612
 ZZZY=          -1091.8184 XXYY=         -15173.2400 XXZZ=         -13089.4623 YYZZ=          -8311.7709
 XXYZ=          -1783.6213 YYXZ=             79.5890 ZZXY=             31.3292
 N-N= 2.184170020580D+04 E-N=-5.616084315115D+04  KE= 5.290505206344D+03
 Leave Link  601 at Wed Sep 18 17:58:51 2019, MaxMem=  1342177280 cpu:              57.7 elap:               1.4
 FitSet:  NAtFit=   176 NAtPot=   176 NAtFrz=     0 MDM=   180 TotChg=   0.00000
 Merz-Kollman atomic radii used.
 Read replacement radii for each type of atom:
 Rad(20) =   1.700000000000D+00
 Atom Element Radius
    1     6    1.50
    2     6    1.50
    3     8    1.40
    4     1    1.20
    5     1    1.20
    6     1    1.20
    7     7    1.50
    8     6    1.50
    9     6    1.50
   10     8    1.40
   11     6    1.50
   12     6    1.50
   13     8    1.40
   14     8    1.40
   15     1    1.20
   16     1    1.20
   17     1    1.20
   18     1    1.20
   19     7    1.50
   20     6    1.50
   21     6    1.50
   22     8    1.40
   23     6    1.50
   24     6    1.50
   25     6    1.50
   26     6    1.50
   27     7    1.50
   28     1    1.20
   29     1    1.20
   30     1    1.20
   31     1    1.20
   32     1    1.20
   33     1    1.20
   34     1    1.20
   35     1    1.20
   36     1    1.20
   37     1    1.20
   38     1    1.20
   39     1    1.20
   40     1    1.20
   41     7    1.50
   42     6    1.50
   43     6    1.50
   44     8    1.40
   45     6    1.50
   46     6    1.50
   47     8    1.40
   48     8    1.40
   49     1    1.20
   50     1    1.20
   51     1    1.20
   52     1    1.20
   53     7    1.50
   54     6    1.50
   55     6    1.50
   56     8    1.40
   57     1    1.20
   58     1    1.20
   59     1    1.20
   60     7    1.50
   61     6    1.50
   62     6    1.50
   63     8    1.40
   64     6    1.50
   65     6    1.50
   66     7    1.50
   67     8    1.40
   68     1    1.20
   69     1    1.20
   70     1    1.20
   71     1    1.20
   72     1    1.20
   73     1    1.20
   74     7    1.50
   75     6    1.50
   76     6    1.50
   77     8    1.40
   78     1    1.20
   79     1    1.20
   80     1    1.20
   81     7    1.50
   82     6    1.50
   83     6    1.50
   84     8    1.40
   85     6    1.50
   86     6    1.50
   87     6    1.50
   88     6    1.50
   89     6    1.50
   90     6    1.50
   91     6    1.50
   92     8    1.40
   93     1    1.20
   94     1    1.20
   95     1    1.20
   96     1    1.20
   97     1    1.20
   98     1    1.20
   99     1    1.20
  100     1    1.20
  101     1    1.20
  102     7    1.50
  103     6    1.50
  104     6    1.50
  105     8    1.40
  106     6    1.50
  107     6    1.50
  108     6    1.50
  109     6    1.50
  110     1    1.20
  111     1    1.20
  112     1    1.20
  113     1    1.20
  114     1    1.20
  115     1    1.20
  116     1    1.20
  117     1    1.20
  118     1    1.20
  119     1    1.20
  120     1    1.20
  121     7    1.50
  122     6    1.50
  123     6    1.50
  124     8    1.40
  125     6    1.50
  126     8    1.40
  127     1    1.20
  128     1    1.20
  129     1    1.20
  130     1    1.20
  131     1    1.20
  132     7    1.50
  133     6    1.50
  134     6    1.50
  135     8    1.40
  136     6    1.50
  137     1    1.20
  138     1    1.20
  139     1    1.20
  140     1    1.20
  141     1    1.20
  142     7    1.50
  143     6    1.50
  144     6    1.50
  145     8    1.40
  146     6    1.50
  147     1    1.20
  148     1    1.20
  149     1    1.20
  150     1    1.20
  151     1    1.20
  152     7    1.50
  153     6    1.50
  154     6    1.50
  155     8    1.40
  156     6    1.50
  157     6    1.50
  158     6    1.50
  159     8    1.40
  160     8    1.40
  161     1    1.20
  162     1    1.20
  163     1    1.20
  164     1    1.20
  165     1    1.20
  166     1    1.20
  167     7    1.50
  168     6    1.50
  169     1    1.20
  170     1    1.20
  171     1    1.20
  172     1    1.20
  173    20    1.70
[...]
 **** Fit      -0.005220
 **** Fit      -0.003692
 **** Fit      -0.003407
 **** Fit      -0.004388
 **** Fit      -0.006155
 **** Fit      -0.007896
 **** Fit      -0.008992
 **** Fit      -0.013624
 **** Fit      -0.012937
 **** Fit      -0.011250
 **** Fit      -0.008712
 **** Fit      -0.005623
 **** Fit      -0.002452
 **** Fit       0.000175
 **** Fit       0.001615
 **** Fit       0.001459
 **** Fit      -0.007705
 **** Fit      -0.013187
 **** Fit      -0.012788
 **** Fit      -0.011206
 **** Fit      -0.008555
 **** Fit      -0.005034
 **** Fit      -0.000974
 **** Fit       0.003092
 **** Fit       0.006410
 **** Fit       0.008137
 **** Fit       0.007680
 **** Fit      -0.012766
 **** Fit      -0.011375
 **** Fit      -0.008746
 **** Fit      -0.005014
 **** Fit      -0.000368
 **** Fit       0.004853
 **** Fit       0.010057
 **** Fit       0.014306
 **** Fit       0.016441
 **** Fit       0.015517
 **** Fit      -0.013122
 **** Fit      -0.012614
 **** Fit      -0.010619
 **** Fit      -0.007269
 **** Fit      -0.002661
 **** Fit       0.003077
 **** Fit       0.009688
 **** Fit       0.016617
 **** Fit       0.022806
 **** Fit       0.026632
 **** Fit       0.026393
 **** Fit      -0.014000
 **** Fit      -0.012603
 **** Fit      -0.009546
 **** Fit      -0.004919
 **** Fit       0.001227
 **** Fit       0.008822
 **** Fit       0.017638
 **** Fit       0.027008
 **** Fit      -0.016036
 **** Fit      -0.015419
 **** Fit      -0.012880
 **** Fit      -0.008525
 **** Fit      -0.002399
 **** Fit       0.005498
 **** Fit       0.015171
 **** Fit       0.026461
 **** Fit      -0.018689
 **** Fit      -0.015592
 **** Fit      -0.010400
 **** Fit      -0.003190
 **** Fit       0.006015
 **** Fit       0.017254
 **** Fit       0.030482
 **** Fit      -0.016885
 **** Fit      -0.009110
 **** Fit       0.000840
 **** Fit       0.012843
 **** Fit       0.026823
 **** Fit       0.005715
 **** Fit       0.001652
 **** Fit       0.019695
 **** Fit       0.006802
 **** Fit       0.003599
 **** Fit       0.003223
 **** Fit       0.001195
 **** Fit       0.014894
 **** Fit       0.011703
 **** Fit       0.008021
 **** Fit       0.005089
 **** Fit       0.005684
 **** Fit       0.012085
 **** Fit       0.008699
 **** Fit      -0.008421
 **** Fit      -0.003366
 **** Fit      -0.011232
 **** Fit      -0.000652
 **** Fit      -0.006412
 **** Fit       0.002145
 **** Fit      -0.001665
 **** Fit      -0.004714
 **** Fit      -0.003142
 **** Fit       0.000386
 **** Fit       0.000505
 **** Fit       0.000704
 **** Fit      -0.001066
 **** Fit      -0.000119
 **** Fit       0.001157
 **** Fit       0.005743
 **** Fit       0.027499
 **** Fit       0.026242
 **** Fit       0.020353
 **** Fit       0.015960
 **** Fit       0.017220
 **** Fit       0.013584
 **** Fit       0.009502
 **** Fit       0.005218
 **** Fit       0.013678
 **** Fit       0.013288
 **** Fit       0.008920
 **** Fit       0.007990
 **** Fit       0.036117
 **** Fit       0.030044
 **** Fit       0.034258
 **** Fit       0.029452
 **** Fit       0.031838
 **** Fit       0.028203
 **** Fit       0.029214
 **** Fit       0.025929
 **** Fit       0.025636
 **** Fit       0.023906
 **** Fit       0.023171
 **** Fit       0.021945
 **** Fit       0.019516
 **** Fit       0.011186
 **** Fit       0.006927
 **** Fit       0.021362
 **** Fit       0.020771
 **** Fit       0.019151
 **** Fit       0.016138
 **** Fit       0.012142
 **** Fit       0.008730
 **** Fit       0.017930
 **** Fit       0.016720
 **** Fit       0.013263
 **** Fit       0.004682
 **** Fit       0.003770
 **** Fit       0.002623
 **** Fit       0.005792
 **** Fit       0.005252
 **** Fit       0.004586
 **** Fit       0.003791
 **** Fit       0.002798
 **** Fit       0.001514
 **** Fit      -0.000037
 **** Fit       0.006709
 **** Fit       0.006418
 **** Fit       0.006004
 **** Fit       0.005469
 **** Fit       0.004859
 **** Fit       0.004200
 **** Fit       0.003449
 **** Fit       0.002477
 **** Fit       0.001121
 **** Fit      -0.000699
 **** Fit      -0.002885
 **** Fit       0.007175
 **** Fit       0.007033
 **** Fit       0.006767
 **** Fit       0.006353
 **** Fit       0.005824
 **** Fit       0.005243
 **** Fit       0.004671
 **** Fit       0.004129
 **** Fit      -0.004550
 **** Fit      -0.007635
 **** Fit      -0.010648
 **** Fit       0.007548
 **** Fit       0.007600
 **** Fit       0.007543
 **** Fit       0.007301
 **** Fit       0.006860
 **** Fit       0.006266
 **** Fit       0.005601
 **** Fit       0.004957
 **** Fit       0.004402
 **** Fit      -0.012018
 **** Fit       0.007696
 **** Fit       0.007974
 **** Fit       0.008170
 **** Fit       0.007448
 **** Fit       0.006742
 **** Fit       0.005931
 **** Fit       0.005130
 **** Fit       0.004436
 **** Fit       0.003914
 **** Fit       0.007671
 **** Fit       0.008237
 **** Fit       0.005899
 **** Fit       0.004874
 **** Fit       0.004002
 **** Fit       0.003360
 **** Fit       0.008381
 **** Fit       0.004401
 **** Fit       0.003290
 **** Fit       0.002462
 **** Fit       0.001718
 **** Fit       0.000792
 **** Fit      -0.000371
 **** Fit      -0.001481
 **** Fit      -0.003429
 **** Fit      -0.004696
 **** Fit      -0.009282
 **** Fit      -0.009944
 **** Fit       0.004069
 **** Fit       0.004310
 **** Fit       0.005109
 **** Fit       0.004860
 **** Fit       0.003884
 **** Fit       0.002795
 **** Fit       0.002929
 **** Fit       0.004632
 **** Fit       0.005653
 **** Fit       0.005949
 **** Fit       0.005830
 **** Fit       0.005440
 **** Fit       0.004761
 **** Fit       0.003759
 **** Fit       0.002491
 **** Fit       0.001242
 **** Fit       0.000629
 **** Fit       0.001246
 **** Fit       0.002904
 **** Fit       0.005100
 **** Fit       0.006231
 **** Fit       0.006615
 **** Fit       0.006607
 **** Fit       0.006462
 **** Fit       0.006243
 **** Fit       0.005914
 **** Fit       0.005415
 **** Fit       0.004694
 **** Fit       0.003714
 **** Fit       0.002454
 **** Fit       0.000941
 **** Fit      -0.000646
 **** Fit      -0.001893
 **** Fit      -0.002225
 **** Fit      -0.001269
 **** Fit       0.000760
 **** Fit       0.003138
 **** Fit       0.005856
 **** Fit       0.007449
 **** Fit       0.007279
 **** Fit       0.007047
 **** Fit       0.006876
 **** Fit       0.006732
 **** Fit       0.006548
 **** Fit      -0.002201
 **** Fit      -0.004356
 **** Fit      -0.006016
 **** Fit      -0.006511
 **** Fit      -0.005403
 **** Fit      -0.002873
 **** Fit       0.000366
 **** Fit       0.003487
 **** Fit       0.007529
 **** Fit       0.007242
 **** Fit       0.007147
 **** Fit       0.007114
 **** Fit      -0.008948
 **** Fit      -0.011719
 **** Fit      -0.012164
 **** Fit      -0.009104
 **** Fit      -0.004700
 **** Fit      -0.000020
 **** Fit       0.007306
 **** Fit       0.007402
 **** Fit      -0.006293
 **** Fit       0.008388
 **** Fit       0.008320
 **** Fit       0.008024
 **** Fit       0.007525
 **** Fit       0.008692
 **** Fit       0.008848
 **** Fit       0.008762
 **** Fit       0.008414
 **** Fit       0.007828
 **** Fit       0.007067
 **** Fit       0.006232
 **** Fit       0.008887
 **** Fit       0.009263
 **** Fit       0.009399
 **** Fit       0.009264
 **** Fit       0.008848
 **** Fit       0.008169
 **** Fit       0.007279
 **** Fit       0.006260
 **** Fit       0.005211
 **** Fit       0.009259
 **** Fit       0.009772
 **** Fit       0.010015
 **** Fit       0.009957
 **** Fit       0.009567
 **** Fit       0.008850
 **** Fit       0.007844
 **** Fit       0.006621
 **** Fit       0.005277
 **** Fit       0.003925
 **** Fit       0.002695
 **** Fit       0.009813
 **** Fit       0.010382
 **** Fit       0.010707
 **** Fit       0.010721
 **** Fit       0.010367
 **** Fit       0.009624
 **** Fit       0.008516
 **** Fit       0.007105
 **** Fit       0.005482
 **** Fit       0.003759
 **** Fit       0.002059
 **** Fit       0.000517
 **** Fit       0.011187
 **** Fit       0.011532
 **** Fit       0.011539
 **** Fit       0.011106
 **** Fit       0.010195
 **** Fit       0.008822
 **** Fit       0.007056
 **** Fit       0.005001
 **** Fit       0.002786
 **** Fit       0.000556
 **** Fit      -0.001542
 **** Fit      -0.003357
 **** Fit       0.012179
 **** Fit       0.012488
 **** Fit       0.012270
 **** Fit       0.011408
 **** Fit       0.009874
 **** Fit       0.007722
 **** Fit       0.005078
 **** Fit       0.002114
 **** Fit      -0.000972
 **** Fit      -0.003968
 **** Fit      -0.006668
 **** Fit       0.012309
 **** Fit       0.013205
 **** Fit       0.013316
 **** Fit       0.012485
 **** Fit       0.010624
 **** Fit       0.007772
 **** Fit       0.004103
 **** Fit      -0.000117
 **** Fit      -0.004567
 **** Fit       0.013951
 **** Fit       0.002809
 **** Fit       0.001756
 **** Fit       0.000275
 **** Fit       0.003572
 **** Fit       0.002936
 **** Fit       0.002180
 **** Fit       0.001123
 **** Fit      -0.000413
 **** Fit      -0.002507
 **** Fit       0.003618
 **** Fit       0.003094
 **** Fit       0.002566
 **** Fit       0.001900
 **** Fit       0.000948
 **** Fit      -0.000469
 **** Fit      -0.002550
 **** Fit      -0.005437
 **** Fit       0.003680
 **** Fit       0.003118
 **** Fit       0.002679
 **** Fit       0.002252
 **** Fit       0.001724
 **** Fit       0.000977
 **** Fit      -0.000137
 **** Fit      -0.001825
 **** Fit      -0.004370
 **** Fit      -0.008096
 **** Fit      -0.013145
 **** Fit       0.002787
 **** Fit       0.002311
 **** Fit       0.001951
 **** Fit       0.001606
 **** Fit       0.001182
 **** Fit       0.000591
 **** Fit      -0.000274
 **** Fit      -0.001562
 **** Fit      -0.003515
 **** Fit      -0.006509
 **** Fit      -0.011075
 **** Fit       0.001591
 **** Fit       0.001162
 **** Fit       0.000853
 **** Fit       0.000553
 **** Fit       0.000173
 **** Fit      -0.000369
 **** Fit      -0.001159
 **** Fit      -0.002320
 **** Fit      -0.004062
 **** Fit      -0.006764
 **** Fit      -0.011079
 **** Fit      -0.000115
 **** Fit      -0.000468
 **** Fit      -0.000716
 **** Fit      -0.000973
 **** Fit      -0.001327
 **** Fit      -0.001850
 **** Fit      -0.002606
 **** Fit      -0.003682
 **** Fit      -0.005223
 **** Fit      -0.007521
 **** Fit      -0.011146
 **** Fit      -0.002252
 **** Fit      -0.002600
 **** Fit      -0.002789
 **** Fit      -0.002964
 **** Fit      -0.003237
 **** Fit      -0.003687
 **** Fit      -0.004372
 **** Fit      -0.005342
 **** Fit      -0.006660
 **** Fit      -0.008458
 **** Fit      -0.011039
 **** Fit      -0.005682
 **** Fit      -0.005751
 **** Fit      -0.005775
 **** Fit      -0.005919
 **** Fit      -0.006301
 **** Fit      -0.006999
 **** Fit      -0.008054
 **** Fit      -0.009486
 **** Fit      -0.011321
 **** Fit      -0.013674
 **** Fit      -0.016909
 **** Fit      -0.010258
 **** Fit      -0.009943
 **** Fit      -0.009665
 **** Fit      -0.009655
 **** Fit      -0.010072
 **** Fit      -0.011008
 **** Fit      -0.012490
 **** Fit      -0.014472
 **** Fit      -0.016843
 **** Fit      -0.019492
 **** Fit      -0.015736
 **** Fit      -0.014852
 **** Fit      -0.014503
 **** Fit      -0.014889
 **** Fit      -0.016119
 **** Fit      -0.018183
 **** Fit      -0.020903
 **** Fit      -0.020661
 **** Fit      -0.020942
 **** Fit      -0.022715
 **** Fit       0.001314
 **** Fit       0.012462
 **** Fit       0.005580
 **** Fit       0.020485
 **** Fit       0.011111
 **** Fit       0.001716
 **** Fit       0.011812
 **** Fit       0.010828
 **** Fit       0.007751
 **** Fit       0.039153
 **** Fit       0.039301
 **** Fit       0.041216
 **** Fit       0.039466
 **** Fit       0.041415
 **** Fit       0.044104
 **** Fit       0.047097
 **** Fit       0.039444
 **** Fit       0.034274
 **** Fit       0.031452
 **** Fit       0.033457
 **** Fit       0.035348
 **** Fit       0.037096
 **** Fit       0.038934
 **** Fit       0.032548
 **** Fit       0.033155
 **** Fit       0.034674
 **** Fit       0.036538
 **** Fit       0.038488
 **** Fit       0.040524
 **** Fit       0.035989
 **** Fit       0.036698
 **** Fit       0.038167
 **** Fit       0.039994
 **** Fit       0.042020
 **** Fit       0.044311
 **** Fit       0.039173
 **** Fit       0.040025
 **** Fit       0.041475
 **** Fit       0.043259
 **** Fit       0.045277
 **** Fit       0.042585
 **** Fit       0.043821
 **** Fit       0.045472
 **** Fit       0.047353
 **** Fit       0.046405
 **** Fit       0.047846
 **** Fit       0.049500
 **** Fit       0.051062
 **** Fit       0.051182
 **** Fit       0.017780
 **** Fit       0.020525
 **** Fit       0.039339
 **** Fit       0.041209
 **** Fit       0.043211
 **** Fit       0.045141
 **** Fit       0.046661
 **** Fit       0.047434
 **** Fit       0.047149
 **** Fit       0.045444
 **** Fit       0.041848
 **** Fit       0.019397
 **** Fit       0.021078
 **** Fit       0.021831
 **** Fit       0.021249
 **** Fit       0.019139
 **** Fit       0.036921
 **** Fit       0.039074
 **** Fit       0.041048
 **** Fit       0.042802
 **** Fit       0.044080
 **** Fit       0.044555
 **** Fit       0.043891
 **** Fit       0.041757
 **** Fit       0.037962
 **** Fit       0.032890
 **** Fit       0.027914
 **** Fit       0.024720
 **** Fit       0.023688
 **** Fit       0.023769
 **** Fit       0.023755
 **** Fit       0.022928
 **** Fit       0.021013
 **** Fit       0.018075
 **** Fit       0.014514
 **** Fit       0.011299
 **** Fit       0.009890
 **** Fit       0.011170
 **** Fit       0.027318
 **** Fit       0.031292
 **** Fit       0.034501
 **** Fit       0.037026
 **** Fit       0.039103
 **** Fit       0.040776
 **** Fit       0.041863
 **** Fit       0.042069
 **** Fit       0.041099
 **** Fit       0.038797
 **** Fit       0.035408
 **** Fit       0.031797
 **** Fit       0.029041
 **** Fit       0.027478
 **** Fit       0.026523
 **** Fit       0.025401
 **** Fit       0.023680
 **** Fit       0.021379
 **** Fit       0.018956
 **** Fit       0.017288
 **** Fit       0.017333
 **** Fit       0.019419
 **** Fit       0.023053
 **** Fit       0.029026
 **** Fit       0.032396
 **** Fit       0.035258
 **** Fit       0.037517
 **** Fit       0.039132
 **** Fit       0.039898
 **** Fit       0.039528
 **** Fit       0.037892
 **** Fit       0.035304
 **** Fit       0.032574
 **** Fit       0.030401
 **** Fit       0.028735
 **** Fit       0.027086
 **** Fit       0.025217
 **** Fit       0.023445
 **** Fit       0.022553
 **** Fit       0.023284
 **** Fit       0.025683
 **** Fit       0.030643
 **** Fit       0.033702
 **** Fit       0.036190
 **** Fit       0.037608
 **** Fit       0.037558
 **** Fit       0.035980
 **** Fit       0.033577
 **** Fit       0.031269
 **** Fit       0.029248
 **** Fit       0.027537
 **** Fit       0.026835
 **** Fit       0.027960
 **** Fit       0.032044
 **** Fit       0.034732
 **** Fit       0.035471
 **** Fit       0.033669
 **** Fit       0.031269
 **** Fit       0.030280
 **** Fit       0.033099
 -----------------------------------------------------------------
 Leave Link  602 at Wed Sep 18 17:58:53 2019, MaxMem=  1342177280 cpu:             111.3 elap:               2.4

 Test job not archived.
 1\1\GINC-C503-124\SP\RB3LYP\SVP\C54H83Ca1N15O23\JAEBEOMH\18-Sep-2019\0
 \\#b3lyp/svp scf=(tight,noincore) Test #IOP(5/87=12) Density=Current P
 op=(MK,readradii) iop(6/33=2) iop(6/42=6)\\holoCaM_loop3_37.0\\0,1\C,0
 ,75.25,61.28,96.07\C,0,76.66,61.84,96.07\O,0,77.52,61.01,95.81\H,0,74.
 584,61.974,95.557\H,0,75.24,60.319,95.555\H,0,74.912,61.146,97.097\N,0
 ,77.02,63.04,96.54\C,0,78.36,63.57,96.71\C,0,79.09,62.97,97.91\O,0,78.
 63,63.06,99.05\C,0,78.22,65.08,96.81\C,0,79.48,65.83,97.24\O,0,79.38,6
 6.85,97.95\O,0,80.56,65.31,96.89\H,0,76.37,63.52,97.15\H,0,78.95,63.38
 ,95.82\H,0,77.44,65.33,97.54\H,0,77.78,65.44,95.88\N,0,80.23,62.32,97.
 69\C,0,80.95,61.6,98.73\C,0,81.6,62.48,99.79\O,0,81.64,62.11,100.96\C,
 0,82.01,60.64,98.21\C,0,81.48,59.75,97.09\C,0,80.28,58.85,97.36\C,0,79
 .62,58.31,96.09\N,0,78.3,57.81,96.49\H,0,80.66,62.43,96.78\H,0,80.19,6
 1.07,99.3\H,0,82.31,60.02,99.06\H,0,82.86,61.25,97.92\H,0,82.15,58.98,
 96.71\H,0,81.19,60.28,96.18\H,0,79.57,59.39,97.99\H,0,80.72,57.98,97.8
 5\H,0,80.3,57.55,95.7\H,0,79.51,59.11,95.36\H,0,77.75,57.39,95.75\H,0,
 78.4,57.02,97.11\H,0,77.75,58.55,96.9\N,0,82.07,63.64,99.34\C,0,83.06,
 64.44,100.03\C,0,82.53,65.81,100.44\O,0,83.26,66.54,101.11\C,0,84.38,6
 4.56,99.26\C,0,84.02,64.76,97.8\O,0,84.18,65.84,97.18\O,0,83.61,63.77,
 97.16\H,0,81.82,63.89,98.39\H,0,83.3,63.87,100.92\H,0,84.82,63.58,99.4
 2\H,0,85.06,65.26,99.74\N,0,81.29,66.18,100.12\C,0,80.64,67.35,100.68\
 C,0,81.,68.63,99.93\O,0,80.6,69.75,100.24\H,0,80.65,65.6,99.59\H,0,80.
 92,67.48,101.72\H,0,79.55,67.32,100.62\N,0,81.71,68.49,98.81\C,0,82.3,
 69.58,98.06\C,0,81.44,70.28,97.02\O,0,81.75,71.31,96.41\C,0,83.56,69.0
 1,97.41\C,0,83.47,68.41,96.01\N,0,84.47,68.56,95.14\O,0,82.48,67.76,95
 .68\H,0,81.64,67.63,98.29\H,0,82.51,70.45,98.69\H,0,83.97,68.21,98.02\
 H,0,84.22,69.87,97.36\H,0,85.2,69.18,95.46\H,0,84.33,68.19,94.22\N,0,8
 0.27,69.72,96.72\C,0,79.24,70.27,95.86\C,0,79.41,69.86,94.41\O,0,78.89
 ,70.55,93.54\H,0,80.13,68.81,97.14\H,0,79.05,71.34,95.89\H,0,78.31,69.
 81,96.2\N,0,80.12,68.8,94.02\C,0,80.47,68.47,92.65\C,0,80.48,66.95,92.
 57\O,0,81.07,66.31,93.44\C,0,81.88,68.97,92.32\C,0,82.09,70.46,92.16\C
 ,0,82.64,71.27,93.15\C,0,81.58,71.04,90.99\C,0,82.88,72.65,93.02\C,0,8
 1.91,72.39,90.8\C,0,82.53,73.2,91.77\O,0,82.87,74.49,91.52\H,0,80.57,6
 8.31,94.78\H,0,79.74,68.86,91.95\H,0,82.17,68.5,91.39\H,0,82.58,68.56,
 93.05\H,0,82.98,70.9,94.11\H,0,81.11,70.41,90.26\H,0,83.33,73.17,93.85
 \H,0,81.58,72.89,89.9\H,0,82.61,74.92,90.7\N,0,80.08,66.45,91.4\C,0,80
 .01,65.05,91.04\C,0,81.05,64.82,89.95\O,0,81.12,65.57,88.98\C,0,78.58,
 64.67,90.64\C,0,77.58,64.74,91.79\C,0,78.56,63.31,89.96\C,0,77.52,63.6
 4,92.84\H,0,79.62,67.11,90.79\H,0,80.32,64.41,91.87\H,0,78.13,65.34,89
 .91\H,0,76.55,64.7,91.44\H,0,77.71,65.65,92.38\H,0,79.09,63.36,89.\H,0
 ,78.92,62.5,90.6\H,0,77.57,62.88,89.89\H,0,77.21,62.69,92.4\H,0,78.48,
 63.48,93.31\H,0,76.7,63.86,93.53\N,0,81.88,63.83,90.26\C,0,82.9,63.32,
 89.36\C,0,82.49,61.93,88.9\O,0,81.47,61.43,89.37\C,0,84.3,63.49,89.95\
 O,0,84.4,62.81,91.18\H,0,81.79,63.33,91.13\H,0,82.88,63.96,88.48\H,0,8
 4.55,64.53,90.13\H,0,85.08,63.14,89.27\H,0,83.71,63.11,91.77\N,0,83.25
 ,61.29,88.02\C,0,82.9,60.14,87.2\C,0,82.29,59.05,88.06\O,0,81.22,58.51
 ,87.79\C,0,84.09,59.66,86.38\H,0,84.17,61.62,87.74\H,0,82.15,60.47,86.
 48\H,0,84.61,60.5,85.9\H,0,84.86,59.2,87.\H,0,83.79,58.92,85.64\N,0,83
 .08,58.6,89.05\C,0,82.77,57.52,89.95\C,0,81.56,57.72,90.86\O,0,80.83,5
 6.77,91.12\C,0,83.96,57.16,90.83\H,0,83.92,59.14,89.23\H,0,82.51,56.62
 ,89.39\H,0,84.,57.94,91.59\H,0,83.64,56.18,91.18\H,0,84.92,57.16,90.3\
 N,0,81.31,58.97,91.27\C,0,80.16,59.51,91.96\C,0,78.89,59.54,91.12\O,0,
 77.84,59.37,91.72\C,0,80.55,60.87,92.55\C,0,81.9,61.02,93.24\C,0,81.97
 ,62.44,93.78\O,0,81.45,62.75,94.88\O,0,82.57,63.28,93.08\H,0,81.94,59.
 68,90.93\H,0,79.81,58.84,92.74\H,0,79.76,61.03,93.27\H,0,80.47,61.74,9
 1.9\H,0,82.73,60.87,92.54\H,0,82.13,60.23,93.96\N,0,79.,59.72,89.8\C,0
 ,77.94,59.58,88.82\H,0,77.104,60.223,89.095\H,0,78.312,59.87,87.837\H,
 0,77.605,58.543,88.791\H,0,79.85,60.1,89.42\Ca,0,82.64,65.15,95.23\O,0
 ,84.25,66.21,93.34\H,0,84.13,66.45,92.43\H,0,85.13,65.84,93.38\\Versio
 n=ES64L-G16RevA.03\State=1-A\HF=-5333.6320208\RMSD=7.383e-09\Dipole=0.
 7211346,-9.5734613,-7.0706107\Quadrupole=44.1193162,9.9562946,-54.0756
 108,29.6714592,-56.8994936,-71.7887722\PG=C01 [X(C54H83Ca1N15O23)]\\@


 ALL THINGS ARE POSSIBLE EXCEPT SKIING THROUGH A REVOLVING DOOR.
 Job cpu time:       0 days  8 hours 16 minutes 52.8 seconds.
 Elapsed time:       0 days  0 hours 10 minutes 28.1 seconds.
 File lengths (MBytes):  RWF=   1517 Int=      0 D2E=      0 Chk=    171 Scr=      1
 Normal termination of Gaussian 16 at Wed Sep 18 17:58:55 2019.
