 *******************************************************************************
 ** Site#: 28316        For non-commercial use only    Version 17.240L 64BITS **
 *******************************************************************************
 ** Cite this program as: MOPAC2016, Version: 17.240L, James J. P. Stewart,   **
 ** Stewart Computational Chemistry, web: HTTP://OpenMOPAC.net. Days left:   0**
 *******************************************************************************
 **                                                                           **
 **                                MOPAC2016                                  **
 **                                                                           **
 *******************************************************************************

                              PM7 CALCULATION RESULTS


 *******************************************************************************
 *  CALCULATION DONE:                                Tue Dec 18 23:39:21 2018  *
 *  GEO-OK     - OVERRIDE INTERATOMIC DISTANCE AND OTHER SAFETY CHECKS
 *  START_RES  - STARTING RESIDUE NUMBERS DEFINED
 *  Keyword:   START_RES=(1X 149X) 
 *  CHAINS     - PDB CHAIN LETTERS EXPLICITLY DEFINED
 *  Keyword:   CHAINS=(XX) 
 *  MOZYME     - USE LOCALIZED M.O.s IN SOLVING THE SCF EQUATIONS
 *  RESIDUES   - DETERMINE THE SEQUENCE OF RESIDUES
 *  EPS= 78.40 - USE ANDREAS KLAMT'S COSMO IMPLICIT SOLVATION MODEL
 *  1SCF       - DO 1 SCF AND THEN STOP 
 *  T=         - A TIME OF 172800.0 SECONDS REQUESTED
 *  DUMP=N     - RESTART FILE WRITTEN EVERY  7200.000 SECONDS
 *******************************************************************************
 START_RES=(1X 149X)  CHAINS=(XX) mozyme geo-ok residues 1scf eps=78.4


   ATOM   CHEMICAL          X               Y               Z
  NUMBER   SYMBOL      (ANGSTROMS)     (ANGSTROMS)     (ANGSTROMS)
 
     1       N         51.25000000  *  41.98000000  *  46.28000000  *
     2       H         50.44000000  *  42.44000000  *  45.86000000  *
     3       H         52.01000000  *  42.65000000  *  46.32000000  *
     4       H         51.52000000  *  41.20000000  *  45.71000000  *
     5       C         50.93000000  *  41.54000000  *  47.65000000  *
     6       H         50.02000000  *  40.94000000  *  47.62000000  *
     7       C         52.06000000  *  40.68000000  *  48.25000000  *
     8       H         51.79000000  *  40.35000000  *  49.25000000  *
     9       H         52.25000000  *  39.80000000  *  47.63000000  *
    10       H         52.98000000  *  41.27000000  *  48.32000000  *
    11       C         50.68000000  *  42.74000000  *  48.56000000  *
    12       O         51.54000000  *  43.61000000  *  48.62000000  *
    13       N         49.59000000  *  42.73000000  *  49.33000000  *
    14       H         48.90000000  *  42.01000000  *  49.19000000  *
    15       C         49.23000000  *  43.74000000  *  50.35000000  *
    16       H         49.50000000  *  44.73000000  *  49.98000000  *
    17       C         47.69000000  *  43.71000000  *  50.52000000  *
    18       H         47.42000000  *  42.73000000  *  50.92000000  *
    19       H         47.23000000  *  43.80000000  *  49.54000000  *
    20       C         47.11000000  *  44.79000000  *  51.44000000  *
    21       O         47.81000000  *  45.79000000  *  51.73000000  *
    22       O         45.96000000  *  44.58000000  *  51.91000000  *
    23       C         49.99000000  *  43.49000000  *  51.68000000  *
    24       O         49.41000000  *  43.34000000  *  52.76000000  *
    25       N         51.31000000  *  43.30000000  *  51.60000000  *
    26       H         51.75000000  *  43.47000000  *  50.70000000  *
    27       C         52.16000000  *  43.13000000  *  52.78000000  *
    28       H         51.55000000  *  42.84000000  *  53.63000000  *
    29       C         53.21000000  *  42.04000000  *  52.57000000  *
    30       H         53.93000000  *  42.09000000  *  53.39000000  *
    31       H         53.75000000  *  42.22000000  *  51.64000000  *
    32       C         52.60000000  *  40.63000000  *  52.56000000  *
    33       H         51.78000000  *  40.60000000  *  51.85000000  *
    34       H         52.22000000  *  40.39000000  *  53.55000000  *
    35       C         53.62000000  *  39.56000000  *  52.16000000  *
    36       O         53.39000000  *  38.76000000  *  51.28000000  *
    37       N         54.77000000  *  39.49000000  *  52.79000000  *
    38       H         55.02000000  *  40.19000000  *  53.47000000  *
    39       H         55.43000000  *  38.84000000  *  52.41000000  *
    40       C         52.82000000  *  44.46000000  *  53.12000000  *
    41       O         53.49000000  *  45.06000000  *  52.28000000  *
    42       N         52.69000000  *  44.88000000  *  54.38000000  *
    43       H         52.10000000  *  44.35000000  *  55.00000000  *
    44       C         53.33000000  *  46.09000000  *  54.90000000  *
    45       H         52.93000000  *  46.95000000  *  54.37000000  *
    46       C         53.03000000  *  46.23000000  *  56.40000000  *
    47       H         53.60000000  *  47.08000000  *  56.78000000  *
    48       H         53.40000000  *  45.33000000  *  56.91000000  *
    49       C         51.55000000  *  46.43000000  *  56.76000000  *
    50       H         50.95000000  *  45.63000000  *  56.35000000  *
    51       C         51.40000000  *  46.40000000  *  58.29000000  *
    52       H         50.36000000  *  46.59000000  *  58.56000000  *
    53       H         51.70000000  *  45.42000000  *  58.66000000  *
    54       H         52.04000000  *  47.17000000  *  58.73000000  *
    55       C         51.05000000  *  47.77000000  *  56.24000000  *
    56       H         50.05000000  *  47.99000000  *  56.64000000  *
    57       H         51.75000000  *  48.56000000  *  56.52000000  *
    58       H         50.98000000  *  47.74000000  *  55.16000000  *
    59       C         54.85000000  *  46.04000000  *  54.66000000  *
    60       O         55.53000000  *  45.15000000  *  55.18000000  *
    61       N         55.37000000  *  47.00000000  *  53.90000000  *
    62       H         54.75000000  *  47.70000000  *  53.51000000  *
    63       C         56.81000000  *  47.10000000  *  53.63000000  *
    64       H         57.16000000  *  46.12000000  *  53.32000000  *
    65       C         57.14000000  *  48.09000000  *  52.50000000  *
    66       H         58.22000000  *  48.10000000  *  52.35000000  *
    67       C         56.49000000  *  47.72000000  *  51.17000000  *
    68       H         56.76000000  *  48.44000000  *  50.41000000  *
    69       H         56.84000000  *  46.73000000  *  50.86000000  *
    70       H         55.40000000  *  47.69000000  *  51.27000000  *
    71       O         56.74000000  *  49.40000000  *  52.83000000  *
    72       H         56.66000000  *  49.88000000  *  52.00000000  *
    73       C         57.58000000  *  47.48000000  *  54.90000000  *
    74       O         57.02000000  *  48.07000000  *  55.83000000  *
    75       N         58.88000000  *  47.17000000  *  54.95000000  *
    76       H         59.30000000  *  46.64000000  *  54.21000000  *
    77       C         59.71000000  *  47.54000000  *  56.11000000  *
    78       H         59.29000000  *  47.07000000  *  57.00000000  *
    79       C         61.15000000  *  47.02000000  *  55.94000000  *
    80       H         61.70000000  *  47.31000000  *  56.84000000  *
    81       H         61.61000000  *  47.50000000  *  55.08000000  *
    82       C         61.23000000  *  45.49000000  *  55.78000000  *
    83       H         60.87000000  *  45.23000000  *  54.78000000  *
    84       H         60.55000000  *  45.03000000  *  56.51000000  *
    85       C         62.63000000  *  44.90000000  *  56.00000000  *
    86       O         63.61000000  *  45.68000000  *  56.09000000  *
    87       O         62.72000000  *  43.65000000  *  56.11000000  *
    88       C         59.70000000  *  49.06000000  *  56.36000000  *
    89       O         59.71000000  *  49.49000000  *  57.51000000  *
    90       N         59.59000000  *  49.87000000  *  55.30000000  *
    91       H         59.57000000  *  49.45000000  *  54.38000000  *
    92       C         59.45000000  *  51.33000000  *  55.39000000  *
    93       H         60.22000000  *  51.70000000  *  56.06000000  *
    94       C         59.66000000  *  52.01000000  *  54.02000000  *
    95       H         59.58000000  *  53.08000000  *  54.16000000  *
    96       H         58.88000000  *  51.69000000  *  53.33000000  *
    97       C         61.04000000  *  51.70000000  *  53.40000000  *
    98       H         61.01000000  *  50.69000000  *  52.98000000  *
    99       H         61.79000000  *  51.70000000  *  54.20000000  *
   100       C         61.46000000  *  52.71000000  *  52.31000000  *
   101       O         60.95000000  *  52.61000000  *  51.17000000  *
   102       O         62.31000000  *  53.58000000  *  52.61000000  *
   103       C         58.10000000  *  51.74000000  *  56.00000000  *
   104       O         58.09000000  *  52.52000000  *  56.95000000  *
   105       N         56.97000000  *  51.17000000  *  55.56000000  *
   106       H         57.02000000  *  50.50000000  *  54.80000000  *
   107       C         55.65000000  *  51.45000000  *  56.15000000  *
   108       H         55.45000000  *  52.52000000  *  56.11000000  *
   109       C         54.56000000  *  50.71000000  *  55.36000000  *
   110       H         53.62000000  *  50.76000000  *  55.90000000  *
   111       H         54.85000000  *  49.66000000  *  55.28000000  *
   112       C         54.33000000  *  51.29000000  *  53.95000000  *
   113       H         55.28000000  *  51.52000000  *  53.47000000  *
   114       H         53.77000000  *  52.22000000  *  54.04000000  *
   115       C         53.56000000  *  50.33000000  *  53.04000000  *
   116       O         53.36000000  *  49.16000000  *  53.33000000  *
   117       N         53.09000000  *  50.78000000  *  51.89000000  *
   118       H         53.21000000  *  51.74000000  *  51.62000000  *
   119       H         52.58000000  *  50.12000000  *  51.33000000  *
   120       C         55.58000000  *  51.03000000  *  57.63000000  *
   121       O         55.08000000  *  51.77000000  *  58.47000000  *
   122       N         56.14000000  *  49.86000000  *  57.98000000  *
   123       H         56.55000000  *  49.29000000  *  57.24000000  *
   124       C         56.24000000  *  49.41000000  *  59.38000000  *
   125       H         55.24000000  *  49.44000000  *  59.81000000  *
   126       C         56.76000000  *  47.96000000  *  59.46000000  *
   127       H         57.70000000  *  47.89000000  *  58.91000000  *
   128       C         57.04000000  *  47.55000000  *  60.93000000  *
   129       H         57.42000000  *  46.53000000  *  60.97000000  *
   130       H         57.80000000  *  48.19000000  *  61.36000000  *
   131       H         56.12000000  *  47.63000000  *  61.51000000  *
   132       C         55.74000000  *  46.99000000  *  58.82000000  *
   133       H         55.62000000  *  47.26000000  *  57.77000000  *
   134       H         54.77000000  *  47.12000000  *  59.31000000  *
   135       C         56.12000000  *  45.51000000  *  58.87000000  *
   136       H         55.45000000  *  44.94000000  *  58.23000000  *
   137       H         57.14000000  *  45.37000000  *  58.51000000  *
   138       H         56.03000000  *  45.12000000  *  59.89000000  *
   139       C         57.10000000  *  50.38000000  *  60.21000000  *
   140       O         56.76000000  *  50.66000000  *  61.36000000  *
   141       N         58.20000000  *  50.91000000  *  59.65000000  *
   142       H         58.45000000  *  50.64000000  *  58.70000000  *
   143       C         59.02000000  *  51.91000000  *  60.32000000  *
   144       H         59.26000000  *  51.54000000  *  61.31000000  *
   145       C         60.34000000  *  52.08000000  *  59.55000000  *
   146       H         60.98000000  *  52.78000000  *  60.08000000  *
   147       H         60.85000000  *  51.11000000  *  59.47000000  *
   148       H         60.15000000  *  52.46000000  *  58.55000000  *
   149       C         58.27000000  *  53.24000000  *  60.49000000  *
   150       O         58.21000000  *  53.75000000  *  61.61000000  *
   151       N         57.63000000  *  53.76000000  *  59.44000000  *
   152       H         57.72000000  *  53.30000000  *  58.54000000  *
   153       C         56.86000000  *  55.01000000  *  59.48000000  *
   154       H         57.53000000  *  55.83000000  *  59.72000000  *
   155       C         56.24000000  *  55.27000000  *  58.09000000  *
   156       H         55.27000000  *  54.77000000  *  58.01000000  *
   157       H         56.89000000  *  54.86000000  *  57.31000000  *
   158       C         56.07000000  *  56.77000000  *  57.83000000  *
   159       H         57.06000000  *  57.22000000  *  57.73000000  *
   160       H         55.58000000  *  57.23000000  *  58.69000000  *
   161       C         55.25000000  *  57.04000000  *  56.56000000  *
   162       O         55.73000000  *  56.68000000  *  55.47000000  *
   163       O         54.14000000  *  57.61000000  *  56.71000000  *
   164       C         55.76000000  *  54.96000000  *  60.55000000  *
   165       O         55.65000000  *  55.85000000  *  61.40000000  *
   166       N         55.02000000  *  53.85000000  *  60.61000000  *
   167       H         55.13000000  *  53.16000000  *  59.86000000  *
   168       C         54.00000000  *  53.62000000  *  61.63000000  *
   169       H         53.35000000  *  54.49000000  *  61.66000000  *
   170       C         53.15000000  *  52.40000000  *  61.25000000  *
   171       H         52.39000000  *  52.26000000  *  62.01000000  *
   172       H         53.80000000  *  51.52000000  *  61.28000000  *
   173       C         52.45000000  *  52.42000000  *  59.89000000  *
   174       C         52.29000000  *  53.61000000  *  59.14000000  *
   175       H         52.65000000  *  54.56000000  *  59.51000000  *
   176       C         51.71000000  *  53.58000000  *  57.87000000  *
   177       H         51.63000000  *  54.48000000  *  57.28000000  *
   178       C         51.25000000  *  52.36000000  *  57.34000000  *
   179       H         50.81000000  *  52.33000000  *  56.35000000  *
   180       C         51.39000000  *  51.18000000  *  58.08000000  *
   181       H         51.04000000  *  50.25000000  *  57.67000000  *
   182       C         52.00000000  *  51.21000000  *  59.35000000  *
   183       H         52.13000000  *  50.29000000  *  59.89000000  *
   184       C         54.62000000  *  53.47000000  *  63.02000000  *
   185       O         54.02000000  *  53.91000000  *  64.00000000  *
   186       N         55.81000000  *  52.87000000  *  63.16000000  *
   187       H         56.27000000  *  52.53000000  *  62.32000000  *
   188       C         56.53000000  *  52.76000000  *  64.45000000  *
   189       H         55.83000000  *  52.40000000  *  65.20000000  *
   190       C         57.65000000  *  51.72000000  *  64.30000000  *
   191       H         58.29000000  *  51.97000000  *  63.46000000  *
   192       H         57.20000000  *  50.75000000  *  64.09000000  *
   193       C         58.54000000  *  51.61000000  *  65.55000000  *
   194       H         57.98000000  *  51.89000000  *  66.45000000  *
   195       H         59.38000000  *  52.30000000  *  65.44000000  *
   196       C         59.09000000  *  50.19000000  *  65.75000000  *
   197       H         60.01000000  *  50.24000000  *  66.34000000  *
   198       H         59.31000000  *  49.74000000  *  64.78000000  *
   199       C         58.04000000  *  49.37000000  *  66.51000000  *
   200       H         57.09000000  *  49.43000000  *  65.96000000  *
   201       H         57.88000000  *  49.83000000  *  67.49000000  *
   202       N         58.46000000  *  47.96000000  *  66.67000000  *
   203       H         57.78000000  *  47.45000000  *  67.22000000  *
   204       H         58.53000000  *  47.52000000  *  65.76000000  *
   205       H         59.36000000  *  47.91000000  *  67.12000000  *
   206       C         57.03000000  *  54.11000000  *  64.96000000  *
   207       O         57.02000000  *  54.34000000  *  66.17000000  *
   208       N         57.43000000  *  55.02000000  *  64.08000000  *
   209       H         57.49000000  *  54.74000000  *  63.10000000  *
   210       C         57.84000000  *  56.38000000  *  64.44000000  *
   211       H         58.52000000  *  56.34000000  *  65.29000000  *
   212       C         58.60000000  *  57.05000000  *  63.28000000  *
   213       H         58.93000000  *  58.03000000  *  63.62000000  *
   214       H         57.90000000  *  57.21000000  *  62.45000000  *
   215       C         59.81000000  *  56.24000000  *  62.75000000  *
   216       H         59.71000000  *  56.15000000  *  61.66000000  *
   217       H         59.79000000  *  55.23000000  *  63.15000000  *
   218       C         61.16000000  *  56.88000000  *  63.09000000  *
   219       O         61.39000000  *  58.05000000  *  62.69000000  *
   220       O         61.96000000  *  56.21000000  *  63.78000000  *
   221       C         56.60000000  *  57.20000000  *  64.86000000  *
   222       O         56.56000000  *  57.74000000  *  65.97000000  *
   223       N         55.54000000  *  57.16000000  *  64.05000000  *
   224       H         55.64000000  *  56.69000000  *  63.15000000  *
   225       C         54.23000000  *  57.76000000  *  64.35000000  *
   226       H         54.34000000  *  58.84000000  *  64.42000000  *
   227       C         53.29000000  *  57.44000000  *  63.19000000  *
   228       H         52.28000000  *  57.78000000  *  63.43000000  *
   229       H         53.65000000  *  57.96000000  *  62.30000000  *
   230       H         53.27000000  *  56.37000000  *  63.00000000  *
   231       C         53.64000000  *  57.26000000  *  65.68000000  *
   232       O         53.02000000  *  58.03000000  *  66.42000000  *
   233       N         53.83000000  *  55.98000000  *  66.00000000  *
   234       H         54.25000000  *  55.38000000  *  65.30000000  *
   235       C         53.36000000  *  55.37000000  *  67.24000000  *
   236       H         52.35000000  *  55.72000000  *  67.45000000  *
   237       C         53.29000000  *  53.86000000  *  66.99000000  *
   238       H         54.30000000  *  53.46000000  *  66.82000000  *
   239       H         52.72000000  *  53.68000000  *  66.08000000  *
   240       C         52.63000000  *  53.07000000  *  68.08000000  *
   241       C         51.27000000  *  52.74000000  *  67.97000000  *
   242       H         50.70000000  *  53.05000000  *  67.10000000  *
   243       C         50.64000000  *  52.01000000  *  68.98000000  *
   244       H         49.59000000  *  51.75000000  *  68.91000000  *
   245       C         51.37000000  *  51.62000000  *  70.11000000  *
   246       H         50.87000000  *  51.07000000  *  70.89000000  *
   247       C         52.73000000  *  51.95000000  *  70.23000000  *
   248       H         53.29000000  *  51.66000000  *  71.09000000  *
   249       C         53.36000000  *  52.67000000  *  69.21000000  *
   250       H         54.41000000  *  52.92000000  *  69.29000000  *
   251       C         54.24000000  *  55.72000000  *  68.45000000  *
   252       O         53.73000000  *  56.11000000  *  69.50000000  *
   253       N         55.57000000  *  55.63000000  *  68.32000000  *
   254       H         55.96000000  *  55.36000000  *  67.42000000  *
   255       C         56.51000000  *  55.90000000  *  69.43000000  *
   256       H         56.16000000  *  55.32000000  *  70.29000000  *
   257       C         57.92000000  *  55.40000000  *  69.11000000  *
   258       H         57.89000000  *  54.33000000  *  68.86000000  *
   259       H         58.54000000  *  55.52000000  *  70.00000000  *
   260       O         58.50000000  *  56.10000000  *  68.05000000  *
   261       H         58.18000000  *  55.73000000  *  67.21000000  *
   262       C         56.53000000  *  57.36000000  *  69.88000000  *
   263       O         56.79000000  *  57.62000000  *  71.05000000  *
   264       N         56.13000000  *  58.31000000  *  69.01000000  *
   265       H         56.01000000  *  58.03000000  *  68.04000000  *
   266       C         55.84000000  *  59.71000000  *  69.36000000  *
   267       H         56.78000000  *  60.20000000  *  69.59000000  *
   268       C         55.17000000  *  60.39000000  *  68.15000000  *
   269       H         54.47000000  *  61.15000000  *  68.50000000  *
   270       H         54.58000000  *  59.64000000  *  67.61000000  *
   271       C         56.14000000  *  61.05000000  *  67.16000000  *
   272       H         56.94000000  *  60.37000000  *  66.91000000  *
   273       C         55.40000000  *  61.46000000  *  65.88000000  *
   274       H         56.09000000  *  61.94000000  *  65.19000000  *
   275       H         55.00000000  *  60.57000000  *  65.40000000  *
   276       H         54.58000000  *  62.14000000  *  66.11000000  *
   277       C         56.72000000  *  62.34000000  *  67.76000000  *
   278       H         57.40000000  *  62.79000000  *  67.03000000  *
   279       H         55.92000000  *  63.03000000  *  68.00000000  *
   280       H         57.29000000  *  62.11000000  *  68.66000000  *
   281       C         54.94000000  *  59.87000000  *  70.62000000  *
   282       O         55.06000000  *  60.87000000  *  71.33000000  *
   283       N         54.08000000  *  58.88000000  *  70.90000000  *
   284       H         54.05000000  *  58.09000000  *  70.26000000  *
   285       C         53.11000000  *  58.90000000  *  71.99000000  *
   286       H         53.21000000  *  59.83000000  *  72.53000000  *
   287       C         51.69000000  *  58.90000000  *  71.40000000  *
   288       H         50.97000000  *  59.04000000  *  72.21000000  *
   289       H         51.49000000  *  57.92000000  *  70.95000000  *
   290       C         51.47000000  *  59.97000000  *  70.34000000  *
   291       C         51.86000000  *  59.72000000  *  69.01000000  *
   292       H         52.30000000  *  58.76000000  *  68.76000000  *
   293       C         51.70000000  *  60.69000000  *  68.01000000  *
   294       H         52.00000000  *  60.47000000  *  67.00000000  *
   295       C         51.19000000  *  61.95000000  *  68.35000000  *
   296       H         51.10000000  *  62.71000000  *  67.59000000  *
   297       C         50.82000000  *  62.22000000  *  69.68000000  *
   298       H         50.45000000  *  63.20000000  *  69.95000000  *
   299       C         50.94000000  *  61.23000000  *  70.67000000  *
   300       H         50.65000000  *  61.43000000  *  71.70000000  *
   301       C         53.35000000  *  57.79000000  *  73.03000000  *
   302       O         52.61000000  *  57.70000000  *  74.02000000  *
   303       N         54.41000000  *  56.98000000  *  72.92000000  *
   304       H         55.05000000  *  57.11000000  *  72.15000000  *
   305       C         54.76000000  *  56.00000000  *  73.97000000  *
   306       H         53.82000000  *  55.62000000  *  74.36000000  *
   307       C         55.50000000  *  54.78000000  *  73.42000000  *
   308       H         56.45000000  *  55.09000000  *  72.99000000  *
   309       H         54.90000000  *  54.31000000  *  72.63000000  *
   310       C         55.73000000  *  53.75000000  *  74.54000000  *
   311       O         56.75000000  *  53.04000000  *  74.48000000  *
   312       O         54.89000000  *  53.59000000  *  75.48000000  *
   313       C         55.50000000  *  56.64000000  *  75.15000000  *
   314       O         56.65000000  *  56.34000000  *  75.46000000  *
   315       N         54.81000000  *  57.53000000  *  75.87000000  *
   316       H         53.87000000  *  57.75000000  *  75.54000000  *
   317       C         55.36000000  *  58.27000000  *  77.02000000  *
   318       H         56.32000000  *  58.68000000  *  76.72000000  *
   319       C         54.39000000  *  59.40000000  *  77.38000000  *
   320       H         54.74000000  *  59.91000000  *  78.28000000  *
   321       H         53.41000000  *  58.97000000  *  77.60000000  *
   322       C         54.22000000  *  60.44000000  *  76.25000000  *
   323       H         53.42000000  *  61.12000000  *  76.54000000  *
   324       H         53.93000000  *  59.95000000  *  75.33000000  *
   325       C         55.50000000  *  61.25000000  *  76.02000000  *
   326       H         56.33000000  *  60.60000000  *  75.76000000  *
   327       H         55.74000000  *  61.79000000  *  76.94000000  *
   328       C         55.26000000  *  62.23000000  *  74.87000000  *
   329       H         54.24000000  *  62.61000000  *  74.94000000  *
   330       H         55.36000000  *  61.69000000  *  73.92000000  *
   331       N         56.23000000  *  63.36000000  *  74.93000000  *
   332       H         56.07000000  *  63.98000000  *  74.15000000  *
   333       H         56.12000000  *  63.86000000  *  75.80000000  *
   334       H         57.17000000  *  63.00000000  *  74.87000000  *
   335       C         55.70000000  *  57.41000000  *  78.24000000  *
   336       O         56.27000000  *  57.93000000  *  79.19000000  *
   337       N         55.40000000  *  56.11000000  *  78.19000000  *
   338       H         55.02000000  *  55.78000000  *  77.32000000  *
   339       C         55.68000000  *  55.14000000  *  79.26000000  *
   340       H         55.93000000  *  55.70000000  *  80.16000000  *
   341       C         54.42000000  *  54.33000000  *  79.60000000  *
   342       H         54.50000000  *  53.93000000  *  80.61000000  *
   343       H         54.38000000  *  53.47000000  *  78.92000000  *
   344       C         53.10000000  *  55.10000000  *  79.47000000  *
   345       O         52.86000000  *  56.06000000  *  80.22000000  *
   346       O         52.36000000  *  54.69000000  *  78.54000000  *
   347       C         56.87000000  *  54.20000000  *  78.97000000  *
   348       O         57.23000000  *  53.42000000  *  79.84000000  *
   349       N         57.45000000  *  54.23000000  *  77.76000000  *
   350       H         57.13000000  *  54.91000000  *  77.07000000  *
   351       C         58.56000000  *  53.34000000  *  77.36000000  *
   352       H         59.37000000  *  53.44000000  *  78.10000000  *
   353       H         58.93000000  *  53.67000000  *  76.39000000  *
   354       C         58.20000000  *  51.85000000  *  77.25000000  *
   355       O         59.05000000  *  50.99000000  *  77.42000000  *
   356       N         56.92000000  *  51.57000000  *  77.01000000  *
   357       H         56.37000000  *  52.36000000  *  76.72000000  *
   358       C         56.26000000  *  50.26000000  *  77.11000000  *
   359       H         56.90000000  *  49.55000000  *  77.62000000  *
   360       C         55.03000000  *  50.54000000  *  78.00000000  *
   361       H         54.48000000  *  51.33000000  *  77.50000000  *
   362       H         55.36000000  *  50.94000000  *  78.96000000  *
   363       C         54.07000000  *  49.39000000  *  78.26000000  *
   364       O         54.48000000  *  48.36000000  *  78.82000000  *
   365       O         52.88000000  *  49.68000000  *  77.95000000  *
   366       C         55.88000000  *  49.67000000  *  75.73000000  *
   367       O         55.32000000  *  48.59000000  *  75.63000000  *
   368       N         56.14000000  *  50.40000000  *  74.64000000  *
   369       H         56.64000000  *  51.28000000  *  74.76000000  *
   370       C         55.74000000  *  50.04000000  *  73.28000000  *
   371       H         56.07000000  *  49.03000000  *  73.05000000  *
   372       H         56.23000000  *  50.73000000  *  72.59000000  *
   373       C         54.22000000  *  50.13000000  *  73.03000000  *
   374       O         53.69000000  *  49.42000000  *  72.17000000  *
   375       N         53.52000000  *  51.01000000  *  73.76000000  *
   376       H         54.06000000  *  51.63000000  *  74.34000000  *
   377       C         52.04000000  *  51.14000000  *  73.72000000  *
   378       H         51.68000000  *  50.74000000  *  72.78000000  *
   379       C         51.35000000  *  50.31000000  *  74.83000000  *
   380       H         50.28000000  *  50.32000000  *  74.67000000  *
   381       C         51.81000000  *  48.86000000  *  74.92000000  *
   382       H         51.11000000  *  48.29000000  *  75.52000000  *
   383       H         51.86000000  *  48.43000000  *  73.92000000  *
   384       H         52.80000000  *  48.79000000  *  75.37000000  *
   385       O         51.62000000  *  50.88000000  *  76.09000000  *
   386       H         51.89000000  *  50.12000000  *  76.69000000  *
   387       C         51.55000000  *  52.60000000  *  73.80000000  *
   388       O         52.25000000  *  53.44000000  *  74.37000000  *
   389       N         50.32000000  *  52.90000000  *  73.38000000  *
   390       H         49.76000000  *  52.15000000  *  72.99000000  *
   391       C         49.67000000  *  54.23000000  *  73.44000000  *
   392       H         50.28000000  *  54.91000000  *  74.05000000  *
   393       C         49.57000000  *  54.87000000  *  72.03000000  *
   394       H         49.11000000  *  55.86000000  *  72.14000000  *
   395       C         50.97000000  *  55.08000000  *  71.44000000  *
   396       H         50.91000000  *  55.66000000  *  70.52000000  *
   397       H         51.59000000  *  55.63000000  *  72.14000000  *
   398       H         51.45000000  *  54.13000000  *  71.22000000  *
   399       C         48.64000000  *  54.02000000  *  71.13000000  *
   400       H         47.66000000  *  53.95000000  *  71.58000000  *
   401       H         49.04000000  *  53.01000000  *  71.05000000  *
   402       C         48.44000000  *  54.55000000  *  69.71000000  *
   403       H         47.72000000  *  53.92000000  *  69.18000000  *
   404       H         48.05000000  *  55.57000000  *  69.76000000  *
   405       H         49.38000000  *  54.53000000  *  69.17000000  *
   406       C         48.29000000  *  54.16000000  *  74.11000000  *
   407       O         47.71000000  *  53.07000000  *  74.24000000  *
   408       N         47.72000000  *  55.30000000  *  74.51000000  *
   409       H         48.23000000  *  56.18000000  *  74.40000000  *
   410       C         46.33000000  *  55.37000000  *  74.98000000  *
   411       H         46.07000000  *  54.43000000  *  75.46000000  *
   412       C         46.13000000  *  56.46000000  *  76.05000000  *
   413       H         45.16000000  *  56.29000000  *  76.52000000  *
   414       C         47.19000000  *  56.47000000  *  77.15000000  *
   415       H         46.91000000  *  57.18000000  *  77.93000000  *
   416       H         47.28000000  *  55.47000000  *  77.60000000  *
   417       H         48.16000000  *  56.76000000  *  76.75000000  *
   418       O         46.11000000  *  57.74000000  *  75.48000000  *
   419       H         47.04000000  *  57.92000000  *  75.20000000  *
   420       C         45.35000000  *  55.57000000  *  73.82000000  *
   421       O         45.70000000  *  56.17000000  *  72.79000000  *
   422       N         44.09000000  *  55.15000000  *  73.96000000  *
   423       H         43.81000000  *  54.64000000  *  74.79000000  *
   424       C         43.04000000  *  55.43000000  *  72.95000000  *
   425       H         43.35000000  *  55.00000000  *  72.00000000  *
   426       C         41.69000000  *  54.81000000  *  73.34000000  *
   427       H         40.90000000  *  55.22000000  *  72.71000000  *
   428       C         41.71000000  *  53.29000000  *  73.16000000  *
   429       H         40.79000000  *  52.86000000  *  73.57000000  *
   430       H         41.76000000  *  53.05000000  *  72.10000000  *
   431       H         42.57000000  *  52.85000000  *  73.65000000  *
   432       O         41.40000000  *  55.11000000  *  74.69000000  *
   433       H         40.69000000  *  54.52000000  *  74.96000000  *
   434       C         42.81000000  *  56.93000000  *  72.71000000  *
   435       O         42.44000000  *  57.32000000  *  71.61000000  *
   436       N         43.11000000  *  57.78000000  *  73.70000000  *
   437       H         43.46000000  *  57.39000000  *  74.56000000  *
   438       C         43.04000000  *  59.25000000  *  73.57000000  *
   439       H         42.07000000  *  59.52000000  *  73.14000000  *
   440       C         43.19000000  *  59.92000000  *  74.94000000  *
   441       H         43.08000000  *  61.00000000  *  74.80000000  *
   442       H         44.18000000  *  59.72000000  *  75.34000000  *
   443       C         42.12000000  *  59.44000000  *  75.93000000  *
   444       H         42.34000000  *  58.41000000  *  76.23000000  *
   445       H         41.14000000  *  59.48000000  *  75.45000000  *
   446       C         42.11000000  *  60.33000000  *  77.18000000  *
   447       H         41.92000000  *  61.36000000  *  76.87000000  *
   448       H         43.07000000  *  60.27000000  *  77.68000000  *
   449       C         40.99000000  *  59.85000000  *  78.10000000  *
   450       H         41.28000000  *  58.88000000  *  78.54000000  *
   451       H         40.09000000  *  59.68000000  *  77.50000000  *
   452       N         40.71000000  *  60.84000000  *  79.17000000  *
   453       H         39.97000000  *  60.50000000  *  79.77000000  *
   454       H         41.54000000  *  60.99000000  *  79.72000000  *
   455       H         40.42000000  *  61.71000000  *  78.75000000  *
   456       C         44.09000000  *  59.82000000  *  72.61000000  *
   457       O         43.92000000  *  60.92000000  *  72.10000000  *
   458       N         45.17000000  *  59.08000000  *  72.37000000  *
   459       H         45.27000000  *  58.20000000  *  72.87000000  *
   460       C         46.25000000  *  59.45000000  *  71.46000000  *
   461       H         46.20000000  *  60.53000000  *  71.27000000  *
   462       C         47.60000000  *  59.17000000  *  72.11000000  *
   463       H         48.40000000  *  59.42000000  *  71.41000000  *
   464       H         47.66000000  *  58.10000000  *  72.32000000  *
   465       C         47.82000000  *  59.98000000  *  73.40000000  *
   466       H         46.89000000  *  60.06000000  *  73.96000000  *
   467       H         48.14000000  *  60.99000000  *  73.14000000  *
   468       C         48.84000000  *  59.30000000  *  74.32000000  *
   469       O         48.58000000  *  58.13000000  *  74.68000000  *
   470       O         49.82000000  *  59.99000000  *  74.70000000  *
   471       C         46.13000000  *  58.76000000  *  70.10000000  *
   472       O         46.76000000  *  59.23000000  *  69.16000000  *
   473       N         45.30000000  *  57.71000000  *  69.95000000  *
   474       H         44.82000000  *  57.37000000  *  70.77000000  *
   475       C         45.12000000  *  56.99000000  *  68.68000000  *
   476       H         46.05000000  *  56.49000000  *  68.43000000  *
   477       C         44.00000000  *  55.94000000  *  68.80000000  *
   478       H         43.11000000  *  56.42000000  *  69.23000000  *
   479       H         44.32000000  *  55.16000000  *  69.48000000  *
   480       C         43.58000000  *  55.32000000  *  67.44000000  *
   481       H         43.24000000  *  56.10000000  *  66.77000000  *
   482       C         44.74000000  *  54.59000000  *  66.76000000  *
   483       H         44.40000000  *  54.16000000  *  65.81000000  *
   484       H         45.54000000  *  55.29000000  *  66.54000000  *
   485       H         45.13000000  *  53.80000000  *  67.39000000  *
   486       C         42.40000000  *  54.38000000  *  67.61000000  *
   487       H         42.10000000  *  53.99000000  *  66.63000000  *
   488       H         42.66000000  *  53.55000000  *  68.26000000  *
   489       H         41.55000000  *  54.92000000  *  68.03000000  *
   490       C         44.79000000  *  57.95000000  *  67.52000000  *
   491       O         45.42000000  *  57.88000000  *  66.47000000  *
   492       N         43.81000000  *  58.84000000  *  67.73000000  *
   493       H         43.32000000  *  58.81000000  *  68.62000000  *
   494       C         43.48000000  *  59.86000000  *  66.75000000  *
   495       H         42.71000000  *  60.53000000  *  67.15000000  *
   496       H         43.10000000  *  59.39000000  *  65.84000000  *
   497       C         44.72000000  *  60.68000000  *  66.41000000  *
   498       O         45.06000000  *  60.82000000  *  65.24000000  *
   499       N         45.47000000  *  61.14000000  *  67.40000000  *
   500       H         45.20000000  *  60.95000000  *  68.36000000  *
   501       C         46.72000000  *  61.90000000  *  67.21000000  *
   502       H         46.48000000  *  62.76000000  *  66.59000000  *
   503       C         47.25000000  *  62.42000000  *  68.56000000  *
   504       H         47.88000000  *  61.66000000  *  69.03000000  *
   505       C         48.05000000  *  63.71000000  *  68.37000000  *
   506       H         48.41000000  *  64.07000000  *  69.33000000  *
   507       H         48.89000000  *  63.53000000  *  67.71000000  *
   508       H         47.41000000  *  64.48000000  *  67.92000000  *
   509       O         46.20000000  *  62.77000000  *  69.43000000  *
   510       H         46.53000000  *  62.70000000  *  70.33000000  *
   511       C         47.81000000  *  61.12000000  *  66.47000000  *
   512       O         48.51000000  *  61.73000000  *  65.66000000  *
   513       N         47.93000000  *  59.80000000  *  66.65000000  *
   514       H         47.35000000  *  59.37000000  *  67.37000000  *
   515       C         48.85000000  *  58.92000000  *  65.89000000  *
   516       H         49.85000000  *  59.35000000  *  65.91000000  *
   517       C         48.93000000  *  57.50000000  *  66.50000000  *
   518       H         47.93000000  *  57.06000000  *  66.56000000  *
   519       C         49.82000000  *  56.57000000  *  65.67000000  *
   520       H         49.90000000  *  55.59000000  *  66.15000000  *
   521       H         49.41000000  *  56.43000000  *  64.67000000  *
   522       H         50.82000000  *  56.99000000  *  65.57000000  *
   523       C         49.55000000  *  57.54000000  *  67.89000000  *
   524       H         49.60000000  *  56.53000000  *  68.30000000  *
   525       H         50.56000000  *  57.91000000  *  67.81000000  *
   526       H         48.97000000  *  58.16000000  *  68.57000000  *
   527       C         48.42000000  *  58.83000000  *  64.43000000  *
   528       O         49.21000000  *  59.15000000  *  63.54000000  *
   529       N         47.15000000  *  58.47000000  *  64.17000000  *
   530       H         46.56000000  *  58.25000000  *  64.96000000  *
   531       C         46.57000000  *  58.42000000  *  62.82000000  *
   532       H         47.10000000  *  57.68000000  *  62.22000000  *
   533       C         45.09000000  *  57.99000000  *  62.94000000  *
   534       H         44.56000000  *  58.27000000  *  62.02000000  *
   535       H         44.63000000  *  58.53000000  *  63.76000000  *
   536       C         44.90000000  *  56.49000000  *  63.17000000  *
   537       H         43.96000000  *  56.34000000  *  63.69000000  *
   538       H         45.70000000  *  56.10000000  *  63.81000000  *
   539       S         44.84000000  *  55.52000000  *  61.63000000  *
   540       C         44.35000000  *  53.89000000  *  62.26000000  *
   541       H         44.27000000  *  53.19000000  *  61.42000000  *
   542       H         45.10000000  *  53.52000000  *  62.96000000  *
   543       H         43.38000000  *  53.96000000  *  62.76000000  *
   544       C         46.69000000  *  59.77000000  *  62.10000000  *
   545       O         47.09000000  *  59.82000000  *  60.94000000  *
   546       N         46.45000000  *  60.88000000  *  62.81000000  *
   547       H         46.10000000  *  60.75000000  *  63.75000000  *
   548       C         46.64000000  *  62.25000000  *  62.30000000  *
   549       H         46.23000000  *  62.28000000  *  61.29000000  *
   550       C         45.89000000  *  63.28000000  *  63.15000000  *
   551       H         46.13000000  *  64.26000000  *  62.72000000  *
   552       H         46.30000000  *  63.26000000  *  64.17000000  *
   553       C         44.35000000  *  63.15000000  *  63.23000000  *
   554       H         44.06000000  *  62.54000000  *  64.07000000  *
   555       H         43.97000000  *  62.69000000  *  62.33000000  *
   556       C         43.64000000  *  64.49000000  *  63.40000000  *
   557       H         42.62000000  *  64.30000000  *  63.75000000  *
   558       H         43.58000000  *  64.96000000  *  62.41000000  *
   559       N         44.36000000  *  65.38000000  *  64.33000000  *
   560       H         45.08000000  *  64.95000000  *  64.88000000  *
   561       C         44.27000000  *  66.69000000  *  64.34000000  *
   562       N         43.32000000  *  67.32000000  *  63.71000000  *
   563       H         42.64000000  *  66.75000000  *  63.24000000  *
   564       H         43.25000000  *  68.31000000  *  63.71000000  *
   565       N         45.16000000  *  67.40000000  *  64.99000000  *
   566       H         45.94000000  *  66.94000000  *  65.42000000  *
   567       H         45.12000000  *  68.40000000  *  64.96000000  *
   568       C         48.10000000  *  62.66000000  *  62.14000000  *
   569       O         48.36000000  *  63.62000000  *  61.41000000  *
   570       N         49.05000000  *  61.98000000  *  62.79000000  *
   571       H         48.78000000  *  61.22000000  *  63.39000000  *
   572       C         50.49000000  *  62.22000000  *  62.56000000  *
   573       H         50.65000000  *  63.30000000  *  62.54000000  *
   574       C         51.34000000  *  61.67000000  *  63.71000000  *
   575       H         50.82000000  *  61.82000000  *  64.66000000  *
   576       H         52.28000000  *  62.22000000  *  63.75000000  *
   577       O         51.65000000  *  60.30000000  *  63.58000000  *
   578       H         50.83000000  *  59.78000000  *  63.53000000  *
   579       C         50.92000000  *  61.70000000  *  61.18000000  *
   580       O         51.69000000  *  62.36000000  *  60.50000000  *
   581       N         50.28000000  *  60.61000000  *  60.72000000  *
   582       H         49.67000000  *  60.13000000  *  61.36000000  *
   583       C         50.35000000  *  60.06000000  *  59.36000000  *
   584       H         51.36000000  *  60.18000000  *  58.97000000  *
   585       C         50.02000000  *  58.55000000  *  59.42000000  *
   586       H         50.09000000  *  58.14000000  *  58.42000000  *
   587       H         48.98000000  *  58.45000000  *  59.74000000  *
   588       C         50.91000000  *  57.71000000  *  60.35000000  *
   589       H         50.95000000  *  58.16000000  *  61.34000000  *
   590       C         50.29000000  *  56.32000000  *  60.52000000  *
   591       H         50.89000000  *  55.73000000  *  61.21000000  *
   592       H         49.28000000  *  56.40000000  *  60.91000000  *
   593       H         50.27000000  *  55.82000000  *  59.55000000  *
   594       C         52.32000000  *  57.56000000  *  59.80000000  *
   595       H         52.90000000  *  56.86000000  *  60.40000000  *
   596       H         52.30000000  *  57.19000000  *  58.77000000  *
   597       H         52.83000000  *  58.52000000  *  59.81000000  *
   598       C         49.39000000  *  60.78000000  *  58.38000000  *
   599       O         49.04000000  *  60.25000000  *  57.33000000  *
   600       N         48.88000000  *  61.96000000  *  58.74000000  *
   601       H         49.20000000  *  62.36000000  *  59.61000000  *
   602       C         47.98000000  *  62.76000000  *  57.90000000  *
   603       H         48.38000000  *  62.79000000  *  56.89000000  *
   604       H         47.96000000  *  63.78000000  *  58.29000000  *
   605       C         46.52000000  *  62.27000000  *  57.80000000  *
   606       O         45.68000000  *  63.01000000  *  57.29000000  *
   607       N         46.18000000  *  61.08000000  *  58.30000000  *
   608       H         46.88000000  *  60.53000000  *  58.78000000  *
   609       C         44.81000000  *  60.55000000  *  58.22000000  *
   610       H         44.45000000  *  60.72000000  *  57.20000000  *
   611       C         44.75000000  *  59.04000000  *  58.51000000  *
   612       H         43.71000000  *  58.75000000  *  58.41000000  *
   613       H         45.06000000  *  58.84000000  *  59.53000000  *
   614       C         45.60000000  *  58.19000000  *  57.56000000  *
   615       H         46.54000000  *  57.91000000  *  58.05000000  *
   616       H         45.86000000  *  58.77000000  *  56.67000000  *
   617       C         44.87000000  *  56.92000000  *  57.10000000  *
   618       O         44.09000000  *  56.30000000  *  57.81000000  *
   619       N         45.05000000  *  56.52000000  *  55.86000000  *
   620       H         45.67000000  *  57.03000000  *  55.25000000  *
   621       H         44.61000000  *  55.67000000  *  55.56000000  *
   622       C         43.87000000  *  61.27000000  *  59.19000000  *
   623       O         44.22000000  *  61.45000000  *  60.35000000  *
   624       N         42.65000000  *  61.61000000  *  58.77000000  *
   625       H         42.40000000  *  61.42000000  *  57.81000000  *
   626       C         41.66000000  *  62.25000000  *  59.65000000  *
   627       H         42.02000000  *  62.22000000  *  60.67000000  *
   628       C         41.56000000  *  63.73000000  *  59.26000000  *
   629       H         40.94000000  *  63.84000000  *  58.36000000  *
   630       H         42.55000000  *  64.11000000  *  59.03000000  *
   631       C         40.99000000  *  64.61000000  *  60.36000000  *
   632       O         40.71000000  *  64.21000000  *  61.48000000  *
   633       N         40.89000000  *  65.90000000  *  60.13000000  *
   634       H         41.14000000  *  66.25000000  *  59.22000000  *
   635       H         40.36000000  *  66.41000000  *  60.81000000  *
   636       C         40.32000000  *  61.48000000  *  59.66000000  *
   637       O         39.35000000  *  61.95000000  *  59.06000000  *
   638       N         40.26000000  *  60.30000000  *  60.32000000  *
   639       C         41.36000000  *  59.65000000  *  61.02000000  *
   640       H         41.80000000  *  60.33000000  *  61.76000000  *
   641       H         42.12000000  *  59.33000000  *  60.31000000  *
   642       C         40.78000000  *  58.44000000  *  61.74000000  *
   643       H         40.70000000  *  58.66000000  *  62.81000000  *
   644       H         41.41000000  *  57.56000000  *  61.59000000  *
   645       C         39.39000000  *  58.23000000  *  61.15000000  *
   646       H         38.68000000  *  57.91000000  *  61.92000000  *
   647       H         39.44000000  *  57.50000000  *  60.35000000  *
   648       C         39.01000000  *  59.60000000  *  60.57000000  *
   649       H         38.47000000  *  59.44000000  *  59.63000000  *
   650       C         38.12000000  *  60.40000000  *  61.52000000  *
   651       O         38.61000000  *  61.08000000  *  62.43000000  *
   652       N         36.81000000  *  60.32000000  *  61.33000000  *
   653       H         36.48000000  *  59.73000000  *  60.57000000  *
   654       C         35.81000000  *  60.97000000  *  62.18000000  *
   655       H         36.07000000  *  62.02000000  *  62.26000000  *
   656       C         34.40000000  *  60.89000000  *  61.56000000  *
   657       H         33.70000000  *  61.39000000  *  62.23000000  *
   658       C         34.30000000  *  61.56000000  *  60.19000000  *
   659       H         33.26000000  *  61.51000000  *  59.84000000  *
   660       H         34.61000000  *  62.60000000  *  60.26000000  *
   661       H         34.93000000  *  61.05000000  *  59.46000000  *
   662       O         33.99000000  *  59.55000000  *  61.42000000  *
   663       H         34.50000000  *  59.18000000  *  60.66000000  *
   664       C         35.78000000  *  60.39000000  *  63.61000000  *
   665       O         36.27000000  *  59.29000000  *  63.87000000  *
   666       N         35.18000000  *  61.12000000  *  64.55000000  *
   667       H         34.83000000  *  62.03000000  *  64.33000000  *
   668       C         35.05000000  *  60.64000000  *  65.94000000  *
   669       H         36.05000000  *  60.46000000  *  66.34000000  *
   670       C         34.35000000  *  61.69000000  *  66.83000000  *
   671       H         34.17000000  *  61.23000000  *  67.80000000  *
   672       H         33.39000000  *  61.96000000  *  66.38000000  *
   673       C         35.20000000  *  62.95000000  *  67.03000000  *
   674       H         35.32000000  *  63.45000000  *  66.06000000  *
   675       H         36.19000000  *  62.65000000  *  67.38000000  *
   676       C         34.60000000  *  63.95000000  *  68.04000000  *
   677       O         33.50000000  *  63.69000000  *  68.57000000  *
   678       O         35.27000000  *  64.99000000  *  68.28000000  *
   679       C         34.30000000  *  59.30000000  *  66.04000000  *
   680       O         34.64000000  *  58.48000000  *  66.88000000  *
   681       N         33.31000000  *  59.06000000  *  65.16000000  *
   682       H         33.11000000  *  59.75000000  *  64.46000000  *
   683       C         32.60000000  *  57.79000000  *  65.10000000  *
   684       H         32.31000000  *  57.51000000  *  66.12000000  *
   685       C         31.32000000  *  57.96000000  *  64.28000000  *
   686       H         30.77000000  *  57.02000000  *  64.27000000  *
   687       H         30.69000000  *  58.73000000  *  64.74000000  *
   688       H         31.56000000  *  58.25000000  *  63.26000000  *
   689       C         33.49000000  *  56.65000000  *  64.57000000  *
   690       O         33.53000000  *  55.60000000  *  65.20000000  *
   691       N         34.25000000  *  56.86000000  *  63.50000000  *
   692       H         34.20000000  *  57.75000000  *  63.02000000  *
   693       C         35.22000000  *  55.85000000  *  63.00000000  *
   694       H         34.69000000  *  54.94000000  *  62.71000000  *
   695       C         35.99000000  *  56.41000000  *  61.81000000  *
   696       H         36.86000000  *  55.77000000  *  61.62000000  *
   697       H         36.36000000  *  57.40000000  *  62.07000000  *
   698       C         35.21000000  *  56.51000000  *  60.50000000  *
   699       H         34.23000000  *  56.96000000  *  60.69000000  *
   700       H         35.06000000  *  55.51000000  *  60.07000000  *
   701       C         36.03000000  *  57.39000000  *  59.56000000  *
   702       O         35.65000000  *  58.59000000  *  59.47000000  *
   703       O         37.10000000  *  56.95000000  *  59.08000000  *
   704       C         36.26000000  *  55.48000000  *  64.06000000  *
   705       O         36.62000000  *  54.31000000  *  64.20000000  *
   706       N         36.75000000  *  56.46000000  *  64.83000000  *
   707       H         36.43000000  *  57.41000000  *  64.65000000  *
   708       C         37.67000000  *  56.20000000  *  65.94000000  *
   709       H         38.47000000  *  55.56000000  *  65.57000000  *
   710       C         38.26000000  *  57.52000000  *  66.45000000  *
   711       H         38.72000000  *  57.34000000  *  67.43000000  *
   712       H         37.45000000  *  58.24000000  *  66.60000000  *
   713       C         39.32000000  *  58.14000000  *  65.52000000  *
   714       H         38.92000000  *  58.24000000  *  64.52000000  *
   715       C         39.72000000  *  59.52000000  *  66.04000000  *
   716       H         40.45000000  *  59.97000000  *  65.36000000  *
   717       H         38.84000000  *  60.16000000  *  66.05000000  *
   718       H         40.14000000  *  59.45000000  *  67.04000000  *
   719       C         40.60000000  *  57.28000000  *  65.48000000  *
   720       H         41.38000000  *  57.80000000  *  64.92000000  *
   721       H         40.96000000  *  57.09000000  *  66.49000000  *
   722       H         40.40000000  *  56.34000000  *  64.98000000  *
   723       C         36.98000000  *  55.41000000  *  67.05000000  *
   724       O         37.55000000  *  54.43000000  *  67.52000000  *
   725       N         35.77000000  *  55.78000000  *  67.46000000  *
   726       H         35.33000000  *  56.58000000  *  67.02000000  *
   727       C         35.02000000  *  55.09000000  *  68.51000000  *
   728       H         35.65000000  *  55.00000000  *  69.40000000  *
   729       C         33.79000000  *  55.92000000  *  68.91000000  *
   730       H         33.14000000  *  55.33000000  *  69.55000000  *
   731       H         33.23000000  *  56.17000000  *  68.00000000  *
   732       C         34.16000000  *  57.23000000  *  69.63000000  *
   733       H         33.42000000  *  57.98000000  *  69.37000000  *
   734       H         35.13000000  *  57.59000000  *  69.30000000  *
   735       C         34.20000000  *  57.10000000  *  71.15000000  *
   736       O         34.96000000  *  56.34000000  *  71.74000000  *
   737       N         33.40000000  *  57.86000000  *  71.87000000  *
   738       H         32.79000000  *  58.51000000  *  71.41000000  *
   739       H         33.43000000  *  57.70000000  *  72.86000000  *
   740       C         34.63000000  *  53.65000000  *  68.11000000  *
   741       O         34.73000000  *  52.76000000  *  68.95000000  *
   742       N         34.29000000  *  53.40000000  *  66.85000000  *
   743       H         34.16000000  *  54.18000000  *  66.21000000  *
   744       C         33.99000000  *  52.05000000  *  66.33000000  *
   745       H         33.21000000  *  51.60000000  *  66.95000000  *
   746       C         33.48000000  *  52.13000000  *  64.88000000  *
   747       H         33.95000000  *  51.34000000  *  64.30000000  *
   748       H         33.79000000  *  53.07000000  *  64.42000000  *
   749       C         31.95000000  *  51.99000000  *  64.73000000  *
   750       O         31.22000000  *  52.30000000  *  65.70000000  *
   751       O         31.53000000  *  51.56000000  *  63.64000000  *
   752       C         35.22000000  *  51.13000000  *  66.42000000  *
   753       O         35.15000000  *  50.04000000  *  66.98000000  *
   754       N         36.39000000  *  51.60000000  *  65.95000000  *
   755       H         36.40000000  *  52.51000000  *  65.49000000  *
   756       C         37.64000000  *  50.84000000  *  66.06000000  *
   757       H         37.47000000  *  49.83000000  *  65.68000000  *
   758       C         38.76000000  *  51.48000000  *  65.23000000  *
   759       H         39.67000000  *  50.91000000  *  65.39000000  *
   760       H         38.92000000  *  52.50000000  *  65.59000000  *
   761       C         38.48000000  *  51.50000000  *  63.72000000  *
   762       H         37.60000000  *  52.12000000  *  63.53000000  *
   763       H         38.24000000  *  50.48000000  *  63.41000000  *
   764       S         39.85000000  *  52.11000000  *  62.69000000  *
   765       C         39.95000000  *  53.83000000  *  63.24000000  *
   766       H         40.75000000  *  54.34000000  *  62.71000000  *
   767       H         39.00000000  *  54.33000000  *  63.03000000  *
   768       H         40.15000000  *  53.87000000  *  64.31000000  *
   769       C         38.10000000  *  50.69000000  *  67.52000000  *
   770       O         38.66000000  *  49.65000000  *  67.88000000  *
   771       N         37.83000000  *  51.67000000  *  68.39000000  *
   772       H         37.39000000  *  52.51000000  *  68.04000000  *
   773       C         38.05000000  *  51.54000000  *  69.84000000  *
   774       H         39.08000000  *  51.22000000  *  70.00000000  *
   775       C         37.85000000  *  52.89000000  *  70.57000000  *
   776       H         36.92000000  *  53.33000000  *  70.23000000  *
   777       C         37.77000000  *  52.72000000  *  72.10000000  *
   778       H         37.65000000  *  53.68000000  *  72.59000000  *
   779       H         36.89000000  *  52.12000000  *  72.36000000  *
   780       H         38.66000000  *  52.22000000  *  72.47000000  *
   781       C         39.02000000  *  53.85000000  *  70.24000000  *
   782       H         39.26000000  *  53.79000000  *  69.18000000  *
   783       H         39.91000000  *  53.54000000  *  70.77000000  *
   784       C         38.73000000  *  55.32000000  *  70.57000000  *
   785       H         39.55000000  *  55.95000000  *  70.21000000  *
   786       H         37.81000000  *  55.64000000  *  70.08000000  *
   787       H         38.63000000  *  55.46000000  *  71.64000000  *
   788       C         37.16000000  *  50.42000000  *  70.40000000  *
   789       O         37.67000000  *  49.61000000  *  71.17000000  *
   790       N         35.90000000  *  50.31000000  *  69.99000000  *
   791       H         35.52000000  *  51.02000000  *  69.36000000  *
   792       C         34.98000000  *  49.28000000  *  70.49000000  *
   793       H         35.01000000  *  49.33000000  *  71.58000000  *
   794       C         33.55000000  *  49.63000000  *  70.03000000  *
   795       H         33.28000000  *  49.03000000  *  69.16000000  *
   796       H         33.48000000  *  50.67000000  *  69.74000000  *
   797       C         32.53000000  *  49.42000000  *  71.13000000  *
   798       O         32.29000000  *  50.26000000  *  71.98000000  *
   799       N         31.86000000  *  48.29000000  *  71.17000000  *
   800       H         32.10000000  *  47.56000000  *  70.53000000  *
   801       H         31.23000000  *  48.19000000  *  71.93000000  *
   802       C         35.40000000  *  47.85000000  *  70.10000000  *
   803       O         35.02000000  *  46.90000000  *  70.79000000  *
   804       N         36.21000000  *  47.66000000  *  69.04000000  *
   805       H         36.38000000  *  48.46000000  *  68.44000000  *
   806       C         36.91000000  *  46.39000000  *  68.75000000  *
   807       H         36.28000000  *  45.56000000  *  69.06000000  *
   808       C         37.19000000  *  46.23000000  *  67.23000000  *
   809       H         37.88000000  *  45.39000000  *  67.12000000  *
   810       H         37.68000000  *  47.13000000  *  66.86000000  *
   811       C         35.96000000  *  45.93000000  *  66.35000000  *
   812       H         35.32000000  *  46.81000000  *  66.32000000  *
   813       H         35.39000000  *  45.13000000  *  66.82000000  *
   814       C         36.32000000  *  45.50000000  *  64.89000000  *
   815       O         37.37000000  *  45.92000000  *  64.34000000  *
   816       O         35.56000000  *  44.71000000  *  64.29000000  *
   817       C         38.23000000  *  46.25000000  *  69.55000000  *
   818       O         38.50000000  *  45.20000000  *  70.13000000  *
   819       N         39.07000000  *  47.29000000  *  69.63000000  *
   820       H         38.79000000  *  48.15000000  *  69.15000000  *
   821       C         40.43000000  *  47.24000000  *  70.22000000  *
   822       H         40.88000000  *  46.28000000  *  69.94000000  *
   823       C         41.30000000  *  48.36000000  *  69.61000000  *
   824       H         40.77000000  *  49.31000000  *  69.70000000  *
   825       C         42.68000000  *  48.54000000  *  70.27000000  *
   826       H         43.24000000  *  49.28000000  *  69.71000000  *
   827       H         42.56000000  *  48.91000000  *  71.29000000  *
   828       H         43.22000000  *  47.59000000  *  70.26000000  *
   829       C         41.56000000  *  48.06000000  *  68.13000000  *
   830       H         42.11000000  *  48.89000000  *  67.68000000  *
   831       H         42.14000000  *  47.14000000  *  68.02000000  *
   832       H         40.62000000  *  47.95000000  *  67.59000000  *
   833       C         40.44000000  *  47.27000000  *  71.76000000  *
   834       O         41.44000000  *  46.87000000  *  72.40000000  *
   835       N         39.34000000  *  47.72000000  *  72.36000000  *
   836       H         38.61000000  *  48.11000000  *  71.77000000  *
   837       C         39.06000000  *  47.71000000  *  73.80000000  *
   838       H         40.02000000  *  47.76000000  *  74.30000000  *
   839       C         38.26000000  *  48.96000000  *  74.21000000  *
   840       H         37.20000000  *  48.81000000  *  74.00000000  *
   841       H         38.60000000  *  49.81000000  *  73.62000000  *
   842       C         38.47000000  *  49.33000000  *  75.68000000  *
   843       O         39.53000000  *  48.93000000  *  76.24000000  *
   844       O         37.66000000  *  50.12000000  *  76.22000000  *
   845       C         38.39000000  *  46.41000000  *  74.28000000  *
   846       O         37.90000000  *  46.34000000  *  75.40000000  *
   847       N         38.44000000  *  45.33000000  *  73.49000000  *
   848       H         38.73000000  *  45.45000000  *  72.53000000  *
   849       C         38.04000000  *  43.97000000  *  73.91000000  *
   850       H         36.97000000  *  43.98000000  *  74.12000000  *
   851       C         38.31000000  *  43.04000000  *  72.73000000  *
   852       H         38.03000000  *  42.02000000  *  72.99000000  *
   853       H         37.72000000  *  43.35000000  *  71.87000000  *
   854       H         39.37000000  *  43.06000000  *  72.46000000  *
   855       C         38.76000000  *  43.46000000  *  75.19000000  *
   856       O         38.32000000  *  42.49000000  *  75.80000000  *
   857       N         39.87000000  *  44.10000000  *  75.56000000  *
   858       H         40.12000000  *  44.89000000  *  74.98000000  *
   859       C         40.68000000  *  43.89000000  *  76.77000000  *
   860       H         40.71000000  *  42.83000000  *  77.02000000  *
   861       C         42.09000000  *  44.38000000  *  76.40000000  *
   862       H         42.07000000  *  45.48000000  *  76.38000000  *
   863       H         42.32000000  *  44.05000000  *  75.38000000  *
   864       C         43.25000000  *  43.94000000  *  77.28000000  *
   865       O         43.21000000  *  42.82000000  *  77.82000000  *
   866       O         44.23000000  *  44.73000000  *  77.28000000  *
   867       C         40.13000000  *  44.67000000  *  78.00000000  *
   868       O         40.45000000  *  44.35000000  *  79.14000000  *
   869       N         39.33000000  *  45.72000000  *  77.77000000  *
   870       H         39.01000000  *  45.88000000  *  76.82000000  *
   871       C         38.77000000  *  46.63000000  *  78.78000000  *
   872       H         38.39000000  *  46.04000000  *  79.62000000  *
   873       H         37.94000000  *  47.16000000  *  78.33000000  *
   874       C         39.74000000  *  47.68000000  *  79.35000000  *
   875       O         39.39000000  *  48.37000000  *  80.31000000  *
   876       N         40.94000000  *  47.81000000  *  78.78000000  *
   877       H         41.12000000  *  47.22000000  *  77.99000000  *
   878       C         42.03000000  *  48.64000000  *  79.32000000  *
   879       H         41.83000000  *  48.83000000  *  80.38000000  *
   880       C         43.36000000  *  47.86000000  *  79.21000000  *
   881       H         44.18000000  *  48.52000000  *  79.48000000  *
   882       H         43.51000000  *  47.53000000  *  78.19000000  *
   883       C         43.45000000  *  46.66000000  *  80.14000000  *
   884       O         42.74000000  *  46.52000000  *  81.12000000  *
   885       N         44.41000000  *  45.79000000  *  79.91000000  *
   886       H         44.81000000  *  45.74000000  *  78.98000000  *
   887       H         44.33000000  *  44.93000000  *  80.42000000  *
   888       C         42.17000000  *  50.04000000  *  78.67000000  *
   889       O         42.95000000  *  50.86000000  *  79.16000000  *
   890       N         41.50000000  *  50.33000000  *  77.55000000  *
   891       H         40.78000000  *  49.68000000  *  77.23000000  *
   892       C         41.62000000  *  51.61000000  *  76.83000000  *
   893       H         41.37000000  *  52.42000000  *  77.50000000  *
   894       H         40.90000000  *  51.60000000  *  76.02000000  *
   895       C         43.01000000  *  51.88000000  *  76.22000000  *
   896       O         43.40000000  *  53.04000000  *  76.04000000  *
   897       N         43.77000000  *  50.83000000  *  75.90000000  *
   898       H         43.42000000  *  49.91000000  *  76.14000000  *
   899       C         45.14000000  *  50.91000000  *  75.36000000  *
   900       H         45.34000000  *  51.94000000  *  75.08000000  *
   901       C         46.20000000  *  50.54000000  *  76.41000000  *
   902       H         47.19000000  *  50.59000000  *  75.95000000  *
   903       C         46.19000000  *  51.46000000  *  77.62000000  *
   904       H         47.01000000  *  51.21000000  *  78.29000000  *
   905       H         46.31000000  *  52.50000000  *  77.30000000  *
   906       H         45.25000000  *  51.37000000  *  78.17000000  *
   907       O         45.97000000  *  49.22000000  *  76.85000000  *
   908       H         46.60000000  *  49.03000000  *  77.56000000  *
   909       C         45.36000000  *  50.06000000  *  74.11000000  *
   910       O         44.68000000  *  49.05000000  *  73.86000000  *
   911       N         46.34000000  *  50.51000000  *  73.32000000  *
   912       H         46.86000000  *  51.32000000  *  73.61000000  *
   913       C         46.73000000  *  49.94000000  *  72.02000000  *
   914       H         46.24000000  *  48.98000000  *  71.89000000  *
   915       C         46.33000000  *  50.86000000  *  70.85000000  *
   916       H         47.08000000  *  51.65000000  *  70.76000000  *
   917       C         46.34000000  *  50.07000000  *  69.53000000  *
   918       H         46.17000000  *  50.72000000  *  68.68000000  *
   919       H         47.31000000  *  49.60000000  *  69.39000000  *
   920       H         45.58000000  *  49.29000000  *  69.55000000  *
   921       C         44.97000000  *  51.56000000  *  71.12000000  *
   922       H         45.12000000  *  52.31000000  *  71.90000000  *
   923       H         44.25000000  *  50.83000000  *  71.48000000  *
   924       C         44.35000000  *  52.28000000  *  69.93000000  *
   925       H         43.51000000  *  52.88000000  *  70.28000000  *
   926       H         45.10000000  *  52.93000000  *  69.47000000  *
   927       H         43.99000000  *  51.56000000  *  69.20000000  *
   928       C         48.24000000  *  49.70000000  *  72.06000000  *
   929       O         48.98000000  *  50.59000000  *  72.48000000  *
   930       N         48.71000000  *  48.53000000  *  71.64000000  *
   931       H         48.07000000  *  47.84000000  *  71.27000000  *
   932       C         50.15000000  *  48.28000000  *  71.45000000  *
   933       H         50.72000000  *  49.04000000  *  71.97000000  *
   934       C         50.57000000  *  46.94000000  *  72.08000000  *
   935       H         50.33000000  *  46.99000000  *  73.14000000  *
   936       H         51.65000000  *  46.84000000  *  71.99000000  *
   937       C         49.90000000  *  45.70000000  *  71.50000000  *
   938       O         49.66000000  *  45.71000000  *  70.27000000  *
   939       O         49.69000000  *  44.74000000  *  72.26000000  *
   940       C         50.51000000  *  48.44000000  *  69.96000000  *
   941       O         49.64000000  *  48.60000000  *  69.10000000  *
   942       N         51.81000000  *  48.46000000  *  69.64000000  *
   943       H         52.51000000  *  48.41000000  *  70.37000000  *
   944       C         52.23000000  *  48.54000000  *  68.24000000  *
   945       H         51.74000000  *  49.42000000  *  67.82000000  *
   946       C         53.74000000  *  48.77000000  *  68.14000000  *
   947       H         54.27000000  *  47.92000000  *  68.56000000  *
   948       H         53.99000000  *  49.65000000  *  68.73000000  *
   949       C         54.18000000  *  49.02000000  *  66.71000000  *
   950       C         53.72000000  *  50.17000000  *  66.04000000  *
   951       H         53.08000000  *  50.88000000  *  66.55000000  *
   952       C         54.06000000  *  50.38000000  *  64.70000000  *
   953       H         53.67000000  *  51.24000000  *  64.18000000  *
   954       C         54.88000000  *  49.46000000  *  64.03000000  *
   955       H         55.14000000  *  49.64000000  *  63.00000000  *
   956       C         55.32000000  *  48.30000000  *  64.69000000  *
   957       H         55.91000000  *  47.58000000  *  64.14000000  *
   958       C         54.96000000  *  48.07000000  *  66.03000000  *
   959       H         55.24000000  *  47.15000000  *  66.51000000  *
   960       C         51.75000000  *  47.35000000  *  67.36000000  *
   961       O         51.31000000  *  47.61000000  *  66.24000000  *
   962       N         51.78000000  *  46.07000000  *  67.81000000  *
   963       C         52.53000000  *  45.59000000  *  68.97000000  *
   964       H         52.16000000  *  46.03000000  *  69.89000000  *
   965       H         53.59000000  *  45.80000000  *  68.85000000  *
   966       C         52.32000000  *  44.08000000  *  69.05000000  *
   967       H         51.84000000  *  43.82000000  *  70.00000000  *
   968       H         53.29000000  *  43.57000000  *  68.99000000  *
   969       C         51.43000000  *  43.69000000  *  67.88000000  *
   970       H         50.48000000  *  43.30000000  *  68.26000000  *
   971       H         51.92000000  *  42.93000000  *  67.27000000  *
   972       C         51.20000000  *  44.96000000  *  67.05000000  *
   973       H         51.75000000  *  44.87000000  *  66.12000000  *
   974       C         49.71000000  *  45.15000000  *  66.70000000  *
   975       O         49.33000000  *  44.99000000  *  65.53000000  *
   976       N         48.85000000  *  45.54000000  *  67.65000000  *
   977       H         49.21000000  *  45.63000000  *  68.60000000  *
   978       C         47.44000000  *  45.85000000  *  67.41000000  *
   979       H         46.95000000  *  45.00000000  *  66.93000000  *
   980       C         46.71000000  *  46.19000000  *  68.72000000  *
   981       H         45.72000000  *  46.58000000  *  68.47000000  *
   982       H         47.26000000  *  46.98000000  *  69.23000000  *
   983       C         46.48000000  *  45.03000000  *  69.71000000  *
   984       H         47.43000000  *  44.58000000  *  70.00000000  *
   985       H         45.89000000  *  44.26000000  *  69.21000000  *
   986       C         45.72000000  *  45.52000000  *  70.96000000  *
   987       O         45.86000000  *  46.68000000  *  71.44000000  *
   988       O         44.82000000  *  44.85000000  *  71.51000000  *
   989       C         47.28000000  *  47.06000000  *  66.48000000  *
   990       O         46.36000000  *  47.10000000  *  65.65000000  *
   991       N         48.17000000  *  48.05000000  *  66.57000000  *
   992       H         48.88000000  *  48.00000000  *  67.30000000  *
   993       C         48.16000000  *  49.21000000  *  65.68000000  *
   994       H         47.16000000  *  49.64000000  *  65.70000000  *
   995       C         49.14000000  *  50.27000000  *  66.20000000  *
   996       H         50.16000000  *  49.90000000  *  66.14000000  *
   997       H         48.91000000  *  50.47000000  *  67.24000000  *
   998       C         49.05000000  *  51.57000000  *  65.43000000  *
   999       C         48.09000000  *  52.54000000  *  65.79000000  *
  1000       H         47.45000000  *  52.37000000  *  66.65000000  *
  1001       C         47.94000000  *  53.70000000  *  65.02000000  *
  1002       H         47.20000000  *  54.44000000  *  65.28000000  *
  1003       C         48.74000000  *  53.90000000  *  63.89000000  *
  1004       H         48.60000000  *  54.78000000  *  63.27000000  *
  1005       C         49.72000000  *  52.96000000  *  63.54000000  *
  1006       H         50.34000000  *  53.12000000  *  62.67000000  *
  1007       C         49.88000000  *  51.79000000  *  64.31000000  *
  1008       H         50.61000000  *  51.05000000  *  64.02000000  *
  1009       C         48.46000000  *  48.81000000  *  64.23000000  *
  1010       O         47.74000000  *  49.25000000  *  63.33000000  *
  1011       N         49.43000000  *  47.92000000  *  63.98000000  *
  1012       H         49.98000000  *  47.58000000  *  64.76000000  *
  1013       C         49.66000000  *  47.39000000  *  62.64000000  *
  1014       H         49.82000000  *  48.23000000  *  61.96000000  *
  1015       C         50.91000000  *  46.48000000  *  62.60000000  *
  1016       H         50.92000000  *  45.99000000  *  61.63000000  *
  1017       H         50.81000000  *  45.71000000  *  63.36000000  *
  1018       C         52.26000000  *  47.20000000  *  62.79000000  *
  1019       H         52.36000000  *  47.53000000  *  63.82000000  *
  1020       C         53.37000000  *  46.21000000  *  62.47000000  *
  1021       H         54.34000000  *  46.67000000  *  62.65000000  *
  1022       H         53.28000000  *  45.33000000  *  63.10000000  *
  1023       H         53.32000000  *  45.91000000  *  61.42000000  *
  1024       C         52.40000000  *  48.41000000  *  61.86000000  *
  1025       H         53.44000000  *  48.73000000  *  61.82000000  *
  1026       H         52.08000000  *  48.14000000  *  60.86000000  *
  1027       H         51.80000000  *  49.23000000  *  62.24000000  *
  1028       C         48.45000000  *  46.63000000  *  62.08000000  *
  1029       O         48.15000000  *  46.78000000  *  60.90000000  *
  1030       N         47.70000000  *  45.91000000  *  62.92000000  *
  1031       H         48.03000000  *  45.76000000  *  63.87000000  *
  1032       C         46.42000000  *  45.30000000  *  62.52000000  *
  1033       H         46.61000000  *  44.64000000  *  61.67000000  *
  1034       C         45.82000000  *  44.45000000  *  63.65000000  *
  1035       H         45.61000000  *  45.09000000  *  64.51000000  *
  1036       C         44.55000000  *  43.71000000  *  63.26000000  *
  1037       H         44.23000000  *  43.07000000  *  64.09000000  *
  1038       H         43.75000000  *  44.42000000  *  63.05000000  *
  1039       H         44.73000000  *  43.10000000  *  62.38000000  *
  1040       O         46.74000000  *  43.46000000  *  64.03000000  *
  1041       H         46.63000000  *  43.28000000  *  64.96000000  *
  1042       C         45.40000000  *  46.35000000  *  62.05000000  *
  1043       O         44.65000000  *  46.09000000  *  61.12000000  *
  1044       N         45.40000000  *  47.57000000  *  62.62000000  *
  1045       H         46.06000000  *  47.75000000  *  63.37000000  *
  1046       C         44.54000000  *  48.66000000  *  62.14000000  *
  1047       H         43.54000000  *  48.26000000  *  61.96000000  *
  1048       C         44.41000000  *  49.78000000  *  63.18000000  *
  1049       H         43.76000000  *  50.55000000  *  62.76000000  *
  1050       H         45.38000000  *  50.23000000  *  63.40000000  *
  1051       C         43.78000000  *  49.26000000  *  64.48000000  *
  1052       H         44.56000000  *  49.11000000  *  65.22000000  *
  1053       H         43.32000000  *  48.29000000  *  64.28000000  *
  1054       S         42.49000000  *  50.33000000  *  65.15000000  *
  1055       C         43.39000000  *  51.11000000  *  66.50000000  *
  1056       H         42.68000000  *  51.67000000  *  67.10000000  *
  1057       H         43.86000000  *  50.34000000  *  67.12000000  *
  1058       H         44.16000000  *  51.77000000  *  66.10000000  *
  1059       C         45.03000000  *  49.24000000  *  60.81000000  *
  1060       O         44.21000000  *  49.48000000  *  59.91000000  *
  1061       N         46.34000000  *  49.41000000  *  60.63000000  *
  1062       H         46.96000000  *  49.23000000  *  61.41000000  *
  1063       C         46.90000000  *  49.91000000  *  59.37000000  *
  1064       H         46.38000000  *  50.82000000  *  59.09000000  *
  1065       C         48.39000000  *  50.25000000  *  59.53000000  *
  1066       H         48.75000000  *  50.67000000  *  58.59000000  *
  1067       H         48.96000000  *  49.34000000  *  59.74000000  *
  1068       C         48.65000000  *  51.26000000  *  60.66000000  *
  1069       H         49.70000000  *  51.55000000  *  60.64000000  *
  1070       H         48.48000000  *  50.77000000  *  61.61000000  *
  1071       S         47.64000000  *  52.78000000  *  60.64000000  *
  1072       C         48.35000000  *  53.58000000  *  59.18000000  *
  1073       H         47.89000000  *  54.56000000  *  59.04000000  *
  1074       H         49.42000000  *  53.71000000  *  59.33000000  *
  1075       H         48.18000000  *  52.97000000  *  58.29000000  *
  1076       C         46.65000000  *  48.91000000  *  58.23000000  *
  1077       O         46.08000000  *  49.28000000  *  57.20000000  *
  1078       N         46.91000000  *  47.62000000  *  58.45000000  *
  1079       H         47.37000000  *  47.37000000  *  59.32000000  *
  1080       C         46.58000000  *  46.52000000  *  57.53000000  *
  1081       H         46.99000000  *  46.76000000  *  56.55000000  *
  1082       C         47.27000000  *  45.25000000  *  58.05000000  *
  1083       H         47.13000000  *  44.45000000  *  57.32000000  *
  1084       H         48.34000000  *  45.43000000  *  58.17000000  *
  1085       H         46.84000000  *  44.96000000  *  59.00000000  *
  1086       C         45.06000000  *  46.28000000  *  57.35000000  *
  1087       O         44.65000000  *  45.53000000  *  56.48000000  *
  1088       N         44.19000000  *  46.90000000  *  58.17000000  *
  1089       H         44.57000000  *  47.44000000  *  58.94000000  *
  1090       C         42.74000000  *  46.95000000  *  57.92000000  *
  1091       H         42.46000000  *  46.08000000  *  57.34000000  *
  1092       C         41.96000000  *  46.92000000  *  59.25000000  *
  1093       H         40.94000000  *  47.28000000  *  59.08000000  *
  1094       H         42.43000000  *  47.61000000  *  59.95000000  *
  1095       C         41.91000000  *  45.52000000  *  59.88000000  *
  1096       H         42.11000000  *  45.60000000  *  60.95000000  *
  1097       H         42.69000000  *  44.90000000  *  59.45000000  *
  1098       C         40.55000000  *  44.82000000  *  59.69000000  *
  1099       H         40.71000000  *  43.75000000  *  59.80000000  *
  1100       H         40.21000000  *  45.02000000  *  58.67000000  *
  1101       N         39.54000000  *  45.25000000  *  60.69000000  *
  1102       H         39.89000000  *  45.64000000  *  61.56000000  *
  1103       C         38.23000000  *  45.12000000  *  60.63000000  *
  1104       N         37.65000000  *  44.70000000  *  59.54000000  *
  1105       H         38.22000000  *  44.54000000  *  58.73000000  *
  1106       H         36.65000000  *  44.65000000  *  59.50000000  *
  1107       N         37.45000000  *  45.39000000  *  61.64000000  *
  1108       H         37.77000000  *  45.66000000  *  62.58000000  *
  1109       H         36.46000000  *  45.23000000  *  61.63000000  *
  1110       C         42.33000000  *  48.14000000  *  57.05000000  *
  1111       O         41.27000000  *  48.06000000  *  56.43000000  *
  1112       N         43.14000000  *  49.21000000  *  57.00000000  *
  1113       H         43.99000000  *  49.17000000  *  57.55000000  *
  1114       C         42.91000000  *  50.42000000  *  56.20000000  *
  1115       H         41.84000000  *  50.53000000  *  56.02000000  *
[...]
 1955  H(ATOM   1955  HA  ALA X 128)   0.81691
 1956  C(ATOM   1956  CB  ALA X 128)   1.06216   1.19082   1.03270   1.15869
 1957  H(ATOM   1957 1HB  ALA X 128)   0.84627
 1958  H(ATOM   1958 2HB  ALA X 128)   0.82351
 1959  H(ATOM   1959 3HB  ALA X 128)   0.82307
 1960  C(ATOM   1960  C   ALA X 128)   1.10313   0.73526   0.76263   0.87162
 1961  O(ATOM   1961  O   ALA X 128)   1.88366   1.49367   1.42671   1.80103
 1962  N(ATOM   1962  N   ASP X 129)   1.55965   1.59713   1.28337   1.12167
 1963  H(ATOM   1963  H   ASP X 129)   0.64057
 1964  C(ATOM   1964  CA  ASP X 129)   1.07114   1.09429   0.94627   0.80685
 1965  H(ATOM   1965  HA  ASP X 129)   0.82499
 1966  C(ATOM   1966  CB  ASP X 129)   1.08139   1.20722   1.03456   1.12582
 1967  H(ATOM   1967 1HB  ASP X 129)   0.82365
 1968  H(ATOM   1968 2HB  ASP X 129)   0.80620
 1969  C(ATOM   1969  CG  ASP X 129)   1.06387   0.70119   0.76820   0.67451
 1970  O(ATOM   1970  OD1 ASP X 129)   1.88637   1.45753   1.88684   1.59881
 1971  O(ATOM   1971  OD2 ASP X 129)   1.88363   1.56561   1.63526   1.75160
 1972  C(ATOM   1972  C   ASP X 129)   1.10095   0.72152   0.82815   0.73492
 1973  O(ATOM   1973  O   ASP X 129)   1.85423   1.39546   1.87620   1.60643
 1974  N(ATOM   1974  N   ILE X 130)   1.55756   1.33742   1.15292   1.46610
 1975  H(ATOM   1975  H   ILE X 130)   0.62903
 1976  C(ATOM   1976  CA  ILE X 130)   1.08138   1.12438   0.87482   0.94904
 1977  H(ATOM   1977  HA  ILE X 130)   0.82692
 1978  C(ATOM   1978  CB  ILE X 130)   1.06904   1.06955   0.97810   0.99735
 1979  H(ATOM   1979  HB  ILE X 130)   0.83377
 1980  C(ATOM   1980  CG2 ILE X 130)   1.05731   1.17842   1.11308   1.11872
 1981  H(ATOM   1981 1HG2 ILE X 130)   0.82884
 1982  H(ATOM   1982 2HG2 ILE X 130)   0.84122
 1983  H(ATOM   1983 3HG2 ILE X 130)   0.85307
 1984  C(ATOM   1984  CG1 ILE X 130)   1.05663   1.16868   1.02669   1.00896
 1985  H(ATOM   1985 1HG1 ILE X 130)   0.83095
 1986  H(ATOM   1986 2HG1 ILE X 130)   0.85498
 1987  C(ATOM   1987  CD1 ILE X 130)   1.05307   1.17060   1.05071   1.16563
 1988  H(ATOM   1988 1HD1 ILE X 130)   0.84568
 1989  H(ATOM   1989 2HD1 ILE X 130)   0.84919
 1990  H(ATOM   1990 3HD1 ILE X 130)   0.86506
 1991  C(ATOM   1991  C   ILE X 130)   1.08508   0.75458   0.69846   0.85974
 1992  O(ATOM   1992  O   ILE X 130)   1.87498   1.39725   1.64971   1.77406
 1993  N(ATOM   1993  N   ASP X 131)   1.53944   1.27133   1.50309   1.15985
 1994  H(ATOM   1994  H   ASP X 131)   0.64589
 1995  C(ATOM   1995  CA  ASP X 131)   1.07730   0.99876   1.05361   0.84513
 1996  H(ATOM   1996  HA  ASP X 131)   0.81215
 1997  C(ATOM   1997  CB  ASP X 131)   1.08288   1.00832   1.21542   1.13795
 1998  H(ATOM   1998 1HB  ASP X 131)   0.79351
 1999  H(ATOM   1999 2HB  ASP X 131)   0.79652
 2000  C(ATOM   2000  CG  ASP X 131)   1.07420   0.73402   0.63009   0.79842
 2001  O(ATOM   2001  OD1 ASP X 131)   1.88698   1.58053   1.68219   1.68539
 2002  O(ATOM   2002  OD2 ASP X 131)   1.88708   1.39382   1.65296   1.88243
 2003  C(ATOM   2003  C   ASP X 131)   1.09495   0.79928   0.76010   0.74145
 2004  O(ATOM   2004  O   ASP X 131)   1.86775   1.39370   1.77010   1.65660
 2005  N(ATOM   2005  N   GLY X 132)   1.55096   1.33104   1.36758   1.28047
 2006  H(ATOM   2006  H   GLY X 132)   0.64865
 2007  C(ATOM   2007  CA  GLY X 132)   1.07719   0.96658   0.96907   1.11834
 2008  H(ATOM   2008 1HA  GLY X 132)   0.78569
 2009  H(ATOM   2009 2HA  GLY X 132)   0.80328
 2010  C(ATOM   2010  C   GLY X 132)   1.08069   0.83805   0.75202   0.71919
 2011  O(ATOM   2011  O   GLY X 132)   1.87777   1.56249   1.63537   1.56395
 2012  N(ATOM   2012  N   ASP X 133)   1.54976   1.18523   1.16377   1.67163
 2013  H(ATOM   2013  H   ASP X 133)   0.68272
 2014  C(ATOM   2014  CA  ASP X 133)   1.07950   0.85409   0.94366   1.08302
 2015  H(ATOM   2015  HA  ASP X 133)   0.80440
 2016  C(ATOM   2016  CB  ASP X 133)   1.07948   1.10590   1.18934   1.02572
 2017  H(ATOM   2017 1HB  ASP X 133)   0.88202
 2018  H(ATOM   2018 2HB  ASP X 133)   0.79808
 2019  C(ATOM   2019  CG  ASP X 133)   1.06620   0.78793   0.74769   0.64376
 2020  O(ATOM   2020  OD1 ASP X 133)   1.88738   1.90294   1.32342   1.67927
 2021  O(ATOM   2021  OD2 ASP X 133)   1.88429   1.63549   1.63464   1.66349
 2022  C(ATOM   2022  C   ASP X 133)   1.08295   0.71196   0.85425   0.76459
 2023  O(ATOM   2023  O   ASP X 133)   1.87958   1.59802   1.76247   1.36570
 2024  N(ATOM   2024  N   GLY X 134)   1.54131   1.58880   1.14155   1.26760
 2025  H(ATOM   2025  H   GLY X 134)   0.68932
 2026  C(ATOM   2026  CA  GLY X 134)   1.07511   1.13499   0.80329   1.13280
 2027  H(ATOM   2027 1HA  GLY X 134)   0.80025
 2028  H(ATOM   2028 2HA  GLY X 134)   0.80143
 2029  C(ATOM   2029  C   GLY X 134)   1.08208   0.76219   0.78987   0.78558
 2030  O(ATOM   2030  O   GLY X 134)   1.88321   1.73746   1.36510   1.64722
 2031  N(ATOM   2031  N   GLN X 135)   1.54765   1.26813   1.38798   1.33436
 2032  H(ATOM   2032  H   GLN X 135)   0.64308
 2033  C(ATOM   2033  CA  GLN X 135)   1.07276   0.99879   1.04872   0.88109
 2034  H(ATOM   2034  HA  GLN X 135)   0.81424
 2035  C(ATOM   2035  CB  GLN X 135)   1.06248   1.01429   1.10667   1.08423
 2036  H(ATOM   2036 1HB  GLN X 135)   0.82808
 2037  H(ATOM   2037 2HB  GLN X 135)   0.82870
 2038  C(ATOM   2038  CG  GLN X 135)   1.06774   1.06896   1.10863   1.09833
 2039  H(ATOM   2039 1HG  GLN X 135)   0.82928
 2040  H(ATOM   2040 2HG  GLN X 135)   0.81732
 2041  C(ATOM   2041  CD  GLN X 135)   1.06892   0.82887   0.78365   0.73599
 2042  O(ATOM   2042  OE1 GLN X 135)   1.88237   1.79802   1.37421   1.60728
 2043  N(ATOM   2043  NE2 GLN X 135)   1.52633   1.29222   1.34223   1.45121
 2044  H(ATOM   2044 1HE2 GLN X 135)   0.66269
 2045  H(ATOM   2045 2HE2 GLN X 135)   0.66999
 2046  C(ATOM   2046  C   GLN X 135)   1.08509   0.70341   0.78825   0.80343
 2047  O(ATOM   2047  O   GLN X 135)   1.87761   1.62214   1.32002   1.89109
 2048  N(ATOM   2048  N   VAL X 136)   1.54795   1.59812   1.24580   1.13190
 2049  H(ATOM   2049  H   VAL X 136)   0.64906
 2050  C(ATOM   2050  CA  VAL X 136)   1.08152   1.01587   1.07401   0.84378
 2051  H(ATOM   2051  HA  VAL X 136)   0.81055
 2052  C(ATOM   2052  CB  VAL X 136)   1.06354   0.93244   1.08226   1.01875
 2053  H(ATOM   2053  HB  VAL X 136)   0.84384
 2054  C(ATOM   2054  CG1 VAL X 136)   1.05663   1.19073   1.06479   1.13419
 2055  H(ATOM   2055 1HG1 VAL X 136)   0.84167
 2056  H(ATOM   2056 2HG1 VAL X 136)   0.83288
 2057  H(ATOM   2057 3HG1 VAL X 136)   0.84150
 2058  C(ATOM   2058  CG2 VAL X 136)   1.05635   1.07917   1.17098   1.13844
 2059  H(ATOM   2059 1HG2 VAL X 136)   0.84731
 2060  H(ATOM   2060 2HG2 VAL X 136)   0.85742
 2061  H(ATOM   2061 3HG2 VAL X 136)   0.85701
 2062  C(ATOM   2062  C   VAL X 136)   1.08260   0.77830   0.78777   0.78738
 2063  O(ATOM   2063  O   VAL X 136)   1.88638   1.70493   1.29067   1.74943
 2064  N(ATOM   2064  N   ASN X 137)   1.55367   1.43218   1.22378   1.29275
 2065  H(ATOM   2065  H   ASN X 137)   0.66631
 2066  C(ATOM   2066  CA  ASN X 137)   1.07581   0.95578   1.04723   0.89901
 2067  H(ATOM   2067  HA  ASN X 137)   0.81400
 2068  C(ATOM   2068  CB  ASN X 137)   1.07467   1.12359   1.11735   1.06429
 2069  H(ATOM   2069 1HB  ASN X 137)   0.79568
 2070  H(ATOM   2070 2HB  ASN X 137)   0.81830
 2071  C(ATOM   2071  CG  ASN X 137)   1.05921   0.77639   0.73135   0.84839
 2072  O(ATOM   2072  OD1 ASN X 137)   1.87477   1.46138   1.58366   1.68911
 2073  N(ATOM   2073  ND2 ASN X 137)   1.53639   1.19089   1.64273   1.25468
 2074  H(ATOM   2074 1HD2 ASN X 137)   0.65953
 2075  H(ATOM   2075 2HD2 ASN X 137)   0.67037
 2076  C(ATOM   2076  C   ASN X 137)   1.08086   0.83387   0.73827   0.78171
 2077  O(ATOM   2077  O   ASN X 137)   1.88504   1.24467   1.65579   1.77090
 2078  N(ATOM   2078  N   TYR X 138)   1.54440   1.21353   1.52751   1.28123
 2079  H(ATOM   2079  H   TYR X 138)   0.67501
 2080  C(ATOM   2080  CA  TYR X 138)   1.07113   1.08270   0.96974   0.86004
 2081  H(ATOM   2081  HA  TYR X 138)   0.80469
 2082  C(ATOM   2082  CB  TYR X 138)   1.05803   1.05102   0.99975   1.18781
 2083  H(ATOM   2083 1HB  TYR X 138)   0.83311
 2084  H(ATOM   2084 2HB  TYR X 138)   0.81785
 2085  C(ATOM   2085  CG  TYR X 138)   1.06674   0.96998   1.07570   0.98883
 2086  C(ATOM   2086  CD1 TYR X 138)   1.09114   1.01756   0.96169   1.02491
 2087  H(ATOM   2087  HD1 TYR X 138)   0.84795
 2088  C(ATOM   2088  CE1 TYR X 138)   1.08000   0.98665   1.07992   1.07862
 2089  H(ATOM   2089  HE1 TYR X 138)   0.84380
 2090  C(ATOM   2090  CZ  TYR X 138)   1.08381   0.79644   0.87591   0.95162
 2091  O(ATOM   2091  OH  TYR X 138)   1.83022   1.31750   1.83864   1.51278
 2092  H(ATOM   2092  HH  TYR X 138)   0.63881
 2093  C(ATOM   2093  CE2 TYR X 138)   1.08705   1.06043   1.09449   1.04179
 2094  H(ATOM   2094  HE2 TYR X 138)   0.82481
 2095  C(ATOM   2095  CD2 TYR X 138)   1.08886   0.96893   0.98224   1.05785
 2096  H(ATOM   2096  HD2 TYR X 138)   0.84033
 2097  C(ATOM   2097  C   TYR X 138)   1.08164   0.74943   0.74661   0.84708
 2098  O(ATOM   2098  O   TYR X 138)   1.87250   1.50030   1.70173   1.56538
 2099  N(ATOM   2099  N   GLU X 139)   1.54900   1.28088   1.51587   1.20272
 2100  H(ATOM   2100  H   GLU X 139)   0.67197
 2101  C(ATOM   2101  CA  GLU X 139)   1.08137   0.99254   1.03833   0.88006
 2102  H(ATOM   2102  HA  GLU X 139)   0.82582
 2103  C(ATOM   2103  CB  GLU X 139)   1.06093   0.98620   1.15153   1.09156
 2104  H(ATOM   2104 1HB  GLU X 139)   0.83162
 2105  H(ATOM   2105 2HB  GLU X 139)   0.84118
 2106  C(ATOM   2106  CG  GLU X 139)   1.07136   1.06022   1.18173   1.05031
 2107  H(ATOM   2107 1HG  GLU X 139)   0.83481
 2108  H(ATOM   2108 2HG  GLU X 139)   0.81598
 2109  C(ATOM   2109  CD  GLU X 139)   1.08169   0.81034   0.62754   0.71577
 2110  O(ATOM   2110  OE1 GLU X 139)   1.88756   1.88983   1.66135   1.41338
 2111  O(ATOM   2111  OE2 GLU X 139)   1.88687   1.69237   1.69892   1.58589
 2112  C(ATOM   2112  C   GLU X 139)   1.08114   0.78534   0.76104   0.79489
 2113  O(ATOM   2113  O   GLU X 139)   1.88332   1.71697   1.73126   1.26249
 2114  N(ATOM   2114  N   GLU X 140)   1.55303   1.32491   1.46916   1.21747
 2115  H(ATOM   2115  H   GLU X 140)   0.65646
 2116  C(ATOM   2116  CA  GLU X 140)   1.08327   0.84653   0.95901   1.07975
 2117  H(ATOM   2117  HA  GLU X 140)   0.80090
 2118  C(ATOM   2118  CB  GLU X 140)   1.06128   1.10135   1.05470   1.05438
 2119  H(ATOM   2119 1HB  GLU X 140)   0.82764
 2120  H(ATOM   2120 2HB  GLU X 140)   0.84722
 2121  C(ATOM   2121  CG  GLU X 140)   1.07452   1.10626   1.08379   1.12156
 2122  H(ATOM   2122 1HG  GLU X 140)   0.83980
 2123  H(ATOM   2123 2HG  GLU X 140)   0.82881
 2124  C(ATOM   2124  CD  GLU X 140)   1.08033   0.66606   0.70178   0.78295
 2125  O(ATOM   2125  OE1 GLU X 140)   1.88215   1.55831   1.50747   1.91129
 2126  O(ATOM   2126  OE2 GLU X 140)   1.89030   1.66869   1.78990   1.49642
 2127  C(ATOM   2127  C   GLU X 140)   1.08866   0.80471   0.77626   0.76689
 2128  O(ATOM   2128  O   GLU X 140)   1.88186   1.61214   1.77788   1.34183
 2129  N(ATOM   2129  N   PHE X 141)   1.55156   1.36942   1.27533   1.35757
 2130  H(ATOM   2130  H   PHE X 141)   0.67438
 2131  C(ATOM   2131  CA  PHE X 141)   1.07629   0.98147   0.92938   0.96802
 2132  H(ATOM   2132  HA  PHE X 141)   0.80643
 2133  C(ATOM   2133  CB  PHE X 141)   1.05813   1.06989   1.11957   1.05679
 2134  H(ATOM   2134 1HB  PHE X 141)   0.82972
 2135  H(ATOM   2135 2HB  PHE X 141)   0.84174
 2136  C(ATOM   2136  CG  PHE X 141)   1.07333   0.96203   0.99141   0.98040
 2137  C(ATOM   2137  CD1 PHE X 141)   1.08953   0.97851   1.02058   1.06478
 2138  H(ATOM   2138  HD1 PHE X 141)   0.83061
 2139  C(ATOM   2139  CE1 PHE X 141)   1.08478   1.04733   1.00585   1.00402
 2140  H(ATOM   2140  HE1 PHE X 141)   0.84888
 2141  C(ATOM   2141  CZ  PHE X 141)   1.08509   1.05891   0.99648   1.00917
 2142  H(ATOM   2142  HZ  PHE X 141)   0.84964
 2143  C(ATOM   2143  CE2 PHE X 141)   1.08697   0.99095   1.02281   1.05464
 2144  H(ATOM   2144  HE2 PHE X 141)   0.85826
 2145  C(ATOM   2145  CD2 PHE X 141)   1.08861   1.04963   1.01406   1.00809
 2146  H(ATOM   2146  HD2 PHE X 141)   0.84718
 2147  C(ATOM   2147  C   PHE X 141)   1.08444   0.76440   0.76672   0.83305
 2148  O(ATOM   2148  O   PHE X 141)   1.88263   1.50328   1.61523   1.60965
 2149  N(ATOM   2149  N   VAL X 142)   1.55115   1.17450   1.55639   1.27392
 2150  H(ATOM   2150  H   VAL X 142)   0.65026
 2151  C(ATOM   2151  CA  VAL X 142)   1.08066   1.03207   1.04720   0.83830
 2152  H(ATOM   2152  HA  VAL X 142)   0.82534
 2153  C(ATOM   2153  CB  VAL X 142)   1.05912   0.94976   1.09319   0.99317
 2154  H(ATOM   2154  HB  VAL X 142)   0.84590
 2155  C(ATOM   2155  CG1 VAL X 142)   1.05362   1.17744   1.15540   1.05745
 2156  H(ATOM   2156 1HG1 VAL X 142)   0.84219
 2157  H(ATOM   2157 2HG1 VAL X 142)   0.84450
 2158  H(ATOM   2158 3HG1 VAL X 142)   0.84139
 2159  C(ATOM   2159  CG2 VAL X 142)   1.05576   1.15557   1.14088   1.10927
 2160  H(ATOM   2160 1HG2 VAL X 142)   0.84979
 2161  H(ATOM   2161 2HG2 VAL X 142)   0.84807
 2162  H(ATOM   2162 3HG2 VAL X 142)   0.85540
 2163  C(ATOM   2163  C   VAL X 142)   1.08336   0.74917   0.77299   0.81881
 2164  O(ATOM   2164  O   VAL X 142)   1.88499   1.47111   1.73758   1.52080
 2165  N(ATOM   2165  N   GLN X 143)   1.55346   1.54099   1.15580   1.31214
 2166  H(ATOM   2166  H   GLN X 143)   0.65616
 2167  C(ATOM   2167  CA  GLN X 143)   1.07897   0.96688   0.95099   0.97226
 2168  H(ATOM   2168  HA  GLN X 143)   0.80901
 2169  C(ATOM   2169  CB  GLN X 143)   1.06128   0.98054   1.02426   1.19796
 2170  H(ATOM   2170 1HB  GLN X 143)   0.81983
 2171  H(ATOM   2171 2HB  GLN X 143)   0.82876
 2172  C(ATOM   2172  CG  GLN X 143)   1.06821   1.03273   1.05039   1.19703
 2173  H(ATOM   2173 1HG  GLN X 143)   0.81695
 2174  H(ATOM   2174 2HG  GLN X 143)   0.81975
 2175  C(ATOM   2175  CD  GLN X 143)   1.06916   0.78118   0.84801   0.69494
 2176  O(ATOM   2176  OE1 GLN X 143)   1.87519   1.77512   1.42086   1.65129
 2177  N(ATOM   2177  NE2 GLN X 143)   1.52458   1.17657   1.23082   1.67008
 2178  H(ATOM   2178 1HE2 GLN X 143)   0.66396
 2179  H(ATOM   2179 2HE2 GLN X 143)   0.66629
 2180  C(ATOM   2180  C   GLN X 143)   1.08820   0.86739   0.72178   0.77094
 2181  O(ATOM   2181  O   GLN X 143)   1.88762   1.74105   1.57207   1.37260
 2182  N(ATOM   2182  N   MET X 144)   1.54952   1.12219   1.69927   1.19377
 2183  H(ATOM   2183  H   MET X 144)   0.65824
 2184  C(ATOM   2184  CA  MET X 144)   1.07336   0.80647   1.04793   1.03582
 2185  H(ATOM   2185  HA  MET X 144)   0.81491
 2186  C(ATOM   2186  CB  MET X 144)   1.05801   1.15476   1.07239   1.01049
 2187  H(ATOM   2187 1HB  MET X 144)   0.84551
 2188  H(ATOM   2188 2HB  MET X 144)   0.82777
 2189  C(ATOM   2189  CG  MET X 144)   1.07454   1.18339   1.04813   1.03219
 2190  H(ATOM   2190 1HG  MET X 144)   0.82154
 2191  H(ATOM   2191 2HG  MET X 144)   0.82449
 2192  S(ATOM   2192  SD  MET X 144)   1.89996   1.72112   1.20173   1.09384   0.02159   0.01587   0.04450   0.01644   0.01802
 2193  C(ATOM   2193  CE  MET X 144)   1.07080   1.17430   1.05357   1.19048
 2194  H(ATOM   2194 1HE  MET X 144)   0.82739
 2195  H(ATOM   2195 2HE  MET X 144)   0.82413
 2196  H(ATOM   2196 3HE  MET X 144)   0.83022
 2197  C(ATOM   2197  C   MET X 144)   1.08615   0.78585   0.81433   0.71436
 2198  O(ATOM   2198  O   MET X 144)   1.87769   1.30973   1.88008   1.63084
 2199  N(ATOM   2199  N   MET X 145)   1.54504   1.27094   1.14749   1.55429
 2200  H(ATOM   2200  H   MET X 145)   0.64729
 2201  C(ATOM   2201  CA  MET X 145)   1.07614   1.11784   0.85510   0.93237
 2202  H(ATOM   2202  HA  MET X 145)   0.81363
 2203  C(ATOM   2203  CB  MET X 145)   1.06211   1.14761   1.05805   1.01946
 2204  H(ATOM   2204 1HB  MET X 145)   0.81552
 2205  H(ATOM   2205 2HB  MET X 145)   0.83523
 2206  C(ATOM   2206  CG  MET X 145)   1.07430   1.18487   1.03254   1.03401
 2207  H(ATOM   2207 1HG  MET X 145)   0.82600
 2208  H(ATOM   2208 2HG  MET X 145)   0.82794
 2209  S(ATOM   2209  SD  MET X 145)   1.89382   1.23637   0.98532   1.82510   0.03356   0.00562   0.02537   0.01656   0.04023
 2210  C(ATOM   2210  CE  MET X 145)   1.07203   1.06004   1.13849   1.21255
 2211  H(ATOM   2211 1HE  MET X 145)   0.82310
 2212  H(ATOM   2212 2HE  MET X 145)   0.85733
 2213  H(ATOM   2213 3HE  MET X 145)   0.79519
 2214  C(ATOM   2214  C   MET X 145)   1.08712   0.74908   0.71944   0.87097
 2215  O(ATOM   2215  O   MET X 145)   1.87910   1.51438   1.58713   1.66064
 2216  N(ATOM   2216  N   THR X 146)   1.54598   1.24527   1.60200   1.13267
 2217  H(ATOM   2217  H   THR X 146)   0.63536
 2218  C(ATOM   2218  CA  THR X 146)   1.08211   0.98750   1.11557   0.83531
 2219  H(ATOM   2219  HA  THR X 146)   0.79957
 2220  C(ATOM   2220  CB  THR X 146)   1.07128   0.91095   0.96452   0.89227
 2221  H(ATOM   2221  HB  THR X 146)   0.92470
 2222  C(ATOM   2222  CG2 THR X 146)   1.06528   1.13047   1.12131   1.19874
 2223  H(ATOM   2223 1HG2 THR X 146)   0.83450
 2224  H(ATOM   2224 2HG2 THR X 146)   0.81938
 2225  H(ATOM   2225 3HG2 THR X 146)   0.81492
 2226  O(ATOM   2226  OG1 THR X 146)   1.83954   1.40166   1.70146   1.59813
 2227  H(ATOM   2227  HG1 THR X 146)   0.65760
 2228  C(ATOM   2228  C   THR X 146)   1.08670   0.78270   0.77510   0.79994
 2229  O(ATOM   2229  O   THR X 146)   1.88433   1.59419   1.78744   1.39401
 2230  N(ATOM   2230  N   ALA X 147)   1.54973   1.43775   1.15196   1.38799
 2231  H(ATOM   2231  H   ALA X 147)   0.64550
 2232  C(ATOM   2232  CA  ALA X 147)   1.07091   1.00426   0.92084   0.96749
 2233  H(ATOM   2233  HA  ALA X 147)   0.83616
 2234  C(ATOM   2234  CB  ALA X 147)   1.05771   1.17941   1.20001   1.02076
 2235  H(ATOM   2235 1HB  ALA X 147)   0.83221
 2236  H(ATOM   2236 2HB  ALA X 147)   0.82041
 2237  H(ATOM   2237 3HB  ALA X 147)   0.84946
 2238  C(ATOM   2238  C   ALA X 147)   1.07866   0.77194   0.84403   0.75186
 2239  O(ATOM   2239  O   ALA X 147)   1.88331   1.37312   1.73798   1.62100
 2240  N(ATOM   2240  N   LYS X 148)   1.54767   1.17879   1.25534   1.54758
 2241  H(ATOM   2241  H   LYS X 148)   0.66772
 2242  C(ATOM   2242  CA  LYS X 148)   1.08354   1.04292   0.83767   1.05255
 2243  H(ATOM   2243  HA  LYS X 148)   0.82529
 2244  C(ATOM   2244  CB  LYS X 148)   1.06164   1.01398   1.12206   1.09397
 2245  H(ATOM   2245 1HB  LYS X 148)   0.83644
 2246  H(ATOM   2246 2HB  LYS X 148)   0.84515
 2247  C(ATOM   2247  CG  LYS X 148)   1.05882   1.15299   0.98243   1.06667
 2248  H(ATOM   2248 1HG  LYS X 148)   0.85217
 2249  H(ATOM   2249 2HG  LYS X 148)   0.84657
 2250  C(ATOM   2250  CD  LYS X 148)   1.06222   1.11581   1.02060   1.08278
 2251  H(ATOM   2251 1HD  LYS X 148)   0.82227
 2252  H(ATOM   2252 2HD  LYS X 148)   0.83319
 2253  C(ATOM   2253  CE  LYS X 148)   1.08054   1.07765   1.19962   0.84426
 2254  H(ATOM   2254 1HE  LYS X 148)   0.81220
 2255  H(ATOM   2255 2HE  LYS X 148)   0.79924
 2256  N(ATOM   2256  NZ  LYS X 148)   1.46366   1.26494   1.26582   1.20520
 2257  H(ATOM   2257 1HZ  LYS X 148)   0.72553
 2258  H(ATOM   2258 2HZ  LYS X 148)   0.69427
 2259  H(ATOM   2259 3HZ  LYS X 148)   0.67710
 2260  C(ATOM   2260  C   LYS X 148)   1.08691   0.64885   0.76292   0.77064
 2261  O(ATOM   2261  O   LYS X 148)   1.88616   1.63534   1.50717   1.82394
 2262  O(ATOM   2262  OXT LYS X 148)   1.88347   1.68255   1.86639   1.39027
 2263 Ca(HETATM 2263 CA    CA X 149)   0.30414   0.01188   0.01998   0.02793
 2264 Ca(HETATM 2264 CA    CA X 150)   0.28532   0.01350   0.01433   0.01195
 2265 Ca(HETATM 2265 CA    CA X 151)   0.24444   0.01258   0.00502   0.01635
 2266 Ca(HETATM 2266 CA    CA X 152)   0.20772   0.01107   0.00616   0.00812

 **********************
 *                    *
 * JOB ENDED NORMALLY *
 *                    *
 **********************



 TOTAL JOB TIME:           142.88 SECONDS

 == MOPAC DONE ==
