 Entering Gaussian System, Link 0=g09
 Initial command:
 /home/pcieplak/g09/g09/l1.exe "/scratch1/pcieplak/fullloop_17.0/Gau-31026.inp" -scrdir="/scratch1/pcieplak/fullloop_17.0/"
 Entering Link 1 = /home/pcieplak/g09/g09/l1.exe PID=     31027.
  
 Copyright (c) 1988,1990,1992,1993,1995,1998,2003,2009,2013,
            Gaussian, Inc.  All Rights Reserved.
  
 This is part of the Gaussian(R) 09 program.  It is based on
 the Gaussian(R) 03 system (copyright 2003, Gaussian, Inc.),
 the Gaussian(R) 98 system (copyright 1998, Gaussian, Inc.),
 the Gaussian(R) 94 system (copyright 1995, Gaussian, Inc.),
 the Gaussian 92(TM) system (copyright 1992, Gaussian, Inc.),
 the Gaussian 90(TM) system (copyright 1990, Gaussian, Inc.),
 the Gaussian 88(TM) system (copyright 1988, Gaussian, Inc.),
 the Gaussian 86(TM) system (copyright 1986, Carnegie Mellon
 University), and the Gaussian 82(TM) system (copyright 1983,
 Carnegie Mellon University). Gaussian is a federally registered
 trademark of Gaussian, Inc.
  
 This software contains proprietary and confidential information,
 including trade secrets, belonging to Gaussian, Inc.
  
 This software is provided under written license and may be
 used, copied, transmitted, or stored only in accord with that
 written license.
  
 The following legend is applicable only to US Government
 contracts under FAR:
  
                    RESTRICTED RIGHTS LEGEND
  
 Use, reproduction and disclosure by the US Government is
 subject to restrictions as set forth in subparagraphs (a)
 and (c) of the Commercial Computer Software - Restricted
 Rights clause in FAR 52.227-19.
  
 Gaussian, Inc.
 340 Quinnipiac St., Bldg. 40, Wallingford CT 06492
  
  
 ---------------------------------------------------------------
 Warning -- This program may not be used in any manner that
 competes with the business of Gaussian, Inc. or will provide
 assistance to any competitor of Gaussian, Inc.  The licensee
 of this program is prohibited from giving any competitor of
 Gaussian, Inc. access to this program.  By using this program,
 the user acknowledges that Gaussian, Inc. is engaged in the
 business of creating and licensing software in the field of
 computational chemistry and represents and warrants to the
 licensee that it is not a competitor of Gaussian, Inc. and that
 it will not use this program in any manner prohibited above.
 ---------------------------------------------------------------
  

 Cite this work as:
 Gaussian 09, Revision D.01,
 M. J. Frisch, G. W. Trucks, H. B. Schlegel, G. E. Scuseria, 
 M. A. Robb, J. R. Cheeseman, G. Scalmani, V. Barone, B. Mennucci, 
 G. A. Petersson, H. Nakatsuji, M. Caricato, X. Li, H. P. Hratchian, 
 A. F. Izmaylov, J. Bloino, G. Zheng, J. L. Sonnenberg, M. Hada, 
 M. Ehara, K. Toyota, R. Fukuda, J. Hasegawa, M. Ishida, T. Nakajima, 
 Y. Honda, O. Kitao, H. Nakai, T. Vreven, J. A. Montgomery, Jr., 
 J. E. Peralta, F. Ogliaro, M. Bearpark, J. J. Heyd, E. Brothers, 
 K. N. Kudin, V. N. Staroverov, T. Keith, R. Kobayashi, J. Normand, 
 K. Raghavachari, A. Rendell, J. C. Burant, S. S. Iyengar, J. Tomasi, 
 M. Cossi, N. Rega, J. M. Millam, M. Klene, J. E. Knox, J. B. Cross, 
 V. Bakken, C. Adamo, J. Jaramillo, R. Gomperts, R. E. Stratmann, 
 O. Yazyev, A. J. Austin, R. Cammi, C. Pomelli, J. W. Ochterski, 
 R. L. Martin, K. Morokuma, V. G. Zakrzewski, G. A. Voth, 
 P. Salvador, J. J. Dannenberg, S. Dapprich, A. D. Daniels, 
 O. Farkas, J. B. Foresman, J. V. Ortiz, J. Cioslowski, 
 and D. J. Fox, Gaussian, Inc., Wallingford CT, 2013.
 
 ******************************************
 Gaussian 09:  ES64L-G09RevD.01 24-Apr-2013
                16-Sep-2019 
 ******************************************
 %Nproc=12
 Will use up to   12 processors via shared memory.
 %chk=chk1mol
 %mem=32GB
 ----------------------------------------------------------------------
 #maxdisk=50GB #B3LYP/SVP Density=Current scf=(tight) #IOP(5/87=12)Pop=
 (MK,readradii) iop(6/33=2) iop(6/42=6)
 ----------------------------------------------------------------------
 1/30=1,38=1/1;
 2/12=2,17=6,18=5,40=1/2;
 3/5=18,7=101,11=2,16=1,25=1,30=1,74=-5/1,2,3;
 4//1;
 5/5=2,32=2,38=5,87=12/2;
 6/7=2,8=2,9=2,10=2,15=8,20=101,22=-1,28=1,33=2,42=6/1,2;
 99/5=1,9=1/99;
 ------------
 SOL molecule
 ------------
 Symbolic Z-matrix:
 Charge =  0 Multiplicity = 1
 C                     88.05     65.14     32.13 
 C                     87.97     65.03     33.65 
 O                     88.93     64.47     34.17 
 H                     89.066    65.406    31.839 
 H                     87.783    64.183    31.681 
 H                     87.36     65.91     31.784 
 N                     87.03     65.6      34.41 
 C                     86.74     65.3      35.8 
 C                     85.99     63.98     35.88 
 O                     84.91     63.77     35.33 
 C                     85.99     66.46     36.45 
 C                     85.74     66.2      37.93 
 O                     85.97     65.11     38.51 
 O                     85.04     67.07     38.5 
 H                     86.29     66.07     33.91 
 H                     87.72     65.34     36.27 
 H                     85.06     66.72     35.95 
 H                     86.58     67.36     36.27 
 N                     86.64     63.01     36.53 
 C                     86.3      61.6      36.58 
 C                     85.02     61.28     37.35 
 O                     84.23     60.45     36.9 
 C                     87.5      60.84     37.13 
 C                     87.44     59.33     36.92 
 C                     88.8      58.65     37.11 
 C                     88.77     57.14     37.28 
 N                     90.08     56.61     37.71 
 H                     87.48     63.23     37.04 
 H                     86.21     61.22     35.56 
 H                     87.58     60.99     38.21 
 H                     88.38     61.23     36.62 
 H                     87.09     59.3      35.89 
 H                     86.67     58.91     37.57 
 H                     89.19     59.09     38.02 
 H                     89.41     58.9      36.24 
 H                     88.47     56.71     36.33 
 H                     88.08     56.94     38.1 
 H                     89.94     55.68     38.06 
 H                     90.69     56.47     36.91 
 H                     90.47     57.22     38.41 
 N                     84.82     62.06     38.41 
 C                     83.83     61.9      39.46 
 C                     82.74     62.96     39.46 
 O                     81.73     62.71     40.11 
 C                     84.46     61.8      40.84 
 C                     85.46     62.88     41.23 
 O                     85.13     64.07     41.02 
 O                     86.67     62.66     41.43 
 H                     85.58     62.7      38.55 
 H                     83.37     60.94     39.21 
 H                     84.91     60.8      40.85 
 H                     83.66     61.85     41.58 
 N                     82.98     64.15     38.91 
 C                     82.12     65.31     38.8 
 C                     82.       66.11     40.09 
 O                     80.95     66.72     40.29 
 H                     83.92     64.25     38.53 
 H                     81.16     65.       38.37 
 H                     82.62     65.92     38.05 
 N                     83.06     66.2      40.91 
 C                     83.08     67.11     42.03 
 C                     83.42     68.57     41.74 
 O                     83.24     69.37     42.65 
 C                     84.03     66.53     43.06 
 C                     85.49     66.91     42.83 
 N                     86.11     67.45     43.89 
 O                     86.09     66.91     41.76 
 H                     83.9      65.7      40.66 
 H                     82.06     67.04     42.43 
 H                     83.91     65.45     43.13 
 H                     83.83     67.01     44.02 
 H                     85.52     67.55     44.7 
 H                     87.08     67.71     43.9 
 N                     83.93     68.93     40.57 
 C                     84.27     70.29     40.2 
 C                     85.6      70.45     39.47 
 O                     85.75     71.55     38.94 
 H                     84.15     68.21     39.89 
 H                     84.55     70.75     41.15 
 H                     83.42     70.83     39.77 
 N                     86.46     69.43     39.44 
 C                     87.89     69.63     39.33 
 C                     88.65     68.43     38.78 
 O                     88.17     67.33     39.04 
 C                     88.58     69.94     40.66 
 C                     88.01     71.04     41.53 
 C                     88.44     72.37     41.4 
 C                     86.98     70.72     42.42 
 C                     87.89     73.38     42.2 
 C                     86.46     71.72     43.26 
 C                     87.05     73.       43.26 
 O                     86.71     73.94     44.19 
 H                     86.12     68.51     39.69 
 H                     88.16     70.48     38.71 
 H                     89.58     70.31     40.42 
 H                     88.79     69.01     41.18 
 H                     89.17     72.54     40.62 
 H                     86.65     69.69     42.35 
 H                     88.27     74.38     42.08 
 H                     85.63     71.49     43.91 
 H                     86.13     73.49     44.81 
 N                     89.66     68.69     37.94 
 C                     90.58     67.73     37.37 
 C                     91.76     67.62     38.32 
 O                     92.24     68.61     38.87 
 C                     90.96     68.04     35.92 
 C                     89.92     68.77     35.09 
 C                     91.45     66.81     35.16 
 C                     90.41     69.48     33.84 
 H                     89.9      69.65     37.75 
 H                     90.13     66.74     37.28 
 H                     91.8      68.72     36.09 
 H                     89.48     69.54     35.74 
 H                     89.14     68.04     34.87 
 H                     91.79     67.07     34.16 
 H                     92.26     66.36     35.74 
 H                     90.67     66.06     35.06 
 H                     90.63     68.69     33.12 
 H                     89.63     70.13     33.45 
 H                     91.34     70.       34.05 
 N                     92.4      66.46     38.41 
 C                     93.69     66.23     39.04 
 C                     94.4      65.23     38.14 
 O                     93.85     64.78     37.13 
 C                     93.48     65.71     40.46 
 O                     92.83     64.46     40.44 
 H                     92.08     65.68     37.86 
 H                     94.28     67.14     39.02 
 H                     92.98     66.52     41. 
 H                     94.36     65.42     41.02 
 H                     91.88     64.57     40.4 
 N                     95.69     64.98     38.4 
 C                     96.59     64.34     37.46 
 C                     96.13     62.93     37.17 
 O                     96.16     62.61     35.98 
 C                     98.02     64.38     38. 
 H                     96.11     65.53     39.13 
 H                     96.52     64.92     36.54 
 H                     98.64     64.13     37.15 
 H                     98.32     65.39     38.28 
 H                     98.04     63.75     38.89 
 N                     95.69     62.15     38.16 
 C                     95.24     60.79     37.93 
 C                     94.07     60.73     36.95 
 O                     93.99     59.82     36.13 
 C                     94.87     60.14     39.26 
 H                     95.69     62.48     39.12 
 H                     96.1      60.32     37.45 
 H                     94.05     60.71     39.71 
 H                     94.47     59.15     39.03 
 H                     95.72     60.15     39.94 
 N                     93.19     61.72     37.11 
 C                     91.95     61.83     36.37 
 C                     92.23     62.32     34.96 
 O                     91.62     61.83     34.02 
 C                     91.03     62.76     37.17 
 C                     90.62     62.38     38.59 
 C                     89.74     63.41     39.27 
 O                     88.62     63.71     38.8 
 O                     90.06     63.94     40.36 
 H                     93.37     62.4      37.84 
 H                     91.45     60.86     36.29 
 H                     90.09     62.88     36.64 
 H                     91.46     63.76     37.26 
 H                     91.52     62.21     39.18 
 H                     90.08     61.44     38.61 
 N                     93.25     63.18     34.82 
 C                     93.62     63.65     33.5 
 H                     94.652    63.37     33.291 
 H                     92.964    63.198    32.756 
 H                     93.524    64.735    33.46 
 H                     93.83     63.49     35.59 
 CA                    87.44     65.04     40.53 
 O                     89.5      66.61     41.57 
 H                     90.28     66.27     42.01 
 H                     89.35     67.47     41.96 
 
 Stoichiometry    C54H83CaN15O23
 Framework group  C1[X(C54H83CaN15O23)]
 Deg. of freedom   522
 Full point group                 C1      NOp   1
 Largest Abelian subgroup         C1      NOp   1
 Largest concise Abelian subgroup C1      NOp   1
                         Standard orientation:                         
 ---------------------------------------------------------------------
 Center     Atomic      Atomic             Coordinates (Angstroms)
 Number     Number       Type             X           Y           Z
 ---------------------------------------------------------------------
      1          6           0        2.164456    1.316552    5.969160
      2          6           0        1.581951    1.240086    4.560707
      3          8           0        2.402174    0.983093    3.685043
      4          1           0        2.883085    0.509149    6.108316
      5          1           0        2.665586    2.275348    6.104503
      6          1           0        1.362022    1.218313    6.700710
      7          7           0        0.279492    1.299211    4.267099
      8          6           0       -0.304222    1.518550    2.956615
      9          6           0       -0.164574    2.986636    2.587129
     10          8           0       -0.638500    3.908851    3.248880
     11          6           0       -1.748259    1.024088    2.927199
     12          6           0       -2.358892    1.175139    1.539824
     13          8           0       -1.811263    1.776316    0.582698
     14          8           0       -3.575545    0.880241    1.472058
     15          1           0       -0.335776    1.481954    5.045913
     16          1           0        0.219841    0.800101    2.330445
     17          1           0       -2.388825    1.487079    3.674068
     18          1           0       -1.736993   -0.009457    3.276709
     19          7           0        0.601521    3.220022    1.517302
     20          6           0        1.106191    4.500033    1.055696
     21          6           0        0.037599    5.449795    0.517400
     22          8           0        0.081472    6.644688    0.810328
     23          6           0        2.202893    4.238231    0.031584
     24          6           0        3.070034    5.452292   -0.287666
     25          6           0        4.379585    5.077979   -0.989853
     26          6           0        5.123036    6.220260   -1.662442
     27          7           0        6.220802    5.730513   -2.520905
     28          1           0        0.907370    2.448301    0.947211
     29          1           0        1.640298    4.987327    1.874338
     30          1           0        1.764903    3.923647   -0.919469
     31          1           0        2.836555    3.453472    0.442954
     32          1           0        3.222607    5.840412    0.717512
     33          1           0        2.480670    6.170500   -0.860927
     34          1           0        4.077122    4.369701   -1.751862
     35          1           0        5.028366    4.621093   -0.240294
     36          1           0        5.502083    6.869290   -0.879829
     37          1           0        4.406629    6.696955   -2.331787
     38          1           0        6.494390    6.477247   -3.132900
     39          1           0        7.057325    5.560108   -1.970548
     40          1           0        5.905432    4.922256   -3.032239
     41          7           0       -0.947001    4.837484   -0.136540
     42          6           0       -1.996167    5.442571   -0.937365
     43          6           0       -3.387627    5.330322   -0.334920
     44          8           0       -4.248480    6.071960   -0.797526
     45          6           0       -2.004018    4.926666   -2.367428
     46          6           0       -2.006735    3.416757   -2.564069
     47          8           0       -2.825627    2.751865   -1.888470
     48          8           0       -1.065380    2.787039   -3.083498
     49          1           0       -0.789506    3.848961   -0.205944
     50          1           0       -1.712898    6.498707   -0.943162
     51          1           0       -1.123912    5.398733   -2.820381
     52          1           0       -2.908836    5.294507   -2.853327
     53          7           0       -3.653352    4.350312    0.528313
     54          6           0       -4.887078    4.031192    1.216340
     55          6           0       -5.911700    3.320939    0.342159
     56          8           0       -7.102668    3.497283    0.597305
     57          1           0       -2.865537    3.729630    0.707485
     58          1           0       -5.263088    4.936436    1.708019
     59          1           0       -4.564049    3.354165    2.004938
     60          7           0       -5.490253    2.465118   -0.603384
     61          6           0       -6.406328    1.605925   -1.314364
     62          6           0       -6.846347    0.321233   -0.616329
     63          8           0       -7.769521   -0.298170   -1.130711
     64          6           0       -5.778369    1.299729   -2.660362
     65          6           0       -4.816721    0.115085   -2.632941
     66          7           0       -5.061299   -0.836132   -3.546706
     67          8           0       -3.960969   -0.117834   -1.785394
     68          1           0       -4.496312    2.345641   -0.729507
     69          1           0       -7.277645    2.251895   -1.484159
     70          1           0       -5.299876    2.186513   -3.073108
     71          1           0       -6.559471    0.929131   -3.327097
     72          1           0       -5.864821   -0.649448   -4.124375
     73          1           0       -4.489066   -1.651497   -3.674492
     74          7           0       -6.217031   -0.114020    0.466776
     75          6           0       -6.571295   -1.311667    1.203144
     76          6           0       -5.392944   -2.177242    1.638651
     77          8           0       -5.683546   -3.034472    2.471783
     78          1           0       -5.396554    0.387297    0.790346
     79          1           0       -6.981680   -1.970769    0.435245
     80          1           0       -7.333521   -1.121883    1.966029
     81          7           0       -4.182497   -1.945027    1.126992
     82          6           0       -3.190118   -2.990545    0.988885
     83          6           0       -1.755058   -2.485933    0.910987
     84          8           0       -1.605428   -1.381506    0.395378
     85          6           0       -3.359914   -3.849031   -0.266214
     86          6           0       -4.721967   -4.442848   -0.556029
     87          6           0       -5.085163   -5.708207   -0.068529
     88          6           0       -5.651293   -3.668628   -1.257695
     89          6           0       -6.355977   -6.236673   -0.329975
     90          6           0       -6.909724   -4.214117   -1.565584
     91          6           0       -7.176705   -5.561229   -1.248551
     92          8           0       -8.303227   -6.188039   -1.698168
     93          1           0       -4.024289   -1.064899    0.652815
     94          1           0       -3.219611   -3.721694    1.791600
     95          1           0       -2.729965   -4.732324   -0.134087
     96          1           0       -2.892122   -3.348333   -1.108754
     97          1           0       -4.337952   -6.193090    0.545282
     98          1           0       -5.302246   -2.666924   -1.480080
     99          1           0       -6.578479   -7.221016    0.044676
    100          1           0       -7.648131   -3.602073   -2.060009
    101          1           0       -8.723695   -5.563647   -2.295363
    102          7           0       -0.826742   -3.208809    1.550502
    103          6           0        0.602547   -2.985387    1.539673
    104          6           0        1.173101   -3.783619    0.380236
    105          8           0        0.772941   -4.916867    0.118283
    106          6           0        1.270525   -3.261200    2.889018
    107          6           0        0.416486   -3.039466    4.123867
    108          6           0        2.602564   -2.533064    3.050545
    109          6           0        0.869085   -3.716723    5.405731
    110          1           0       -1.104145   -4.064080    2.005319
    111          1           0        0.848294   -1.935017    1.375261
    112          1           0        1.453799   -4.335110    2.788880
    113          1           0       -0.583094   -3.434766    3.892398
    114          1           0        0.324414   -1.958781    4.239381
    115          1           0        3.095588   -2.807904    3.980379
    116          1           0        3.228001   -2.786584    2.190571
    117          1           0        2.475415   -1.453836    3.049580
    118          1           0        1.743446   -3.156694    5.741530
    119          1           0        0.082861   -3.660521    6.155193
    120          1           0        1.191774   -4.731870    5.194192
    121          7           0        2.251401   -3.321895   -0.242163
    122          6           0        3.092437   -4.054514   -1.174808
    123          6           0        4.514775   -3.621464   -0.853060
    124          8           0        4.742521   -2.790025    0.031215
    125          6           0        2.677584   -3.723102   -2.606228
    126          8           0        2.891252   -2.357864   -2.881677
    127          1           0        2.654618   -2.449828    0.058195
    128          1           0        3.036754   -5.117849   -0.967883
    129          1           0        1.653751   -4.095387   -2.710488
    130          1           0        3.274548   -4.139853   -3.407509
    131          1           0        2.141750   -1.832052   -2.602448
    132          7           0        5.508910   -4.287567   -1.454893
    133          6           0        6.889360   -4.243137   -1.012647
    134          6           0        7.435634   -2.839691   -1.138049
    135          8           0        8.090974   -2.450652   -0.169247
    136          6           0        7.720170   -5.257309   -1.799609
    137          1           0        5.237280   -5.073485   -2.020888
    138          1           0        6.871588   -4.511514    0.043458
    139          1           0        8.643843   -5.343592   -1.243926
    140          1           0        7.279240   -6.253888   -1.769400
    141          1           0        7.739910   -4.915018   -2.834910
    142          7           0        7.158475   -2.104983   -2.217626
    143          6           0        7.661604   -0.754190   -2.382605
    144          6           0        7.203538    0.170957   -1.256915
    145          8           0        7.959921    1.026669   -0.806867
    146          6           0        7.234231   -0.209868   -3.742519
    147          1           0        6.608200   -2.488778   -2.979465
    148          1           0        8.742190   -0.877256   -2.292674
    149          1           0        6.139790   -0.184009   -3.778985
    150          1           0        7.570813    0.828144   -3.789900
    151          1           0        7.597775   -0.852038   -4.542802
    152          7           0        5.944849   -0.043797   -0.870026
    153          6           0        5.249164    0.763438    0.110633
    154          6           0        5.728584    0.408932    1.507444
    155          8           0        5.906976    1.299173    2.326862
    156          6           0        3.748058    0.530895   -0.098899
    157          6           0        3.107880    0.883099   -1.438685
    158          6           0        1.627482    0.565832   -1.512596
    159          8           0        0.812516    1.115045   -0.738324
    160          8           0        1.154467   -0.191277   -2.392620
    161          1           0        5.423742   -0.775905   -1.339244
    162          1           0        5.442995    1.829011   -0.045203
    163          1           0        3.188642    1.110729    0.628938
    164          1           0        3.481979   -0.514358    0.073289
    165          1           0        3.642114    0.358339   -2.230026
    166          1           0        3.217143    1.937439   -1.666784
    167          7           0        6.065302   -0.873085    1.713977
    168          6           0        6.587892   -1.282090    3.002315
    169          1           0        7.587366   -1.696369    2.873748
    170          1           0        6.635997   -0.418660    3.665904
    171          1           0        5.934985   -2.039546    3.435919
    172          1           0        6.029010   -1.583972    0.993754
    173         20           0       -1.458630    0.614957   -1.602043
    174          8           0       -1.194740   -2.030978   -2.450272
    175          1           0       -0.598316   -2.329551   -3.137827
    176          1           0       -1.928995   -2.642883   -2.475621
 ---------------------------------------------------------------------
 Rotational constants (GHZ):      0.0245950      0.0151177      0.0119368
 Standard basis: SVP (5D, 7F)
 There are  1809 symmetry adapted cartesian basis functions of A   symmetry.
 There are  1717 symmetry adapted basis functions of A   symmetry.
  1717 basis functions,  2922 primitive gaussians,  1809 cartesian basis functions
   358 alpha electrons      358 beta electrons
       nuclear repulsion energy     21847.0542307261 Hartrees.
 NAtoms=  176 NActive=  176 NUniq=  176 SFac= 1.00D+00 NAtFMM=   60 NAOKFM=T Big=T
 Integral buffers will be    131072 words long.
 Raffenetti 2 integral format.
 Two-electron integral symmetry is turned on.
 One-electron integrals computed using PRISM.
 NBasis=  1717 RedAO= T EigKep=  3.43D-04  NBF=  1717
 NBsUse=  1717 1.00D-06 EigRej= -1.00D+00 NBFU=  1717
 ExpMin= 1.98D-02 ExpMax= 3.51D+04 ExpMxC= 5.28D+03 IAcc=3 IRadAn=         5 AccDes= 0.00D+00
 Harris functional with IExCor=  402 and IRadAn=       5 diagonalized for initial guess.
 HarFok:  IExCor=  402 AccDes= 0.00D+00 IRadAn=         5 IDoV= 1 UseB2=F ITyADJ=14
 ICtDFT=  3500011 ScaDFX=  1.000000  1.000000  1.000000  1.000000
 FoFCou: FMM=F IPFlag=           0 FMFlag=      100000 FMFlg1=        2001
         NFxFlg=           0 DoJE=T BraDBF=F KetDBF=T FulRan=T
         wScrn=  0.000000 ICntrl=     500 IOpCl=  0 I1Cent=   200000004 NGrid=           0
         NMat0=    1 NMatS0=      1 NMatT0=    0 NMatD0=    1 NMtDS0=    0 NMtDT0=    0
 Petite list used in FoFCou.
 Requested convergence on RMS density matrix=1.00D-08 within 128 cycles.
 Requested convergence on MAX density matrix=1.00D-06.
 Requested convergence on             energy=1.00D-06.
 No special actions if energy rises.
 EnCoef did     4 forward-backward iterations
 SCF Done:  E(RB3LYP) =  -5333.60046668     A.U. after   19 cycles
            NFock= 19  Conv=0.30D-08     -V/T= 2.0081

 **********************************************************************

            Population analysis using the SCF density.

 **********************************************************************

 Orbital symmetries:
 BldTbl:  Degeneracy threshold= 1.00D-02
       Occupied  (A) (A) (A) (A) (A) (A) (A) (A) (A) (A) (A) (A)
                 (A) (A) (A) (A) (A) (A) (A) (A) (A) (A) (A) (A)
                 (A) (A) (A) (A) (A) (A) (A) (A) (A) (A) (A) (A)
                 (A) (A) (A) (A) (A) (A) (A) (A) (A) (A) (A) (A)
                 (A) (A) (A) (A) (A) (A) (A) (A) (A) (A) (A) (A)
                 (A) (A) (A) (A) (A) (A) (A) (A) (A) (A) (A) (A)
                 (A) (A) (A) (A) (A) (A) (A) (A) (A) (A) (A) (A)
                 (A) (A) (A) (A) (A) (A) (A) (A) (A) (A) (A) (A)
                 (A) (A) (A) (A) (A) (A) (A) (A) (A) (A) (A) (A)
                 (A) (A) (A) (A) (A) (A) (A) (A) (A) (A) (A) (A)
                 (A) (A) (A) (A) (A) (A) (A) (A) (A) (A) (A) (A)
                 (A) (A) (A) (A) (A) (A) (A) (A) (A) (A) (A) (A)
                 (A) (A) (A) (A) (A) (A) (A) (A) (A) (A) (A) (A)
                 (A) (A) (A) (A) (A) (A) (A) (A) (A) (A) (A) (A)
                 (A) (A) (A) (A) (A) (A) (A) (A) (A) (A) (A) (A)
                 (A) (A) (A) (A) (A) (A) (A) (A) (A) (A) (A) (A)
                 (A) (A) (A) (A) (A) (A) (A) (A) (A) (A) (A) (A)
                 (A) (A) (A) (A) (A) (A) (A) (A) (A) (A) (A) (A)
                 (A) (A) (A) (A) (A) (A) (A) (A) (A) (A) (A) (A)
                 (A) (A) (A) (A) (A) (A) (A) (A) (A) (A) (A) (A)
                 (A) (A) (A) (A) (A) (A) (A) (A) (A) (A) (A) (A)
                 (A) (A) (A) (A) (A) (A) (A) (A) (A) (A) (A) (A)
                 (A) (A) (A) (A) (A) (A) (A) (A) (A) (A) (A) (A)
                 (A) (A) (A) (A) (A) (A) (A) (A) (A) (A) (A) (A)
                 (A) (A) (A) (A) (A) (A) (A) (A) (A) (A) (A) (A)
                 (A) (A) (A) (A) (A) (A) (A) (A) (A) (A) (A) (A)
                 (A) (A) (A) (A) (A) (A) (A) (A) (A) (A) (A) (A)
                 (A) (A) (A) (A) (A) (A) (A) (A) (A) (A) (A) (A)
                 (A) (A) (A) (A) (A) (A) (A) (A) (A) (A) (A) (A)
                 (A) (A) (A) (A) (A) (A) (A) (A) (A) (A)
       Virtual   (A) (A) (A) (A) (A) (A) (A) (A) (A) (A) (A) (A)
                 (A) (A) (A) (A) (A) (A) (A) (A) (A) (A) (A) (A)
                 (A) (A) (A) (A) (A) (A) (A) (A) (A) (A) (A) (A)
                 (A) (A) (A) (A) (A) (A) (A) (A) (A) (A) (A) (A)
                 (A) (A) (A) (A) (A) (A) (A) (A) (A) (A) (A) (A)
                 (A) (A) (A) (A) (A) (A) (A) (A) (A) (A) (A) (A)
                 (A) (A) (A) (A) (A) (A) (A) (A) (A) (A) (A) (A)
                 (A) (A) (A) (A) (A) (A) (A) (A) (A) (A) (A) (A)
                 (A) (A) (A) (A) (A) (A) (A) (A) (A) (A) (A) (A)
                 (A) (A) (A) (A) (A) (A) (A) (A) (A) (A) (A) (A)
                 (A) (A) (A) (A) (A) (A) (A) (A) (A) (A) (A) (A)
                 (A) (A) (A) (A) (A) (A) (A) (A) (A) (A) (A) (A)
                 (A) (A) (A) (A) (A) (A) (A) (A) (A) (A) (A) (A)
                 (A) (A) (A) (A) (A) (A) (A) (A) (A) (A) (A) (A)
                 (A) (A) (A) (A) (A) (A) (A) (A) (A) (A) (A) (A)
                 (A) (A) (A) (A) (A) (A) (A) (A) (A) (A) (A) (A)
                 (A) (A) (A) (A) (A) (A) (A) (A) (A) (A) (A) (A)
                 (A) (A) (A) (A) (A) (A) (A) (A) (A) (A) (A) (A)
                 (A) (A) (A) (A) (A) (A) (A) (A) (A) (A) (A) (A)
                 (A) (A) (A) (A) (A) (A) (A) (A) (A) (A) (A) (A)
                 (A) (A) (A) (A) (A) (A) (A) (A) (A) (A) (A) (A)
                 (A) (A) (A) (A) (A) (A) (A) (A) (A) (A) (A) (A)
                 (A) (A) (A) (A) (A) (A) (A) (A) (A) (A) (A) (A)
                 (A) (A) (A) (A) (A) (A) (A) (A) (A) (A) (A) (A)
                 (A) (A) (A) (A) (A) (A) (A) (A) (A) (A) (A) (A)
                 (A) (A) (A) (A) (A) (A) (A) (A) (A) (A) (A) (A)
                 (A) (A) (A) (A) (A) (A) (A) (A) (A) (A) (A) (A)
                 (A) (A) (A) (A) (A) (A) (A) (A) (A) (A) (A) (A)
                 (A) (A) (A) (A) (A) (A) (A) (A) (A) (A) (A) (A)
                 (A) (A) (A) (A) (A) (A) (A) (A) (A) (A) (A) (A)
                 (A) (A) (A) (A) (A) (A) (A) (A) (A) (A) (A) (A)
                 (A) (A) (A) (A) (A) (A) (A) (A) (A) (A) (A) (A)
                 (A) (A) (A) (A) (A) (A) (A) (A) (A) (A) (A) (A)
                 (A) (A) (A) (A) (A) (A) (A) (A) (A) (A) (A) (A)
                 (A) (A) (A) (A) (A) (A) (A) (A) (A) (A) (A) (A)
                 (A) (A) (A) (A) (A) (A) (A) (A) (A) (A) (A) (A)
                 (A) (A) (A) (A) (A) (A) (A) (A) (A) (A) (A) (A)
                 (A) (A) (A) (A) (A) (A) (A) (A) (A) (A) (A) (A)
                 (A) (A) (A) (A) (A) (A) (A) (A) (A) (A) (A) (A)
                 (A) (A) (A) (A) (A) (A) (A) (A) (A) (A) (A) (A)
                 (A) (A) (A) (A) (A) (A) (A) (A) (A) (A) (A) (A)
                 (A) (A) (A) (A) (A) (A) (A) (A) (A) (A) (A) (A)
                 (A) (A) (A) (A) (A) (A) (A) (A) (A) (A) (A) (A)
                 (A) (A) (A) (A) (A) (A) (A) (A) (A) (A) (A) (A)
                 (A) (A) (A) (A) (A) (A) (A) (A) (A) (A) (A) (A)
                 (A) (A) (A) (A) (A) (A) (A) (A) (A) (A) (A) (A)
                 (A) (A) (A) (A) (A) (A) (A) (A) (A) (A) (A) (A)
                 (A) (A) (A) (A) (A) (A) (A) (A) (A) (A) (A) (A)
                 (A) (A) (A) (A) (A) (A) (A) (A) (A) (A) (A) (A)
                 (A) (A) (A) (A) (A) (A) (A) (A) (A) (A) (A) (A)
                 (A) (A) (A) (A) (A) (A) (A) (A) (A) (A) (A) (A)
                 (A) (A) (A) (A) (A) (A) (A) (A) (A) (A) (A) (A)
                 (A) (A) (A) (A) (A) (A) (A) (A) (A) (A) (A) (A)
                 (A) (A) (A) (A) (A) (A) (A) (A) (A) (A) (A) (A)
                 (A) (A) (A) (A) (A) (A) (A) (A) (A) (A) (A) (A)
                 (A) (A) (A) (A) (A) (A) (A) (A) (A) (A) (A) (A)
                 (A) (A) (A) (A) (A) (A) (A) (A) (A) (A) (A) (A)
                 (A) (A) (A) (A) (A) (A) (A) (A) (A) (A) (A) (A)
                 (A) (A) (A) (A) (A) (A) (A) (A) (A) (A) (A) (A)
                 (A) (A) (A) (A) (A) (A) (A) (A) (A) (A) (A) (A)
                 (A) (A) (A) (A) (A) (A) (A) (A) (A) (A) (A) (A)
                 (A) (A) (A) (A) (A) (A) (A) (A) (A) (A) (A) (A)
                 (A) (A) (A) (A) (A) (A) (A) (A) (A) (A) (A) (A)
                 (A) (A) (A) (A) (A) (A) (A) (A) (A) (A) (A) (A)
                 (A) (A) (A) (A) (A) (A) (A) (A) (A) (A) (A) (A)
                 (A) (A) (A) (A) (A) (A) (A) (A) (A) (A) (A) (A)
                 (A) (A) (A) (A) (A) (A) (A) (A) (A) (A) (A) (A)
                 (A) (A) (A) (A) (A) (A) (A) (A) (A) (A) (A) (A)
                 (A) (A) (A) (A) (A) (A) (A) (A) (A) (A) (A) (A)
                 (A) (A) (A) (A) (A) (A) (A) (A) (A) (A) (A) (A)
                 (A) (A) (A) (A) (A) (A) (A) (A) (A) (A) (A) (A)
                 (A) (A) (A) (A) (A) (A) (A) (A) (A) (A) (A) (A)
                 (A) (A) (A) (A) (A) (A) (A) (A) (A) (A) (A) (A)
                 (A) (A) (A) (A) (A) (A) (A) (A) (A) (A) (A) (A)
                 (A) (A) (A) (A) (A) (A) (A) (A) (A) (A) (A) (A)
                 (A) (A) (A) (A) (A) (A) (A) (A) (A) (A) (A) (A)
                 (A) (A) (A) (A) (A) (A) (A) (A) (A) (A) (A) (A)
                 (A) (A) (A) (A) (A) (A) (A) (A) (A) (A) (A) (A)
                 (A) (A) (A) (A) (A) (A) (A) (A) (A) (A) (A) (A)
                 (A) (A) (A) (A) (A) (A) (A) (A) (A) (A) (A) (A)
                 (A) (A) (A) (A) (A) (A) (A) (A) (A) (A) (A) (A)
                 (A) (A) (A) (A) (A) (A) (A) (A) (A) (A) (A) (A)
                 (A) (A) (A) (A) (A) (A) (A) (A) (A) (A) (A) (A)
                 (A) (A) (A) (A) (A) (A) (A) (A) (A) (A) (A) (A)
                 (A) (A) (A) (A) (A) (A) (A) (A) (A) (A) (A) (A)
                 (A) (A) (A) (A) (A) (A) (A) (A) (A) (A) (A) (A)
                 (A) (A) (A) (A) (A) (A) (A) (A) (A) (A) (A) (A)
                 (A) (A) (A) (A) (A) (A) (A) (A) (A) (A) (A) (A)
                 (A) (A) (A) (A) (A) (A) (A) (A) (A) (A) (A) (A)
                 (A) (A) (A) (A) (A) (A) (A) (A) (A) (A) (A) (A)
                 (A) (A) (A) (A) (A) (A) (A) (A) (A) (A) (A) (A)
                 (A) (A) (A) (A) (A) (A) (A) (A) (A) (A) (A) (A)
                 (A) (A) (A) (A) (A) (A) (A) (A) (A) (A) (A) (A)
                 (A) (A) (A) (A) (A) (A) (A) (A) (A) (A) (A) (A)
                 (A) (A) (A) (A) (A) (A) (A) (A) (A) (A) (A) (A)
                 (A) (A) (A) (A) (A) (A) (A) (A) (A) (A) (A) (A)
                 (A) (A) (A) (A) (A) (A) (A) (A) (A) (A) (A) (A)
                 (A) (A) (A) (A) (A) (A) (A) (A) (A) (A) (A) (A)
                 (A) (A) (A) (A) (A) (A) (A) (A) (A) (A) (A) (A)
                 (A) (A) (A) (A) (A) (A) (A) (A) (A) (A) (A) (A)
                 (A) (A) (A) (A) (A) (A) (A) (A) (A) (A) (A) (A)
                 (A) (A) (A) (A) (A) (A) (A) (A) (A) (A) (A) (A)
                 (A) (A) (A) (A) (A) (A) (A) (A) (A) (A) (A) (A)
                 (A) (A) (A) (A) (A) (A) (A) (A) (A) (A) (A) (A)
                 (A) (A) (A) (A) (A) (A) (A) (A) (A) (A) (A) (A)
                 (A) (A) (A) (A) (A) (A) (A) (A) (A) (A) (A) (A)
                 (A) (A) (A) (A) (A) (A) (A) (A) (A) (A) (A) (A)
                 (A) (A) (A) (A) (A) (A) (A) (A) (A) (A) (A) (A)
                 (A) (A) (A) (A) (A) (A) (A) (A) (A) (A) (A) (A)
                 (A) (A) (A) (A) (A) (A) (A) (A) (A) (A) (A) (A)
                 (A) (A) (A) (A) (A) (A) (A) (A) (A) (A) (A) (A)
                 (A) (A) (A) (A) (A) (A) (A) (A) (A) (A) (A) (A)
                 (A) (A) (A) (A) (A) (A) (A) (A) (A) (A) (A) (A)
                 (A) (A) (A)
 The electronic state is 1-A.
 Alpha  occ. eigenvalues -- -145.34995 -19.17569 -19.15641 -19.15158 -19.13823
 Alpha  occ. eigenvalues --  -19.12257 -19.11925 -19.11506 -19.10798 -19.10758
 Alpha  occ. eigenvalues --  -19.07888 -19.07745 -19.06940 -19.06685 -19.06639
 Alpha  occ. eigenvalues --  -19.06553 -19.05813 -19.05794 -19.04777 -19.04773
 Alpha  occ. eigenvalues --  -19.04340 -19.03811 -19.03557 -19.03119 -15.40772
 Alpha  occ. eigenvalues --  -14.58665 -14.40185 -14.39141 -14.37152 -14.36950
 Alpha  occ. eigenvalues --  -14.36896 -14.36334 -14.33591 -14.32324 -14.32299
 Alpha  occ. eigenvalues --  -14.31972 -14.31666 -14.31083 -14.29503 -14.29343
 Alpha  occ. eigenvalues --  -12.54376 -12.54356 -12.54322 -10.34781 -10.33082
 Alpha  occ. eigenvalues --  -10.31080 -10.30480 -10.29795 -10.29425 -10.29327
 Alpha  occ. eigenvalues --  -10.27187 -10.26809 -10.26802 -10.26402 -10.26287
 Alpha  occ. eigenvalues --  -10.26125 -10.25787 -10.25671 -10.25200 -10.25198
 Alpha  occ. eigenvalues --  -10.25106 -10.24420 -10.24364 -10.24066 -10.24039
 Alpha  occ. eigenvalues --  -10.23993 -10.23234 -10.23225 -10.23018 -10.22724
 Alpha  occ. eigenvalues --  -10.22705 -10.22453 -10.22364 -10.21309 -10.20376
 Alpha  occ. eigenvalues --  -10.20353 -10.20003 -10.19671 -10.19629 -10.19304
 Alpha  occ. eigenvalues --  -10.19234 -10.19182 -10.19155 -10.19060 -10.18737
 Alpha  occ. eigenvalues --  -10.18284 -10.18272 -10.18139 -10.18077 -10.17910
 Alpha  occ. eigenvalues --  -10.17909 -10.17830 -10.17753 -10.17572 -10.16943
 Alpha  occ. eigenvalues --  -10.15997 -10.15717  -1.77760  -1.13969  -1.08181
 Alpha  occ. eigenvalues --   -1.05823  -1.05445  -1.05419  -1.05336  -1.04586
 Alpha  occ. eigenvalues --   -1.04545  -1.04424  -1.03736  -1.03470  -1.03342
 Alpha  occ. eigenvalues --   -1.02760  -1.02253  -1.00536  -1.00135  -1.00009
 Alpha  occ. eigenvalues --   -0.99592  -0.99382  -0.98882  -0.98620  -0.98562
 Alpha  occ. eigenvalues --   -0.97350  -0.97039  -0.96377  -0.95856  -0.94190
 Alpha  occ. eigenvalues --   -0.93500  -0.93358  -0.91888  -0.91769  -0.90251
 Alpha  occ. eigenvalues --   -0.89942  -0.89884  -0.88950  -0.88664  -0.88556
 Alpha  occ. eigenvalues --   -0.88445  -0.88142  -0.88040  -0.87005  -0.85820
 Alpha  occ. eigenvalues --   -0.83974  -0.83091  -0.82217  -0.81059  -0.80617
 Alpha  occ. eigenvalues --   -0.79081  -0.78425  -0.78109  -0.76545  -0.76345
 Alpha  occ. eigenvalues --   -0.75105  -0.74867  -0.74707  -0.73522  -0.73396
 Alpha  occ. eigenvalues --   -0.73346  -0.72528  -0.71977  -0.70765  -0.70472
 Alpha  occ. eigenvalues --   -0.70381  -0.69555  -0.68539  -0.68426  -0.67607
 Alpha  occ. eigenvalues --   -0.67288  -0.66871  -0.65299  -0.64999  -0.64245
 Alpha  occ. eigenvalues --   -0.63508  -0.63354  -0.63113  -0.62902  -0.62043
 Alpha  occ. eigenvalues --   -0.61832  -0.61471  -0.60793  -0.60434  -0.60223
 Alpha  occ. eigenvalues --   -0.60132  -0.59393  -0.58073  -0.58028  -0.57826
 Alpha  occ. eigenvalues --   -0.57474  -0.57114  -0.56975  -0.56554  -0.56260
 Alpha  occ. eigenvalues --   -0.56083  -0.56022  -0.55704  -0.55117  -0.54854
 Alpha  occ. eigenvalues --   -0.54726  -0.54374  -0.54155  -0.53775  -0.53458
 Alpha  occ. eigenvalues --   -0.52831  -0.52691  -0.52436  -0.52083  -0.51814
 Alpha  occ. eigenvalues --   -0.51704  -0.51255  -0.50879  -0.50355  -0.50120
 Alpha  occ. eigenvalues --   -0.49763  -0.49382  -0.49042  -0.48837  -0.48813
 Alpha  occ. eigenvalues --   -0.48645  -0.48583  -0.48258  -0.47948  -0.47478
 Alpha  occ. eigenvalues --   -0.47396  -0.47129  -0.46844  -0.46810  -0.46461
 Alpha  occ. eigenvalues --   -0.46428  -0.46001  -0.45936  -0.45780  -0.45722
 Alpha  occ. eigenvalues --   -0.45473  -0.44956  -0.44858  -0.44661  -0.44529
 Alpha  occ. eigenvalues --   -0.44261  -0.44138  -0.44020  -0.43888  -0.43847
 Alpha  occ. eigenvalues --   -0.43622  -0.43346  -0.43294  -0.43184  -0.42966
 Alpha  occ. eigenvalues --   -0.42929  -0.42764  -0.42655  -0.42428  -0.42401
 Alpha  occ. eigenvalues --   -0.42112  -0.42088  -0.41972  -0.41941  -0.41807
 Alpha  occ. eigenvalues --   -0.41571  -0.41475  -0.41371  -0.41300  -0.41080
 Alpha  occ. eigenvalues --   -0.40791  -0.40471  -0.40424  -0.40299  -0.40122
 Alpha  occ. eigenvalues --   -0.40090  -0.39959  -0.39771  -0.39725  -0.39526
 Alpha  occ. eigenvalues --   -0.39422  -0.39212  -0.39082  -0.38771  -0.38679
 Alpha  occ. eigenvalues --   -0.38648  -0.38547  -0.38527  -0.38346  -0.38215
 Alpha  occ. eigenvalues --   -0.38081  -0.37890  -0.37710  -0.37552  -0.37432
 Alpha  occ. eigenvalues --   -0.37250  -0.37175  -0.36869  -0.36719  -0.36503
 Alpha  occ. eigenvalues --   -0.36442  -0.36390  -0.35904  -0.35665  -0.35555
 Alpha  occ. eigenvalues --   -0.35357  -0.35040  -0.34878  -0.34796  -0.34772
 Alpha  occ. eigenvalues --   -0.34671  -0.34478  -0.34313  -0.34248  -0.34149
 Alpha  occ. eigenvalues --   -0.33970  -0.33901  -0.33681  -0.33215  -0.32879
 Alpha  occ. eigenvalues --   -0.32517  -0.32403  -0.32338  -0.32041  -0.31896
 Alpha  occ. eigenvalues --   -0.31840  -0.31594  -0.31454  -0.30962  -0.30631
 Alpha  occ. eigenvalues --   -0.30219  -0.29916  -0.29727  -0.28143  -0.28117
 Alpha  occ. eigenvalues --   -0.27717  -0.27500  -0.27309  -0.27161  -0.26843
 Alpha  occ. eigenvalues --   -0.26405  -0.26067  -0.25433  -0.25317  -0.24843
 Alpha  occ. eigenvalues --   -0.24505  -0.24211  -0.23986  -0.23514  -0.23384
 Alpha  occ. eigenvalues --   -0.23311  -0.22918  -0.22850  -0.22763  -0.22675
 Alpha  occ. eigenvalues --   -0.22542  -0.22203  -0.21914  -0.21824  -0.21542
 Alpha  occ. eigenvalues --   -0.21343  -0.21014  -0.20975  -0.20206  -0.19596
 Alpha  occ. eigenvalues --   -0.19057  -0.18750  -0.18317
 Alpha virt. eigenvalues --   -0.10510  -0.04698  -0.04229  -0.03194  -0.01665
 Alpha virt. eigenvalues --   -0.01540  -0.00988  -0.00679  -0.00313  -0.00037
 Alpha virt. eigenvalues --    0.00378   0.00440   0.00802   0.01216   0.01686
 Alpha virt. eigenvalues --    0.02325   0.02996   0.03185   0.03698   0.03811
 Alpha virt. eigenvalues --    0.03909   0.03972   0.04358   0.04714   0.04872
 Alpha virt. eigenvalues --    0.05232   0.05281   0.05445   0.05715   0.05816
 Alpha virt. eigenvalues --    0.06004   0.06044   0.06209   0.06398   0.06494
 Alpha virt. eigenvalues --    0.06647   0.06797   0.06994   0.07431   0.07534
 Alpha virt. eigenvalues --    0.07686   0.07843   0.08254   0.08435   0.08753
 Alpha virt. eigenvalues --    0.08906   0.09109   0.09218   0.09573   0.09660
 Alpha virt. eigenvalues --    0.09732   0.09973   0.10129   0.10275   0.10347
 Alpha virt. eigenvalues --    0.10649   0.10755   0.11176   0.11361   0.11704
 Alpha virt. eigenvalues --    0.11890   0.11990   0.12369   0.12701   0.12820
 Alpha virt. eigenvalues --    0.12930   0.13100   0.13242   0.13327   0.13448
 Alpha virt. eigenvalues --    0.13988   0.14026   0.14364   0.14519   0.14711
 Alpha virt. eigenvalues --    0.14742   0.14896   0.15321   0.15425   0.15619
 Alpha virt. eigenvalues --    0.15719   0.15841   0.15905   0.16180   0.16237
 Alpha virt. eigenvalues --    0.16440   0.16583   0.16807   0.16897   0.17046
 Alpha virt. eigenvalues --    0.17386   0.17489   0.17644   0.17737   0.17907
 Alpha virt. eigenvalues --    0.17935   0.18126   0.18160   0.18735   0.18883
 Alpha virt. eigenvalues --    0.18935   0.19054   0.19394   0.19516   0.19611
 Alpha virt. eigenvalues --    0.19957   0.19973   0.20142   0.20565   0.20818
 Alpha virt. eigenvalues --    0.20948   0.20981   0.21171   0.21522   0.21740
 Alpha virt. eigenvalues --    0.21991   0.22161   0.22265   0.22516   0.22670
 Alpha virt. eigenvalues --    0.22890   0.23006   0.23336   0.23541   0.23879
 Alpha virt. eigenvalues --    0.23931   0.24186   0.24268   0.24660   0.24694
 Alpha virt. eigenvalues --    0.24862   0.25092   0.25359   0.25513   0.25824
 Alpha virt. eigenvalues --    0.25908   0.25983   0.26141   0.26276   0.26446
 Alpha virt. eigenvalues --    0.26610   0.27029   0.27288   0.27620   0.27789
 Alpha virt. eigenvalues --    0.28059   0.28470   0.28655   0.28806   0.29204
 Alpha virt. eigenvalues --    0.29308   0.29677   0.29881   0.29999   0.30248
 Alpha virt. eigenvalues --    0.30532   0.30916   0.31119   0.31426   0.31719
 Alpha virt. eigenvalues --    0.31922   0.31984   0.32229   0.32359   0.32551
 Alpha virt. eigenvalues --    0.32574   0.33003   0.33227   0.33448   0.33605
 Alpha virt. eigenvalues --    0.34046   0.34626   0.34765   0.34940   0.35255
 Alpha virt. eigenvalues --    0.35900   0.36043   0.36279   0.36410   0.36927
 Alpha virt. eigenvalues --    0.37100   0.37218   0.37582   0.37641   0.38036
 Alpha virt. eigenvalues --    0.38207   0.38399   0.38510   0.39086   0.39522
 Alpha virt. eigenvalues --    0.39559   0.39598   0.39957   0.40176   0.40283
 Alpha virt. eigenvalues --    0.40606   0.40820   0.41138   0.41241   0.41622
 Alpha virt. eigenvalues --    0.42232   0.42391   0.42539   0.42901   0.42978
 Alpha virt. eigenvalues --    0.43286   0.43525   0.43599   0.43831   0.43880
 Alpha virt. eigenvalues --    0.44137   0.44332   0.44523   0.44801   0.44823
 Alpha virt. eigenvalues --    0.45282   0.45567   0.45857   0.45961   0.46210
 Alpha virt. eigenvalues --    0.46497   0.46671   0.46931   0.47220   0.47314
 Alpha virt. eigenvalues --    0.47538   0.47743   0.47765   0.47951   0.48163
 Alpha virt. eigenvalues --    0.48231   0.48320   0.48624   0.48896   0.48983
 Alpha virt. eigenvalues --    0.49159   0.49461   0.49559   0.49771   0.50130
 Alpha virt. eigenvalues --    0.50468   0.50717   0.50783   0.50947   0.51051
 Alpha virt. eigenvalues --    0.51309   0.51737   0.51858   0.52106   0.52200
 Alpha virt. eigenvalues --    0.52418   0.52527   0.52725   0.52861   0.53038
 Alpha virt. eigenvalues --    0.53533   0.53787   0.53897   0.53971   0.54059
 Alpha virt. eigenvalues --    0.54181   0.54316   0.54472   0.54698   0.54912
 Alpha virt. eigenvalues --    0.54933   0.55012   0.55190   0.55386   0.55500
 Alpha virt. eigenvalues --    0.55814   0.56109   0.56202   0.56331   0.56497
 Alpha virt. eigenvalues --    0.56612   0.56722   0.57083   0.57426   0.57556
 Alpha virt. eigenvalues --    0.57908   0.58019   0.58095   0.58319   0.58500
 Alpha virt. eigenvalues --    0.58668   0.58712   0.58851   0.58972   0.59219
 Alpha virt. eigenvalues --    0.59301   0.59461   0.59518   0.59759   0.59858
 Alpha virt. eigenvalues --    0.60268   0.60465   0.60615   0.60739   0.60829
 Alpha virt. eigenvalues --    0.61178   0.61240   0.61365   0.61529   0.61707
 Alpha virt. eigenvalues --    0.61776   0.61870   0.62091   0.62159   0.62292
 Alpha virt. eigenvalues --    0.62346   0.62566   0.62727   0.62850   0.63003
 Alpha virt. eigenvalues --    0.63125   0.63254   0.63322   0.63476   0.63544
 Alpha virt. eigenvalues --    0.63736   0.63913   0.64024   0.64126   0.64349
 Alpha virt. eigenvalues --    0.64418   0.64489   0.64590   0.64697   0.64905
 Alpha virt. eigenvalues --    0.64991   0.65147   0.65193   0.65337   0.65404
 Alpha virt. eigenvalues --    0.65542   0.65622   0.65678   0.65736   0.65822
 Alpha virt. eigenvalues --    0.65986   0.66151   0.66212   0.66357   0.66530
 Alpha virt. eigenvalues --    0.66618   0.66740   0.66888   0.66946   0.67083
 Alpha virt. eigenvalues --    0.67168   0.67402   0.67499   0.67634   0.67782
 Alpha virt. eigenvalues --    0.68056   0.68278   0.68323   0.68490   0.68604
 Alpha virt. eigenvalues --    0.68636   0.68889   0.68944   0.69117   0.69215
 Alpha virt. eigenvalues --    0.69299   0.69362   0.69422   0.69626   0.69754
 Alpha virt. eigenvalues --    0.69841   0.69941   0.70125   0.70318   0.70409
 Alpha virt. eigenvalues --    0.70613   0.70666   0.70822   0.70930   0.71054
 Alpha virt. eigenvalues --    0.71287   0.71359   0.71432   0.71571   0.71776
 Alpha virt. eigenvalues --    0.71855   0.71985   0.72144   0.72305   0.72407
 Alpha virt. eigenvalues --    0.72544   0.72636   0.72768   0.72833   0.73154
 Alpha virt. eigenvalues --    0.73558   0.73890   0.73981   0.74225   0.74341
 Alpha virt. eigenvalues --    0.74408   0.74666   0.74974   0.75021   0.75229
 Alpha virt. eigenvalues --    0.75580   0.75734   0.75830   0.76124   0.76394
 Alpha virt. eigenvalues --    0.76502   0.76659   0.76876   0.76994   0.77036
 Alpha virt. eigenvalues --    0.77257   0.77319   0.77627   0.77919   0.78199
 Alpha virt. eigenvalues --    0.78488   0.78780   0.79062   0.79299   0.79372
 Alpha virt. eigenvalues --    0.79567   0.79720   0.79735   0.80219   0.80343
 Alpha virt. eigenvalues --    0.80765   0.81011   0.81333   0.81530   0.81658
 Alpha virt. eigenvalues --    0.82006   0.82345   0.82405   0.82803   0.82960
 Alpha virt. eigenvalues --    0.83092   0.83510   0.83754   0.84138   0.84248
 Alpha virt. eigenvalues --    0.84453   0.84622   0.84897   0.85325   0.85625
 Alpha virt. eigenvalues --    0.85823   0.86306   0.86474   0.86717   0.86861
 Alpha virt. eigenvalues --    0.87136   0.87475   0.87560   0.87793   0.88305
 Alpha virt. eigenvalues --    0.88845   0.89321   0.89600   0.89867   0.90239
 Alpha virt. eigenvalues --    0.90366   0.90893   0.90932   0.91519   0.91537
 Alpha virt. eigenvalues --    0.91805   0.92196   0.92329   0.92688   0.92721
 Alpha virt. eigenvalues --    0.93218   0.93411   0.93663   0.93885   0.94069
 Alpha virt. eigenvalues --    0.94515   0.94889   0.95067   0.95798   0.96069
 Alpha virt. eigenvalues --    0.96402   0.96551   0.96782   0.96946   0.97191
 Alpha virt. eigenvalues --    0.97510   0.97622   0.97845   0.98276   0.98531
 Alpha virt. eigenvalues --    0.98957   0.99138   0.99350   0.99703   0.99819
 Alpha virt. eigenvalues --    0.99930   1.00583   1.00627   1.00858   1.01107
 Alpha virt. eigenvalues --    1.01419   1.01451   1.01622   1.01826   1.02191
 Alpha virt. eigenvalues --    1.02742   1.03100   1.03345   1.03763   1.03879
 Alpha virt. eigenvalues --    1.04532   1.05002   1.05149   1.05762   1.05816
 Alpha virt. eigenvalues --    1.05880   1.06113   1.06597   1.06745   1.07324
 Alpha virt. eigenvalues --    1.07403   1.07835   1.08016   1.08195   1.08411
 Alpha virt. eigenvalues --    1.08772   1.09122   1.09392   1.09578   1.09905
 Alpha virt. eigenvalues --    1.10069   1.10688   1.10843   1.11263   1.11351
 Alpha virt. eigenvalues --    1.11960   1.12217   1.12534   1.12860   1.12978
 Alpha virt. eigenvalues --    1.13359   1.13534   1.13680   1.13957   1.14188
 Alpha virt. eigenvalues --    1.14349   1.14900   1.15075   1.15681   1.15963
 Alpha virt. eigenvalues --    1.16155   1.16374   1.16732   1.17291   1.17767
 Alpha virt. eigenvalues --    1.17922   1.18046   1.18302   1.18500   1.18720
 Alpha virt. eigenvalues --    1.18846   1.19027   1.19440   1.19795   1.20111
 Alpha virt. eigenvalues --    1.20318   1.20432   1.20892   1.21240   1.21288
 Alpha virt. eigenvalues --    1.21634   1.21823   1.22063   1.22233   1.22671
 Alpha virt. eigenvalues --    1.22807   1.22960   1.23119   1.23394   1.23530
 Alpha virt. eigenvalues --    1.23977   1.24092   1.24350   1.24532   1.24847
 Alpha virt. eigenvalues --    1.25158   1.25246   1.25585   1.25937   1.26069
 Alpha virt. eigenvalues --    1.26331   1.26573   1.26902   1.26999   1.27198
 Alpha virt. eigenvalues --    1.27771   1.27881   1.28216   1.28820   1.28923
 Alpha virt. eigenvalues --    1.29288   1.29609   1.29914   1.30387   1.30503
 Alpha virt. eigenvalues --    1.30630   1.31096   1.31370   1.31475   1.31755
 Alpha virt. eigenvalues --    1.32001   1.32163   1.32641   1.33000   1.33311
 Alpha virt. eigenvalues --    1.33517   1.33830   1.34045   1.34292   1.34564
 Alpha virt. eigenvalues --    1.34633   1.34992   1.35210   1.35472   1.35637
 Alpha virt. eigenvalues --    1.36013   1.36427   1.36592   1.36751   1.37008
 Alpha virt. eigenvalues --    1.37241   1.37450   1.38156   1.38260   1.38388
 Alpha virt. eigenvalues --    1.38574   1.39073   1.39488   1.40019   1.40072
 Alpha virt. eigenvalues --    1.40217   1.40276   1.40591   1.40854   1.41114
 Alpha virt. eigenvalues --    1.41284   1.41603   1.41850   1.42034   1.42336
 Alpha virt. eigenvalues --    1.42773   1.42903   1.43095   1.43362   1.44104
 Alpha virt. eigenvalues --    1.44187   1.44597   1.44790   1.44973   1.45341
 Alpha virt. eigenvalues --    1.45627   1.46178   1.46600   1.46779   1.47291
 Alpha virt. eigenvalues --    1.47452   1.47509   1.47813   1.48052   1.48299
 Alpha virt. eigenvalues --    1.48559   1.48743   1.49111   1.49186   1.49404
 Alpha virt. eigenvalues --    1.49903   1.50154   1.50657   1.50755   1.51287
 Alpha virt. eigenvalues --    1.51814   1.51961   1.52086   1.52464   1.52736
 Alpha virt. eigenvalues --    1.53150   1.53328   1.53381   1.53601   1.53922
 Alpha virt. eigenvalues --    1.54353   1.54642   1.54703   1.55174   1.55391
 Alpha virt. eigenvalues --    1.56154   1.56382   1.56517   1.56956   1.57366
 Alpha virt. eigenvalues --    1.57964   1.58106   1.58445   1.58846   1.59259
 Alpha virt. eigenvalues --    1.59546   1.59586   1.59853   1.60102   1.60497
 Alpha virt. eigenvalues --    1.60689   1.61138   1.61353   1.61475   1.61896
 Alpha virt. eigenvalues --    1.62466   1.62676   1.62974   1.63120   1.63374
 Alpha virt. eigenvalues --    1.63652   1.64602   1.65071   1.65586   1.65799
 Alpha virt. eigenvalues --    1.66106   1.66362   1.66877   1.66995   1.67171
 Alpha virt. eigenvalues --    1.67626   1.67800   1.67946   1.68482   1.69090
 Alpha virt. eigenvalues --    1.69131   1.69551   1.69646   1.69763   1.69921
 Alpha virt. eigenvalues --    1.70222   1.70417   1.70626   1.70935   1.71155
 Alpha virt. eigenvalues --    1.71610   1.71685   1.71827   1.72106   1.72366
 Alpha virt. eigenvalues --    1.72666   1.72819   1.72994   1.73177   1.73330
 Alpha virt. eigenvalues --    1.73700   1.73790   1.74024   1.74065   1.74261
 Alpha virt. eigenvalues --    1.74313   1.74543   1.74828   1.74841   1.75007
 Alpha virt. eigenvalues --    1.75215   1.75336   1.75404   1.75906   1.76240
 Alpha virt. eigenvalues --    1.76552   1.76632   1.76971   1.77093   1.77326
 Alpha virt. eigenvalues --    1.77490   1.77630   1.77809   1.77959   1.78094
 Alpha virt. eigenvalues --    1.78106   1.78255   1.78323   1.78605   1.78805
 Alpha virt. eigenvalues --    1.78990   1.79182   1.79366   1.79506   1.79625
 Alpha virt. eigenvalues --    1.79859   1.79922   1.80137   1.80176   1.80439
 Alpha virt. eigenvalues --    1.80559   1.80632   1.80835   1.80886   1.81072
 Alpha virt. eigenvalues --    1.81303   1.81408   1.81580   1.81762   1.81838
 Alpha virt. eigenvalues --    1.82037   1.82084   1.82287   1.82593   1.82641
 Alpha virt. eigenvalues --    1.83053   1.83131   1.83245   1.83307   1.83462
 Alpha virt. eigenvalues --    1.83756   1.83873   1.84103   1.84211   1.84463
 Alpha virt. eigenvalues --    1.84548   1.84859   1.84962   1.85166   1.85421
 Alpha virt. eigenvalues --    1.85589   1.85809   1.85969   1.86237   1.86521
 Alpha virt. eigenvalues --    1.86802   1.86884   1.86991   1.87041   1.87232
 Alpha virt. eigenvalues --    1.87374   1.87446   1.87699   1.88041   1.88878
 Alpha virt. eigenvalues --    1.89115   1.89151   1.89279   1.89333   1.89615
 Alpha virt. eigenvalues --    1.89706   1.89846   1.89884   1.90206   1.90400
 Alpha virt. eigenvalues --    1.90659   1.90740   1.91038   1.91163   1.91313
 Alpha virt. eigenvalues --    1.91691   1.91766   1.92033   1.92142   1.92771
 Alpha virt. eigenvalues --    1.92805   1.92882   1.93092   1.93433   1.93503
 Alpha virt. eigenvalues --    1.93838   1.93947   1.94161   1.94249   1.94519
 Alpha virt. eigenvalues --    1.94761   1.94964   1.95143   1.95337   1.95687
 Alpha virt. eigenvalues --    1.95799   1.96444   1.96646   1.96971   1.96997
 Alpha virt. eigenvalues --    1.97324   1.97607   1.97663   1.97929   1.98166
 Alpha virt. eigenvalues --    1.98314   1.98554   1.98643   1.99045   1.99098
 Alpha virt. eigenvalues --    1.99270   1.99597   1.99854   2.00145   2.00303
 Alpha virt. eigenvalues --    2.00527   2.01061   2.01276   2.01407   2.01607
 Alpha virt. eigenvalues --    2.01938   2.02009   2.02431   2.02662   2.02749
 Alpha virt. eigenvalues --    2.03271   2.03442   2.03701   2.04056   2.04149
 Alpha virt. eigenvalues --    2.04424   2.04560   2.04712   2.04869   2.05552
 Alpha virt. eigenvalues --    2.05736   2.05972   2.06351   2.06614   2.06686
 Alpha virt. eigenvalues --    2.07032   2.07294   2.07485   2.07611   2.07923
 Alpha virt. eigenvalues --    2.08455   2.08546   2.08740   2.08838   2.09186
 Alpha virt. eigenvalues --    2.09350   2.09761   2.10040   2.10252   2.10469
 Alpha virt. eigenvalues --    2.10799   2.11032   2.11448   2.11780   2.12084
 Alpha virt. eigenvalues --    2.12228   2.12413   2.12962   2.13509   2.13552
 Alpha virt. eigenvalues --    2.13971   2.14175   2.14286   2.14695   2.14851
 Alpha virt. eigenvalues --    2.15096   2.15666   2.16079   2.16281   2.16514
 Alpha virt. eigenvalues --    2.16693   2.17127   2.17349   2.17672   2.17885
 Alpha virt. eigenvalues --    2.18226   2.18361   2.19072   2.19277   2.19415
 Alpha virt. eigenvalues --    2.19775   2.19780   2.20431   2.20665   2.20883
 Alpha virt. eigenvalues --    2.21064   2.21340   2.21632   2.21711   2.22155
 Alpha virt. eigenvalues --    2.22191   2.22464   2.22993   2.23002   2.23458
 Alpha virt. eigenvalues --    2.23833   2.24618   2.24913   2.25488   2.25541
 Alpha virt. eigenvalues --    2.25646   2.26139   2.26346   2.26737   2.26864
 Alpha virt. eigenvalues --    2.27381   2.27795   2.28326   2.28414   2.28670
 Alpha virt. eigenvalues --    2.28984   2.29450   2.29653   2.29727   2.30068
 Alpha virt. eigenvalues --    2.30741   2.30881   2.31439   2.31789   2.32316
 Alpha virt. eigenvalues --    2.32586   2.32734   2.33245   2.33388   2.33501
 Alpha virt. eigenvalues --    2.33581   2.33687   2.34337   2.34507   2.34694
 Alpha virt. eigenvalues --    2.35384   2.35584   2.35968   2.36010   2.36498
 Alpha virt. eigenvalues --    2.36608   2.37232   2.37362   2.37636   2.37826
 Alpha virt. eigenvalues --    2.38063   2.38290   2.38957   2.39160   2.39743
 Alpha virt. eigenvalues --    2.40211   2.40530   2.40980   2.41116   2.41579
 Alpha virt. eigenvalues --    2.41816   2.42400   2.42949   2.42965   2.43358
 Alpha virt. eigenvalues --    2.43596   2.44083   2.44449   2.44582   2.44662
 Alpha virt. eigenvalues --    2.44994   2.45721   2.45890   2.46421   2.46971
 Alpha virt. eigenvalues --    2.47440   2.47681   2.47812   2.47956   2.48390
 Alpha virt. eigenvalues --    2.48735   2.49143   2.49402   2.49667   2.50234
 Alpha virt. eigenvalues --    2.50361   2.50517   2.50958   2.51394   2.51758
 Alpha virt. eigenvalues --    2.52614   2.52693   2.53603   2.53814   2.54046
 Alpha virt. eigenvalues --    2.54162   2.54600   2.54760   2.55249   2.55472
 Alpha virt. eigenvalues --    2.55729   2.56167   2.56579   2.56610   2.57005
 Alpha virt. eigenvalues --    2.58106   2.58224   2.58522   2.58735   2.59029
 Alpha virt. eigenvalues --    2.59136   2.59574   2.59864   2.60315   2.60682
 Alpha virt. eigenvalues --    2.60935   2.61043   2.61635   2.61894   2.61992
 Alpha virt. eigenvalues --    2.62373   2.62409   2.62667   2.63211   2.63348
 Alpha virt. eigenvalues --    2.63826   2.63921   2.64054   2.64444   2.64727
 Alpha virt. eigenvalues --    2.65230   2.65726   2.65873   2.66012   2.66212
 Alpha virt. eigenvalues --    2.66366   2.66783   2.67732   2.68004   2.68276
 Alpha virt. eigenvalues --    2.68432   2.68484   2.68824   2.69292   2.69347
 Alpha virt. eigenvalues --    2.69701   2.69863   2.70691   2.71052   2.71184
 Alpha virt. eigenvalues --    2.71299   2.71534   2.72039   2.72296   2.72452
 Alpha virt. eigenvalues --    2.72506   2.72738   2.72850   2.72905   2.73105
 Alpha virt. eigenvalues --    2.73462   2.73575   2.73863   2.74150   2.74337
 Alpha virt. eigenvalues --    2.75170   2.75241   2.75451   2.75572   2.75923
 Alpha virt. eigenvalues --    2.76237   2.76338   2.76477   2.76722   2.77010
 Alpha virt. eigenvalues --    2.77097   2.77169   2.77524   2.77742   2.78036
 Alpha virt. eigenvalues --    2.78326   2.78901   2.79023   2.79512   2.79818
 Alpha virt. eigenvalues --    2.80253   2.80447   2.80520   2.80700   2.81074
 Alpha virt. eigenvalues --    2.81168   2.81401   2.82049   2.82332   2.82401
 Alpha virt. eigenvalues --    2.83104   2.83316   2.83491   2.83581   2.83950
 Alpha virt. eigenvalues --    2.84520   2.84678   2.84798   2.85276   2.85400
 Alpha virt. eigenvalues --    2.85724   2.85893   2.86030   2.86336   2.86558
 Alpha virt. eigenvalues --    2.86810   2.87092   2.87352   2.87473   2.87753
 Alpha virt. eigenvalues --    2.87909   2.88559   2.88646   2.90422   2.90706
 Alpha virt. eigenvalues --    2.90788   2.91063   2.91366   2.91625   2.91945
 Alpha virt. eigenvalues --    2.92027   2.92217   2.92545   2.92977   2.93087
 Alpha virt. eigenvalues --    2.93123   2.93343   2.94536   2.94791   2.95275
 Alpha virt. eigenvalues --    2.95816   2.96170   2.96382   2.96619   2.96915
 Alpha virt. eigenvalues --    2.96961   2.97246   2.97707   2.97903   2.98152
 Alpha virt. eigenvalues --    2.98315   2.98809   2.98891   2.99169   2.99540
 Alpha virt. eigenvalues --    2.99631   3.00086   3.00650   3.01425   3.01864
 Alpha virt. eigenvalues --    3.02199   3.02427   3.02621   3.03280   3.03367
 Alpha virt. eigenvalues --    3.03678   3.03778   3.04123   3.04862   3.05059
 Alpha virt. eigenvalues --    3.05247   3.05439   3.05617   3.06207   3.07181
 Alpha virt. eigenvalues --    3.07965   3.08034   3.08258   3.08836   3.09097
 Alpha virt. eigenvalues --    3.09366   3.10124   3.10589   3.11608   3.11730
 Alpha virt. eigenvalues --    3.11968   3.12140   3.12673   3.12865   3.13043
 Alpha virt. eigenvalues --    3.13196   3.13721   3.14494   3.14762   3.15160
 Alpha virt. eigenvalues --    3.15752   3.16257   3.16567   3.16725   3.17234
 Alpha virt. eigenvalues --    3.17556   3.17831   3.17902   3.18480   3.18669
 Alpha virt. eigenvalues --    3.19316   3.20006   3.20338   3.20668   3.21325
 Alpha virt. eigenvalues --    3.21348   3.21759   3.22158   3.22277   3.22311
 Alpha virt. eigenvalues --    3.22476   3.22880   3.23160   3.23551   3.24086
 Alpha virt. eigenvalues --    3.25189   3.25458   3.25921   3.26612   3.27171
 Alpha virt. eigenvalues --    3.27797   3.28113   3.28330   3.30201   3.30486
 Alpha virt. eigenvalues --    3.30821   3.32131   3.34226   3.34774   3.36393
 Alpha virt. eigenvalues --    3.37142   3.38713   3.38840   3.39950   3.40745
 Alpha virt. eigenvalues --    3.41638   3.42275   3.48671   3.50160   3.50411
 Alpha virt. eigenvalues --    3.51404   3.51812   3.52987   3.53206   3.55018
 Alpha virt. eigenvalues --    3.56053   3.57168   3.57985   3.59517   3.59892
 Alpha virt. eigenvalues --    3.60278   3.60542   3.61437   3.62147   3.63222
 Alpha virt. eigenvalues --    3.65098   3.66376   3.66830   3.67383   3.67824
 Alpha virt. eigenvalues --    3.69033   3.69355   3.69730   3.70621   3.70804
 Alpha virt. eigenvalues --    3.70998   3.71800   3.71899   3.72272   3.72924
 Alpha virt. eigenvalues --    3.73084   3.73474   3.73627   3.73837   3.75306
 Alpha virt. eigenvalues --    3.78977   3.82126   3.83040   3.83958
          Condensed to atoms (all electrons):
 Mulliken charges:
               1
     1  C    0.083285
     2  C    0.016121
     3  O   -0.302925
     4  H    0.034254
     5  H    0.045998
     6  H   -0.011762
     7  N   -0.126073
     8  C    0.099108
     9  C    0.106229
    10  O   -0.275311
    11  C    0.054140
    12  C    0.184856
    13  O   -0.474411
    14  O   -0.394448
    15  H    0.114497
    16  H    0.008535
    17  H    0.012174
    18  H    0.002631
    19  N   -0.141539
    20  C    0.119794
    21  C    0.050400
    22  O   -0.277026
    23  C   -0.054054
    24  C    0.033260
    25  C   -0.065985
    26  C    0.026125
    27  N    0.089203
    28  H    0.152677
    29  H   -0.001642
    30  H    0.023277
    31  H    0.033493
    32  H    0.016141
    33  H    0.023946
    34  H    0.019786
    35  H    0.063564
    36  H    0.085843
    37  H    0.069360
    38  H    0.186872
    39  H    0.202410
    40  H    0.195933
    41  N   -0.143922
    42  C    0.106401
    43  C    0.070697
    44  O   -0.296355
    45  C    0.139261
    46  C    0.075587
    47  O   -0.434666
    48  O   -0.412363
    49  H    0.158867
    50  H    0.009493
    51  H   -0.027905
    52  H    0.018204
    53  N   -0.162005
    54  C    0.230673
    55  C    0.050740
    56  O   -0.294916
    57  H    0.150818
    58  H    0.017817
    59  H    0.026928
    60  N   -0.168892
    61  C    0.131784
    62  C    0.058430
    63  O   -0.305737
    64  C    0.096064
    65  C    0.059886
    66  N   -0.040143
    67  O   -0.352126
    68  H    0.156913
    69  H    0.031790
    70  H    0.059482
    71  H   -0.006670
    72  H    0.127030
    73  H    0.118022
    74  N   -0.176017
    75  C    0.238385
    76  C    0.007666
    77  O   -0.289839
    78  H    0.152977
    79  H    0.030003
    80  H    0.037749
    81  N   -0.114149
    82  C    0.128712
    83  C    0.129716
    84  O   -0.323132
    85  C    0.128221
    86  C   -0.028222
    87  C    0.010754
    88  C   -0.023095
    89  C    0.008978
    90  C   -0.028157
    91  C    0.153647
    92  O   -0.188377
    93  H    0.159986
    94  H   -0.019063
    95  H   -0.011482
    96  H   -0.084487
    97  H   -0.035574
    98  H   -0.036789
    99  H   -0.021469
   100  H   -0.021567
   101  H    0.169455
   102  N   -0.103802
   103  C    0.102556
   104  C    0.080892
   105  O   -0.299037
   106  C   -0.073174
   107  C    0.012491
   108  C    0.027953
   109  C    0.050759
   110  H    0.137615
   111  H    0.018075
   112  H   -0.031813
   113  H   -0.026347
   114  H    0.009605
   115  H    0.008104
   116  H   -0.007723
   117  H    0.044934
   118  H    0.009471
   119  H    0.021172
   120  H    0.002654
   121  N   -0.136522
   122  C    0.084782
   123  C    0.093961
   124  O   -0.294650
   125  C    0.258705
   126  O   -0.352970
   127  H    0.163287
   128  H    0.025327
   129  H    0.010433
   130  H   -0.015248
   131  H    0.162961
   132  N   -0.124261
   133  C    0.078105
   134  C    0.061469
   135  O   -0.260882
   136  C    0.060724
   137  H    0.114333
   138  H    0.018267
   139  H    0.048553
   140  H    0.022266
   141  H    0.012842
   142  N   -0.140962
   143  C    0.081037
   144  C    0.052913
   145  O   -0.270115
   146  C    0.053364
   147  H    0.117570
   148  H    0.017822
   149  H    0.020013
   150  H    0.012366
   151  H    0.029541
   152  N   -0.160250
   153  C    0.172147
   154  C    0.098709
   155  O   -0.268659
   156  C   -0.038205
   157  C    0.121379
   158  C    0.146979
   159  O   -0.435262
   160  O   -0.421919
   161  H    0.134519
   162  H   -0.042953
   163  H    0.046343
   164  H   -0.021970
   165  H   -0.032093
   166  H   -0.029880
   167  N   -0.189170
   168  C    0.122866
   169  H    0.018103
   170  H    0.039787
   171  H    0.006624
   172  H    0.146858
   173  Ca   1.287171
   174  O   -0.257694
   175  H    0.180544
   176  H    0.153857
 Sum of Mulliken charges =   0.00000
 Mulliken charges with hydrogens summed into heavy atoms:
               1
     1  C    0.151774
     2  C    0.016121
     3  O   -0.302925
     7  N   -0.011576
     8  C    0.107643
     9  C    0.106229
    10  O   -0.275311
    11  C    0.068944
    12  C    0.184856
    13  O   -0.474411
    14  O   -0.394448
    19  N    0.011139
    20  C    0.118152
    21  C    0.050400
    22  O   -0.277026
    23  C    0.002716
    24  C    0.073347
    25  C    0.017365
    26  C    0.181328
    27  N    0.674419
    41  N    0.014944
    42  C    0.115894
    43  C    0.070697
    44  O   -0.296355
    45  C    0.129559
    46  C    0.075587
    47  O   -0.434666
    48  O   -0.412363
    53  N   -0.011187
    54  C    0.275418
    55  C    0.050740
    56  O   -0.294916
    60  N   -0.011979
    61  C    0.163574
    62  C    0.058430
    63  O   -0.305737
    64  C    0.148876
    65  C    0.059886
    66  N    0.204909
    67  O   -0.352126
    74  N   -0.023040
    75  C    0.306138
    76  C    0.007666
    77  O   -0.289839
    81  N    0.045837
    82  C    0.109650
    83  C    0.129716
    84  O   -0.323132
    85  C    0.032251
    86  C   -0.028222
    87  C   -0.024821
    88  C   -0.059884
    89  C   -0.012491
    90  C   -0.049724
    91  C    0.153647
    92  O   -0.018922
   102  N    0.033813
   103  C    0.120631
   104  C    0.080892
   105  O   -0.299037
   106  C   -0.104986
   107  C   -0.004251
   108  C    0.073268
   109  C    0.084056
   121  N    0.026764
   122  C    0.110109
   123  C    0.093961
   124  O   -0.294650
   125  C    0.253890
   126  O   -0.190008
   132  N   -0.009927
   133  C    0.096372
   134  C    0.061469
   135  O   -0.260882
   136  C    0.144386
   142  N   -0.023392
   143  C    0.098859
   144  C    0.052913
   145  O   -0.270115
   146  C    0.115284
   152  N   -0.025731
   153  C    0.129194
   154  C    0.098709
   155  O   -0.268659
   156  C   -0.013832
   157  C    0.059405
   158  C    0.146979
   159  O   -0.435262
   160  O   -0.421919
   167  N   -0.042312
   168  C    0.187380
   173  Ca   1.287171
   174  O    0.076707
 DipInt: DoE/N= T F RetVal/Mat= T F Init=T NMatP=  1 IDeriv=0 Min/MaxMlt=  0  4
 Entering OneElI...
 OneElI was handed  4286741430 working-precision words.
 Multipole integrals L=0 to 4 MinM= 0 MaxM= 0.
 Requested accuracy = 0.1000D-12
 ShPair: Thresh= 1.00D-13 NBox=     0 BxSize= 0.00D+00 RnKept= 2.55D+01
         NSMCal=               327645 NSMKep=              163373
 PrsmSu:  NPrtUS=   1 ThrOK=F IAlg=1 NPAlg=1 LenDen=           0.
 Prism:   IPart=     0 DynPar=F LinDyn=F Incr=         512.
 PRISM was handed  4276556538 working-precision words and163373 shell-pairs
 IPart=  0 NShTot=      163373 NBatch=         458 AvBLen=       356.7
 PrSmSu:  NxtVal=            513.
 Electronic moments (au):
       -716.00000000         13.18682564         -1.37318597         -8.08108058
     -52970.11946199     -28650.09958431     -11925.25724505         97.53975841
        -44.80513717        -29.55047289     -37069.45539834     -24655.33580185
     -30212.89014654      24781.57049276      84531.49245254      62709.38174527
     -18021.07652326       3461.78832459      15058.72319881       1823.85151380
   -7796896.27803033   -2485002.68832692    -613238.42193422    -180451.42123565
     207783.79971607    -402476.62220147      23406.68945739     -89334.80372245
      34614.76661258   -2155572.85128155    -644275.51411715    -325459.76561257
    -164899.81836818      61289.62957947       3510.50563541
 Electronic spatial extent (au):  <R**2>=          93545.4763
 DipInt: DoE/N= F T RetVal/Mat= T F Init=T NMatP=  1 IDeriv=0 Min/MaxMlt=  0  4
 Nuclear    moments (au):
        716.00000000          0.00000000          0.00000000          0.00000000
      52550.69451980      28275.57235137      11554.70397865          0.00000000
          0.00000000          0.00000000      38819.78157651      24869.58748803
      30042.11146682     -22697.23516205     -84020.20909460     -64047.54385059
      18215.88853620      -3413.20836335     -15776.47189147      -2363.37346133
    7601301.16595666    2386872.75030324     575120.24742856     193379.35135693
    -214557.33901869     415742.08962300     -29321.10233246      89420.24473725
     -34600.61386251    2120138.16813497     612700.44692842     304476.98885970
     161757.73323502     -68074.41841243      -1516.00447768
 Total      moments (au):
          0.00000000         13.18682564         -1.37318597         -8.08108058
       -419.42494219       -374.52723294       -370.55326640         97.53975841
        -44.80513717        -29.55047289       1750.32617817        214.25168618
       -170.77867973       2084.33533071        511.28335794      -1338.16210533
        194.81201294         48.57996125       -717.74869265       -539.52194752
    -195595.11207367     -98129.93802368     -38118.17450566      12927.93012129
      -6773.53930262      13265.46742153      -5914.41287507         85.44101479
         14.15275007     -35434.68314657     -31575.06718873     -20982.77675287
      -3142.08513315      -6784.78883296       1994.50115773
 Traceless Quadrup. (au):
        -31.25646168         13.64124757         17.61521411         97.53975841
        -44.80513717        -29.55047289
 Charge=              0.0000 electrons
 Dipole moment (field-independent basis, Debye):
    X=             33.5176    Y=             -3.4903    Z=            -20.5401  Tot=             39.4652
 Quadrupole moment (field-independent basis, Debye-Ang):
   XX=           -564.1409   YY=           -503.7519   ZZ=           -498.4068
   XY=            131.1943   XZ=            -60.2644   YZ=            -39.7464
 Traceless Quadrupole moment (field-independent basis, Debye-Ang):
   XX=            -42.0410   YY=             18.3479   ZZ=             23.6931
   XY=            131.1943   XZ=            -60.2644   YZ=            -39.7464
 Octapole moment (field-independent basis, Debye-Ang**2):
  XXX=           1245.8147  YYY=            152.4961  ZZZ=           -121.5537  XYY=           1483.5495
  XXY=            363.9118  XXZ=           -952.4522  XZZ=            138.6597  YZZ=             34.5773
  YYZ=           -510.8658  XYZ=           -384.0109
 Hexadecapole moment (field-independent basis, Debye-Ang**3):
 XXXX=         -73670.4934 YYYY=         -36960.4377 ZZZZ=         -14357.1314 XXXY=           4869.2781
 XXXZ=          -2551.2395 YYYX=           4996.4108 YYYZ=          -2227.6513 ZZZX=             32.1812
 ZZZY=              5.3306 XXYY=         -13346.3999 XXZZ=         -11892.6836 YYZZ=          -7903.1194
 XXYZ=          -1183.4599 YYXZ=          -2555.4766 ZZXY=            751.2247
 N-N= 2.184705423073D+04 E-N=-5.617581787114D+04  KE= 5.290547084631D+03
 Leave Link  601 at Mon Sep 16 13:35:09 2019, MaxMem=  4294967296 cpu:        21.9
 FitSet:  NAtFit=   176 NAtPot=   176 NAtFrz=     0 MDM=   180 TotChg=   0.00000
 Merz-Kollman atomic radii used.
 Read replacement radii for each type of atom:
 Rad(20) =   1.700000000000D+00
 Atom Element Radius
    1     6    1.50
    2     6    1.50
    3     8    1.40
    4     1    1.20
    5     1    1.20
    6     1    1.20
    7     7    1.50
    8     6    1.50
    9     6    1.50
   10     8    1.40
   11     6    1.50
   12     6    1.50
   13     8    1.40
   14     8    1.40
   15     1    1.20
   16     1    1.20
   17     1    1.20
   18     1    1.20
   19     7    1.50
   20     6    1.50
   21     6    1.50
   22     8    1.40
   23     6    1.50
   24     6    1.50
   25     6    1.50
   26     6    1.50
   27     7    1.50
   28     1    1.20
   29     1    1.20
   30     1    1.20
   31     1    1.20
   32     1    1.20
   33     1    1.20
   34     1    1.20
   35     1    1.20
   36     1    1.20
   37     1    1.20
   38     1    1.20
   39     1    1.20
   40     1    1.20
   41     7    1.50
   42     6    1.50
   43     6    1.50
   44     8    1.40
   45     6    1.50
   46     6    1.50
   47     8    1.40
   48     8    1.40
   49     1    1.20
   50     1    1.20
   51     1    1.20
   52     1    1.20
   53     7    1.50
   54     6    1.50
   55     6    1.50
   56     8    1.40
   57     1    1.20
   58     1    1.20
   59     1    1.20
   60     7    1.50
   61     6    1.50
   62     6    1.50
   63     8    1.40
   64     6    1.50
   65     6    1.50
   66     7    1.50
   67     8    1.40
   68     1    1.20
   69     1    1.20
   70     1    1.20
   71     1    1.20
   72     1    1.20
   73     1    1.20
   74     7    1.50
   75     6    1.50
   76     6    1.50
   77     8    1.40
   78     1    1.20
   79     1    1.20
   80     1    1.20
   81     7    1.50
   82     6    1.50
   83     6    1.50
   84     8    1.40
   85     6    1.50
   86     6    1.50
   87     6    1.50
   88     6    1.50
   89     6    1.50
   90     6    1.50
   91     6    1.50
   92     8    1.40
   93     1    1.20
   94     1    1.20
   95     1    1.20
   96     1    1.20
   97     1    1.20
   98     1    1.20
   99     1    1.20
  100     1    1.20
  101     1    1.20
  102     7    1.50
  103     6    1.50
  104     6    1.50
  105     8    1.40
  106     6    1.50
  107     6    1.50
  108     6    1.50
  109     6    1.50
  110     1    1.20
  111     1    1.20
  112     1    1.20
  113     1    1.20
  114     1    1.20
  115     1    1.20
  116     1    1.20
  117     1    1.20
  118     1    1.20
  119     1    1.20
  120     1    1.20
  121     7    1.50
  122     6    1.50
  123     6    1.50
  124     8    1.40
  125     6    1.50
  126     8    1.40
  127     1    1.20
  128     1    1.20
  129     1    1.20
  130     1    1.20
  131     1    1.20
  132     7    1.50
  133     6    1.50
  134     6    1.50
  135     8    1.40
  136     6    1.50
  137     1    1.20
  138     1    1.20
  139     1    1.20
  140     1    1.20
  141     1    1.20
  142     7    1.50
  143     6    1.50
  144     6    1.50
  145     8    1.40
  146     6    1.50
  147     1    1.20
  148     1    1.20
  149     1    1.20
  150     1    1.20
  151     1    1.20
  152     7    1.50
  153     6    1.50
  154     6    1.50
  155     8    1.40
  156     6    1.50
  157     6    1.50
  158     6    1.50
  159     8    1.40
  160     8    1.40
  161     1    1.20
  162     1    1.20
  163     1    1.20
  164     1    1.20
  165     1    1.20
  166     1    1.20
  167     7    1.50
  168     6    1.50
  169     1    1.20
  170     1    1.20
  171     1    1.20
  172     1    1.20
  173    20    1.70
  174     8    1.40
  175     1    1.20
  176     1    1.20
 Generate VDW surfaces: Layer= 4 Dens= 6 Start= 1.400 Inc= 0.200

 **********************************************************************

            Electrostatic Properties Using The SCF Density

 **********************************************************************

       Atomic Center    1 is at   2.164456  1.316552  5.969160
       Atomic Center    2 is at   1.581951  1.240086  4.560707
       Atomic Center    3 is at   2.402174  0.983093  3.685043
[...]
 **** Fit      -0.035547
 **** Fit      -0.040067
 **** Fit      -0.031380
 **** Fit      -0.031607
 **** Fit      -0.031155
 **** Fit      -0.030195
 **** Fit      -0.028913
 **** Fit      -0.027501
 **** Fit      -0.026155
 **** Fit      -0.025059
 **** Fit      -0.024383
 **** Fit      -0.024272
 **** Fit      -0.024839
 **** Fit      -0.026176
 **** Fit      -0.028376
 **** Fit      -0.031595
 **** Fit      -0.036146
 **** Fit      -0.032481
 **** Fit      -0.032197
 **** Fit      -0.031168
 **** Fit      -0.029561
 **** Fit      -0.027569
 **** Fit      -0.025407
 **** Fit      -0.023292
 **** Fit      -0.021438
 **** Fit      -0.020043
 **** Fit      -0.019279
 **** Fit      -0.019281
 **** Fit      -0.020146
 **** Fit      -0.021943
 **** Fit      -0.024757
 **** Fit      -0.028783
 **** Fit      -0.034446
 **** Fit      -0.034245
 **** Fit      -0.033400
 **** Fit      -0.031701
 **** Fit      -0.029317
 **** Fit      -0.026465
 **** Fit      -0.023384
 **** Fit      -0.020323
 **** Fit      -0.017523
 **** Fit      -0.015211
 **** Fit      -0.013586
 **** Fit      -0.012811
 **** Fit      -0.013004
 **** Fit      -0.014226
 **** Fit      -0.016497
 **** Fit      -0.019863
 **** Fit      -0.024511
 **** Fit      -0.034125
 **** Fit      -0.037137
 **** Fit      -0.035619
 **** Fit      -0.033020
 **** Fit      -0.029554
 **** Fit      -0.025507
 **** Fit      -0.021185
 **** Fit      -0.016891
 **** Fit      -0.012911
 **** Fit      -0.009508
 **** Fit      -0.006909
 **** Fit      -0.005306
 **** Fit      -0.004861
 **** Fit      -0.005673
 **** Fit      -0.007713
 **** Fit      -0.037484
 **** Fit      -0.030511
 **** Fit      -0.024721
 **** Fit      -0.018665
 **** Fit      -0.012737
 **** Fit      -0.007280
 **** Fit      -0.002586
 **** Fit       0.001114
 **** Fit      -0.016521
 **** Fit      -0.008591
 **** Fit      -0.001399
 **** Fit       0.004797
 **** Fit      -0.001877
 **** Fit       0.067141
 **** Fit       0.057814
 **** Fit       0.054506
 **** Fit       0.048307
 **** Fit       0.049650
 **** Fit       0.039984
 **** Fit       0.037595
 **** Fit       0.010545
 **** Fit      -0.001750
 **** Fit       0.029107
 **** Fit       0.023248
 **** Fit       0.014169
 **** Fit       0.003295
 **** Fit       0.020731
 **** Fit       0.013934
 **** Fit       0.003876
 **** Fit       0.004252
 **** Fit      -0.007716
 **** Fit      -0.011026
 **** Fit      -0.013429
 **** Fit      -0.009457
 **** Fit      -0.021494
 **** Fit      -0.007119
 **** Fit      -0.003890
 **** Fit      -0.006323
 **** Fit      -0.010918
 **** Fit      -0.017692
 **** Fit      -0.026121
 **** Fit      -0.009795
 **** Fit      -0.007901
 **** Fit      -0.007669
 **** Fit      -0.009285
 **** Fit      -0.012860
 **** Fit      -0.018167
 **** Fit      -0.024258
 **** Fit      -0.029180
 **** Fit      -0.011017
 **** Fit      -0.010481
 **** Fit      -0.011538
 **** Fit      -0.014430
 **** Fit      -0.018562
 **** Fit      -0.022172
 **** Fit      -0.022688
 **** Fit      -0.018635
 **** Fit      -0.011522
 **** Fit      -0.004283
 **** Fit       0.001656
 **** Fit       0.003261
 **** Fit      -0.011643
 **** Fit      -0.012489
 **** Fit      -0.014688
 **** Fit      -0.017310
 **** Fit      -0.017549
 **** Fit      -0.013680
 **** Fit      -0.007756
 **** Fit      -0.002980
 **** Fit      -0.001554
 **** Fit      -0.004109
 **** Fit      -0.008287
 **** Fit      -0.010913
 **** Fit      -0.011721
 **** Fit      -0.013626
 **** Fit      -0.013888
 **** Fit      -0.009951
 **** Fit      -0.007275
 **** Fit      -0.009300
 **** Fit      -0.011200
 **** Fit       0.003387
 **** Fit       0.046605
 **** Fit       0.038307
 **** Fit       0.031891
 **** Fit       0.026615
 **** Fit       0.025108
 **** Fit       0.018685
 **** Fit       0.009469
 **** Fit      -0.000122
 **** Fit       0.018332
 **** Fit       0.010354
 **** Fit       0.002727
 **** Fit       0.003497
 **** Fit       0.012070
 **** Fit       0.011261
 **** Fit       0.065705
 **** Fit       0.030548
 **** Fit       0.015460
 **** Fit       0.001263
 **** Fit       0.054753
 **** Fit       0.053474
 **** Fit       0.045985
 **** Fit       0.034150
 **** Fit       0.020518
 **** Fit       0.007387
 **** Fit       0.040746
 **** Fit       0.032755
 **** Fit       0.020473
 **** Fit      -0.007932
 **** Fit      -0.007572
 **** Fit      -0.008401
 **** Fit      -0.006818
 **** Fit      -0.006555
 **** Fit      -0.007345
 **** Fit      -0.008961
 **** Fit      -0.006965
 **** Fit      -0.005630
 **** Fit      -0.005161
 **** Fit      -0.005404
 **** Fit      -0.006181
 **** Fit      -0.007263
 **** Fit      -0.012066
 **** Fit      -0.009634
 **** Fit      -0.004004
 **** Fit      -0.004433
 **** Fit      -0.005141
 **** Fit      -0.006098
 **** Fit      -0.007324
 **** Fit      -0.008661
 **** Fit      -0.015143
 **** Fit      -0.012112
 **** Fit      -0.003003
 **** Fit      -0.003515
 **** Fit      -0.004197
 **** Fit      -0.005061
 **** Fit      -0.006110
 **** Fit      -0.007512
 **** Fit      -0.008843
 **** Fit      -0.013882
 **** Fit      -0.002255
 **** Fit      -0.002829
 **** Fit      -0.003495
 **** Fit      -0.004279
 **** Fit      -0.005208
 **** Fit      -0.006291
 **** Fit      -0.007807
 **** Fit      -0.009244
 **** Fit      -0.010793
 **** Fit      -0.016855
 **** Fit      -0.001405
 **** Fit      -0.002033
 **** Fit      -0.002706
 **** Fit      -0.003452
 **** Fit      -0.004311
 **** Fit      -0.005318
 **** Fit      -0.006489
 **** Fit      -0.009748
 **** Fit      -0.011413
 **** Fit      -0.001306
 **** Fit      -0.002007
 **** Fit      -0.002737
 **** Fit      -0.012234
 **** Fit      -0.014236
 **** Fit      -0.000479
 **** Fit      -0.001253
 **** Fit      -0.015340
 **** Fit      -0.017804
 **** Fit       0.000371
 **** Fit      -0.000516
 **** Fit      -0.016820
 **** Fit      -0.019408
 **** Fit      -0.022650
 **** Fit       0.001503
 **** Fit       0.000469
 **** Fit      -0.019003
 **** Fit      -0.021806
 **** Fit      -0.025376
 **** Fit      -0.030269
 **** Fit       0.002222
 **** Fit       0.000827
 **** Fit      -0.024684
 **** Fit      -0.028419
 **** Fit       0.004291
 **** Fit       0.003008
 **** Fit       0.001002
 **** Fit      -0.028264
 **** Fit      -0.031987
 **** Fit       0.005882
 **** Fit       0.000797
 **** Fit      -0.030352
 **** Fit      -0.033385
 **** Fit      -0.037317
 **** Fit      -0.036672
 **** Fit      -0.005352
 **** Fit      -0.006767
 **** Fit      -0.008220
 **** Fit      -0.002902
 **** Fit      -0.003576
 **** Fit      -0.004445
 **** Fit      -0.005508
 **** Fit      -0.007094
 **** Fit      -0.008578
 **** Fit      -0.010277
 **** Fit      -0.002223
 **** Fit      -0.002893
 **** Fit      -0.003717
 **** Fit      -0.004685
 **** Fit      -0.005804
 **** Fit      -0.007677
 **** Fit      -0.009140
 **** Fit      -0.010827
 **** Fit      -0.012782
 **** Fit      -0.001691
 **** Fit      -0.002423
 **** Fit      -0.003272
 **** Fit      -0.004215
 **** Fit      -0.005250
 **** Fit      -0.006394
 **** Fit      -0.008648
 **** Fit      -0.010145
 **** Fit      -0.011883
 **** Fit      -0.013938
 **** Fit      -0.001014
 **** Fit      -0.001886
 **** Fit      -0.002872
 **** Fit      -0.003919
 **** Fit      -0.005003
 **** Fit      -0.006130
 **** Fit      -0.007329
 **** Fit      -0.010174
 **** Fit      -0.011652
 **** Fit      -0.013377
 **** Fit      -0.015436
 **** Fit      -0.017935
 **** Fit      -0.000379
 **** Fit      -0.001490
 **** Fit      -0.002734
 **** Fit      -0.004010
 **** Fit      -0.005258
 **** Fit      -0.006464
 **** Fit      -0.007650
 **** Fit      -0.008864
 **** Fit      -0.012477
 **** Fit      -0.013918
 **** Fit      -0.015626
 **** Fit      -0.017697
 **** Fit      -0.020240
 **** Fit      -0.000927
 **** Fit      -0.002615
 **** Fit      -0.004345
 **** Fit      -0.005979
 **** Fit      -0.007457
 **** Fit      -0.008781
 **** Fit      -0.010004
 **** Fit      -0.011204
 **** Fit      -0.015874
 **** Fit      -0.017265
 **** Fit      -0.018990
 **** Fit      -0.021169
 **** Fit      -0.023914
 **** Fit      -0.001615
 **** Fit      -0.004217
 **** Fit      -0.006753
 **** Fit      -0.008982
 **** Fit      -0.010821
 **** Fit      -0.012305
 **** Fit      -0.013544
 **** Fit      -0.014682
 **** Fit      -0.020841
 **** Fit      -0.022031
 **** Fit      -0.023693
 **** Fit      -0.025977
 **** Fit      -0.028968
 **** Fit      -0.019926
 **** Fit      -0.029996
 **** Fit      -0.032142
 **** Fit      -0.011147
 **** Fit      -0.010515
 **** Fit      -0.012460
 **** Fit      -0.013416
 **** Fit      -0.012061
 **** Fit      -0.010055
 **** Fit      -0.009429
 **** Fit      -0.010148
 **** Fit      -0.011975
 **** Fit      -0.014061
 **** Fit      -0.015837
 **** Fit      -0.016476
 **** Fit      -0.015491
 **** Fit      -0.013318
 **** Fit      -0.010952
 **** Fit      -0.008808
 **** Fit      -0.010046
 **** Fit      -0.011724
 **** Fit      -0.013747
 **** Fit      -0.016027
 **** Fit      -0.018275
 **** Fit      -0.019996
 **** Fit      -0.020650
 **** Fit      -0.019896
 **** Fit      -0.017832
 **** Fit      -0.015087
 **** Fit      -0.008695
 **** Fit      -0.010220
 **** Fit      -0.011865
 **** Fit      -0.013849
 **** Fit      -0.016220
 **** Fit      -0.018920
 **** Fit      -0.021719
 **** Fit      -0.024205
 **** Fit      -0.025889
 **** Fit      -0.026360
 **** Fit      -0.025373
 **** Fit      -0.022934
 **** Fit      -0.019556
 **** Fit      -0.010680
 **** Fit      -0.012362
 **** Fit      -0.014376
 **** Fit      -0.016836
 **** Fit      -0.019802
 **** Fit      -0.023211
 **** Fit      -0.026814
 **** Fit      -0.030167
 **** Fit      -0.032738
 **** Fit      -0.034110
 **** Fit      -0.034065
 **** Fit      -0.013164
 **** Fit      -0.015191
 **** Fit      -0.017676
 **** Fit      -0.020757
 **** Fit      -0.024505
 **** Fit      -0.028856
 **** Fit      -0.016632
 **** Fit      -0.019361
 **** Fit      -0.022833
 **** Fit      -0.027233
 **** Fit      -0.018461
 **** Fit      -0.021411
 **** Fit      -0.025228
 **** Fit      -0.030225
 **** Fit      -0.024191
 **** Fit      -0.028530
 **** Fit      -0.005446
 **** Fit      -0.005355
 **** Fit      -0.003852
 **** Fit      -0.004054
 **** Fit      -0.007716
 **** Fit      -0.005154
 **** Fit      -0.003158
 **** Fit      -0.002285
 **** Fit      -0.002299
 **** Fit      -0.002933
 **** Fit      -0.008010
 **** Fit      -0.001133
 **** Fit      -0.000777
 **** Fit      -0.000873
 **** Fit      -0.001297
 **** Fit      -0.002012
 **** Fit       0.000463
 **** Fit       0.000142
 **** Fit      -0.000372
 **** Fit      -0.001102
 **** Fit       0.001417
 **** Fit       0.001079
 **** Fit       0.000573
 **** Fit      -0.000152
 **** Fit      -0.001058
 **** Fit       0.002146
 **** Fit       0.001897
 **** Fit       0.001441
 **** Fit       0.000737
 **** Fit      -0.000180
 **** Fit       0.002702
 **** Fit       0.002727
 **** Fit       0.002489
 **** Fit       0.001920
 **** Fit       0.001031
 **** Fit       0.003250
 **** Fit       0.003371
 **** Fit       0.003058
 **** Fit       0.002303
 **** Fit       0.003072
 **** Fit       0.003865
 **** Fit       0.004098
 **** Fit       0.003742
 **** Fit       0.002794
 **** Fit       0.004031
 **** Fit       0.004772
 **** Fit       0.004708
 **** Fit       0.003766
 **** Fit       0.002883
 **** Fit       0.004666
 **** Fit       0.005467
 **** Fit      -0.015909
 **** Fit      -0.001845
 **** Fit       0.007484
 **** Fit       0.019229
 **** Fit       0.021410
 **** Fit       0.011566
 **** Fit       0.002460
 **** Fit      -0.007178
 **** Fit      -0.010629
 **** Fit       0.004776
 **** Fit       0.011912
 **** Fit       0.014995
 **** Fit       0.013689
 **** Fit       0.008049
 **** Fit      -0.000827
 **** Fit      -0.006144
 **** Fit       0.001532
 **** Fit       0.007275
 **** Fit       0.003651
 **** Fit      -0.002127
 **** Fit       0.011935
 **** Fit       0.023587
 **** Fit       0.027389
 **** Fit       0.020646
 **** Fit       0.024222
 **** Fit       0.028514
 **** Fit       0.033502
 **** Fit       0.037852
 **** Fit       0.040178
 **** Fit       0.041006
 **** Fit       0.026319
 **** Fit       0.030566
 **** Fit       0.034862
 **** Fit       0.036460
 **** Fit       0.034909
 **** Fit       0.039118
 **** Fit       0.037309
 **** Fit       0.036719
 **** Fit       0.040621
 **** Fit       0.038815
 **** Fit       0.037836
 **** Fit       0.037590
 **** Fit       0.042316
 **** Fit       0.040424
 **** Fit       0.038967
 **** Fit       0.038046
 **** Fit       0.037532
 **** Fit       0.037046
 **** Fit       0.019602
 **** Fit       0.014298
 **** Fit       0.009961
 **** Fit       0.007380
 **** Fit       0.007445
 **** Fit       0.010170
 **** Fit       0.014567
 **** Fit       0.041122
 **** Fit       0.040579
 **** Fit       0.039522
 **** Fit       0.038465
 **** Fit       0.037605
 **** Fit       0.036833
 **** Fit       0.035748
 **** Fit       0.033740
 **** Fit       0.030256
 **** Fit       0.025267
 **** Fit       0.023303
 **** Fit       0.018990
 **** Fit       0.015965
 **** Fit       0.015079
 **** Fit       0.016583
 **** Fit       0.019835
 **** Fit       0.023900
 **** Fit       0.028233
 **** Fit       0.032462
 **** Fit       0.035811
 **** Fit       0.037592
 **** Fit       0.037953
 **** Fit       0.037525
 **** Fit       0.036794
 **** Fit       0.035835
 **** Fit       0.034322
 **** Fit       0.031748
 **** Fit       0.027899
 **** Fit       0.026004
 **** Fit       0.022515
 **** Fit       0.021133
 **** Fit       0.022497
 **** Fit       0.025847
 **** Fit       0.029899
 **** Fit       0.033350
 **** Fit       0.035190
 **** Fit       0.035475
 **** Fit       0.034736
 **** Fit       0.033010
 **** Fit       0.029982
 **** Fit       0.028067
 **** Fit       0.025931
 **** Fit       0.027880
 **** Fit       0.031460
 **** Fit       0.032930
 **** Fit       0.031509
 **** Fit       0.029795
 **** Fit       0.020660
 **** Fit       0.020768
 **** Fit       0.024728
 **** Fit       0.025717
 **** Fit       0.026984
 **** Fit       0.026224
 **** Fit       0.026293
 **** Fit       0.027140
 **** Fit       0.028278
 **** Fit       0.029619
 **** Fit       0.031402
 **** Fit       0.034135
 **** Fit       0.033893
 **** Fit       0.031632
 **** Fit       0.031147
 **** Fit       0.031650
 **** Fit       0.032800
 **** Fit       0.034610
 **** Fit       0.037385
 **** Fit       0.037135
 **** Fit       0.035358
 **** Fit       0.035223
 **** Fit       0.036227
 **** Fit       0.038303
 **** Fit       0.042114
 **** Fit       0.039164
 **** Fit       0.038355
 **** Fit       0.039127
 **** Fit       0.043172
 **** Fit       0.041096
 **** Fit       0.041087
 **** Fit       0.044022
 **** Fit       0.042554
 -----------------------------------------------------------------
 Leave Link  602 at Mon Sep 16 13:35:22 2019, MaxMem=  4294967296 cpu:       151.2

 Test job not archived.
 1\1\GINC-N001\SP\RB3LYP\SVP\C54H83Ca1N15O23\PCIEPLAK\16-Sep-2019\0\\#m
 axdisk=50GB #B3LYP/SVP Density=Current scf=(tight) #IOP(5/87=12)Pop=(M
 K,readradii) iop(6/33=2) iop(6/42=6)\\SOL molecule\\0,1\C,0,88.05,65.1
 4,32.13\C,0,87.97,65.03,33.65\O,0,88.93,64.47,34.17\H,0,89.066,65.406,
 31.839\H,0,87.783,64.183,31.681\H,0,87.36,65.91,31.784\N,0,87.03,65.6,
 34.41\C,0,86.74,65.3,35.8\C,0,85.99,63.98,35.88\O,0,84.91,63.77,35.33\
 C,0,85.99,66.46,36.45\C,0,85.74,66.2,37.93\O,0,85.97,65.11,38.51\O,0,8
 5.04,67.07,38.5\H,0,86.29,66.07,33.91\H,0,87.72,65.34,36.27\H,0,85.06,
 66.72,35.95\H,0,86.58,67.36,36.27\N,0,86.64,63.01,36.53\C,0,86.3,61.6,
 36.58\C,0,85.02,61.28,37.35\O,0,84.23,60.45,36.9\C,0,87.5,60.84,37.13\
 C,0,87.44,59.33,36.92\C,0,88.8,58.65,37.11\C,0,88.77,57.14,37.28\N,0,9
 0.08,56.61,37.71\H,0,87.48,63.23,37.04\H,0,86.21,61.22,35.56\H,0,87.58
 ,60.99,38.21\H,0,88.38,61.23,36.62\H,0,87.09,59.3,35.89\H,0,86.67,58.9
 1,37.57\H,0,89.19,59.09,38.02\H,0,89.41,58.9,36.24\H,0,88.47,56.71,36.
 33\H,0,88.08,56.94,38.1\H,0,89.94,55.68,38.06\H,0,90.69,56.47,36.91\H,
 0,90.47,57.22,38.41\N,0,84.82,62.06,38.41\C,0,83.83,61.9,39.46\C,0,82.
 74,62.96,39.46\O,0,81.73,62.71,40.11\C,0,84.46,61.8,40.84\C,0,85.46,62
 .88,41.23\O,0,85.13,64.07,41.02\O,0,86.67,62.66,41.43\H,0,85.58,62.7,3
 8.55\H,0,83.37,60.94,39.21\H,0,84.91,60.8,40.85\H,0,83.66,61.85,41.58\
 N,0,82.98,64.15,38.91\C,0,82.12,65.31,38.8\C,0,82.,66.11,40.09\O,0,80.
 95,66.72,40.29\H,0,83.92,64.25,38.53\H,0,81.16,65.,38.37\H,0,82.62,65.
 92,38.05\N,0,83.06,66.2,40.91\C,0,83.08,67.11,42.03\C,0,83.42,68.57,41
 .74\O,0,83.24,69.37,42.65\C,0,84.03,66.53,43.06\C,0,85.49,66.91,42.83\
 N,0,86.11,67.45,43.89\O,0,86.09,66.91,41.76\H,0,83.9,65.7,40.66\H,0,82
 .06,67.04,42.43\H,0,83.91,65.45,43.13\H,0,83.83,67.01,44.02\H,0,85.52,
 67.55,44.7\H,0,87.08,67.71,43.9\N,0,83.93,68.93,40.57\C,0,84.27,70.29,
 40.2\C,0,85.6,70.45,39.47\O,0,85.75,71.55,38.94\H,0,84.15,68.21,39.89\
 H,0,84.55,70.75,41.15\H,0,83.42,70.83,39.77\N,0,86.46,69.43,39.44\C,0,
 87.89,69.63,39.33\C,0,88.65,68.43,38.78\O,0,88.17,67.33,39.04\C,0,88.5
 8,69.94,40.66\C,0,88.01,71.04,41.53\C,0,88.44,72.37,41.4\C,0,86.98,70.
 72,42.42\C,0,87.89,73.38,42.2\C,0,86.46,71.72,43.26\C,0,87.05,73.,43.2
 6\O,0,86.71,73.94,44.19\H,0,86.12,68.51,39.69\H,0,88.16,70.48,38.71\H,
 0,89.58,70.31,40.42\H,0,88.79,69.01,41.18\H,0,89.17,72.54,40.62\H,0,86
 .65,69.69,42.35\H,0,88.27,74.38,42.08\H,0,85.63,71.49,43.91\H,0,86.13,
 73.49,44.81\N,0,89.66,68.69,37.94\C,0,90.58,67.73,37.37\C,0,91.76,67.6
 2,38.32\O,0,92.24,68.61,38.87\C,0,90.96,68.04,35.92\C,0,89.92,68.77,35
 .09\C,0,91.45,66.81,35.16\C,0,90.41,69.48,33.84\H,0,89.9,69.65,37.75\H
 ,0,90.13,66.74,37.28\H,0,91.8,68.72,36.09\H,0,89.48,69.54,35.74\H,0,89
 .14,68.04,34.87\H,0,91.79,67.07,34.16\H,0,92.26,66.36,35.74\H,0,90.67,
 66.06,35.06\H,0,90.63,68.69,33.12\H,0,89.63,70.13,33.45\H,0,91.34,70.,
 34.05\N,0,92.4,66.46,38.41\C,0,93.69,66.23,39.04\C,0,94.4,65.23,38.14\
 O,0,93.85,64.78,37.13\C,0,93.48,65.71,40.46\O,0,92.83,64.46,40.44\H,0,
 92.08,65.68,37.86\H,0,94.28,67.14,39.02\H,0,92.98,66.52,41.\H,0,94.36,
 65.42,41.02\H,0,91.88,64.57,40.4\N,0,95.69,64.98,38.4\C,0,96.59,64.34,
 37.46\C,0,96.13,62.93,37.17\O,0,96.16,62.61,35.98\C,0,98.02,64.38,38.\
 H,0,96.11,65.53,39.13\H,0,96.52,64.92,36.54\H,0,98.64,64.13,37.15\H,0,
 98.32,65.39,38.28\H,0,98.04,63.75,38.89\N,0,95.69,62.15,38.16\C,0,95.2
 4,60.79,37.93\C,0,94.07,60.73,36.95\O,0,93.99,59.82,36.13\C,0,94.87,60
 .14,39.26\H,0,95.69,62.48,39.12\H,0,96.1,60.32,37.45\H,0,94.05,60.71,3
 9.71\H,0,94.47,59.15,39.03\H,0,95.72,60.15,39.94\N,0,93.19,61.72,37.11
 \C,0,91.95,61.83,36.37\C,0,92.23,62.32,34.96\O,0,91.62,61.83,34.02\C,0
 ,91.03,62.76,37.17\C,0,90.62,62.38,38.59\C,0,89.74,63.41,39.27\O,0,88.
 62,63.71,38.8\O,0,90.06,63.94,40.36\H,0,93.37,62.4,37.84\H,0,91.45,60.
 86,36.29\H,0,90.09,62.88,36.64\H,0,91.46,63.76,37.26\H,0,91.52,62.21,3
 9.18\H,0,90.08,61.44,38.61\N,0,93.25,63.18,34.82\C,0,93.62,63.65,33.5\
 H,0,94.652,63.37,33.291\H,0,92.964,63.198,32.756\H,0,93.524,64.735,33.
 46\H,0,93.83,63.49,35.59\Ca,0,87.44,65.04,40.53\O,0,89.5,66.61,41.57\H
 ,0,90.28,66.27,42.01\H,0,89.35,67.47,41.96\\Version=ES64L-G09RevD.01\S
 tate=1-A\HF=-5333.6004667\RMSD=2.970e-09\Dipole=12.3894725,-9.0176223,
 2.5030648\Quadrupole=-96.5619725,114.7360012,-18.1740287,-17.9331069,3
 5.9314184,-10.4553847\PG=C01 [X(C54H83Ca1N15O23)]\\@


 PENOTUS DIED A HUNDRED YEARS OLD WANTING BUT TWO...
 AND HE USED TO SAY BEFORE HE DIED, HAVING SPENT HIS
 WHOLE LIFE IN VAINLY SEARCHING AFTER THE PHILOSOPHER'S
 STONE, THAT IF HE HAD A MORTAL ENEMY HE DID NOT DARE
 TO ENCOUNTER OPENLY, HE WOULD ADVISE HIM ABOVE ALL
 THINGS TO GIVE HIMSELF UP TO THE STUDY AND PRACTICE
 OF ALCHEMY.  --  NICOLAS LEMERY, M.D.
 "A COURSE OF CHYMISTRY", WALTER KETTILBY, LONDON, 1686
 Job cpu time:       0 days 16 hours 52 minutes 44.4 seconds.
 File lengths (MBytes):  RWF=   1513 Int=      0 D2E=      0 Chk=    103 Scr=      1
 Normal termination of Gaussian 09 at Mon Sep 16 13:35:22 2019.
