 Entering Gaussian System, Link 0=g09
 Initial command:
 /home/pcieplak/g09/g09/l1.exe "/scratch1/pcieplak/fullloop_24.0/Gau-19607.inp" -scrdir="/scratch1/pcieplak/fullloop_24.0/"
 Entering Link 1 = /home/pcieplak/g09/g09/l1.exe PID=     19608.
  
 Copyright (c) 1988,1990,1992,1993,1995,1998,2003,2009,2013,
            Gaussian, Inc.  All Rights Reserved.
  
 This is part of the Gaussian(R) 09 program.  It is based on
 the Gaussian(R) 03 system (copyright 2003, Gaussian, Inc.),
 the Gaussian(R) 98 system (copyright 1998, Gaussian, Inc.),
 the Gaussian(R) 94 system (copyright 1995, Gaussian, Inc.),
 the Gaussian 92(TM) system (copyright 1992, Gaussian, Inc.),
 the Gaussian 90(TM) system (copyright 1990, Gaussian, Inc.),
 the Gaussian 88(TM) system (copyright 1988, Gaussian, Inc.),
 the Gaussian 86(TM) system (copyright 1986, Carnegie Mellon
 University), and the Gaussian 82(TM) system (copyright 1983,
 Carnegie Mellon University). Gaussian is a federally registered
 trademark of Gaussian, Inc.
  
 This software contains proprietary and confidential information,
 including trade secrets, belonging to Gaussian, Inc.
  
 This software is provided under written license and may be
 used, copied, transmitted, or stored only in accord with that
 written license.
  
 The following legend is applicable only to US Government
 contracts under FAR:
  
                    RESTRICTED RIGHTS LEGEND
  
 Use, reproduction and disclosure by the US Government is
 subject to restrictions as set forth in subparagraphs (a)
 and (c) of the Commercial Computer Software - Restricted
 Rights clause in FAR 52.227-19.
  
 Gaussian, Inc.
 340 Quinnipiac St., Bldg. 40, Wallingford CT 06492
  
  
 ---------------------------------------------------------------
 Warning -- This program may not be used in any manner that
 competes with the business of Gaussian, Inc. or will provide
 assistance to any competitor of Gaussian, Inc.  The licensee
 of this program is prohibited from giving any competitor of
 Gaussian, Inc. access to this program.  By using this program,
 the user acknowledges that Gaussian, Inc. is engaged in the
 business of creating and licensing software in the field of
 computational chemistry and represents and warrants to the
 licensee that it is not a competitor of Gaussian, Inc. and that
 it will not use this program in any manner prohibited above.
 ---------------------------------------------------------------
  

 Cite this work as:
 Gaussian 09, Revision D.01,
 M. J. Frisch, G. W. Trucks, H. B. Schlegel, G. E. Scuseria, 
 M. A. Robb, J. R. Cheeseman, G. Scalmani, V. Barone, B. Mennucci, 
 G. A. Petersson, H. Nakatsuji, M. Caricato, X. Li, H. P. Hratchian, 
 A. F. Izmaylov, J. Bloino, G. Zheng, J. L. Sonnenberg, M. Hada, 
 M. Ehara, K. Toyota, R. Fukuda, J. Hasegawa, M. Ishida, T. Nakajima, 
 Y. Honda, O. Kitao, H. Nakai, T. Vreven, J. A. Montgomery, Jr., 
 J. E. Peralta, F. Ogliaro, M. Bearpark, J. J. Heyd, E. Brothers, 
 K. N. Kudin, V. N. Staroverov, T. Keith, R. Kobayashi, J. Normand, 
 K. Raghavachari, A. Rendell, J. C. Burant, S. S. Iyengar, J. Tomasi, 
 M. Cossi, N. Rega, J. M. Millam, M. Klene, J. E. Knox, J. B. Cross, 
 V. Bakken, C. Adamo, J. Jaramillo, R. Gomperts, R. E. Stratmann, 
 O. Yazyev, A. J. Austin, R. Cammi, C. Pomelli, J. W. Ochterski, 
 R. L. Martin, K. Morokuma, V. G. Zakrzewski, G. A. Voth, 
 P. Salvador, J. J. Dannenberg, S. Dapprich, A. D. Daniels, 
 O. Farkas, J. B. Foresman, J. V. Ortiz, J. Cioslowski, 
 and D. J. Fox, Gaussian, Inc., Wallingford CT, 2013.
 
 ******************************************
 Gaussian 09:  ES64L-G09RevD.01 24-Apr-2013
                16-Sep-2019 
 ******************************************
 %Nproc=12
 Will use up to   12 processors via shared memory.
 %chk=chk1mol
 %mem=32GB
 ----------------------------------------------------------------------
 #maxdisk=50GB #B3LYP/SVP Density=Current scf=(tight) #IOP(5/87=12)Pop=
 (MK,readradii) iop(6/33=2) iop(6/42=6)
 ----------------------------------------------------------------------
 1/30=1,38=1/1;
 2/12=2,17=6,18=5,40=1/2;
 3/5=18,7=101,11=2,16=1,25=1,30=1,74=-5/1,2,3;
 4//1;
 5/5=2,32=2,38=5,87=12/2;
 6/7=2,8=2,9=2,10=2,15=8,20=101,22=-1,28=1,33=2,42=6/1,2;
 99/5=1,9=1/99;
 ------------
 SOL molecule
 ------------
 Symbolic Z-matrix:
 Charge =  0 Multiplicity = 1
 C                     75.54     43.01     21.21 
 C                     74.19     42.47     21.66 
 O                     73.9      41.29     21.49 
 H                     76.292    42.225    21.297 
 H                     75.474    43.336    20.172 
 H                     75.822    43.854    21.839 
 N                     73.42     43.33     22.32 
 C                     72.11     42.87     22.74 
 C                     71.25     42.52     21.53 
 O                     70.77     43.39     20.81 
 C                     71.39     43.9      23.61 
 C                     70.12     43.27     24.17 
 O                     70.07     42.06     24.47 
 O                     69.16     44.06     24.3 
 H                     73.74     44.27     22.49 
 H                     72.14     41.99     23.38 
 H                     71.01     44.7      22.97 
 H                     72.06     44.19     24.41 
 N                     71.07     41.24     21.2 
 C                     70.55     40.67     19.97 
 C                     69.13     40.13     20.02 
 O                     68.38     40.16     19.05 
 C                     71.62     39.8      19.3 
 C                     71.17     39.31     17.92 
 C                     72.37     38.73     17.18 
 C                     71.91     38.19     15.83 
 N                     73.04     37.76     14.99 
 H                     71.6      40.63     21.81 
 H                     70.42     41.47     19.24 
 H                     71.83     38.89     19.85 
 H                     72.55     40.37     19.27 
 H                     70.76     40.08     17.28 
 H                     70.47     38.5      18.11 
 H                     72.62     37.94     17.89 
 H                     73.12     39.5      16.99 
 H                     71.25     38.86     15.27 
 H                     71.22     37.36     15.96 
 H                     72.71     37.31     14.15 
 H                     73.56     38.59     14.75 
 H                     73.58     37.04     15.44 
 N                     68.72     39.58     21.17 
 C                     67.33     39.45     21.56 
 C                     66.67     40.74     22.02 
 O                     65.5      40.75     22.39 
 C                     67.03     38.31     22.52 
 C                     67.91     38.25     23.76 
 O                     67.56     37.6      24.77 
 O                     69.02     38.82     23.82 
 H                     69.42     39.45     21.89 
 H                     66.71     39.22     20.69 
 H                     67.15     37.35     22.02 
 H                     65.95     38.31     22.67 
 N                     67.41     41.84     22.21 
 C                     66.85     43.17     22.34 
 C                     66.23     43.53     23.69 
 O                     65.52     44.53     23.83 
 H                     68.4      41.7      22.09 
 H                     66.09     43.32     21.57 
 H                     67.74     43.79     22.2 
 N                     66.49     42.7      24.7 
 C                     65.85     42.8      26. 
 C                     66.4      43.86     26.94 
 O                     65.91     44.       28.06 
 C                     65.86     41.36     26.51 
 C                     67.17     40.83     27.08 
 N                     67.29     40.21     28.25 
 O                     68.21     40.93     26.43 
 H                     67.11     41.92     24.52 
 H                     64.82     43.12     25.83 
 H                     65.38     40.69     25.8 
 H                     65.26     41.42     27.42 
 H                     66.45     39.95     28.74 
 H                     68.15     39.69     28.34 
 N                     67.45     44.61     26.61 
 C                     68.06     45.55     27.53 
 C                     69.29     45.1      28.29 
 O                     69.94     45.79     29.07 
 H                     67.88     44.34     25.74 
 H                     67.25     45.84     28.2 
 H                     68.2      46.43     26.9 
 N                     69.8      43.89     28. 
 C                     70.88     43.26     28.74 
 C                     71.86     42.56     27.81 
 O                     71.44     41.71     27.03 
 C                     70.3      42.26     29.73 
 C                     69.31     42.75     30.76 
 C                     69.74     43.02     32.06 
 C                     67.97     42.99     30.43 
 C                     68.87     43.6      32.99 
 C                     67.07     43.57     31.34 
 C                     67.56     43.96     32.6 
 O                     66.66     44.38     33.53 
 H                     69.4      43.34     27.26 
 H                     71.38     44.02     29.35 
 H                     71.02     41.65     30.29 
 H                     69.79     41.49     29.14 
 H                     70.68     42.77     32.53 
 H                     67.55     42.81     29.46 
 H                     69.09     43.9      34. 
 H                     66.05     43.7      31.02 
 H                     65.77     44.23     33.2 
 N                     73.17     42.78     27.95 
 C                     74.2      42.03     27.26 
 C                     74.46     40.79     28.11 
 O                     74.46     40.88     29.33 
 C                     75.45     42.87     27.01 
 C                     75.18     43.82     25.85 
 C                     76.67     42.       26.75 
 C                     76.22     44.93     25.69 
 H                     73.51     43.52     28.54 
 H                     73.81     41.6      26.34 
 H                     75.59     43.58     27.83 
 H                     74.19     44.22     26.04 
 H                     75.08     43.19     24.96 
 H                     77.02     41.57     27.69 
 H                     76.48     41.18     26.06 
 H                     77.47     42.58     26.3 
 H                     76.46     45.41     26.64 
 H                     77.08     44.49     25.19 
 H                     75.83     45.69     25.02 
 N                     74.61     39.67     27.4 
 C                     75.07     38.41     27.94 
 C                     76.43     38.03     27.35 
 O                     76.78     38.58     26.31 
 C                     74.01     37.31     27.95 
 O                     73.7      36.98     26.61 
 H                     74.44     39.72     26.41 
 H                     75.31     38.58     28.99 
 H                     73.12     37.58     28.51 
 H                     74.44     36.49     28.51 
 H                     73.19     37.68     26.18 
 N                     77.19     37.08     27.9 
 C                     78.45     36.66     27.33 
 C                     78.49     36.01     25.95 
 O                     79.44     36.15     25.17 
 C                     79.24     35.9      28.4 
 H                     76.81     36.45     28.59 
 H                     78.94     37.62     27.2 
 H                     78.95     36.11     29.43 
 H                     79.15     34.84     28.17 
 H                     80.27     36.14     28.16 
 N                     77.41     35.3      25.63 
 C                     77.14     34.61     24.39 
 C                     76.99     35.6      23.24 
 O                     77.37     35.27     22.11 
 C                     75.86     33.79     24.5 
 H                     76.82     35.12     26.44 
 H                     77.91     33.84     24.32 
 H                     74.95     34.36     24.62 
 H                     75.78     33.14     23.63 
 H                     75.95     33.16     25.39 
 N                     76.51     36.81     23.52 
 C                     76.29     37.95     22.65 
 C                     77.55     38.81     22.57 
 O                     77.95     39.25     21.49 
 C                     75.16     38.76     23.28 
 C                     73.75     38.19     23.21 
 C                     72.81     39.22     23.82 
 O                     73.01     39.63     24.98 
 O                     71.79     39.55     23.17 
 H                     76.27     36.88     24.5 
 H                     76.06     37.64     21.63 
 H                     75.18     39.78     22.89 
 H                     75.44     38.95     24.32 
 H                     73.68     37.22     23.69 
 H                     73.48     38.09     22.16 
 N                     78.21     39.03     23.71 
 C                     79.52     39.65     23.83 
 H                     80.227    39.132    23.182 
 H                     79.456    40.697    23.533 
 H                     79.86     39.585    24.864 
 H                     77.82     38.61     24.54 
 CA                    70.5      39.79     25.62 
 O                     70.86     39.01     28.1 
 H                     70.4      38.17     28.03 
 H                     70.91     39.17     29.05 
 
 Stoichiometry    C54H83CaN15O23
 Framework group  C1[X(C54H83CaN15O23)]
 Deg. of freedom   522
 Full point group                 C1      NOp   1
 Largest Abelian subgroup         C1      NOp   1
 Largest concise Abelian subgroup C1      NOp   1
                         Standard orientation:                         
 ---------------------------------------------------------------------
 Center     Atomic      Atomic             Coordinates (Angstroms)
 Number     Number       Type             X           Y           Z
 ---------------------------------------------------------------------
      1          6           0        3.120645    1.787337    4.525662
      2          6           0        2.148702    1.960654    3.367263
      3          8           0        2.556016    2.251420    2.247017
      4          1           0        4.067303    1.397705    4.149732
      5          1           0        3.289903    2.750977    5.006106
      6          1           0        2.702475    1.088476    5.249698
      7          7           0        0.877480    1.681107    3.639194
      8          6           0       -0.090737    1.863635    2.574610
      9          6           0       -0.158488    3.328476    2.155265
     10          8           0       -0.698971    4.174229    2.861155
     11          6           0       -1.482109    1.370830    2.971384
     12          6           0       -2.387102    1.411606    1.745527
     13          8           0       -1.947172    1.175302    0.602189
     14          8           0       -3.580598    1.693301    1.988045
     15          1           0        0.610872    1.380335    4.562968
     16          1           0        0.127231    1.281833    1.680800
     17          1           0       -1.938539    2.102451    3.642505
     18          1           0       -1.385481    0.358527    3.344083
     19          7           0        0.443377    3.718381    1.030350
     20          6           0        0.759649    5.059202    0.571690
     21          6           0       -0.121191    5.624267   -0.530727
     22          8           0       -0.374835    6.820765   -0.622146
     23          6           0        2.277212    5.220285    0.424188
     24          6           0        2.664967    6.666146    0.098408
     25          6           0        4.169944    6.831936    0.276052
     26          6           0        4.563139    8.255478   -0.104248
     27          7           0        5.976197    8.539817    0.195449
     28          1           0        0.937135    2.947911    0.597131
     29          1           0        0.534372    5.765909    1.371450
     30          1           0        2.685460    4.643694   -0.397745
     31          1           0        2.747695    4.845237    1.334510
     32          1           0        2.199373    7.410874    0.730232
     33          1           0        2.435091    6.801316   -0.955673
     34          1           0        4.492801    6.092162   -0.458249
     35          1           0        4.458942    6.675955    1.317037
     36          1           0        3.918777    9.035318    0.313779
     37          1           0        4.372921    8.440918   -1.158444
     38          1           0        6.241689    9.445510   -0.159844
     39          1           0        6.071971    8.526240    1.199214
     40          1           0        6.590109    7.911143   -0.294837
     41          7           0       -0.599677    4.764353   -1.438856
     42          6           0       -1.781089    5.004272   -2.243720
     43          6           0       -3.101316    4.853972   -1.504998
     44          8           0       -4.169216    5.016787   -2.087218
     45          6           0       -1.815305    4.276274   -3.577904
     46          6           0       -1.542946    2.780487   -3.514336
     47          8           0       -1.873846    2.022885   -4.453296
     48          8           0       -0.962764    2.247419   -2.544890
     49          1           0       -0.245330    3.816505   -1.402499
     50          1           0       -1.841661    6.057960   -2.527047
     51          1           0       -1.069240    4.688711   -4.255608
     52          1           0       -2.726368    4.599998   -4.081955
     53          7           0       -3.120279    4.354584   -0.262439
     54          6           0       -4.259789    4.459905    0.626281
     55          6           0       -5.421380    3.497894    0.377806
     56          8           0       -6.522682    3.661771    0.910702
     57          1           0       -2.223344    4.043610    0.073571
     58          1           0       -4.653118    5.478295    0.592007
     59          1           0       -3.805061    4.200841    1.586598
     60          7           0       -5.181052    2.482849   -0.451968
     61          6           0       -6.213502    1.577578   -0.925394
     62          6           0       -6.638442    0.480791    0.036991
     63          8           0       -7.505512   -0.325867   -0.297060
     64          6           0       -5.690916    1.128357   -2.288811
     65          6           0       -4.603186    0.061332   -2.302921
     66          7           0       -4.634779   -1.041353   -3.045072
     67          8           0       -3.589312    0.205936   -1.620828
     68          1           0       -4.243614    2.390929   -0.823400
     69          1           0       -7.123561    2.165929   -1.058943
     70          1           0       -5.484784    1.982752   -2.929840
     71          1           0       -6.529246    0.559448   -2.695314
     72          1           0       -5.353530   -1.124418   -3.744927
     73          1           0       -3.732718   -1.482690   -3.143089
     74          7           0       -6.050590    0.324100    1.221802
     75          6           0       -6.362177   -0.778735    2.109928
     76          6           0       -5.446466   -1.984581    2.089632
     77          8           0       -5.553241   -2.974873    2.807212
     78          1           0       -5.259363    0.931548    1.362042
     79          1           0       -7.391070   -1.043767    1.864496
     80          1           0       -6.449054   -0.278305    3.075807
     81          7           0       -4.346417   -1.925222    1.318484
     82          6           0       -3.454584   -3.047087    1.079837
     83          6           0       -1.995902   -2.614389    1.097740
     84          8           0       -1.628861   -1.720108    0.340877
     85          6           0       -3.789952   -3.684721   -0.260854
     86          6           0       -5.190897   -4.201244   -0.488136
     87          6           0       -5.458005   -5.563675   -0.345886
     88          6           0       -6.249075   -3.335305   -0.792288
     89          6           0       -6.771029   -6.041791   -0.420543
     90          6           0       -7.578549   -3.782560   -0.875717
     91          6           0       -7.841901   -5.135698   -0.593827
     92          8           0       -9.100754   -5.599213   -0.821297
     93          1           0       -4.124340   -1.079092    0.823665
     94          1           0       -3.652063   -3.820532    1.829826
     95          1           0       -3.127261   -4.490776   -0.600288
     96          1           0       -3.602857   -2.925005   -1.028269
     97          1           0       -4.763333   -6.386017   -0.255423
     98          1           0       -6.138824   -2.276785   -0.922984
     99          1           0       -7.112938   -7.052800   -0.281048
    100          1           0       -8.333144   -3.060543   -1.138355
    101          1           0       -9.612221   -4.920236   -1.269507
    102          7           0       -1.115984   -3.300915    1.831583
    103          6           0        0.318737   -3.106095    1.775729
    104          6           0        0.817451   -3.971643    0.622554
    105          8           0        0.326505   -5.076679    0.437170
    106          6           0        0.991959   -3.421300    3.109152
    107          6           0        0.740211   -2.267641    4.071802
    108          6           0        2.478168   -3.695048    2.938438
    109          6           0        1.082445   -2.578050    5.529822
    110          1           0       -1.423218   -3.987964    2.498570
    111          1           0        0.556243   -2.102713    1.429009
    112          1           0        0.456516   -4.231050    3.612844
    113          1           0       -0.309048   -2.022998    3.947683
    114          1           0        1.294039   -1.412482    3.670580
    115          1           0        2.620613   -4.689632    2.512396
    116          1           0        2.979927   -2.980402    2.288730
    117          1           0        2.994650   -3.634839    3.891601
    118          1           0        0.690683   -3.545340    5.848212
    119          1           0        2.161751   -2.486403    5.629322
    120          1           0        0.648571   -1.814568    6.168139
    121          7           0        1.742208   -3.380098   -0.136326
    122          6           0        2.522809   -4.049977   -1.152556
    123          6           0        4.002205   -4.090290   -0.762859
    124          8           0        4.392818   -3.304392    0.095270
    125          6           0        2.214821   -3.595436   -2.578121
    126          8           0        2.620941   -2.247170   -2.711710
    127          1           0        1.945903   -2.412479    0.047311
    128          1           0        2.245430   -5.104198   -1.126501
    129          1           0        1.172570   -3.726662   -2.852151
    130          1           0        2.749946   -4.275705   -3.227564
    131          1           0        2.033223   -1.649128   -2.230115
    132          7           0        4.865914   -4.900407   -1.379557
    133          6           0        6.278200   -4.915817   -1.072782
    134          6           0        7.132318   -3.676578   -1.324313
    135          8           0        8.103005   -3.376505   -0.618463
    136          6           0        6.882555   -6.211438   -1.622982
    137          1           0        4.618762   -5.355902   -2.244913
    138          1           0        6.246546   -5.017665    0.007600
    139          1           0        6.172899   -7.022544   -1.789102
    140          1           0        7.411930   -5.952841   -2.538127
    141          1           0        7.670040   -6.435205   -0.911719
    142          7           0        6.739407   -2.919386   -2.346654
    143          6           0        7.315977   -1.674493   -2.798771
    144          6           0        7.136198   -0.581395   -1.750957
    145          8           0        8.012306    0.283293   -1.628686
    146          6           0        6.660538   -1.220067   -4.097538
    147          1           0        6.062578   -3.399300   -2.936725
    148          1           0        8.327132   -1.929883   -3.119773
    149          1           0        5.617523   -0.948067   -4.023131
    150          1           0        7.232633   -0.391286   -4.511819
    151          1           0        6.712649   -2.056497   -4.800937
    152          7           0        6.063594   -0.644467   -0.964545
    153          6           0        5.652636    0.223311    0.123101
    154          6           0        6.261740   -0.250214    1.441572
    155          8           0        6.760238    0.551873    2.234135
    156          6           0        4.131404    0.124639    0.200664
    157          6           0        3.317083    0.794385   -0.897617
    158          6           0        1.846606    0.630453   -0.540653
    159          8           0        1.380281   -0.509049   -0.346293
    160          8           0        1.115509    1.648796   -0.557244
    161          1           0        5.480103   -1.429990   -1.220264
    162          1           0        5.995155    1.247738   -0.027329
    163          1           0        3.793243    0.457332    1.184465
    164          1           0        3.879653   -0.937779    0.263814
    165          1           0        3.558267    0.400946   -1.879063
    166          1           0        3.536578    1.860564   -0.875647
    167          7           0        6.259943   -1.565132    1.675213
    168          6           0        6.952313   -2.238155    2.762671
    169          1           0        8.002578   -1.946594    2.759273
    170          1           0        6.500331   -1.954194    3.713246
    171          1           0        6.874556   -3.317740    2.630648
    172          1           0        5.851247   -2.145473    0.958574
    173         20           0       -0.921834   -0.022212   -1.441079
    174          8           0       -1.165315   -2.410606   -2.501593
    175          1           0       -1.095050   -2.141915   -3.420815
    176          1           0       -1.551784   -3.293389   -2.545599
 ---------------------------------------------------------------------
 Rotational constants (GHZ):      0.0226746      0.0155667      0.0115230
 Standard basis: SVP (5D, 7F)
 There are  1809 symmetry adapted cartesian basis functions of A   symmetry.
 There are  1717 symmetry adapted basis functions of A   symmetry.
  1717 basis functions,  2922 primitive gaussians,  1809 cartesian basis functions
   358 alpha electrons      358 beta electrons
       nuclear repulsion energy     21710.9181517298 Hartrees.
 NAtoms=  176 NActive=  176 NUniq=  176 SFac= 1.00D+00 NAtFMM=   60 NAOKFM=T Big=T
 Integral buffers will be    131072 words long.
 Raffenetti 2 integral format.
 Two-electron integral symmetry is turned on.
 One-electron integrals computed using PRISM.
 NBasis=  1717 RedAO= T EigKep=  2.80D-04  NBF=  1717
 NBsUse=  1717 1.00D-06 EigRej= -1.00D+00 NBFU=  1717
 ExpMin= 1.98D-02 ExpMax= 3.51D+04 ExpMxC= 5.28D+03 IAcc=3 IRadAn=         5 AccDes= 0.00D+00
 Harris functional with IExCor=  402 and IRadAn=       5 diagonalized for initial guess.
 HarFok:  IExCor=  402 AccDes= 0.00D+00 IRadAn=         5 IDoV= 1 UseB2=F ITyADJ=14
 ICtDFT=  3500011 ScaDFX=  1.000000  1.000000  1.000000  1.000000
 FoFCou: FMM=F IPFlag=           0 FMFlag=      100000 FMFlg1=        2001
         NFxFlg=           0 DoJE=T BraDBF=F KetDBF=T FulRan=T
         wScrn=  0.000000 ICntrl=     500 IOpCl=  0 I1Cent=   200000004 NGrid=           0
         NMat0=    1 NMatS0=      1 NMatT0=    0 NMatD0=    1 NMtDS0=    0 NMtDT0=    0
 Petite list used in FoFCou.
 Requested convergence on RMS density matrix=1.00D-08 within 128 cycles.
 Requested convergence on MAX density matrix=1.00D-06.
 Requested convergence on             energy=1.00D-06.
 No special actions if energy rises.
 EnCoef did     4 forward-backward iterations
 SCF Done:  E(RB3LYP) =  -5333.56028608     A.U. after   18 cycles
            NFock= 18  Conv=0.41D-08     -V/T= 2.0081

 **********************************************************************

            Population analysis using the SCF density.

 **********************************************************************

 Orbital symmetries:
 BldTbl:  Degeneracy threshold= 1.00D-02
       Occupied  (A) (A) (A) (A) (A) (A) (A) (A) (A) (A) (A) (A)
                 (A) (A) (A) (A) (A) (A) (A) (A) (A) (A) (A) (A)
                 (A) (A) (A) (A) (A) (A) (A) (A) (A) (A) (A) (A)
                 (A) (A) (A) (A) (A) (A) (A) (A) (A) (A) (A) (A)
                 (A) (A) (A) (A) (A) (A) (A) (A) (A) (A) (A) (A)
                 (A) (A) (A) (A) (A) (A) (A) (A) (A) (A) (A) (A)
                 (A) (A) (A) (A) (A) (A) (A) (A) (A) (A) (A) (A)
                 (A) (A) (A) (A) (A) (A) (A) (A) (A) (A) (A) (A)
                 (A) (A) (A) (A) (A) (A) (A) (A) (A) (A) (A) (A)
                 (A) (A) (A) (A) (A) (A) (A) (A) (A) (A) (A) (A)
                 (A) (A) (A) (A) (A) (A) (A) (A) (A) (A) (A) (A)
                 (A) (A) (A) (A) (A) (A) (A) (A) (A) (A) (A) (A)
                 (A) (A) (A) (A) (A) (A) (A) (A) (A) (A) (A) (A)
                 (A) (A) (A) (A) (A) (A) (A) (A) (A) (A) (A) (A)
                 (A) (A) (A) (A) (A) (A) (A) (A) (A) (A) (A) (A)
                 (A) (A) (A) (A) (A) (A) (A) (A) (A) (A) (A) (A)
                 (A) (A) (A) (A) (A) (A) (A) (A) (A) (A) (A) (A)
                 (A) (A) (A) (A) (A) (A) (A) (A) (A) (A) (A) (A)
                 (A) (A) (A) (A) (A) (A) (A) (A) (A) (A) (A) (A)
                 (A) (A) (A) (A) (A) (A) (A) (A) (A) (A) (A) (A)
                 (A) (A) (A) (A) (A) (A) (A) (A) (A) (A) (A) (A)
                 (A) (A) (A) (A) (A) (A) (A) (A) (A) (A) (A) (A)
                 (A) (A) (A) (A) (A) (A) (A) (A) (A) (A) (A) (A)
                 (A) (A) (A) (A) (A) (A) (A) (A) (A) (A) (A) (A)
                 (A) (A) (A) (A) (A) (A) (A) (A) (A) (A) (A) (A)
                 (A) (A) (A) (A) (A) (A) (A) (A) (A) (A) (A) (A)
                 (A) (A) (A) (A) (A) (A) (A) (A) (A) (A) (A) (A)
                 (A) (A) (A) (A) (A) (A) (A) (A) (A) (A) (A) (A)
                 (A) (A) (A) (A) (A) (A) (A) (A) (A) (A) (A) (A)
                 (A) (A) (A) (A) (A) (A) (A) (A) (A) (A)
       Virtual   (A) (A) (A) (A) (A) (A) (A) (A) (A) (A) (A) (A)
                 (A) (A) (A) (A) (A) (A) (A) (A) (A) (A) (A) (A)
                 (A) (A) (A) (A) (A) (A) (A) (A) (A) (A) (A) (A)
                 (A) (A) (A) (A) (A) (A) (A) (A) (A) (A) (A) (A)
                 (A) (A) (A) (A) (A) (A) (A) (A) (A) (A) (A) (A)
                 (A) (A) (A) (A) (A) (A) (A) (A) (A) (A) (A) (A)
                 (A) (A) (A) (A) (A) (A) (A) (A) (A) (A) (A) (A)
                 (A) (A) (A) (A) (A) (A) (A) (A) (A) (A) (A) (A)
                 (A) (A) (A) (A) (A) (A) (A) (A) (A) (A) (A) (A)
                 (A) (A) (A) (A) (A) (A) (A) (A) (A) (A) (A) (A)
                 (A) (A) (A) (A) (A) (A) (A) (A) (A) (A) (A) (A)
                 (A) (A) (A) (A) (A) (A) (A) (A) (A) (A) (A) (A)
                 (A) (A) (A) (A) (A) (A) (A) (A) (A) (A) (A) (A)
                 (A) (A) (A) (A) (A) (A) (A) (A) (A) (A) (A) (A)
                 (A) (A) (A) (A) (A) (A) (A) (A) (A) (A) (A) (A)
                 (A) (A) (A) (A) (A) (A) (A) (A) (A) (A) (A) (A)
                 (A) (A) (A) (A) (A) (A) (A) (A) (A) (A) (A) (A)
                 (A) (A) (A) (A) (A) (A) (A) (A) (A) (A) (A) (A)
                 (A) (A) (A) (A) (A) (A) (A) (A) (A) (A) (A) (A)
                 (A) (A) (A) (A) (A) (A) (A) (A) (A) (A) (A) (A)
                 (A) (A) (A) (A) (A) (A) (A) (A) (A) (A) (A) (A)
                 (A) (A) (A) (A) (A) (A) (A) (A) (A) (A) (A) (A)
                 (A) (A) (A) (A) (A) (A) (A) (A) (A) (A) (A) (A)
                 (A) (A) (A) (A) (A) (A) (A) (A) (A) (A) (A) (A)
                 (A) (A) (A) (A) (A) (A) (A) (A) (A) (A) (A) (A)
                 (A) (A) (A) (A) (A) (A) (A) (A) (A) (A) (A) (A)
                 (A) (A) (A) (A) (A) (A) (A) (A) (A) (A) (A) (A)
                 (A) (A) (A) (A) (A) (A) (A) (A) (A) (A) (A) (A)
                 (A) (A) (A) (A) (A) (A) (A) (A) (A) (A) (A) (A)
                 (A) (A) (A) (A) (A) (A) (A) (A) (A) (A) (A) (A)
                 (A) (A) (A) (A) (A) (A) (A) (A) (A) (A) (A) (A)
                 (A) (A) (A) (A) (A) (A) (A) (A) (A) (A) (A) (A)
                 (A) (A) (A) (A) (A) (A) (A) (A) (A) (A) (A) (A)
                 (A) (A) (A) (A) (A) (A) (A) (A) (A) (A) (A) (A)
                 (A) (A) (A) (A) (A) (A) (A) (A) (A) (A) (A) (A)
                 (A) (A) (A) (A) (A) (A) (A) (A) (A) (A) (A) (A)
                 (A) (A) (A) (A) (A) (A) (A) (A) (A) (A) (A) (A)
                 (A) (A) (A) (A) (A) (A) (A) (A) (A) (A) (A) (A)
                 (A) (A) (A) (A) (A) (A) (A) (A) (A) (A) (A) (A)
                 (A) (A) (A) (A) (A) (A) (A) (A) (A) (A) (A) (A)
                 (A) (A) (A) (A) (A) (A) (A) (A) (A) (A) (A) (A)
                 (A) (A) (A) (A) (A) (A) (A) (A) (A) (A) (A) (A)
                 (A) (A) (A) (A) (A) (A) (A) (A) (A) (A) (A) (A)
                 (A) (A) (A) (A) (A) (A) (A) (A) (A) (A) (A) (A)
                 (A) (A) (A) (A) (A) (A) (A) (A) (A) (A) (A) (A)
                 (A) (A) (A) (A) (A) (A) (A) (A) (A) (A) (A) (A)
                 (A) (A) (A) (A) (A) (A) (A) (A) (A) (A) (A) (A)
                 (A) (A) (A) (A) (A) (A) (A) (A) (A) (A) (A) (A)
                 (A) (A) (A) (A) (A) (A) (A) (A) (A) (A) (A) (A)
                 (A) (A) (A) (A) (A) (A) (A) (A) (A) (A) (A) (A)
                 (A) (A) (A) (A) (A) (A) (A) (A) (A) (A) (A) (A)
                 (A) (A) (A) (A) (A) (A) (A) (A) (A) (A) (A) (A)
                 (A) (A) (A) (A) (A) (A) (A) (A) (A) (A) (A) (A)
                 (A) (A) (A) (A) (A) (A) (A) (A) (A) (A) (A) (A)
                 (A) (A) (A) (A) (A) (A) (A) (A) (A) (A) (A) (A)
                 (A) (A) (A) (A) (A) (A) (A) (A) (A) (A) (A) (A)
                 (A) (A) (A) (A) (A) (A) (A) (A) (A) (A) (A) (A)
                 (A) (A) (A) (A) (A) (A) (A) (A) (A) (A) (A) (A)
                 (A) (A) (A) (A) (A) (A) (A) (A) (A) (A) (A) (A)
                 (A) (A) (A) (A) (A) (A) (A) (A) (A) (A) (A) (A)
                 (A) (A) (A) (A) (A) (A) (A) (A) (A) (A) (A) (A)
                 (A) (A) (A) (A) (A) (A) (A) (A) (A) (A) (A) (A)
                 (A) (A) (A) (A) (A) (A) (A) (A) (A) (A) (A) (A)
                 (A) (A) (A) (A) (A) (A) (A) (A) (A) (A) (A) (A)
                 (A) (A) (A) (A) (A) (A) (A) (A) (A) (A) (A) (A)
                 (A) (A) (A) (A) (A) (A) (A) (A) (A) (A) (A) (A)
                 (A) (A) (A) (A) (A) (A) (A) (A) (A) (A) (A) (A)
                 (A) (A) (A) (A) (A) (A) (A) (A) (A) (A) (A) (A)
                 (A) (A) (A) (A) (A) (A) (A) (A) (A) (A) (A) (A)
                 (A) (A) (A) (A) (A) (A) (A) (A) (A) (A) (A) (A)
                 (A) (A) (A) (A) (A) (A) (A) (A) (A) (A) (A) (A)
                 (A) (A) (A) (A) (A) (A) (A) (A) (A) (A) (A) (A)
                 (A) (A) (A) (A) (A) (A) (A) (A) (A) (A) (A) (A)
                 (A) (A) (A) (A) (A) (A) (A) (A) (A) (A) (A) (A)
                 (A) (A) (A) (A) (A) (A) (A) (A) (A) (A) (A) (A)
                 (A) (A) (A) (A) (A) (A) (A) (A) (A) (A) (A) (A)
                 (A) (A) (A) (A) (A) (A) (A) (A) (A) (A) (A) (A)
                 (A) (A) (A) (A) (A) (A) (A) (A) (A) (A) (A) (A)
                 (A) (A) (A) (A) (A) (A) (A) (A) (A) (A) (A) (A)
                 (A) (A) (A) (A) (A) (A) (A) (A) (A) (A) (A) (A)
                 (A) (A) (A) (A) (A) (A) (A) (A) (A) (A) (A) (A)
                 (A) (A) (A) (A) (A) (A) (A) (A) (A) (A) (A) (A)
                 (A) (A) (A) (A) (A) (A) (A) (A) (A) (A) (A) (A)
                 (A) (A) (A) (A) (A) (A) (A) (A) (A) (A) (A) (A)
                 (A) (A) (A) (A) (A) (A) (A) (A) (A) (A) (A) (A)
                 (A) (A) (A) (A) (A) (A) (A) (A) (A) (A) (A) (A)
                 (A) (A) (A) (A) (A) (A) (A) (A) (A) (A) (A) (A)
                 (A) (A) (A) (A) (A) (A) (A) (A) (A) (A) (A) (A)
                 (A) (A) (A) (A) (A) (A) (A) (A) (A) (A) (A) (A)
                 (A) (A) (A) (A) (A) (A) (A) (A) (A) (A) (A) (A)
                 (A) (A) (A) (A) (A) (A) (A) (A) (A) (A) (A) (A)
                 (A) (A) (A) (A) (A) (A) (A) (A) (A) (A) (A) (A)
                 (A) (A) (A) (A) (A) (A) (A) (A) (A) (A) (A) (A)
                 (A) (A) (A) (A) (A) (A) (A) (A) (A) (A) (A) (A)
                 (A) (A) (A) (A) (A) (A) (A) (A) (A) (A) (A) (A)
                 (A) (A) (A) (A) (A) (A) (A) (A) (A) (A) (A) (A)
                 (A) (A) (A) (A) (A) (A) (A) (A) (A) (A) (A) (A)
                 (A) (A) (A) (A) (A) (A) (A) (A) (A) (A) (A) (A)
                 (A) (A) (A) (A) (A) (A) (A) (A) (A) (A) (A) (A)
                 (A) (A) (A) (A) (A) (A) (A) (A) (A) (A) (A) (A)
                 (A) (A) (A) (A) (A) (A) (A) (A) (A) (A) (A) (A)
                 (A) (A) (A) (A) (A) (A) (A) (A) (A) (A) (A) (A)
                 (A) (A) (A) (A) (A) (A) (A) (A) (A) (A) (A) (A)
                 (A) (A) (A) (A) (A) (A) (A) (A) (A) (A) (A) (A)
                 (A) (A) (A) (A) (A) (A) (A) (A) (A) (A) (A) (A)
                 (A) (A) (A) (A) (A) (A) (A) (A) (A) (A) (A) (A)
                 (A) (A) (A) (A) (A) (A) (A) (A) (A) (A) (A) (A)
                 (A) (A) (A) (A) (A) (A) (A) (A) (A) (A) (A) (A)
                 (A) (A) (A) (A) (A) (A) (A) (A) (A) (A) (A) (A)
                 (A) (A) (A) (A) (A) (A) (A) (A) (A) (A) (A) (A)
                 (A) (A) (A) (A) (A) (A) (A) (A) (A) (A) (A) (A)
                 (A) (A) (A) (A) (A) (A) (A) (A) (A) (A) (A) (A)
                 (A) (A) (A) (A) (A) (A) (A) (A) (A) (A) (A) (A)
                 (A) (A) (A)
 The electronic state is 1-A.
 Alpha  occ. eigenvalues -- -145.37533 -19.22250 -19.15794 -19.13978 -19.13793
 Alpha  occ. eigenvalues --  -19.11429 -19.11277 -19.10545 -19.09962 -19.09734
 Alpha  occ. eigenvalues --  -19.08088 -19.07954 -19.07235 -19.06701 -19.06593
 Alpha  occ. eigenvalues --  -19.06006 -19.05703 -19.05054 -19.04631 -19.03486
 Alpha  occ. eigenvalues --  -19.03410 -19.02692 -19.01170 -19.00652 -15.43274
 Alpha  occ. eigenvalues --  -14.58970 -14.39824 -14.37625 -14.36496 -14.36427
 Alpha  occ. eigenvalues --  -14.35513 -14.34487 -14.34082 -14.32365 -14.32304
 Alpha  occ. eigenvalues --  -14.30992 -14.30434 -14.30229 -14.29888 -14.29273
 Alpha  occ. eigenvalues --  -12.56890 -12.56865 -12.56816 -10.34710 -10.32165
 Alpha  occ. eigenvalues --  -10.30153 -10.29562 -10.29529 -10.28123 -10.27386
 Alpha  occ. eigenvalues --  -10.27247 -10.27090 -10.26726 -10.26714 -10.25884
 Alpha  occ. eigenvalues --  -10.25548 -10.25492 -10.25238 -10.25163 -10.24525
 Alpha  occ. eigenvalues --  -10.24299 -10.23710 -10.23116 -10.22642 -10.22575
 Alpha  occ. eigenvalues --  -10.22425 -10.22249 -10.22145 -10.21909 -10.21778
 Alpha  occ. eigenvalues --  -10.21743 -10.21564 -10.21056 -10.20715 -10.20483
 Alpha  occ. eigenvalues --  -10.20300 -10.19758 -10.19680 -10.19300 -10.19147
 Alpha  occ. eigenvalues --  -10.19077 -10.18919 -10.18410 -10.17870 -10.17841
 Alpha  occ. eigenvalues --  -10.17798 -10.17460 -10.17426 -10.17379 -10.17214
 Alpha  occ. eigenvalues --  -10.17214 -10.17077 -10.16568 -10.16408 -10.16299
 Alpha  occ. eigenvalues --  -10.14753 -10.13914  -1.80163  -1.14282  -1.08597
 Alpha  occ. eigenvalues --   -1.07795  -1.07513  -1.07286  -1.06881  -1.04469
 Alpha  occ. eigenvalues --   -1.04079  -1.03987  -1.03758  -1.03333  -1.02945
 Alpha  occ. eigenvalues --   -1.02683  -1.01340  -1.00852  -0.99888  -0.99746
 Alpha  occ. eigenvalues --   -0.99161  -0.99025  -0.98293  -0.98050  -0.97350
 Alpha  occ. eigenvalues --   -0.96574  -0.96513  -0.96106  -0.94264  -0.93313
 Alpha  occ. eigenvalues --   -0.93059  -0.92834  -0.91372  -0.90954  -0.90480
 Alpha  occ. eigenvalues --   -0.89212  -0.88887  -0.88565  -0.88417  -0.87714
 Alpha  occ. eigenvalues --   -0.87327  -0.86907  -0.86701  -0.85955  -0.85687
 Alpha  occ. eigenvalues --   -0.82684  -0.82300  -0.81620  -0.80828  -0.79422
 Alpha  occ. eigenvalues --   -0.78105  -0.77520  -0.77073  -0.76115  -0.75911
 Alpha  occ. eigenvalues --   -0.74684  -0.74555  -0.74088  -0.73786  -0.72204
 Alpha  occ. eigenvalues --   -0.72171  -0.71982  -0.71962  -0.70586  -0.70521
 Alpha  occ. eigenvalues --   -0.69600  -0.69236  -0.68298  -0.68128  -0.67690
 Alpha  occ. eigenvalues --   -0.66841  -0.65875  -0.65052  -0.64728  -0.64203
 Alpha  occ. eigenvalues --   -0.63179  -0.62951  -0.62221  -0.61449  -0.61408
 Alpha  occ. eigenvalues --   -0.61113  -0.60796  -0.60173  -0.60124  -0.59751
 Alpha  occ. eigenvalues --   -0.59357  -0.59053  -0.58178  -0.58017  -0.57432
 Alpha  occ. eigenvalues --   -0.57047  -0.56978  -0.56608  -0.56170  -0.55902
 Alpha  occ. eigenvalues --   -0.55675  -0.55388  -0.55173  -0.54769  -0.54523
 Alpha  occ. eigenvalues --   -0.54304  -0.53677  -0.53470  -0.52913  -0.52868
 Alpha  occ. eigenvalues --   -0.52717  -0.52295  -0.51923  -0.51314  -0.50823
 Alpha  occ. eigenvalues --   -0.50739  -0.50564  -0.50246  -0.49519  -0.49189
 Alpha  occ. eigenvalues --   -0.49155  -0.49044  -0.48969  -0.48694  -0.48457
 Alpha  occ. eigenvalues --   -0.48231  -0.47765  -0.47680  -0.47488  -0.47413
 Alpha  occ. eigenvalues --   -0.47202  -0.47075  -0.46864  -0.46417  -0.46321
 Alpha  occ. eigenvalues --   -0.46199  -0.46013  -0.45723  -0.45308  -0.45168
 Alpha  occ. eigenvalues --   -0.45045  -0.44912  -0.44583  -0.44441  -0.44149
 Alpha  occ. eigenvalues --   -0.44052  -0.43907  -0.43837  -0.43473  -0.43407
 Alpha  occ. eigenvalues --   -0.43213  -0.43181  -0.42952  -0.42697  -0.42310
 Alpha  occ. eigenvalues --   -0.42236  -0.42024  -0.41795  -0.41643  -0.41511
 Alpha  occ. eigenvalues --   -0.41337  -0.41153  -0.41015  -0.40862  -0.40743
 Alpha  occ. eigenvalues --   -0.40560  -0.40434  -0.40240  -0.40202  -0.40094
 Alpha  occ. eigenvalues --   -0.39935  -0.39837  -0.39737  -0.39663  -0.39591
 Alpha  occ. eigenvalues --   -0.39377  -0.39245  -0.39101  -0.39022  -0.38927
 Alpha  occ. eigenvalues --   -0.38875  -0.38644  -0.38583  -0.38501  -0.38360
 Alpha  occ. eigenvalues --   -0.38205  -0.38136  -0.38034  -0.37962  -0.37867
 Alpha  occ. eigenvalues --   -0.37777  -0.37562  -0.37303  -0.37218  -0.37046
 Alpha  occ. eigenvalues --   -0.36808  -0.36528  -0.36496  -0.36406  -0.36176
 Alpha  occ. eigenvalues --   -0.35843  -0.35743  -0.35520  -0.35403  -0.35328
 Alpha  occ. eigenvalues --   -0.34953  -0.34563  -0.34391  -0.34301  -0.34184
 Alpha  occ. eigenvalues --   -0.34141  -0.34053  -0.33942  -0.33549  -0.33366
 Alpha  occ. eigenvalues --   -0.33318  -0.33222  -0.32798  -0.32705  -0.32462
 Alpha  occ. eigenvalues --   -0.32147  -0.31711  -0.31455  -0.31345  -0.31151
 Alpha  occ. eigenvalues --   -0.30992  -0.30890  -0.30859  -0.30681  -0.30176
 Alpha  occ. eigenvalues --   -0.29228  -0.28573  -0.28497  -0.27747  -0.27719
 Alpha  occ. eigenvalues --   -0.27003  -0.26901  -0.26476  -0.26360  -0.26162
 Alpha  occ. eigenvalues --   -0.26090  -0.25184  -0.25056  -0.24502  -0.24283
 Alpha  occ. eigenvalues --   -0.24179  -0.23815  -0.23669  -0.23633  -0.23561
 Alpha  occ. eigenvalues --   -0.23105  -0.22935  -0.22878  -0.22334  -0.21724
 Alpha  occ. eigenvalues --   -0.21623  -0.21068  -0.20871  -0.20584  -0.20200
 Alpha  occ. eigenvalues --   -0.20149  -0.19689  -0.19499  -0.19454  -0.18953
 Alpha  occ. eigenvalues --   -0.18665  -0.17189  -0.16441
 Alpha virt. eigenvalues --   -0.10880  -0.04902  -0.04817  -0.04292  -0.02470
 Alpha virt. eigenvalues --   -0.00935  -0.00558  -0.00088   0.00209   0.00383
 Alpha virt. eigenvalues --    0.00936   0.01661   0.01865   0.02067   0.02321
 Alpha virt. eigenvalues --    0.02641   0.03057   0.03139   0.03811   0.04114
 Alpha virt. eigenvalues --    0.04246   0.04496   0.04625   0.04823   0.04984
 Alpha virt. eigenvalues --    0.05163   0.05277   0.05404   0.05664   0.05941
 Alpha virt. eigenvalues --    0.06044   0.06217   0.06513   0.06967   0.07204
 Alpha virt. eigenvalues --    0.07253   0.07624   0.07736   0.08024   0.08387
 Alpha virt. eigenvalues --    0.08457   0.08574   0.08779   0.09187   0.09262
 Alpha virt. eigenvalues --    0.09525   0.09649   0.09988   0.10039   0.10205
 Alpha virt. eigenvalues --    0.10562   0.10683   0.10963   0.11127   0.11339
 Alpha virt. eigenvalues --    0.11501   0.11579   0.11807   0.12050   0.12148
 Alpha virt. eigenvalues --    0.12248   0.12499   0.12631   0.12799   0.12963
 Alpha virt. eigenvalues --    0.13150   0.13258   0.13410   0.13617   0.13784
 Alpha virt. eigenvalues --    0.13844   0.14113   0.14346   0.14491   0.14899
 Alpha virt. eigenvalues --    0.14946   0.15056   0.15232   0.15393   0.15583
 Alpha virt. eigenvalues --    0.15831   0.15938   0.16172   0.16271   0.16466
 Alpha virt. eigenvalues --    0.16760   0.16797   0.17007   0.17099   0.17195
 Alpha virt. eigenvalues --    0.17406   0.17500   0.17692   0.17754   0.18057
 Alpha virt. eigenvalues --    0.18168   0.18381   0.18514   0.18655   0.18950
 Alpha virt. eigenvalues --    0.19183   0.19283   0.19562   0.19720   0.19865
 Alpha virt. eigenvalues --    0.19987   0.20276   0.20526   0.20640   0.20912
 Alpha virt. eigenvalues --    0.21041   0.21421   0.21599   0.21832   0.21993
 Alpha virt. eigenvalues --    0.22113   0.22276   0.22389   0.22635   0.23216
 Alpha virt. eigenvalues --    0.23422   0.23521   0.23715   0.24009   0.24051
 Alpha virt. eigenvalues --    0.24334   0.24631   0.24796   0.25104   0.25382
 Alpha virt. eigenvalues --    0.25473   0.25821   0.25880   0.26071   0.26283
 Alpha virt. eigenvalues --    0.26659   0.26818   0.26960   0.27004   0.27304
 Alpha virt. eigenvalues --    0.27465   0.27659   0.27899   0.28035   0.28313
 Alpha virt. eigenvalues --    0.28579   0.28955   0.29069   0.29158   0.29426
 Alpha virt. eigenvalues --    0.29603   0.29761   0.30411   0.30504   0.30661
 Alpha virt. eigenvalues --    0.30709   0.30794   0.31106   0.31266   0.31408
 Alpha virt. eigenvalues --    0.31663   0.31742   0.32151   0.32527   0.32872
 Alpha virt. eigenvalues --    0.32978   0.33457   0.33658   0.33717   0.34098
 Alpha virt. eigenvalues --    0.34361   0.34637   0.35456   0.35653   0.35734
 Alpha virt. eigenvalues --    0.36426   0.36745   0.37051   0.37373   0.37518
 Alpha virt. eigenvalues --    0.37639   0.38172   0.38287   0.38631   0.38868
 Alpha virt. eigenvalues --    0.39271   0.39553   0.39762   0.40142   0.40241
 Alpha virt. eigenvalues --    0.40405   0.40670   0.40742   0.41031   0.41186
 Alpha virt. eigenvalues --    0.41448   0.41711   0.41719   0.42267   0.42497
 Alpha virt. eigenvalues --    0.42612   0.42757   0.43048   0.43218   0.43372
 Alpha virt. eigenvalues --    0.43637   0.43820   0.44010   0.44344   0.44581
 Alpha virt. eigenvalues --    0.44791   0.45010   0.45159   0.45458   0.45571
 Alpha virt. eigenvalues --    0.45846   0.46056   0.46118   0.46253   0.46342
 Alpha virt. eigenvalues --    0.46756   0.46848   0.47120   0.47342   0.47451
 Alpha virt. eigenvalues --    0.47692   0.47788   0.47983   0.48163   0.48280
 Alpha virt. eigenvalues --    0.48578   0.48935   0.49063   0.49277   0.49461
 Alpha virt. eigenvalues --    0.49870   0.49903   0.49975   0.50057   0.50353
 Alpha virt. eigenvalues --    0.50454   0.50755   0.50927   0.51300   0.51445
 Alpha virt. eigenvalues --    0.51679   0.52157   0.52246   0.52377   0.52575
 Alpha virt. eigenvalues --    0.52944   0.53155   0.53233   0.53560   0.53803
 Alpha virt. eigenvalues --    0.53910   0.54002   0.54075   0.54314   0.54582
 Alpha virt. eigenvalues --    0.54833   0.54926   0.55191   0.55222   0.55490
 Alpha virt. eigenvalues --    0.55611   0.55780   0.56236   0.56324   0.56506
 Alpha virt. eigenvalues --    0.56673   0.56815   0.57005   0.57146   0.57410
 Alpha virt. eigenvalues --    0.57621   0.57837   0.57957   0.58185   0.58264
 Alpha virt. eigenvalues --    0.58472   0.58541   0.58753   0.58906   0.58974
 Alpha virt. eigenvalues --    0.59235   0.59413   0.59680   0.59717   0.59933
 Alpha virt. eigenvalues --    0.60083   0.60192   0.60297   0.60555   0.60632
 Alpha virt. eigenvalues --    0.60664   0.60859   0.60941   0.61278   0.61341
 Alpha virt. eigenvalues --    0.61560   0.61669   0.61793   0.62072   0.62262
 Alpha virt. eigenvalues --    0.62364   0.62630   0.62714   0.62834   0.63089
 Alpha virt. eigenvalues --    0.63302   0.63424   0.63465   0.63613   0.63748
 Alpha virt. eigenvalues --    0.63818   0.63891   0.63913   0.64089   0.64229
 Alpha virt. eigenvalues --    0.64257   0.64339   0.64456   0.64739   0.64802
 Alpha virt. eigenvalues --    0.64952   0.65014   0.65172   0.65324   0.65454
 Alpha virt. eigenvalues --    0.65649   0.65875   0.65960   0.66058   0.66130
 Alpha virt. eigenvalues --    0.66194   0.66272   0.66500   0.66571   0.66628
 Alpha virt. eigenvalues --    0.66801   0.66816   0.66926   0.67044   0.67142
 Alpha virt. eigenvalues --    0.67201   0.67310   0.67339   0.67388   0.67631
 Alpha virt. eigenvalues --    0.67746   0.67796   0.67948   0.68046   0.68120
 Alpha virt. eigenvalues --    0.68340   0.68486   0.68579   0.68782   0.68813
 Alpha virt. eigenvalues --    0.68835   0.69006   0.69176   0.69264   0.69389
 Alpha virt. eigenvalues --    0.69417   0.69593   0.69670   0.69778   0.69845
 Alpha virt. eigenvalues --    0.69926   0.70199   0.70399   0.70518   0.70594
 Alpha virt. eigenvalues --    0.70600   0.70793   0.70875   0.70933   0.71104
 Alpha virt. eigenvalues --    0.71301   0.71422   0.71478   0.71658   0.71746
 Alpha virt. eigenvalues --    0.71817   0.72022   0.72162   0.72257   0.72477
 Alpha virt. eigenvalues --    0.72571   0.72733   0.72960   0.73233   0.73360
 Alpha virt. eigenvalues --    0.73495   0.73565   0.73635   0.74073   0.74162
 Alpha virt. eigenvalues --    0.74341   0.74736   0.74768   0.75030   0.75085
 Alpha virt. eigenvalues --    0.75477   0.75563   0.75744   0.75925   0.76229
 Alpha virt. eigenvalues --    0.76469   0.76728   0.76825   0.76959   0.77025
 Alpha virt. eigenvalues --    0.77469   0.77818   0.78090   0.78111   0.78477
 Alpha virt. eigenvalues --    0.78531   0.78776   0.79045   0.79085   0.79430
 Alpha virt. eigenvalues --    0.79498   0.80006   0.80299   0.80589   0.80794
 Alpha virt. eigenvalues --    0.80931   0.81120   0.81639   0.81862   0.81973
 Alpha virt. eigenvalues --    0.82378   0.82451   0.82992   0.83066   0.83333
 Alpha virt. eigenvalues --    0.83472   0.83673   0.83928   0.84393   0.84669
 Alpha virt. eigenvalues --    0.84735   0.85166   0.85255   0.85486   0.85825
 Alpha virt. eigenvalues --    0.86135   0.86373   0.86724   0.86869   0.87136
 Alpha virt. eigenvalues --    0.87525   0.87595   0.88053   0.88339   0.89245
 Alpha virt. eigenvalues --    0.89407   0.89943   0.90098   0.90472   0.90720
 Alpha virt. eigenvalues --    0.91099   0.91464   0.91689   0.91801   0.92095
 Alpha virt. eigenvalues --    0.92358   0.92661   0.92781   0.93219   0.93456
 Alpha virt. eigenvalues --    0.93741   0.93884   0.94126   0.94380   0.94508
 Alpha virt. eigenvalues --    0.95070   0.95234   0.95482   0.95973   0.96272
 Alpha virt. eigenvalues --    0.96377   0.96514   0.96998   0.97085   0.97354
 Alpha virt. eigenvalues --    0.97486   0.97709   0.98022   0.98396   0.98578
 Alpha virt. eigenvalues --    0.98927   0.99059   0.99642   0.99891   1.00232
 Alpha virt. eigenvalues --    1.00585   1.00933   1.01029   1.01409   1.02084
 Alpha virt. eigenvalues --    1.02150   1.02515   1.02838   1.03347   1.03460
 Alpha virt. eigenvalues --    1.03525   1.04050   1.04468   1.04625   1.04726
 Alpha virt. eigenvalues --    1.05284   1.05778   1.05809   1.06131   1.06330
 Alpha virt. eigenvalues --    1.06718   1.06822   1.07107   1.07262   1.07617
 Alpha virt. eigenvalues --    1.07804   1.08213   1.08274   1.08462   1.08576
 Alpha virt. eigenvalues --    1.08774   1.08967   1.09551   1.09813   1.10248
 Alpha virt. eigenvalues --    1.10741   1.11022   1.11076   1.11489   1.11595
 Alpha virt. eigenvalues --    1.11945   1.12454   1.12989   1.13140   1.13436
 Alpha virt. eigenvalues --    1.13844   1.13915   1.14301   1.14423   1.14726
 Alpha virt. eigenvalues --    1.14969   1.15448   1.15744   1.15982   1.16108
 Alpha virt. eigenvalues --    1.16547   1.16994   1.17272   1.17442   1.17722
 Alpha virt. eigenvalues --    1.18128   1.18588   1.18732   1.19012   1.19277
 Alpha virt. eigenvalues --    1.19447   1.19755   1.19809   1.20640   1.20860
 Alpha virt. eigenvalues --    1.20918   1.21029   1.21362   1.21472   1.21804
 Alpha virt. eigenvalues --    1.22019   1.22210   1.22360   1.22680   1.22913
 Alpha virt. eigenvalues --    1.23306   1.23414   1.23633   1.23836   1.24088
 Alpha virt. eigenvalues --    1.24294   1.24655   1.24744   1.25385   1.25398
 Alpha virt. eigenvalues --    1.25774   1.25839   1.26092   1.26304   1.26582
 Alpha virt. eigenvalues --    1.26980   1.27090   1.27475   1.27790   1.28166
 Alpha virt. eigenvalues --    1.28354   1.28528   1.28593   1.28947   1.29196
 Alpha virt. eigenvalues --    1.29403   1.29679   1.29847   1.30264   1.30680
 Alpha virt. eigenvalues --    1.30992   1.31060   1.31211   1.31736   1.31979
 Alpha virt. eigenvalues --    1.32158   1.32469   1.32748   1.32853   1.33074
 Alpha virt. eigenvalues --    1.33481   1.33712   1.33886   1.34255   1.34391
 Alpha virt. eigenvalues --    1.34689   1.35049   1.35210   1.35362   1.35787
 Alpha virt. eigenvalues --    1.35864   1.35906   1.36430   1.36649   1.37106
 Alpha virt. eigenvalues --    1.37309   1.37357   1.37759   1.37855   1.38196
 Alpha virt. eigenvalues --    1.38494   1.39022   1.39445   1.39797   1.39907
 Alpha virt. eigenvalues --    1.40337   1.40734   1.40928   1.41190   1.41411
 Alpha virt. eigenvalues --    1.41569   1.41896   1.42075   1.42447   1.42855
 Alpha virt. eigenvalues --    1.43255   1.43702   1.44000   1.44230   1.44727
 Alpha virt. eigenvalues --    1.45092   1.45306   1.45732   1.46514   1.46698
 Alpha virt. eigenvalues --    1.46755   1.47039   1.47259   1.47373   1.47661
 Alpha virt. eigenvalues --    1.47835   1.47884   1.48184   1.48431   1.48853
 Alpha virt. eigenvalues --    1.49355   1.49522   1.49556   1.49757   1.49981
 Alpha virt. eigenvalues --    1.50631   1.51046   1.51207   1.51578   1.51847
 Alpha virt. eigenvalues --    1.52103   1.52175   1.52507   1.52700   1.52794
 Alpha virt. eigenvalues --    1.53009   1.53340   1.53598   1.53712   1.53858
 Alpha virt. eigenvalues --    1.54021   1.54277   1.54484   1.55124   1.55455
 Alpha virt. eigenvalues --    1.56055   1.56583   1.56674   1.57050   1.57416
 Alpha virt. eigenvalues --    1.58068   1.58191   1.58649   1.58889   1.59095
 Alpha virt. eigenvalues --    1.59851   1.59979   1.60686   1.60909   1.61093
 Alpha virt. eigenvalues --    1.61858   1.61890   1.62001   1.62154   1.62312
 Alpha virt. eigenvalues --    1.62615   1.62769   1.62965   1.63182   1.63740
 Alpha virt. eigenvalues --    1.64479   1.64732   1.65028   1.65565   1.66043
 Alpha virt. eigenvalues --    1.66111   1.66238   1.66766   1.67290   1.67638
 Alpha virt. eigenvalues --    1.67953   1.68329   1.68528   1.68867   1.69001
 Alpha virt. eigenvalues --    1.69276   1.69526   1.69561   1.69945   1.70461
 Alpha virt. eigenvalues --    1.70625   1.71033   1.71200   1.71368   1.71575
 Alpha virt. eigenvalues --    1.71754   1.71924   1.71976   1.72259   1.72425
 Alpha virt. eigenvalues --    1.72638   1.72821   1.73009   1.73313   1.73547
 Alpha virt. eigenvalues --    1.73627   1.73800   1.74080   1.74235   1.74499
 Alpha virt. eigenvalues --    1.74571   1.74711   1.74853   1.74994   1.75024
 Alpha virt. eigenvalues --    1.75233   1.75562   1.75691   1.76025   1.76312
 Alpha virt. eigenvalues --    1.76485   1.76632   1.77229   1.77398   1.77482
 Alpha virt. eigenvalues --    1.77694   1.77960   1.78225   1.78256   1.78343
 Alpha virt. eigenvalues --    1.78450   1.78552   1.78908   1.78983   1.79177
 Alpha virt. eigenvalues --    1.79491   1.79592   1.79744   1.79837   1.80082
 Alpha virt. eigenvalues --    1.80118   1.80290   1.80446   1.80603   1.80944
 Alpha virt. eigenvalues --    1.81160   1.81199   1.81366   1.81516   1.81840
 Alpha virt. eigenvalues --    1.82038   1.82121   1.82243   1.82516   1.82548
 Alpha virt. eigenvalues --    1.82953   1.83049   1.83205   1.83490   1.83562
 Alpha virt. eigenvalues --    1.83627   1.83691   1.83923   1.84078   1.84205
 Alpha virt. eigenvalues --    1.84443   1.84591   1.84641   1.84942   1.85173
 Alpha virt. eigenvalues --    1.85307   1.85614   1.85727   1.85805   1.85932
 Alpha virt. eigenvalues --    1.86602   1.86820   1.86883   1.87155   1.87205
 Alpha virt. eigenvalues --    1.87252   1.87380   1.87482   1.87879   1.87995
 Alpha virt. eigenvalues --    1.88236   1.88355   1.88691   1.88879   1.89052
 Alpha virt. eigenvalues --    1.89225   1.89401   1.89576   1.89824   1.89959
 Alpha virt. eigenvalues --    1.90257   1.90332   1.90627   1.91104   1.91354
 Alpha virt. eigenvalues --    1.91684   1.91815   1.92038   1.92235   1.92275
 Alpha virt. eigenvalues --    1.92672   1.92920   1.92953   1.93361   1.93586
 Alpha virt. eigenvalues --    1.93732   1.94085   1.94283   1.94419   1.94653
 Alpha virt. eigenvalues --    1.94855   1.94903   1.95196   1.95440   1.95556
 Alpha virt. eigenvalues --    1.95627   1.95913   1.96010   1.96079   1.96334
 Alpha virt. eigenvalues --    1.96827   1.97327   1.97398   1.97915   1.98067
 Alpha virt. eigenvalues --    1.98154   1.98412   1.98529   1.98777   1.98878
 Alpha virt. eigenvalues --    1.99131   1.99307   1.99624   1.99720   1.99910
 Alpha virt. eigenvalues --    2.00187   2.00407   2.00607   2.00714   2.00903
 Alpha virt. eigenvalues --    2.01135   2.01356   2.01457   2.01760   2.02082
 Alpha virt. eigenvalues --    2.02334   2.02610   2.02888   2.03170   2.03236
 Alpha virt. eigenvalues --    2.03474   2.03841   2.04146   2.04427   2.04659
 Alpha virt. eigenvalues --    2.04732   2.05212   2.05360   2.05427   2.05565
 Alpha virt. eigenvalues --    2.06120   2.06589   2.06999   2.07175   2.07262
 Alpha virt. eigenvalues --    2.07579   2.07774   2.07995   2.08174   2.08769
 Alpha virt. eigenvalues --    2.08903   2.09326   2.09486   2.09692   2.09883
 Alpha virt. eigenvalues --    2.09922   2.10460   2.10544   2.10753   2.10982
 Alpha virt. eigenvalues --    2.11144   2.11357   2.12065   2.12170   2.12533
 Alpha virt. eigenvalues --    2.12897   2.13228   2.13639   2.13953   2.14394
 Alpha virt. eigenvalues --    2.14570   2.15170   2.15209   2.15707   2.15755
 Alpha virt. eigenvalues --    2.16127   2.16310   2.16379   2.16823   2.17084
 Alpha virt. eigenvalues --    2.17150   2.17544   2.17902   2.18068   2.18513
 Alpha virt. eigenvalues --    2.18645   2.18833   2.18943   2.19471   2.19609
 Alpha virt. eigenvalues --    2.19906   2.20312   2.20383   2.20925   2.21640
 Alpha virt. eigenvalues --    2.21689   2.21928   2.22158   2.22604   2.22879
 Alpha virt. eigenvalues --    2.23351   2.23615   2.24073   2.24196   2.24632
 Alpha virt. eigenvalues --    2.24729   2.24924   2.25146   2.25636   2.25825
 Alpha virt. eigenvalues --    2.26520   2.26804   2.27296   2.27578   2.27694
 Alpha virt. eigenvalues --    2.28047   2.28311   2.28440   2.28775   2.29254
 Alpha virt. eigenvalues --    2.29485   2.29614   2.29978   2.30513   2.31124
 Alpha virt. eigenvalues --    2.31343   2.31432   2.32250   2.32304   2.32810
 Alpha virt. eigenvalues --    2.33198   2.33393   2.34056   2.34360   2.34460
 Alpha virt. eigenvalues --    2.34765   2.34971   2.35589   2.35875   2.35957
 Alpha virt. eigenvalues --    2.36027   2.36573   2.36797   2.37312   2.37499
 Alpha virt. eigenvalues --    2.37780   2.37985   2.38317   2.38660   2.38808
 Alpha virt. eigenvalues --    2.39204   2.39514   2.39693   2.39837   2.40337
 Alpha virt. eigenvalues --    2.40732   2.40842   2.41217   2.41586   2.41852
 Alpha virt. eigenvalues --    2.42041   2.42269   2.42386   2.43685   2.43784
 Alpha virt. eigenvalues --    2.44392   2.44836   2.45142   2.45318   2.45439
 Alpha virt. eigenvalues --    2.45638   2.46003   2.46406   2.46737   2.47027
 Alpha virt. eigenvalues --    2.47329   2.47450   2.47703   2.47936   2.48114
 Alpha virt. eigenvalues --    2.48299   2.48842   2.49319   2.49508   2.49813
 Alpha virt. eigenvalues --    2.50271   2.50855   2.51207   2.52096   2.52413
 Alpha virt. eigenvalues --    2.52716   2.52981   2.53374   2.53765   2.54014
 Alpha virt. eigenvalues --    2.54362   2.54486   2.55248   2.55424   2.55443
 Alpha virt. eigenvalues --    2.55640   2.56208   2.56596   2.56756   2.56998
 Alpha virt. eigenvalues --    2.58160   2.58319   2.58462   2.59049   2.59293
 Alpha virt. eigenvalues --    2.59585   2.59936   2.60323   2.60954   2.61155
 Alpha virt. eigenvalues --    2.61240   2.61494   2.61570   2.61898   2.62314
 Alpha virt. eigenvalues --    2.62710   2.63281   2.63323   2.63637   2.64166
 Alpha virt. eigenvalues --    2.64276   2.64569   2.64812   2.64924   2.65127
 Alpha virt. eigenvalues --    2.65311   2.65812   2.65960   2.66129   2.66917
 Alpha virt. eigenvalues --    2.67137   2.67611   2.68020   2.68822   2.69076
 Alpha virt. eigenvalues --    2.69434   2.69718   2.69909   2.70240   2.70373
 Alpha virt. eigenvalues --    2.70810   2.70824   2.70990   2.71130   2.71549
 Alpha virt. eigenvalues --    2.71996   2.72027   2.72222   2.72847   2.73025
 Alpha virt. eigenvalues --    2.73126   2.73546   2.73835   2.73899   2.74180
 Alpha virt. eigenvalues --    2.74391   2.74580   2.74908   2.75057   2.75162
 Alpha virt. eigenvalues --    2.75772   2.75922   2.76213   2.76339   2.76573
 Alpha virt. eigenvalues --    2.76936   2.77615   2.77684   2.77757   2.78360
 Alpha virt. eigenvalues --    2.78443   2.78735   2.78966   2.79072   2.79273
 Alpha virt. eigenvalues --    2.79703   2.79796   2.79973   2.80325   2.80568
 Alpha virt. eigenvalues --    2.80610   2.80877   2.81631   2.81894   2.81911
 Alpha virt. eigenvalues --    2.82316   2.82625   2.82916   2.83130   2.83532
 Alpha virt. eigenvalues --    2.83719   2.83994   2.84022   2.84204   2.84456
 Alpha virt. eigenvalues --    2.84776   2.84819   2.85395   2.86012   2.86183
 Alpha virt. eigenvalues --    2.86345   2.86379   2.86670   2.87008   2.87494
 Alpha virt. eigenvalues --    2.87603   2.87927   2.88299   2.88601   2.89115
 Alpha virt. eigenvalues --    2.89568   2.89724   2.89958   2.90441   2.90974
 Alpha virt. eigenvalues --    2.91020   2.91303   2.91528   2.91991   2.92204
 Alpha virt. eigenvalues --    2.92530   2.93005   2.93503   2.93660   2.94253
 Alpha virt. eigenvalues --    2.94383   2.94768   2.94908   2.95086   2.95266
 Alpha virt. eigenvalues --    2.96219   2.96485   2.96655   2.96775   2.96819
 Alpha virt. eigenvalues --    2.97159   2.97602   2.97716   2.97900   2.98222
 Alpha virt. eigenvalues --    2.98584   2.98727   2.99140   2.99243   2.99636
 Alpha virt. eigenvalues --    3.00095   3.00532   3.00952   3.01302   3.01352
 Alpha virt. eigenvalues --    3.01581   3.02057   3.02338   3.02494   3.02586
 Alpha virt. eigenvalues --    3.03313   3.03566   3.04000   3.04861   3.05489
 Alpha virt. eigenvalues --    3.06364   3.06498   3.06846   3.07125   3.07353
 Alpha virt. eigenvalues --    3.07574   3.08331   3.08528   3.09112   3.09912
 Alpha virt. eigenvalues --    3.09982   3.10085   3.10632   3.11249   3.11646
 Alpha virt. eigenvalues --    3.12343   3.13212   3.13802   3.14020   3.14805
 Alpha virt. eigenvalues --    3.15029   3.15489   3.15932   3.16422   3.16531
 Alpha virt. eigenvalues --    3.16889   3.17074   3.17128   3.17279   3.17839
 Alpha virt. eigenvalues --    3.18722   3.19319   3.20084   3.20297   3.20601
 Alpha virt. eigenvalues --    3.20858   3.20879   3.20985   3.21092   3.21433
 Alpha virt. eigenvalues --    3.21696   3.22191   3.22988   3.23076   3.23286
 Alpha virt. eigenvalues --    3.23706   3.24018   3.24622   3.25158   3.25776
 Alpha virt. eigenvalues --    3.26817   3.27477   3.28220   3.28456   3.29352
 Alpha virt. eigenvalues --    3.30087   3.30132   3.30788   3.30841   3.30987
 Alpha virt. eigenvalues --    3.31820   3.32540   3.32824   3.32955   3.33312
 Alpha virt. eigenvalues --    3.34525   3.34631   3.36751   3.37024   3.37978
 Alpha virt. eigenvalues --    3.38860   3.41483   3.43639   3.48706   3.53238
 Alpha virt. eigenvalues --    3.53249   3.53801   3.54308   3.55642   3.56731
 Alpha virt. eigenvalues --    3.57574   3.58038   3.58801   3.61073   3.61675
 Alpha virt. eigenvalues --    3.62147   3.62303   3.63906   3.64576   3.64923
 Alpha virt. eigenvalues --    3.65195   3.65631   3.67827   3.68536   3.69210
 Alpha virt. eigenvalues --    3.69369   3.69586   3.70012   3.70435   3.70608
 Alpha virt. eigenvalues --    3.71259   3.71580   3.71712   3.72109   3.72686
 Alpha virt. eigenvalues --    3.72938   3.73277   3.73729   3.75075   3.75569
 Alpha virt. eigenvalues --    3.77024   3.79602   3.80796   3.82306
          Condensed to atoms (all electrons):
 Mulliken charges:
               1
     1  C    0.061355
     2  C    0.042930
     3  O   -0.306107
     4  H    0.044191
     5  H    0.029754
     6  H   -0.005002
     7  N   -0.106060
     8  C    0.073843
     9  C    0.010092
    10  O   -0.296142
    11  C    0.089835
    12  C    0.119113
    13  O   -0.439479
    14  O   -0.386214
    15  H    0.119574
    16  H    0.026502
    17  H    0.014929
    18  H   -0.009640
    19  N   -0.120191
    20  C    0.163645
    21  C    0.022295
    22  O   -0.290943
    23  C    0.031303
    24  C   -0.012771
    25  C   -0.017259
    26  C   -0.001524
    27  N    0.098307
    28  H    0.170250
    29  H    0.004730
    30  H    0.005562
    31  H    0.021344
    32  H    0.012728
    33  H    0.028842
    34  H    0.040068
    35  H    0.025560
    36  H    0.072367
    37  H    0.060100
    38  H    0.184138
    39  H    0.201315
    40  H    0.196204
    41  N   -0.145771
    42  C    0.152073
    43  C    0.024143
    44  O   -0.286599
    45  C    0.063812
    46  C    0.127071
    47  O   -0.389470
    48  O   -0.467806
    49  H    0.147141
    50  H    0.005279
    51  H   -0.006578
    52  H    0.015775
    53  N   -0.182524
    54  C    0.241287
    55  C    0.046221
    56  O   -0.305973
    57  H    0.141426
    58  H    0.018612
    59  H    0.041162
    60  N   -0.153996
    61  C    0.170563
    62  C    0.041448
    63  O   -0.320080
    64  C    0.082772
    65  C    0.043553
    66  N   -0.015437
    67  O   -0.332130
    68  H    0.155027
    69  H    0.029186
    70  H    0.079283
    71  H   -0.011736
    72  H    0.127911
    73  H    0.101383
    74  N   -0.161010
    75  C    0.222863
    76  C    0.073977
    77  O   -0.288972
    78  H    0.152122
    79  H    0.038775
    80  H    0.040045
    81  N   -0.172965
    82  C    0.160555
    83  C    0.161884
    84  O   -0.362209
    85  C    0.127581
    86  C    0.007577
    87  C    0.001409
    88  C   -0.001791
    89  C   -0.037656
    90  C   -0.065244
    91  C    0.161946
    92  O   -0.203010
    93  H    0.143054
    94  H   -0.000179
    95  H   -0.021293
    96  H   -0.049029
    97  H   -0.037546
    98  H   -0.037837
    99  H   -0.029776
   100  H   -0.026957
   101  H    0.171830
   102  N   -0.099739
   103  C    0.125644
   104  C    0.023521
   105  O   -0.278422
   106  C   -0.111563
   107  C   -0.019769
   108  C    0.103151
   109  C    0.062164
   110  H    0.129239
   111  H    0.025975
   112  H   -0.022586
   113  H    0.001892
   114  H   -0.005807
   115  H    0.007863
   116  H    0.018831
   117  H   -0.003455
   118  H    0.011526
   119  H    0.014651
   120  H    0.003842
   121  N   -0.136353
   122  C    0.079495
   123  C    0.100193
   124  O   -0.276431
   125  C    0.291506
   126  O   -0.338257
   127  H    0.155286
   128  H    0.006027
   129  H   -0.026306
   130  H   -0.026384
   131  H    0.168884
   132  N   -0.130597
   133  C    0.039316
   134  C    0.065491
   135  O   -0.256148
   136  C    0.062460
   137  H    0.118178
   138  H    0.026611
   139  H    0.032355
   140  H    0.009392
   141  H    0.044009
   142  N   -0.145049
   143  C    0.087597
   144  C    0.072090
   145  O   -0.283257
   146  C    0.031344
   147  H    0.100426
   148  H    0.018571
   149  H    0.022664
   150  H    0.039264
   151  H    0.003622
   152  N   -0.133190
   153  C    0.177762
   154  C    0.055565
   155  O   -0.285434
   156  C   -0.077232
   157  C    0.170723
   158  C    0.106690
   159  O   -0.446772
   160  O   -0.367444
   161  H    0.120163
   162  H   -0.007973
   163  H    0.024093
   164  H   -0.003630
   165  H   -0.009999
   166  H   -0.016937
   167  N   -0.174765
   168  C    0.152378
   169  H    0.029330
   170  H    0.013278
   171  H    0.009674
   172  H    0.132091
   173  Ca   1.286294
   174  O   -0.279290
   175  H    0.187906
   176  H    0.209045
 Sum of Mulliken charges =   0.00000
 Mulliken charges with hydrogens summed into heavy atoms:
               1
     1  C    0.130298
     2  C    0.042930
     3  O   -0.306107
     7  N    0.013514
     8  C    0.100346
     9  C    0.010092
    10  O   -0.296142
    11  C    0.095124
    12  C    0.119113
    13  O   -0.439479
    14  O   -0.386214
    19  N    0.050059
    20  C    0.168375
    21  C    0.022295
    22  O   -0.290943
    23  C    0.058209
    24  C    0.028799
    25  C    0.048369
    26  C    0.130943
    27  N    0.679964
    41  N    0.001370
    42  C    0.157352
    43  C    0.024143
    44  O   -0.286599
    45  C    0.073009
    46  C    0.127071
    47  O   -0.389470
    48  O   -0.467806
    53  N   -0.041098
    54  C    0.301061
    55  C    0.046221
    56  O   -0.305973
    60  N    0.001031
    61  C    0.199748
    62  C    0.041448
    63  O   -0.320080
    64  C    0.150320
    65  C    0.043553
    66  N    0.213857
    67  O   -0.332130
    74  N   -0.008888
    75  C    0.301684
    76  C    0.073977
    77  O   -0.288972
    81  N   -0.029911
    82  C    0.160376
    83  C    0.161884
    84  O   -0.362209
    85  C    0.057260
    86  C    0.007577
    87  C   -0.036137
    88  C   -0.039627
    89  C   -0.067432
    90  C   -0.092201
    91  C    0.161946
    92  O   -0.031180
   102  N    0.029500
   103  C    0.151619
   104  C    0.023521
   105  O   -0.278422
   106  C   -0.134150
   107  C   -0.023684
   108  C    0.126390
   109  C    0.092183
   121  N    0.018933
   122  C    0.085522
   123  C    0.100193
   124  O   -0.276431
   125  C    0.238816
   126  O   -0.169373
   132  N   -0.012419
   133  C    0.065927
   134  C    0.065491
   135  O   -0.256148
   136  C    0.148215
   142  N   -0.044622
   143  C    0.106168
   144  C    0.072090
   145  O   -0.283257
   146  C    0.096896
   152  N   -0.013028
   153  C    0.169789
   154  C    0.055565
   155  O   -0.285434
   156  C   -0.056769
   157  C    0.143787
   158  C    0.106690
   159  O   -0.446772
   160  O   -0.367444
   167  N   -0.042674
   168  C    0.204659
   173  Ca   1.286294
   174  O    0.117660
 DipInt: DoE/N= T F RetVal/Mat= T F Init=T NMatP=  1 IDeriv=0 Min/MaxMlt=  0  4
 Entering OneElI...
 OneElI was handed  4286741430 working-precision words.
 Multipole integrals L=0 to 4 MinM= 0 MaxM= 0.
 Requested accuracy = 0.1000D-12
 ShPair: Thresh= 1.00D-13 NBox=     0 BxSize= 0.00D+00 RnKept= 2.55D+01
         NSMCal=               327645 NSMKep=              159942
 PrsmSu:  NPrtUS=   1 ThrOK=F IAlg=1 NPAlg=1 LenDen=           0.
 Prism:   IPart=     0 DynPar=F LinDyn=F Incr=         512.
 PRISM was handed  4276691132 working-precision words and159942 shell-pairs
 IPart=  0 NShTot=      159942 NBatch=         452 AvBLen=       353.9
 PrSmSu:  NxtVal=            513.
 Electronic moments (au):
       -716.00000000         12.18231663          3.57557209         -3.19762184
     -51820.60619908     -32869.48027126     -11183.27965403        146.94887155
          7.90200567         35.31423696     -11331.41863570     -79128.93621328
     -12295.29009518     -25383.82251938     108619.80924619      34580.13746443
     -13596.55981991       3253.25518406      11774.00991860     -19619.56117756
   -7696846.14889025   -3648201.01830840    -508647.09643956    -289538.41325265
     248886.42095513    -807335.91663734     -17658.58526497     -48076.92972971
      71831.55909346   -2486584.18504935    -595808.31559200    -310086.78393929
    -232353.81815093     -15248.57767763     109471.11968287
 Electronic spatial extent (au):  <R**2>=          95873.3661
 DipInt: DoE/N= F T RetVal/Mat= T F Init=T NMatP=  1 IDeriv=0 Min/MaxMlt=  0  4
 Nuclear    moments (au):
        716.00000000          0.00000000          0.00000000          0.00000000
      51374.38142115      32628.73101893      10780.80289225          0.00000000
          0.00000000          0.00000000      12036.27652335      82148.05631871
      12339.64779572      28743.92289156    -107301.58055267     -35170.32690123
      13800.48475689      -3521.24957571     -11917.26989138      19657.59964944
    7500533.17876102    3587940.11510818     469759.86913273     308248.17377383
    -246261.61070529     847255.21777611      20836.24919712      48031.09569844
     -70016.28080425    2463012.10510453     560813.01977231     285320.09815907
     235576.78458689      15133.76009072    -109436.77591730
 Total      moments (au):
          0.00000000         12.18231663          3.57557209         -3.19762184
       -446.22477793       -240.74925233       -402.47676178        146.94887155
          7.90200567         35.31423696        704.85788765       3019.12010543
         44.35770054       3360.10037218       1318.22869351       -590.18943680
        203.92493699       -267.99439165       -143.25997278         38.03847189
    -196312.97012923     -60260.90320022     -38887.22730683      18709.76052118
       2624.81024984      39919.30113877       3177.66393214        -45.83403127
       1815.27828921     -23572.07994482     -34995.29581970     -24766.68578022
       3222.96643596       -114.81758691         34.34376557
 Traceless Quadrup. (au):
        -83.07451392        122.40101168        -39.32649777        146.94887155
          7.90200567         35.31423696
 Charge=              0.0000 electrons
 Dipole moment (field-independent basis, Debye):
    X=             30.9644    Y=              9.0882    Z=             -8.1275  Tot=             33.2783
 Quadrupole moment (field-independent basis, Debye-Ang):
   XX=           -600.1876   YY=           -323.8160   ZZ=           -541.3450
   XY=            197.6513   XZ=             10.6285   YZ=             47.4989
 Traceless Quadrupole moment (field-independent basis, Debye-Ang):
   XX=           -111.7381   YY=            164.6335   ZZ=            -52.8955
   XY=            197.6513   XZ=             10.6285   YZ=             47.4989
 Octapole moment (field-independent basis, Debye-Ang**2):
  XXX=            501.6907  YYY=           2148.8932  ZZZ=             31.5721  XYY=           2391.5898
  XXY=            938.2643  XXZ=           -420.0741  XZZ=            145.1459  YZZ=           -190.7481
  YYZ=           -101.9669  XYZ=             27.0743
 Hexadecapole moment (field-independent basis, Debye-Ang**3):
 XXXX=         -73940.8732 YYYY=         -22697.1442 ZZZZ=         -14646.7935 XXXY=           7046.9925
 XXXZ=            988.6293 YYYX=          15035.5220 YYYZ=           1196.8605 ZZZX=            -17.2633
 ZZZY=            683.7208 XXYY=          -8878.3750 XXZZ=         -13180.9056 YYZZ=          -9328.3208
 XXYZ=           1213.9236 YYXZ=            -43.2458 ZZXY=             12.9355
 N-N= 2.171091815173D+04 E-N=-5.590695021884D+04  KE= 5.290525949908D+03
 Leave Link  601 at Mon Sep 16 14:52:26 2019, MaxMem=  4294967296 cpu:        22.1
 FitSet:  NAtFit=   176 NAtPot=   176 NAtFrz=     0 MDM=   180 TotChg=   0.00000
 Merz-Kollman atomic radii used.
 Read replacement radii for each type of atom:
 Rad(20) =   1.700000000000D+00
 Atom Element Radius
    1     6    1.50
    2     6    1.50
    3     8    1.40
    4     1    1.20
    5     1    1.20
    6     1    1.20
    7     7    1.50
    8     6    1.50
    9     6    1.50
   10     8    1.40
   11     6    1.50
   12     6    1.50
   13     8    1.40
   14     8    1.40
   15     1    1.20
   16     1    1.20
   17     1    1.20
   18     1    1.20
   19     7    1.50
   20     6    1.50
   21     6    1.50
   22     8    1.40
   23     6    1.50
   24     6    1.50
   25     6    1.50
   26     6    1.50
   27     7    1.50
   28     1    1.20
   29     1    1.20
   30     1    1.20
   31     1    1.20
   32     1    1.20
   33     1    1.20
   34     1    1.20
   35     1    1.20
   36     1    1.20
   37     1    1.20
   38     1    1.20
   39     1    1.20
   40     1    1.20
   41     7    1.50
   42     6    1.50
   43     6    1.50
   44     8    1.40
   45     6    1.50
   46     6    1.50
   47     8    1.40
   48     8    1.40
   49     1    1.20
   50     1    1.20
   51     1    1.20
   52     1    1.20
   53     7    1.50
   54     6    1.50
   55     6    1.50
   56     8    1.40
   57     1    1.20
   58     1    1.20
   59     1    1.20
   60     7    1.50
   61     6    1.50
   62     6    1.50
   63     8    1.40
   64     6    1.50
   65     6    1.50
   66     7    1.50
   67     8    1.40
   68     1    1.20
   69     1    1.20
   70     1    1.20
   71     1    1.20
   72     1    1.20
   73     1    1.20
   74     7    1.50
   75     6    1.50
   76     6    1.50
   77     8    1.40
   78     1    1.20
   79     1    1.20
   80     1    1.20
   81     7    1.50
   82     6    1.50
   83     6    1.50
   84     8    1.40
   85     6    1.50
   86     6    1.50
   87     6    1.50
   88     6    1.50
   89     6    1.50
   90     6    1.50
   91     6    1.50
   92     8    1.40
   93     1    1.20
   94     1    1.20
   95     1    1.20
   96     1    1.20
   97     1    1.20
   98     1    1.20
   99     1    1.20
  100     1    1.20
  101     1    1.20
  102     7    1.50
  103     6    1.50
  104     6    1.50
  105     8    1.40
  106     6    1.50
  107     6    1.50
  108     6    1.50
  109     6    1.50
  110     1    1.20
  111     1    1.20
  112     1    1.20
  113     1    1.20
  114     1    1.20
  115     1    1.20
  116     1    1.20
  117     1    1.20
  118     1    1.20
  119     1    1.20
  120     1    1.20
  121     7    1.50
  122     6    1.50
  123     6    1.50
  124     8    1.40
  125     6    1.50
  126     8    1.40
  127     1    1.20
  128     1    1.20
  129     1    1.20
  130     1    1.20
  131     1    1.20
  132     7    1.50
  133     6    1.50
  134     6    1.50
  135     8    1.40
  136     6    1.50
  137     1    1.20
  138     1    1.20
  139     1    1.20
  140     1    1.20
  141     1    1.20
  142     7    1.50
  143     6    1.50
  144     6    1.50
  145     8    1.40
  146     6    1.50
  147     1    1.20
  148     1    1.20
  149     1    1.20
  150     1    1.20
  151     1    1.20
  152     7    1.50
  153     6    1.50
  154     6    1.50
  155     8    1.40
  156     6    1.50
  157     6    1.50
  158     6    1.50
  159     8    1.40
  160     8    1.40
  161     1    1.20
  162     1    1.20
  163     1    1.20
  164     1    1.20
  165     1    1.20
  166     1    1.20
  167     7    1.50
  168     6    1.50
  169     1    1.20
  170     1    1.20
  171     1    1.20
  172     1    1.20
  173    20    1.70
  174     8    1.40
  175     1    1.20
  176     1    1.20
 Generate VDW surfaces: Layer= 4 Dens= 6 Start= 1.400 Inc= 0.200

 **********************************************************************

            Electrostatic Properties Using The SCF Density

 **********************************************************************

       Atomic Center    1 is at   3.120645  1.787337  4.525662
       Atomic Center    2 is at   2.148702  1.960654  3.367263
       Atomic Center    3 is at   2.556016  2.251420  2.247017
[...]
 **** Fit      -0.017258
 **** Fit      -0.015048
 **** Fit      -0.045092
 **** Fit      -0.047052
 **** Fit      -0.043598
 **** Fit      -0.039263
 **** Fit      -0.034316
 **** Fit      -0.029064
 **** Fit      -0.023861
 **** Fit       0.001724
 **** Fit       0.000322
 **** Fit       0.002956
 **** Fit       0.001339
 **** Fit       0.002368
 **** Fit       0.003641
 **** Fit       0.004391
 **** Fit      -0.007094
 **** Fit      -0.014209
 **** Fit      -0.022343
 **** Fit       0.003305
 **** Fit       0.003281
 **** Fit       0.002568
 **** Fit       0.000657
 **** Fit      -0.002723
 **** Fit      -0.007535
 **** Fit      -0.013363
 **** Fit      -0.019311
 **** Fit      -0.023746
 **** Fit       0.001471
 **** Fit      -0.001083
 **** Fit      -0.004880
 **** Fit      -0.009493
 **** Fit      -0.013740
 **** Fit      -0.015561
 **** Fit      -0.012462
 **** Fit      -0.004672
 **** Fit      -0.007804
 **** Fit      -0.008809
 **** Fit      -0.003806
 **** Fit      -0.019211
 **** Fit      -0.023156
 **** Fit      -0.027694
 **** Fit      -0.024960
 **** Fit      -0.025639
 **** Fit      -0.020507
 **** Fit      -0.013150
 **** Fit      -0.008583
 **** Fit      -0.007212
 **** Fit      -0.009377
 **** Fit      -0.015263
 **** Fit      -0.023315
 **** Fit      -0.014040
 **** Fit      -0.006331
 **** Fit      -0.000838
 **** Fit       0.001877
 **** Fit       0.001451
 **** Fit      -0.002263
 **** Fit      -0.009193
 **** Fit      -0.030992
 **** Fit      -0.020538
 **** Fit      -0.010942
 **** Fit      -0.002678
 **** Fit       0.003731
 **** Fit       0.007766
 **** Fit       0.009064
 **** Fit       0.007498
 **** Fit       0.003167
 **** Fit      -0.019842
 **** Fit      -0.009540
 **** Fit      -0.000718
 **** Fit       0.006289
 **** Fit       0.011081
 **** Fit       0.013358
 **** Fit       0.013027
 **** Fit       0.010228
 **** Fit      -0.007856
 **** Fit       0.001407
 **** Fit       0.008505
 **** Fit       0.013186
 **** Fit       0.015286
 **** Fit       0.014840
 **** Fit      -0.006314
 **** Fit       0.002965
 **** Fit       0.009605
 **** Fit       0.013550
 **** Fit       0.014829
 **** Fit      -0.005851
 **** Fit       0.002911
 **** Fit       0.008722
 **** Fit       0.011745
 **** Fit       0.012242
 **** Fit      -0.002863
 **** Fit       0.004101
 **** Fit       0.007800
 **** Fit      -0.001027
 **** Fit       0.003428
 **** Fit      -0.004431
 **** Fit       0.000094
 **** Fit       0.002277
 **** Fit       0.004073
 **** Fit       0.003578
 **** Fit       0.004651
 **** Fit       0.003205
 **** Fit       0.001165
 **** Fit      -0.001604
 **** Fit      -0.004668
 **** Fit      -0.006958
 **** Fit      -0.006915
 **** Fit      -0.003244
 **** Fit       0.003487
 **** Fit       0.005965
 **** Fit       0.003922
 **** Fit       0.001689
 **** Fit      -0.000785
 **** Fit      -0.002747
 **** Fit      -0.002872
 **** Fit      -0.000310
 **** Fit       0.003658
 **** Fit       0.004429
 **** Fit       0.002012
 **** Fit       0.000322
 **** Fit       0.000622
 **** Fit       0.002536
 **** Fit       0.004830
 **** Fit       0.002818
 **** Fit       0.003077
 **** Fit       0.003829
 **** Fit       0.004804
 **** Fit      -0.007037
 **** Fit       0.017418
 **** Fit       0.019385
 **** Fit       0.014936
 **** Fit       0.020105
 **** Fit       0.009642
 **** Fit       0.014864
 **** Fit       0.019202
 **** Fit       0.004670
 **** Fit       0.009321
 **** Fit       0.013465
 **** Fit       0.016406
 **** Fit       0.017500
 **** Fit       0.005465
 **** Fit       0.008980
 **** Fit       0.011569
 **** Fit       0.012418
 **** Fit       0.010905
 **** Fit       0.005368
 **** Fit       0.007347
 **** Fit       0.007945
 **** Fit       0.006384
 **** Fit       0.002286
 **** Fit      -0.004231
 **** Fit      -0.012497
 **** Fit       0.004237
 **** Fit       0.002207
 **** Fit      -0.002233
 **** Fit      -0.008213
 **** Fit      -0.006424
 **** Fit      -0.001516
 **** Fit      -0.002366
 **** Fit      -0.003481
 **** Fit      -0.004840
 **** Fit      -0.007072
 **** Fit      -0.008982
 **** Fit      -0.011147
 **** Fit      -0.000434
 **** Fit      -0.000989
 **** Fit      -0.001790
 **** Fit      -0.002817
 **** Fit      -0.004036
 **** Fit      -0.005441
 **** Fit      -0.007625
 **** Fit      -0.009496
 **** Fit      -0.011761
 **** Fit      -0.014400
 **** Fit      -0.017231
 **** Fit       0.000571
 **** Fit       0.000393
 **** Fit       0.000031
 **** Fit      -0.000569
 **** Fit      -0.001393
 **** Fit      -0.002390
 **** Fit      -0.003508
 **** Fit      -0.004726
 **** Fit      -0.006071
 **** Fit      -0.019031
 **** Fit      -0.022980
 **** Fit      -0.026813
 **** Fit       0.001183
 **** Fit       0.001193
 **** Fit       0.001252
 **** Fit       0.001176
 **** Fit       0.000839
 **** Fit       0.000203
 **** Fit      -0.000689
 **** Fit      -0.001751
 **** Fit      -0.002902
 **** Fit      -0.004088
 **** Fit      -0.005303
 **** Fit      -0.006605
 **** Fit       0.001555
 **** Fit       0.000053
 **** Fit      -0.001152
 **** Fit      -0.002421
 **** Fit      -0.003671
 **** Fit      -0.004862
 **** Fit      -0.006010
 **** Fit      -0.001821
 **** Fit      -0.003283
 **** Fit      -0.004617
 **** Fit      -0.005795
 **** Fit      -0.002971
 **** Fit      -0.004582
 **** Fit      -0.005953
 **** Fit      -0.004471
 **** Fit      -0.006257
 **** Fit      -0.007689
 **** Fit      -0.008280
 **** Fit      -0.009907
 **** Fit      -0.011277
 **** Fit      -0.013110
 **** Fit      -0.015743
 **** Fit      -0.017747
 **** Fit      -0.009309
 **** Fit      -0.011426
 **** Fit      -0.014061
 **** Fit      -0.007616
 **** Fit      -0.009614
 **** Fit      -0.011570
 **** Fit      -0.014109
 **** Fit      -0.017351
 **** Fit      -0.021253
 **** Fit      -0.006760
 **** Fit      -0.008070
 **** Fit      -0.010095
 **** Fit      -0.011936
 **** Fit      -0.014375
 **** Fit      -0.017620
 **** Fit      -0.021873
 **** Fit      -0.027226
 **** Fit      -0.006328
 **** Fit      -0.007458
 **** Fit      -0.008661
 **** Fit      -0.010846
 **** Fit      -0.012539
 **** Fit      -0.014796
 **** Fit      -0.017840
 **** Fit      -0.021953
 **** Fit      -0.027479
 **** Fit      -0.006385
 **** Fit      -0.007446
 **** Fit      -0.008451
 **** Fit      -0.009536
 **** Fit      -0.011960
 **** Fit      -0.013600
 **** Fit      -0.015827
 **** Fit      -0.018888
 **** Fit      -0.023128
 **** Fit      -0.029048
 **** Fit      -0.007796
 **** Fit      -0.008784
 **** Fit      -0.009708
 **** Fit      -0.010717
 **** Fit      -0.013540
 **** Fit      -0.015087
 **** Fit      -0.017219
 **** Fit      -0.020177
 **** Fit      -0.024313
 **** Fit      -0.030176
 **** Fit      -0.009816
 **** Fit      -0.010684
 **** Fit      -0.011492
 **** Fit      -0.012394
 **** Fit      -0.015705
 **** Fit      -0.017165
 **** Fit      -0.019230
 **** Fit      -0.022136
 **** Fit      -0.026231
 **** Fit      -0.032078
 **** Fit      -0.011577
 **** Fit      -0.012536
 **** Fit      -0.013247
 **** Fit      -0.013903
 **** Fit      -0.014670
 **** Fit      -0.018598
 **** Fit      -0.020000
 **** Fit      -0.022100
 **** Fit      -0.025148
 **** Fit      -0.029520
 **** Fit      -0.016235
 **** Fit      -0.016719
 **** Fit      -0.017137
 **** Fit      -0.017702
 **** Fit      -0.022394
 **** Fit      -0.023678
 **** Fit      -0.025813
 **** Fit      -0.029050
 **** Fit      -0.033763
 **** Fit      -0.021636
 **** Fit      -0.021639
 **** Fit      -0.021583
 **** Fit      -0.021760
 **** Fit      -0.027300
 **** Fit      -0.028282
 **** Fit      -0.030294
 **** Fit      -0.033519
 **** Fit      -0.038196
 **** Fit      -0.027742
 **** Fit      -0.027181
 **** Fit      -0.033531
 **** Fit      -0.033981
 **** Fit      -0.035853
 **** Fit      -0.039152
 **** Fit      -0.041790
 **** Fit      -0.003724
 **** Fit      -0.004593
 **** Fit      -0.005485
 **** Fit      -0.004555
 **** Fit      -0.002889
 **** Fit      -0.002346
 **** Fit      -0.003121
 **** Fit      -0.005509
 **** Fit      -0.006970
 **** Fit      -0.007754
 **** Fit      -0.007312
 **** Fit      -0.005704
 **** Fit      -0.003679
 **** Fit      -0.002064
 **** Fit      -0.001282
 **** Fit      -0.001260
 **** Fit      -0.001756
 **** Fit      -0.002667
 **** Fit      -0.003961
 **** Fit      -0.006470
 **** Fit      -0.008203
 **** Fit      -0.009758
 **** Fit      -0.010710
 **** Fit      -0.010629
 **** Fit      -0.009375
 **** Fit      -0.007276
 **** Fit      -0.004909
 **** Fit      -0.002780
 **** Fit      -0.001222
 **** Fit      -0.000391
 **** Fit      -0.000199
 **** Fit      -0.000401
 **** Fit      -0.000821
 **** Fit      -0.001435
 **** Fit      -0.002288
 **** Fit      -0.003421
 **** Fit      -0.004832
 **** Fit      -0.007455
 **** Fit      -0.009493
 **** Fit      -0.011611
 **** Fit      -0.013513
 **** Fit      -0.014749
 **** Fit      -0.014854
 **** Fit      -0.013612
 **** Fit      -0.011269
 **** Fit      -0.008406
 **** Fit      -0.005569
 **** Fit      -0.003073
 **** Fit      -0.001102
 **** Fit       0.000183
 **** Fit       0.000725
 **** Fit       0.000699
 **** Fit       0.000399
 **** Fit       0.000017
 **** Fit      -0.000422
 **** Fit      -0.000990
 **** Fit      -0.001762
 **** Fit      -0.016352
 **** Fit      -0.018872
 **** Fit      -0.020499
 **** Fit      -0.020626
 **** Fit      -0.018973
 **** Fit      -0.015861
 **** Fit      -0.012104
 **** Fit      -0.008477
 **** Fit      -0.005297
 **** Fit      -0.002603
 **** Fit      -0.000443
 **** Fit       0.001038
 **** Fit       0.001702
 **** Fit       0.001652
 **** Fit       0.001232
 **** Fit       0.000791
 **** Fit       0.000439
 **** Fit      -0.026480
 **** Fit      -0.022415
 **** Fit      -0.005211
 **** Fit      -0.002482
 **** Fit      -0.000205
 **** Fit       0.001416
 **** Fit      -0.003255
 **** Fit      -0.004855
 **** Fit       0.002108
 **** Fit       0.002341
 **** Fit       0.002239
 **** Fit       0.001753
 **** Fit       0.000922
 **** Fit       0.002394
 **** Fit       0.002977
 **** Fit       0.003260
 **** Fit       0.003140
 **** Fit       0.002595
 **** Fit       0.001671
 **** Fit       0.000468
 **** Fit       0.002236
 **** Fit       0.003248
 **** Fit       0.003978
 **** Fit       0.004287
 **** Fit       0.004125
 **** Fit       0.003501
 **** Fit       0.002468
 **** Fit       0.001119
 **** Fit      -0.000427
 **** Fit       0.003485
 **** Fit       0.004700
 **** Fit       0.005362
 **** Fit       0.005430
 **** Fit       0.004915
 **** Fit       0.003871
 **** Fit       0.002388
 **** Fit       0.000588
 **** Fit      -0.001378
 **** Fit      -0.003347
 **** Fit       0.003568
 **** Fit       0.005404
 **** Fit       0.006526
 **** Fit       0.006902
 **** Fit       0.006552
 **** Fit       0.005535
 **** Fit       0.003943
 **** Fit       0.001901
 **** Fit      -0.000438
 **** Fit      -0.002898
 **** Fit      -0.005288
 **** Fit       0.005288
 **** Fit       0.007409
 **** Fit       0.008533
 **** Fit       0.008673
 **** Fit       0.007898
 **** Fit       0.006317
 **** Fit       0.004069
 **** Fit       0.001316
 **** Fit      -0.001747
 **** Fit      -0.004895
 **** Fit      -0.007892
 **** Fit       0.005222
 **** Fit       0.008222
 **** Fit       0.005178
 **** Fit       0.001425
 **** Fit      -0.002765
 **** Fit      -0.007073
 **** Fit      -0.011150
 **** Fit       0.002474
 **** Fit      -0.003477
 **** Fit      -0.009674
 **** Fit       0.010375
 **** Fit      -0.000519
 **** Fit       0.017167
 **** Fit       0.007426
 **** Fit      -0.004660
 **** Fit       0.015092
 **** Fit       0.003251
 **** Fit      -0.011153
 **** Fit       0.025117
 **** Fit       0.012071
 **** Fit      -0.002422
 **** Fit       0.024638
 **** Fit       0.007610
 **** Fit       0.023426
 **** Fit       0.031911
 **** Fit       0.028786
 **** Fit       0.035553
 **** Fit       0.033368
 **** Fit       0.031476
 **** Fit       0.028348
 **** Fit       0.022766
 **** Fit       0.014445
 **** Fit       0.050502
 **** Fit       0.050933
 **** Fit       0.051552
 **** Fit       0.052138
 **** Fit       0.052269
 **** Fit       0.051761
 **** Fit       0.050734
 **** Fit       0.049391
 **** Fit       0.047732
 **** Fit       0.038766
 **** Fit       0.036483
 **** Fit       0.033609
 **** Fit       0.030347
 **** Fit       0.025771
 **** Fit       0.019543
 **** Fit       0.012796
 **** Fit       0.008449
 **** Fit       0.009495
 **** Fit       0.015996
 **** Fit       0.025194
 **** Fit       0.034103
 **** Fit       0.040788
 **** Fit       0.044743
 **** Fit       0.046781
 **** Fit       0.047961
 **** Fit       0.048744
 **** Fit       0.049083
 **** Fit       0.048852
 **** Fit       0.048062
 **** Fit       0.046779
 **** Fit       0.044957
 **** Fit       0.042494
 **** Fit       0.039520
 **** Fit       0.036664
 **** Fit       0.033224
 **** Fit       0.029092
 **** Fit       0.024133
 **** Fit       0.019541
 **** Fit       0.017888
 **** Fit       0.020881
 **** Fit       0.027285
 **** Fit       0.034246
 **** Fit       0.039650
 **** Fit       0.043022
 **** Fit       0.044940
 **** Fit       0.045941
 **** Fit       0.046173
 **** Fit       0.045650
 **** Fit       0.044397
 **** Fit       0.042412
 **** Fit       0.039757
 **** Fit       0.036486
 **** Fit       0.032482
 **** Fit       0.028216
 **** Fit       0.025591
 **** Fit       0.027147
 **** Fit       0.032258
 **** Fit       0.037614
 **** Fit       0.041190
 **** Fit       0.042935
 **** Fit       0.043184
 **** Fit       0.042090
 **** Fit       0.039777
 **** Fit       0.036245
 **** Fit       0.032327
 **** Fit       0.032180
 **** Fit       0.036562
 **** Fit       0.039719
 **** Fit       0.039420
 **** Fit       0.036191
 **** Fit       0.023000
 **** Fit       0.021134
 **** Fit       0.019567
 **** Fit       0.028569
 **** Fit       0.028194
 **** Fit       0.027816
 **** Fit       0.027946
 **** Fit       0.029102
 **** Fit       0.030633
 **** Fit       0.031774
 **** Fit       0.032473
 **** Fit       0.032893
 **** Fit       0.033328
 **** Fit       0.034176
 **** Fit       0.034311
 **** Fit       0.032661
 **** Fit       0.032690
 **** Fit       0.033538
 **** Fit       0.034604
 **** Fit       0.035579
 **** Fit       0.036413
 **** Fit       0.037248
 **** Fit       0.038347
 **** Fit       0.040057
 **** Fit       0.040143
 **** Fit       0.037960
 **** Fit       0.037398
 **** Fit       0.037719
 **** Fit       0.038428
 **** Fit       0.039275
 **** Fit       0.040218
 **** Fit       0.041367
 **** Fit       0.042921
 **** Fit       0.044322
 **** Fit       0.042151
 **** Fit       0.041470
 **** Fit       0.041651
 **** Fit       0.042300
 **** Fit       0.043254
 **** Fit       0.044528
 **** Fit       0.046235
 **** Fit       0.051336
 **** Fit       0.047552
 **** Fit       0.045642
 **** Fit       0.045057
 **** Fit       0.045319
 **** Fit       0.046147
 **** Fit       0.047451
 **** Fit       0.049250
 **** Fit       0.051571
 **** Fit       0.049291
 **** Fit       0.048548
 **** Fit       0.048911
 **** Fit       0.050110
 **** Fit       0.052065
 **** Fit       0.052351
 **** Fit       0.052841
 -----------------------------------------------------------------
 Leave Link  602 at Mon Sep 16 14:52:39 2019, MaxMem=  4294967296 cpu:       156.9

 Test job not archived.
 1\1\GINC-N008\SP\RB3LYP\SVP\C54H83Ca1N15O23\PCIEPLAK\16-Sep-2019\0\\#m
 axdisk=50GB #B3LYP/SVP Density=Current scf=(tight) #IOP(5/87=12)Pop=(M
 K,readradii) iop(6/33=2) iop(6/42=6)\\SOL molecule\\0,1\C,0,75.54,43.0
 1,21.21\C,0,74.19,42.47,21.66\O,0,73.9,41.29,21.49\H,0,76.292,42.225,2
 1.297\H,0,75.474,43.336,20.172\H,0,75.822,43.854,21.839\N,0,73.42,43.3
 3,22.32\C,0,72.11,42.87,22.74\C,0,71.25,42.52,21.53\O,0,70.77,43.39,20
 .81\C,0,71.39,43.9,23.61\C,0,70.12,43.27,24.17\O,0,70.07,42.06,24.47\O
 ,0,69.16,44.06,24.3\H,0,73.74,44.27,22.49\H,0,72.14,41.99,23.38\H,0,71
 .01,44.7,22.97\H,0,72.06,44.19,24.41\N,0,71.07,41.24,21.2\C,0,70.55,40
 .67,19.97\C,0,69.13,40.13,20.02\O,0,68.38,40.16,19.05\C,0,71.62,39.8,1
 9.3\C,0,71.17,39.31,17.92\C,0,72.37,38.73,17.18\C,0,71.91,38.19,15.83\
 N,0,73.04,37.76,14.99\H,0,71.6,40.63,21.81\H,0,70.42,41.47,19.24\H,0,7
 1.83,38.89,19.85\H,0,72.55,40.37,19.27\H,0,70.76,40.08,17.28\H,0,70.47
 ,38.5,18.11\H,0,72.62,37.94,17.89\H,0,73.12,39.5,16.99\H,0,71.25,38.86
 ,15.27\H,0,71.22,37.36,15.96\H,0,72.71,37.31,14.15\H,0,73.56,38.59,14.
 75\H,0,73.58,37.04,15.44\N,0,68.72,39.58,21.17\C,0,67.33,39.45,21.56\C
 ,0,66.67,40.74,22.02\O,0,65.5,40.75,22.39\C,0,67.03,38.31,22.52\C,0,67
 .91,38.25,23.76\O,0,67.56,37.6,24.77\O,0,69.02,38.82,23.82\H,0,69.42,3
 9.45,21.89\H,0,66.71,39.22,20.69\H,0,67.15,37.35,22.02\H,0,65.95,38.31
 ,22.67\N,0,67.41,41.84,22.21\C,0,66.85,43.17,22.34\C,0,66.23,43.53,23.
 69\O,0,65.52,44.53,23.83\H,0,68.4,41.7,22.09\H,0,66.09,43.32,21.57\H,0
 ,67.74,43.79,22.2\N,0,66.49,42.7,24.7\C,0,65.85,42.8,26.\C,0,66.4,43.8
 6,26.94\O,0,65.91,44.,28.06\C,0,65.86,41.36,26.51\C,0,67.17,40.83,27.0
 8\N,0,67.29,40.21,28.25\O,0,68.21,40.93,26.43\H,0,67.11,41.92,24.52\H,
 0,64.82,43.12,25.83\H,0,65.38,40.69,25.8\H,0,65.26,41.42,27.42\H,0,66.
 45,39.95,28.74\H,0,68.15,39.69,28.34\N,0,67.45,44.61,26.61\C,0,68.06,4
 5.55,27.53\C,0,69.29,45.1,28.29\O,0,69.94,45.79,29.07\H,0,67.88,44.34,
 25.74\H,0,67.25,45.84,28.2\H,0,68.2,46.43,26.9\N,0,69.8,43.89,28.\C,0,
 70.88,43.26,28.74\C,0,71.86,42.56,27.81\O,0,71.44,41.71,27.03\C,0,70.3
 ,42.26,29.73\C,0,69.31,42.75,30.76\C,0,69.74,43.02,32.06\C,0,67.97,42.
 99,30.43\C,0,68.87,43.6,32.99\C,0,67.07,43.57,31.34\C,0,67.56,43.96,32
 .6\O,0,66.66,44.38,33.53\H,0,69.4,43.34,27.26\H,0,71.38,44.02,29.35\H,
 0,71.02,41.65,30.29\H,0,69.79,41.49,29.14\H,0,70.68,42.77,32.53\H,0,67
 .55,42.81,29.46\H,0,69.09,43.9,34.\H,0,66.05,43.7,31.02\H,0,65.77,44.2
 3,33.2\N,0,73.17,42.78,27.95\C,0,74.2,42.03,27.26\C,0,74.46,40.79,28.1
 1\O,0,74.46,40.88,29.33\C,0,75.45,42.87,27.01\C,0,75.18,43.82,25.85\C,
 0,76.67,42.,26.75\C,0,76.22,44.93,25.69\H,0,73.51,43.52,28.54\H,0,73.8
 1,41.6,26.34\H,0,75.59,43.58,27.83\H,0,74.19,44.22,26.04\H,0,75.08,43.
 19,24.96\H,0,77.02,41.57,27.69\H,0,76.48,41.18,26.06\H,0,77.47,42.58,2
 6.3\H,0,76.46,45.41,26.64\H,0,77.08,44.49,25.19\H,0,75.83,45.69,25.02\
 N,0,74.61,39.67,27.4\C,0,75.07,38.41,27.94\C,0,76.43,38.03,27.35\O,0,7
 6.78,38.58,26.31\C,0,74.01,37.31,27.95\O,0,73.7,36.98,26.61\H,0,74.44,
 39.72,26.41\H,0,75.31,38.58,28.99\H,0,73.12,37.58,28.51\H,0,74.44,36.4
 9,28.51\H,0,73.19,37.68,26.18\N,0,77.19,37.08,27.9\C,0,78.45,36.66,27.
 33\C,0,78.49,36.01,25.95\O,0,79.44,36.15,25.17\C,0,79.24,35.9,28.4\H,0
 ,76.81,36.45,28.59\H,0,78.94,37.62,27.2\H,0,78.95,36.11,29.43\H,0,79.1
 5,34.84,28.17\H,0,80.27,36.14,28.16\N,0,77.41,35.3,25.63\C,0,77.14,34.
 61,24.39\C,0,76.99,35.6,23.24\O,0,77.37,35.27,22.11\C,0,75.86,33.79,24
 .5\H,0,76.82,35.12,26.44\H,0,77.91,33.84,24.32\H,0,74.95,34.36,24.62\H
 ,0,75.78,33.14,23.63\H,0,75.95,33.16,25.39\N,0,76.51,36.81,23.52\C,0,7
 6.29,37.95,22.65\C,0,77.55,38.81,22.57\O,0,77.95,39.25,21.49\C,0,75.16
 ,38.76,23.28\C,0,73.75,38.19,23.21\C,0,72.81,39.22,23.82\O,0,73.01,39.
 63,24.98\O,0,71.79,39.55,23.17\H,0,76.27,36.88,24.5\H,0,76.06,37.64,21
 .63\H,0,75.18,39.78,22.89\H,0,75.44,38.95,24.32\H,0,73.68,37.22,23.69\
 H,0,73.48,38.09,22.16\N,0,78.21,39.03,23.71\C,0,79.52,39.65,23.83\H,0,
 80.227,39.132,23.182\H,0,79.456,40.697,23.533\H,0,79.86,39.585,24.864\
 H,0,77.82,38.61,24.54\Ca,0,70.5,39.79,25.62\O,0,70.86,39.01,28.1\H,0,7
 0.4,38.17,28.03\H,0,70.91,39.17,29.05\\Version=ES64L-G09RevD.01\State=
 1-A\HF=-5333.5602861\RMSD=4.129e-09\Dipole=6.7392195,-8.7684586,-7.008
 2375\Quadrupole=-144.3046234,-55.4762013,199.7808248,37.2972448,-20.85
 04465,29.7616306\PG=C01 [X(C54H83Ca1N15O23)]\\@


 DESK:  A WASTEBASKET WITH DRAWERS.
 Job cpu time:       0 days 15 hours 27 minutes 58.7 seconds.
 File lengths (MBytes):  RWF=   1513 Int=      0 D2E=      0 Chk=    103 Scr=      1
 Normal termination of Gaussian 09 at Mon Sep 16 14:52:39 2019.
