 Entering Gaussian System, Link 0=g09
 Initial command:
 /home/pcieplak/g09/g09/l1.exe "/scratch1/pcieplak/fullloop_20.0/Gau-13942.inp" -scrdir="/scratch1/pcieplak/fullloop_20.0/"
 Entering Link 1 = /home/pcieplak/g09/g09/l1.exe PID=     13943.
  
 Copyright (c) 1988,1990,1992,1993,1995,1998,2003,2009,2013,
            Gaussian, Inc.  All Rights Reserved.
  
 This is part of the Gaussian(R) 09 program.  It is based on
 the Gaussian(R) 03 system (copyright 2003, Gaussian, Inc.),
 the Gaussian(R) 98 system (copyright 1998, Gaussian, Inc.),
 the Gaussian(R) 94 system (copyright 1995, Gaussian, Inc.),
 the Gaussian 92(TM) system (copyright 1992, Gaussian, Inc.),
 the Gaussian 90(TM) system (copyright 1990, Gaussian, Inc.),
 the Gaussian 88(TM) system (copyright 1988, Gaussian, Inc.),
 the Gaussian 86(TM) system (copyright 1986, Carnegie Mellon
 University), and the Gaussian 82(TM) system (copyright 1983,
 Carnegie Mellon University). Gaussian is a federally registered
 trademark of Gaussian, Inc.
  
 This software contains proprietary and confidential information,
 including trade secrets, belonging to Gaussian, Inc.
  
 This software is provided under written license and may be
 used, copied, transmitted, or stored only in accord with that
 written license.
  
 The following legend is applicable only to US Government
 contracts under FAR:
  
                    RESTRICTED RIGHTS LEGEND
  
 Use, reproduction and disclosure by the US Government is
 subject to restrictions as set forth in subparagraphs (a)
 and (c) of the Commercial Computer Software - Restricted
 Rights clause in FAR 52.227-19.
  
 Gaussian, Inc.
 340 Quinnipiac St., Bldg. 40, Wallingford CT 06492
  
  
 ---------------------------------------------------------------
 Warning -- This program may not be used in any manner that
 competes with the business of Gaussian, Inc. or will provide
 assistance to any competitor of Gaussian, Inc.  The licensee
 of this program is prohibited from giving any competitor of
 Gaussian, Inc. access to this program.  By using this program,
 the user acknowledges that Gaussian, Inc. is engaged in the
 business of creating and licensing software in the field of
 computational chemistry and represents and warrants to the
 licensee that it is not a competitor of Gaussian, Inc. and that
 it will not use this program in any manner prohibited above.
 ---------------------------------------------------------------
  

 Cite this work as:
 Gaussian 09, Revision D.01,
 M. J. Frisch, G. W. Trucks, H. B. Schlegel, G. E. Scuseria, 
 M. A. Robb, J. R. Cheeseman, G. Scalmani, V. Barone, B. Mennucci, 
 G. A. Petersson, H. Nakatsuji, M. Caricato, X. Li, H. P. Hratchian, 
 A. F. Izmaylov, J. Bloino, G. Zheng, J. L. Sonnenberg, M. Hada, 
 M. Ehara, K. Toyota, R. Fukuda, J. Hasegawa, M. Ishida, T. Nakajima, 
 Y. Honda, O. Kitao, H. Nakai, T. Vreven, J. A. Montgomery, Jr., 
 J. E. Peralta, F. Ogliaro, M. Bearpark, J. J. Heyd, E. Brothers, 
 K. N. Kudin, V. N. Staroverov, T. Keith, R. Kobayashi, J. Normand, 
 K. Raghavachari, A. Rendell, J. C. Burant, S. S. Iyengar, J. Tomasi, 
 M. Cossi, N. Rega, J. M. Millam, M. Klene, J. E. Knox, J. B. Cross, 
 V. Bakken, C. Adamo, J. Jaramillo, R. Gomperts, R. E. Stratmann, 
 O. Yazyev, A. J. Austin, R. Cammi, C. Pomelli, J. W. Ochterski, 
 R. L. Martin, K. Morokuma, V. G. Zakrzewski, G. A. Voth, 
 P. Salvador, J. J. Dannenberg, S. Dapprich, A. D. Daniels, 
 O. Farkas, J. B. Foresman, J. V. Ortiz, J. Cioslowski, 
 and D. J. Fox, Gaussian, Inc., Wallingford CT, 2013.
 
 ******************************************
 Gaussian 09:  ES64L-G09RevD.01 24-Apr-2013
                16-Sep-2019 
 ******************************************
 %Nproc=12
 Will use up to   12 processors via shared memory.
 %chk=chk1mol
 %mem=32GB
 ----------------------------------------------------------------------
 #maxdisk=50GB #B3LYP/SVP Density=Current scf=(tight) #IOP(5/87=12)Pop=
 (MK,readradii) iop(6/33=2) iop(6/42=6)
 ----------------------------------------------------------------------
 1/30=1,38=1/1;
 2/12=2,17=6,18=5,40=1/2;
 3/5=18,7=101,11=2,16=1,25=1,30=1,74=-5/1,2,3;
 4//1;
 5/5=2,32=2,38=5,87=12/2;
 6/7=2,8=2,9=2,10=2,15=8,20=101,22=-1,28=1,33=2,42=6/1,2;
 99/5=1,9=1/99;
 ------------
 SOL molecule
 ------------
 Symbolic Z-matrix:
 Charge =  0 Multiplicity = 1
 C                     67.95     46.71     25.54 
 C                     66.75     45.96     26.09 
 O                     66.85     44.89     26.69 
 H                     68.802    46.033    25.473 
 H                     67.715    47.096    24.548 
 H                     68.197    47.539    26.204 
 N                     65.57     46.56     26. 
 C                     64.27     45.99     26.33 
 C                     63.76     45.02     25.27 
 O                     63.08     45.29     24.28 
 C                     63.28     47.15     26.4 
 C                     61.85     46.97     26.9 
 O                     61.65     45.83     27.37 
 O                     60.92     47.79     26.77 
 H                     65.6      47.44     25.52 
 H                     64.24     45.47     27.28 
 H                     63.3      47.7      25.46 
 H                     63.86     47.73     27.11 
 N                     64.11     43.75     25.49 
 C                     64.12     42.73     24.46 
 C                     62.71     42.45     23.96 
 O                     62.56     42.19     22.76 
 C                     64.76     41.48     25.06 
 C                     65.43     40.59     24.01 
 C                     65.76     39.24     24.65 
 C                     66.12     38.31     23.49 
 N                     66.76     37.08     23.97 
 H                     64.45     43.53     26.41 
 H                     64.6      43.08     23.55 
 H                     63.97     40.99     25.63 
 H                     65.5      41.74     25.81 
 H                     66.29     41.11     23.6 
 H                     64.65     40.4      23.27 
 H                     64.96     38.86     25.29 
 H                     66.62     39.43     25.28 
 H                     66.86     38.78     22.85 
 H                     65.25     38.01     22.91 
 H                     66.11     36.58     24.56 
 H                     67.02     36.39     23.28 
 H                     67.53     37.39     24.56 
 N                     61.75     42.45     24.88 
 C                     60.35     42.18     24.61 
 C                     59.55     43.45     24.35 
 O                     58.49     43.42     23.72 
 C                     59.7      41.34     25.7 
 C                     59.7      41.88     27.12 
 O                     59.18     41.19     28.02 
 O                     60.29     42.95     27.38 
 H                     61.98     42.65     25.85 
 H                     60.25     41.6      23.69 
 H                     60.21     40.37     25.66 
 H                     58.69     41.18     25.32 
 N                     60.1      44.57     24.8 
 C                     59.63     45.91     24.53 
 C                     58.44     46.15     25.44 
 O                     57.44     46.75     25.04 
 H                     60.97     44.45     25.31 
 H                     59.4      45.95     23.47 
 H                     60.42     46.65     24.7 
 N                     58.48     45.68     26.69 
 C                     57.43     45.99     27.63 
 C                     57.59     47.35     28.29 
 O                     56.71     47.82     29.01 
 C                     57.31     44.78     28.55 
 C                     58.27     44.94     29.72 
 N                     57.9      44.65     30.97 
 O                     59.4      45.39     29.52 
 H                     59.29     45.13     26.97 
 H                     56.46     45.93     27.12 
 H                     57.55     43.85     28.05 
 H                     56.27     44.58     28.82 
 H                     57.07     44.13     31.22 
 H                     58.49     44.96     31.73 
 N                     58.6      48.15     27.93 
 C                     58.79     49.46     28.52 
 C                     59.83     49.52     29.62 
 O                     60.1      50.5      30.32 
 H                     59.22     47.81     27.2 
 H                     57.91     49.77     29.08 
 H                     59.26     50.09     27.77 
 N                     60.6      48.45     29.82 
 C                     61.51     48.35     30.95 
 C                     62.74     47.49     30.64 
 O                     62.55     46.43     30.05 
 C                     60.74     47.79     32.14 
 C                     59.62     48.66     32.68 
 C                     59.78     49.67     33.63 
 C                     58.33     48.36     32.24 
 C                     58.68     50.39     34.12 
 C                     57.24     49.13     32.67 
 C                     57.4      50.2      33.57 
 O                     56.3      50.91     33.98 
 H                     60.65     47.8      29.05 
 H                     61.98     49.31     31.13 
 H                     61.51     47.82     32.91 
 H                     60.31     46.82     31.88 
 H                     60.77     49.88     34.01 
 H                     58.15     47.58     31.51 
 H                     58.87     51.17     34.84 
 H                     56.27     49.08     32.19 
 H                     55.52     50.54     33.56 
 N                     63.92     47.77     31.18 
 C                     65.12     47.       30.96 
 C                     65.42     46.26     32.26 
 O                     65.6      46.91     33.29 
 C                     66.32     47.9      30.65 
 C                     65.98     48.82     29.48 
 C                     67.55     47.02     30.46 
 C                     67.21     49.66     29.17 
 H                     63.88     48.59     31.77 
 H                     64.99     46.35     30.1 
 H                     66.49     48.51     31.54 
 H                     65.21     49.54     29.76 
 H                     65.58     48.23     28.65 
 H                     67.53     46.1      31.05 
 H                     67.52     46.71     29.42 
 H                     68.47     47.55     30.7 
 H                     68.02     49.01     28.84 
 H                     66.95     50.34     28.36 
 H                     67.41     50.14     30.13 
 N                     65.38     44.93     32.2 
 C                     65.58     44.09     33.36 
 C                     66.94     43.41     33.34 
 O                     67.57     43.23     32.3 
 C                     64.44     43.09     33.52 
 O                     64.37     42.21     32.43 
 H                     65.19     44.59     31.26 
 H                     65.44     44.79     34.19 
 H                     63.51     43.67     33.51 
 H                     64.5      42.57     34.48 
 H                     64.19     42.7      31.62 
 N                     67.41     42.88     34.47 
 C                     68.79     42.46     34.59 
 C                     69.11     41.32     33.63 
 O                     70.23     41.14     33.17 
 C                     68.96     42.13     36.07 
 H                     66.8      42.94     35.28 
 H                     69.46     43.29     34.39 
 H                     68.61     41.13     36.31 
 H                     70.04     42.08     36.16 
 H                     68.46     42.84     36.73 
 N                     68.08     40.53     33.3 
 C                     68.26     39.36     32.46 
 C                     68.41     39.73     31. 
 O                     69.12     39.09     30.22 
 C                     67.07     38.44     32.75 
 H                     67.18     40.8      33.65 
 H                     69.21     38.91     32.75 
 H                     66.09     38.87     32.55 
 H                     67.17     37.46     32.29 
 H                     67.11     38.26     33.83 
 N                     67.87     40.89     30.62 
 C                     67.98     41.39     29.27 
 C                     69.29     42.15     29.12 
 O                     69.86     42.12     28.03 
 C                     66.8      42.32     29.02 
 C                     65.39     41.73     28.98 
 C                     64.31     42.8      28.98 
 O                     63.47     42.65     28.07 
 O                     64.15     43.58     29.94 
 H                     67.41     41.47     31.32 
 H                     67.89     40.58     28.55 
 H                     66.91     42.73     28.01 
 H                     66.79     43.       29.87 
 H                     65.28     41.09     29.86 
 H                     65.4      41.12     28.08 
 N                     69.75     42.92     30.11 
 C                     70.98     43.67     30. 
 H                     71.761    43.028    29.592 
 H                     70.828    44.523    29.338 
 H                     71.28     44.023    30.986 
 H                     69.28     42.72     30.99 
 CA                    61.66     44.18     29.25 
 O                     61.55     43.97     31.83 
 H                     61.02     43.23     32.11 
 H                     61.62     44.53     32.61 
 
 Stoichiometry    C54H83CaN15O23
 Framework group  C1[X(C54H83CaN15O23)]
 Deg. of freedom   522
 Full point group                 C1      NOp   1
 Largest Abelian subgroup         C1      NOp   1
 Largest concise Abelian subgroup C1      NOp   1
                         Standard orientation:                         
 ---------------------------------------------------------------------
 Center     Atomic      Atomic             Coordinates (Angstroms)
 Number     Number       Type             X           Y           Z
 ---------------------------------------------------------------------
      1          6           0        2.335672    1.530900    5.501521
      2          6           0        1.790800    1.544909    4.084510
      3          8           0        2.510775    1.437233    3.092068
      4          1           0        3.406503    1.734912    5.480980
      5          1           0        1.832336    2.295847    6.092956
      6          1           0        2.161660    0.551793    5.948975
      7          7           0        0.471466    1.566446    3.945252
      8          6           0       -0.275953    1.718552    2.703467
      9          6           0       -0.285378    3.153191    2.187404
     10          8           0       -1.098241    4.036561    2.460007
     11          6           0       -1.722196    1.333128    3.004182
     12          6           0       -2.771594    1.191808    1.905960
     13          8           0       -2.277785    1.278082    0.761753
     14          8           0       -4.004341    1.117157    2.076137
     15          1           0       -0.025433    1.624817    4.814380
     16          1           0        0.073742    1.089795    1.893419
     17          1           0       -2.095426    1.942067    3.826613
     18          1           0       -1.478899    0.362673    3.423615
     19          7           0        0.713661    3.428365    1.344790
     20          6           0        1.169137    4.772917    1.051327
     21          6           0        0.090803    5.564767    0.325606
     22          8           0       -0.014026    6.770967    0.578968
     23          6           0        2.437810    4.652873    0.209805
     24          6           0        3.373321    5.854528    0.365839
     25          6           0        4.440553    5.790424   -0.728650
     26          6           0        5.127358    7.157263   -0.716351
     27          7           0        6.373307    7.136268   -1.490993
     28          1           0        1.208207    2.641777    0.961248
     29          1           0        1.291451    5.363901    1.955085
     30          1           0        2.097781    4.474495   -0.810813
     31          1           0        2.991366    3.753954    0.461244
     32          1           0        3.771666    5.865939    1.375438
     33          1           0        2.749580    6.721829    0.140370
     34          1           0        4.039852    5.505244   -1.704412
     35          1           0        5.120262    5.008617   -0.413413
     36          1           0        5.429371    7.414682    0.293908
     37          1           0        4.503538    7.941732   -1.139149
     38          1           0        6.157765    6.921527   -2.454335
     39          1           0        6.893924    7.998831   -1.559860
     40          1           0        6.909085    6.354854   -1.117585
     41          7           0       -0.620632    4.896747   -0.577504
     42          6           0       -1.673093    5.477018   -1.390777
     43          6           0       -3.052532    5.310375   -0.766376
     44          8           0       -3.985757    6.057916   -1.069154
     45          6           0       -1.655641    4.956401   -2.820760
     46          6           0       -1.805267    3.461054   -3.043357
     47          8           0       -1.778818    3.026999   -4.212714
     48          8           0       -1.862452    2.687685   -2.063953
     49          1           0       -0.439449    3.908388   -0.732808
     50          1           0       -1.535783    6.557788   -1.467470
     51          1           0       -0.710309    5.313489   -3.246715
     52          1           0       -2.452100    5.526273   -3.301384
     53          7           0       -3.151205    4.352653    0.146001
     54          6           0       -4.293322    4.112480    0.998812
     55          6           0       -5.327474    3.390693    0.155394
     56          8           0       -6.527103    3.660516    0.245318
     57          1           0       -2.308028    3.805631    0.291669
     58          1           0       -4.612795    5.081476    1.369060
     59          1           0       -4.014342    3.524665    1.880427
     60          7           0       -4.916303    2.461376   -0.711963
     61          6           0       -5.868082    1.660980   -1.443867
     62          6           0       -6.401407    0.478501   -0.651333
     63          8           0       -7.319105   -0.219118   -1.081285
     64          6           0       -5.224835    1.360806   -2.793322
     65          6           0       -4.391553    0.092141   -2.682739
     66          7           0       -4.420337   -0.845823   -3.632948
     67          8           0       -3.708730   -0.098860   -1.674438
     68          1           0       -3.914496    2.308827   -0.812521
     69          1           0       -6.697911    2.299085   -1.773724
     70          1           0       -4.572703    2.156488   -3.131132
     71          1           0       -5.960124    1.370569   -3.601873
     72          1           0       -4.809517   -0.718918   -4.557197
     73          1           0       -4.018203   -1.750254   -3.427785
     74          7           0       -6.023496    0.304386    0.620110
     75          6           0       -6.511752   -0.799496    1.422201
     76          6           0       -5.564633   -1.976837    1.531903
     77          8           0       -5.797191   -3.054723    2.086320
     78          1           0       -5.394333    0.998871    1.013484
     79          1           0       -7.359159   -1.287355    0.944713
     80          1           0       -6.532760   -0.466603    2.456146
     81          7           0       -4.324036   -1.834902    1.064386
     82          6           0       -3.396453   -2.951478    0.975780
     83          6           0       -1.935009   -2.514967    1.124908
     84          8           0       -1.581472   -1.515141    0.505911
     85          6           0       -3.620309   -3.658717   -0.355498
     86          6           0       -4.972232   -4.322969   -0.539817
     87          6           0       -5.288081   -5.619256   -0.129843
     88          6           0       -5.933437   -3.595879   -1.243468
     89          6           0       -6.547421   -6.179570   -0.391782
     90          6           0       -7.217329   -4.124933   -1.437437
     91          6           0       -7.570488   -5.401455   -0.961756
     92          8           0       -8.832403   -5.886024   -1.196199
     93          1           0       -4.008600   -0.883460    0.949677
     94          1           0       -3.502705   -3.588083    1.846610
     95          1           0       -2.915727   -4.484650   -0.265504
     96          1           0       -3.483174   -2.952833   -1.177886
     97          1           0       -4.535295   -6.206706    0.376928
     98          1           0       -5.736356   -2.588942   -1.591226
     99          1           0       -6.737132   -7.179176   -0.034435
    100          1           0       -8.049559   -3.517834   -1.773028
    101          1           0       -9.327289   -5.230132   -1.692781
    102          7           0       -1.045084   -3.305430    1.712788
    103          6           0        0.351727   -2.982061    1.872948
    104          6           0        1.130857   -3.885764    0.922224
    105          8           0        1.033696   -5.107027    1.044193
    106          6           0        0.839660   -3.273250    3.295350
    107          6           0       -0.056985   -2.554322    4.300373
    108          6           0        2.323828   -2.935789    3.377599
    109          6           0        0.488375   -2.825387    5.694542
    110          1           0       -1.461683   -4.168186    2.035585
    111          1           0        0.507636   -1.920992    1.703163
    112          1           0        0.741752   -4.350978    3.443726
    113          1           0       -1.061191   -2.980073    4.302630
    114          1           0       -0.156272   -1.501426    4.020099
    115          1           0        2.861598   -3.077553    2.436532
    116          1           0        2.362249   -1.871340    3.587532
    117          1           0        2.831683   -3.519845    4.143015
    118          1           0        1.483342   -2.390497    5.786258
    119          1           0       -0.176182   -2.341618    6.408986
    120          1           0        0.492583   -3.916491    5.732948
    121          7           0        1.808126   -3.272038   -0.046666
    122          6           0        2.543558   -3.992686   -1.062051
    123          6           0        4.045618   -3.911596   -0.839253
    124          8           0        4.566065   -3.007940   -0.188529
    125          6           0        2.144768   -3.535357   -2.460985
    126          8           0        2.451910   -2.182457   -2.667687
    127          1           0        1.738831   -2.258717    0.013992
    128          1           0        2.131868   -5.004078   -0.983964
    129          1           0        1.053296   -3.617488   -2.518810
    130          1           0        2.570742   -4.187609   -3.228261
    131          1           0        1.956657   -1.632537   -2.050506
    132          7           0        4.836863   -4.778073   -1.473169
    133          6           0        6.229483   -4.933702   -1.110419
    134          6           0        7.015903   -3.651947   -1.359917
    135          8           0        8.003967   -3.346469   -0.705079
    136          6           0        6.696852   -6.148103   -1.907285
    137          1           0        4.374913   -5.429215   -2.101194
    138          1           0        6.322752   -5.208510   -0.064674
    139          1           0        6.966849   -5.890054   -2.927389
    140          1           0        7.636158   -6.382397   -1.417580
    141          1           0        5.961715   -6.953353   -1.936378
    142          7           0        6.547182   -2.861362   -2.334173
    143          6           0        7.244606   -1.651864   -2.731180
    144          6           0        7.025348   -0.523734   -1.746169
    145          8           0        7.886479    0.325809   -1.503619
    146          6           0        6.773824   -1.336072   -4.154289
    147          1           0        5.683695   -3.141436   -2.760023
    148          1           0        8.310629   -1.877613   -2.689549
    149          1           0        5.702444   -1.177680   -4.265451
    150          1           0        7.339774   -0.532741   -4.619435
    151          1           0        7.011798   -2.233980   -4.735261
    152          7           0        5.910724   -0.579246   -1.013959
    153          6           0        5.598904    0.402816   -0.002563
    154          6           0        6.270221    0.008952    1.305262
    155          8           0        6.654670    0.904612    2.056189
    156          6           0        4.085813    0.430165    0.169506
    157          6           0        3.220324    0.939444   -0.983475
    158          6           0        1.740328    0.668663   -0.765329
    159          8           0        1.027919    1.681127   -0.918924
    160          8           0        1.281740   -0.489115   -0.695709
    161          1           0        5.283082   -1.372644   -1.134728
    162          1           0        5.888430    1.398745   -0.329520
    163          1           0        3.856340    1.145462    0.966997
    164          1           0        3.795635   -0.611812    0.292309
    165          1           0        3.560797    0.436200   -1.892828
    166          1           0        3.467804    1.997025   -1.033248
    167          7           0        6.338629   -1.271726    1.679137
    168          6           0        6.952398   -1.684288    2.920339
    169          1           0        7.911031   -1.178247    3.036680
    170          1           0        6.299689   -1.422410    3.753614
    171          1           0        7.111280   -2.761960    2.906777
    172          1           0        6.140863   -1.899916    0.903530
    173         20           0       -1.193120    0.281043   -1.259735
    174          8           0       -0.915123   -1.922302   -2.594121
    175          1           0       -0.931818   -1.779166   -3.535468
    176          1           0       -1.080687   -2.864630   -2.486846
 ---------------------------------------------------------------------
 Rotational constants (GHZ):      0.0232145      0.0156793      0.0118802
 Standard basis: SVP (5D, 7F)
 There are  1809 symmetry adapted cartesian basis functions of A   symmetry.
 There are  1717 symmetry adapted basis functions of A   symmetry.
  1717 basis functions,  2922 primitive gaussians,  1809 cartesian basis functions
   358 alpha electrons      358 beta electrons
       nuclear repulsion energy     21861.8819045790 Hartrees.
 NAtoms=  176 NActive=  176 NUniq=  176 SFac= 1.00D+00 NAtFMM=   60 NAOKFM=T Big=T
 Integral buffers will be    131072 words long.
 Raffenetti 2 integral format.
 Two-electron integral symmetry is turned on.
 One-electron integrals computed using PRISM.
 NBasis=  1717 RedAO= T EigKep=  2.74D-04  NBF=  1717
 NBsUse=  1717 1.00D-06 EigRej= -1.00D+00 NBFU=  1717
 ExpMin= 1.98D-02 ExpMax= 3.51D+04 ExpMxC= 5.28D+03 IAcc=3 IRadAn=         5 AccDes= 0.00D+00
 Harris functional with IExCor=  402 and IRadAn=       5 diagonalized for initial guess.
 HarFok:  IExCor=  402 AccDes= 0.00D+00 IRadAn=         5 IDoV= 1 UseB2=F ITyADJ=14
 ICtDFT=  3500011 ScaDFX=  1.000000  1.000000  1.000000  1.000000
 FoFCou: FMM=F IPFlag=           0 FMFlag=      100000 FMFlg1=        2001
         NFxFlg=           0 DoJE=T BraDBF=F KetDBF=T FulRan=T
         wScrn=  0.000000 ICntrl=     500 IOpCl=  0 I1Cent=   200000004 NGrid=           0
         NMat0=    1 NMatS0=      1 NMatT0=    0 NMatD0=    1 NMtDS0=    0 NMtDT0=    0
 Petite list used in FoFCou.
 Requested convergence on RMS density matrix=1.00D-08 within 128 cycles.
 Requested convergence on MAX density matrix=1.00D-06.
 Requested convergence on             energy=1.00D-06.
 No special actions if energy rises.
 EnCoef did     4 forward-backward iterations
 SCF Done:  E(RB3LYP) =  -5333.58138901     A.U. after   19 cycles
            NFock= 19  Conv=0.25D-08     -V/T= 2.0081

 **********************************************************************

            Population analysis using the SCF density.

 **********************************************************************

 Orbital symmetries:
 BldTbl:  Degeneracy threshold= 1.00D-02
       Occupied  (A) (A) (A) (A) (A) (A) (A) (A) (A) (A) (A) (A)
                 (A) (A) (A) (A) (A) (A) (A) (A) (A) (A) (A) (A)
                 (A) (A) (A) (A) (A) (A) (A) (A) (A) (A) (A) (A)
                 (A) (A) (A) (A) (A) (A) (A) (A) (A) (A) (A) (A)
                 (A) (A) (A) (A) (A) (A) (A) (A) (A) (A) (A) (A)
                 (A) (A) (A) (A) (A) (A) (A) (A) (A) (A) (A) (A)
                 (A) (A) (A) (A) (A) (A) (A) (A) (A) (A) (A) (A)
                 (A) (A) (A) (A) (A) (A) (A) (A) (A) (A) (A) (A)
                 (A) (A) (A) (A) (A) (A) (A) (A) (A) (A) (A) (A)
                 (A) (A) (A) (A) (A) (A) (A) (A) (A) (A) (A) (A)
                 (A) (A) (A) (A) (A) (A) (A) (A) (A) (A) (A) (A)
                 (A) (A) (A) (A) (A) (A) (A) (A) (A) (A) (A) (A)
                 (A) (A) (A) (A) (A) (A) (A) (A) (A) (A) (A) (A)
                 (A) (A) (A) (A) (A) (A) (A) (A) (A) (A) (A) (A)
                 (A) (A) (A) (A) (A) (A) (A) (A) (A) (A) (A) (A)
                 (A) (A) (A) (A) (A) (A) (A) (A) (A) (A) (A) (A)
                 (A) (A) (A) (A) (A) (A) (A) (A) (A) (A) (A) (A)
                 (A) (A) (A) (A) (A) (A) (A) (A) (A) (A) (A) (A)
                 (A) (A) (A) (A) (A) (A) (A) (A) (A) (A) (A) (A)
                 (A) (A) (A) (A) (A) (A) (A) (A) (A) (A) (A) (A)
                 (A) (A) (A) (A) (A) (A) (A) (A) (A) (A) (A) (A)
                 (A) (A) (A) (A) (A) (A) (A) (A) (A) (A) (A) (A)
                 (A) (A) (A) (A) (A) (A) (A) (A) (A) (A) (A) (A)
                 (A) (A) (A) (A) (A) (A) (A) (A) (A) (A) (A) (A)
                 (A) (A) (A) (A) (A) (A) (A) (A) (A) (A) (A) (A)
                 (A) (A) (A) (A) (A) (A) (A) (A) (A) (A) (A) (A)
                 (A) (A) (A) (A) (A) (A) (A) (A) (A) (A) (A) (A)
                 (A) (A) (A) (A) (A) (A) (A) (A) (A) (A) (A) (A)
                 (A) (A) (A) (A) (A) (A) (A) (A) (A) (A) (A) (A)
                 (A) (A) (A) (A) (A) (A) (A) (A) (A) (A)
       Virtual   (A) (A) (A) (A) (A) (A) (A) (A) (A) (A) (A) (A)
                 (A) (A) (A) (A) (A) (A) (A) (A) (A) (A) (A) (A)
                 (A) (A) (A) (A) (A) (A) (A) (A) (A) (A) (A) (A)
                 (A) (A) (A) (A) (A) (A) (A) (A) (A) (A) (A) (A)
                 (A) (A) (A) (A) (A) (A) (A) (A) (A) (A) (A) (A)
                 (A) (A) (A) (A) (A) (A) (A) (A) (A) (A) (A) (A)
                 (A) (A) (A) (A) (A) (A) (A) (A) (A) (A) (A) (A)
                 (A) (A) (A) (A) (A) (A) (A) (A) (A) (A) (A) (A)
                 (A) (A) (A) (A) (A) (A) (A) (A) (A) (A) (A) (A)
                 (A) (A) (A) (A) (A) (A) (A) (A) (A) (A) (A) (A)
                 (A) (A) (A) (A) (A) (A) (A) (A) (A) (A) (A) (A)
                 (A) (A) (A) (A) (A) (A) (A) (A) (A) (A) (A) (A)
                 (A) (A) (A) (A) (A) (A) (A) (A) (A) (A) (A) (A)
                 (A) (A) (A) (A) (A) (A) (A) (A) (A) (A) (A) (A)
                 (A) (A) (A) (A) (A) (A) (A) (A) (A) (A) (A) (A)
                 (A) (A) (A) (A) (A) (A) (A) (A) (A) (A) (A) (A)
                 (A) (A) (A) (A) (A) (A) (A) (A) (A) (A) (A) (A)
                 (A) (A) (A) (A) (A) (A) (A) (A) (A) (A) (A) (A)
                 (A) (A) (A) (A) (A) (A) (A) (A) (A) (A) (A) (A)
                 (A) (A) (A) (A) (A) (A) (A) (A) (A) (A) (A) (A)
                 (A) (A) (A) (A) (A) (A) (A) (A) (A) (A) (A) (A)
                 (A) (A) (A) (A) (A) (A) (A) (A) (A) (A) (A) (A)
                 (A) (A) (A) (A) (A) (A) (A) (A) (A) (A) (A) (A)
                 (A) (A) (A) (A) (A) (A) (A) (A) (A) (A) (A) (A)
                 (A) (A) (A) (A) (A) (A) (A) (A) (A) (A) (A) (A)
                 (A) (A) (A) (A) (A) (A) (A) (A) (A) (A) (A) (A)
                 (A) (A) (A) (A) (A) (A) (A) (A) (A) (A) (A) (A)
                 (A) (A) (A) (A) (A) (A) (A) (A) (A) (A) (A) (A)
                 (A) (A) (A) (A) (A) (A) (A) (A) (A) (A) (A) (A)
                 (A) (A) (A) (A) (A) (A) (A) (A) (A) (A) (A) (A)
                 (A) (A) (A) (A) (A) (A) (A) (A) (A) (A) (A) (A)
                 (A) (A) (A) (A) (A) (A) (A) (A) (A) (A) (A) (A)
                 (A) (A) (A) (A) (A) (A) (A) (A) (A) (A) (A) (A)
                 (A) (A) (A) (A) (A) (A) (A) (A) (A) (A) (A) (A)
                 (A) (A) (A) (A) (A) (A) (A) (A) (A) (A) (A) (A)
                 (A) (A) (A) (A) (A) (A) (A) (A) (A) (A) (A) (A)
                 (A) (A) (A) (A) (A) (A) (A) (A) (A) (A) (A) (A)
                 (A) (A) (A) (A) (A) (A) (A) (A) (A) (A) (A) (A)
                 (A) (A) (A) (A) (A) (A) (A) (A) (A) (A) (A) (A)
                 (A) (A) (A) (A) (A) (A) (A) (A) (A) (A) (A) (A)
                 (A) (A) (A) (A) (A) (A) (A) (A) (A) (A) (A) (A)
                 (A) (A) (A) (A) (A) (A) (A) (A) (A) (A) (A) (A)
                 (A) (A) (A) (A) (A) (A) (A) (A) (A) (A) (A) (A)
                 (A) (A) (A) (A) (A) (A) (A) (A) (A) (A) (A) (A)
                 (A) (A) (A) (A) (A) (A) (A) (A) (A) (A) (A) (A)
                 (A) (A) (A) (A) (A) (A) (A) (A) (A) (A) (A) (A)
                 (A) (A) (A) (A) (A) (A) (A) (A) (A) (A) (A) (A)
                 (A) (A) (A) (A) (A) (A) (A) (A) (A) (A) (A) (A)
                 (A) (A) (A) (A) (A) (A) (A) (A) (A) (A) (A) (A)
                 (A) (A) (A) (A) (A) (A) (A) (A) (A) (A) (A) (A)
                 (A) (A) (A) (A) (A) (A) (A) (A) (A) (A) (A) (A)
                 (A) (A) (A) (A) (A) (A) (A) (A) (A) (A) (A) (A)
                 (A) (A) (A) (A) (A) (A) (A) (A) (A) (A) (A) (A)
                 (A) (A) (A) (A) (A) (A) (A) (A) (A) (A) (A) (A)
                 (A) (A) (A) (A) (A) (A) (A) (A) (A) (A) (A) (A)
                 (A) (A) (A) (A) (A) (A) (A) (A) (A) (A) (A) (A)
                 (A) (A) (A) (A) (A) (A) (A) (A) (A) (A) (A) (A)
                 (A) (A) (A) (A) (A) (A) (A) (A) (A) (A) (A) (A)
                 (A) (A) (A) (A) (A) (A) (A) (A) (A) (A) (A) (A)
                 (A) (A) (A) (A) (A) (A) (A) (A) (A) (A) (A) (A)
                 (A) (A) (A) (A) (A) (A) (A) (A) (A) (A) (A) (A)
                 (A) (A) (A) (A) (A) (A) (A) (A) (A) (A) (A) (A)
                 (A) (A) (A) (A) (A) (A) (A) (A) (A) (A) (A) (A)
                 (A) (A) (A) (A) (A) (A) (A) (A) (A) (A) (A) (A)
                 (A) (A) (A) (A) (A) (A) (A) (A) (A) (A) (A) (A)
                 (A) (A) (A) (A) (A) (A) (A) (A) (A) (A) (A) (A)
                 (A) (A) (A) (A) (A) (A) (A) (A) (A) (A) (A) (A)
                 (A) (A) (A) (A) (A) (A) (A) (A) (A) (A) (A) (A)
                 (A) (A) (A) (A) (A) (A) (A) (A) (A) (A) (A) (A)
                 (A) (A) (A) (A) (A) (A) (A) (A) (A) (A) (A) (A)
                 (A) (A) (A) (A) (A) (A) (A) (A) (A) (A) (A) (A)
                 (A) (A) (A) (A) (A) (A) (A) (A) (A) (A) (A) (A)
                 (A) (A) (A) (A) (A) (A) (A) (A) (A) (A) (A) (A)
                 (A) (A) (A) (A) (A) (A) (A) (A) (A) (A) (A) (A)
                 (A) (A) (A) (A) (A) (A) (A) (A) (A) (A) (A) (A)
                 (A) (A) (A) (A) (A) (A) (A) (A) (A) (A) (A) (A)
                 (A) (A) (A) (A) (A) (A) (A) (A) (A) (A) (A) (A)
                 (A) (A) (A) (A) (A) (A) (A) (A) (A) (A) (A) (A)
                 (A) (A) (A) (A) (A) (A) (A) (A) (A) (A) (A) (A)
                 (A) (A) (A) (A) (A) (A) (A) (A) (A) (A) (A) (A)
                 (A) (A) (A) (A) (A) (A) (A) (A) (A) (A) (A) (A)
                 (A) (A) (A) (A) (A) (A) (A) (A) (A) (A) (A) (A)
                 (A) (A) (A) (A) (A) (A) (A) (A) (A) (A) (A) (A)
                 (A) (A) (A) (A) (A) (A) (A) (A) (A) (A) (A) (A)
                 (A) (A) (A) (A) (A) (A) (A) (A) (A) (A) (A) (A)
                 (A) (A) (A) (A) (A) (A) (A) (A) (A) (A) (A) (A)
                 (A) (A) (A) (A) (A) (A) (A) (A) (A) (A) (A) (A)
                 (A) (A) (A) (A) (A) (A) (A) (A) (A) (A) (A) (A)
                 (A) (A) (A) (A) (A) (A) (A) (A) (A) (A) (A) (A)
                 (A) (A) (A) (A) (A) (A) (A) (A) (A) (A) (A) (A)
                 (A) (A) (A) (A) (A) (A) (A) (A) (A) (A) (A) (A)
                 (A) (A) (A) (A) (A) (A) (A) (A) (A) (A) (A) (A)
                 (A) (A) (A) (A) (A) (A) (A) (A) (A) (A) (A) (A)
                 (A) (A) (A) (A) (A) (A) (A) (A) (A) (A) (A) (A)
                 (A) (A) (A) (A) (A) (A) (A) (A) (A) (A) (A) (A)
                 (A) (A) (A) (A) (A) (A) (A) (A) (A) (A) (A) (A)
                 (A) (A) (A) (A) (A) (A) (A) (A) (A) (A) (A) (A)
                 (A) (A) (A) (A) (A) (A) (A) (A) (A) (A) (A) (A)
                 (A) (A) (A) (A) (A) (A) (A) (A) (A) (A) (A) (A)
                 (A) (A) (A) (A) (A) (A) (A) (A) (A) (A) (A) (A)
                 (A) (A) (A) (A) (A) (A) (A) (A) (A) (A) (A) (A)
                 (A) (A) (A) (A) (A) (A) (A) (A) (A) (A) (A) (A)
                 (A) (A) (A) (A) (A) (A) (A) (A) (A) (A) (A) (A)
                 (A) (A) (A) (A) (A) (A) (A) (A) (A) (A) (A) (A)
                 (A) (A) (A) (A) (A) (A) (A) (A) (A) (A) (A) (A)
                 (A) (A) (A) (A) (A) (A) (A) (A) (A) (A) (A) (A)
                 (A) (A) (A) (A) (A) (A) (A) (A) (A) (A) (A) (A)
                 (A) (A) (A) (A) (A) (A) (A) (A) (A) (A) (A) (A)
                 (A) (A) (A) (A) (A) (A) (A) (A) (A) (A) (A) (A)
                 (A) (A) (A) (A) (A) (A) (A) (A) (A) (A) (A) (A)
                 (A) (A) (A) (A) (A) (A) (A) (A) (A) (A) (A) (A)
                 (A) (A) (A) (A) (A) (A) (A) (A) (A) (A) (A) (A)
                 (A) (A) (A) (A) (A) (A) (A) (A) (A) (A) (A) (A)
                 (A) (A) (A)
 The electronic state is 1-A.
 Alpha  occ. eigenvalues -- -145.37296 -19.21688 -19.14777 -19.14580 -19.14383
 Alpha  occ. eigenvalues --  -19.11938 -19.11865 -19.11667 -19.11458 -19.10916
 Alpha  occ. eigenvalues --  -19.10058 -19.08992 -19.08795 -19.07989 -19.06620
 Alpha  occ. eigenvalues --  -19.06429 -19.04959 -19.04948 -19.04696 -19.04458
 Alpha  occ. eigenvalues --  -19.04167 -19.03346 -19.02818 -19.01323 -15.43062
 Alpha  occ. eigenvalues --  -14.58675 -14.39981 -14.37697 -14.37185 -14.37023
 Alpha  occ. eigenvalues --  -14.36655 -14.35490 -14.34359 -14.32818 -14.32748
 Alpha  occ. eigenvalues --  -14.31904 -14.30963 -14.29135 -14.29109 -14.28822
 Alpha  occ. eigenvalues --  -12.56679 -12.56637 -12.56615 -10.35157 -10.32495
 Alpha  occ. eigenvalues --  -10.30461 -10.30138 -10.30097 -10.29462 -10.29216
 Alpha  occ. eigenvalues --  -10.28106 -10.27603 -10.27488 -10.27355 -10.26591
 Alpha  occ. eigenvalues --  -10.26187 -10.25968 -10.25241 -10.25186 -10.24720
 Alpha  occ. eigenvalues --  -10.24459 -10.23883 -10.23845 -10.23456 -10.23424
 Alpha  occ. eigenvalues --  -10.23164 -10.22603 -10.22274 -10.22266 -10.22147
 Alpha  occ. eigenvalues --  -10.21900 -10.21867 -10.21852 -10.21794 -10.20890
 Alpha  occ. eigenvalues --  -10.20708 -10.20497 -10.19937 -10.19484 -10.19351
 Alpha  occ. eigenvalues --  -10.19318 -10.18503 -10.18426 -10.18401 -10.18368
 Alpha  occ. eigenvalues --  -10.18328 -10.17894 -10.17849 -10.17739 -10.17543
 Alpha  occ. eigenvalues --  -10.17431 -10.17064 -10.16998 -10.16765 -10.16508
 Alpha  occ. eigenvalues --  -10.16505 -10.14597  -1.80033  -1.14114  -1.08397
 Alpha  occ. eigenvalues --   -1.08037  -1.07987  -1.07591  -1.06717  -1.05605
 Alpha  occ. eigenvalues --   -1.05258  -1.04636  -1.04429  -1.03949  -1.03256
 Alpha  occ. eigenvalues --   -1.02984  -1.02323  -1.01852  -1.00975  -0.99674
 Alpha  occ. eigenvalues --   -0.99582  -0.98936  -0.98829  -0.97947  -0.97623
 Alpha  occ. eigenvalues --   -0.96921  -0.96535  -0.95991  -0.95627  -0.94400
 Alpha  occ. eigenvalues --   -0.94181  -0.93744  -0.92024  -0.91493  -0.91384
 Alpha  occ. eigenvalues --   -0.90632  -0.89716  -0.89100  -0.88729  -0.88656
 Alpha  occ. eigenvalues --   -0.88167  -0.87101  -0.86989  -0.85824  -0.85145
 Alpha  occ. eigenvalues --   -0.83094  -0.82920  -0.82199  -0.81565  -0.79565
 Alpha  occ. eigenvalues --   -0.78682  -0.78100  -0.77819  -0.77560  -0.75871
 Alpha  occ. eigenvalues --   -0.75664  -0.75075  -0.74274  -0.73482  -0.72608
 Alpha  occ. eigenvalues --   -0.72514  -0.72417  -0.72102  -0.72022  -0.70614
 Alpha  occ. eigenvalues --   -0.69721  -0.69244  -0.68566  -0.68215  -0.67933
 Alpha  occ. eigenvalues --   -0.67782  -0.66292  -0.64916  -0.64534  -0.64331
 Alpha  occ. eigenvalues --   -0.64219  -0.63638  -0.62696  -0.61332  -0.61110
 Alpha  occ. eigenvalues --   -0.60898  -0.60765  -0.60506  -0.60424  -0.60222
 Alpha  occ. eigenvalues --   -0.59996  -0.59691  -0.59251  -0.58876  -0.58312
 Alpha  occ. eigenvalues --   -0.57432  -0.57165  -0.57071  -0.56321  -0.56083
 Alpha  occ. eigenvalues --   -0.55881  -0.55863  -0.55614  -0.55036  -0.54584
 Alpha  occ. eigenvalues --   -0.54199  -0.54073  -0.53554  -0.53476  -0.53164
 Alpha  occ. eigenvalues --   -0.52894  -0.52595  -0.52200  -0.52008  -0.51721
 Alpha  occ. eigenvalues --   -0.51577  -0.51212  -0.50611  -0.50408  -0.50095
 Alpha  occ. eigenvalues --   -0.49807  -0.49697  -0.49449  -0.49275  -0.49163
 Alpha  occ. eigenvalues --   -0.48917  -0.48627  -0.48395  -0.48366  -0.48092
 Alpha  occ. eigenvalues --   -0.48014  -0.47889  -0.47610  -0.47390  -0.47061
 Alpha  occ. eigenvalues --   -0.46752  -0.46456  -0.46349  -0.46218  -0.46072
 Alpha  occ. eigenvalues --   -0.45984  -0.45923  -0.45241  -0.45188  -0.44841
 Alpha  occ. eigenvalues --   -0.44777  -0.44657  -0.44340  -0.44230  -0.44044
 Alpha  occ. eigenvalues --   -0.43860  -0.43615  -0.43479  -0.43115  -0.43009
 Alpha  occ. eigenvalues --   -0.42973  -0.42732  -0.42671  -0.42558  -0.42272
 Alpha  occ. eigenvalues --   -0.42079  -0.41977  -0.41900  -0.41739  -0.41728
 Alpha  occ. eigenvalues --   -0.41380  -0.41054  -0.40998  -0.40794  -0.40692
 Alpha  occ. eigenvalues --   -0.40595  -0.40501  -0.40429  -0.40346  -0.39944
 Alpha  occ. eigenvalues --   -0.39844  -0.39731  -0.39721  -0.39529  -0.39464
 Alpha  occ. eigenvalues --   -0.39400  -0.39259  -0.39163  -0.39028  -0.38946
 Alpha  occ. eigenvalues --   -0.38863  -0.38768  -0.38693  -0.38525  -0.38354
 Alpha  occ. eigenvalues --   -0.38208  -0.37779  -0.37544  -0.37331  -0.37143
 Alpha  occ. eigenvalues --   -0.36980  -0.36903  -0.36748  -0.36653  -0.36588
 Alpha  occ. eigenvalues --   -0.36548  -0.36241  -0.36111  -0.35868  -0.35656
 Alpha  occ. eigenvalues --   -0.35464  -0.35310  -0.34916  -0.34852  -0.34828
 Alpha  occ. eigenvalues --   -0.34310  -0.34217  -0.34017  -0.33982  -0.33699
 Alpha  occ. eigenvalues --   -0.33655  -0.33418  -0.32996  -0.32654  -0.32399
 Alpha  occ. eigenvalues --   -0.32224  -0.32055  -0.32008  -0.31720  -0.31697
 Alpha  occ. eigenvalues --   -0.31433  -0.31273  -0.31099  -0.31051  -0.29997
 Alpha  occ. eigenvalues --   -0.29809  -0.29490  -0.29157  -0.29004  -0.28885
 Alpha  occ. eigenvalues --   -0.28773  -0.27685  -0.27619  -0.27334  -0.27157
 Alpha  occ. eigenvalues --   -0.26863  -0.26677  -0.26327  -0.26076  -0.25337
 Alpha  occ. eigenvalues --   -0.24663  -0.24267  -0.24212  -0.23780  -0.23627
 Alpha  occ. eigenvalues --   -0.23228  -0.23109  -0.23020  -0.22480  -0.22239
 Alpha  occ. eigenvalues --   -0.21801  -0.21750  -0.21679  -0.21518  -0.21043
 Alpha  occ. eigenvalues --   -0.20429  -0.20289  -0.20170  -0.19275  -0.19061
 Alpha  occ. eigenvalues --   -0.18667  -0.17732  -0.17355
 Alpha virt. eigenvalues --   -0.10844  -0.04627  -0.04509  -0.04142  -0.02959
 Alpha virt. eigenvalues --   -0.00827  -0.00761  -0.00486  -0.00039   0.00108
 Alpha virt. eigenvalues --    0.00640   0.00939   0.01341   0.01555   0.01674
 Alpha virt. eigenvalues --    0.01901   0.02197   0.02303   0.02517   0.03363
 Alpha virt. eigenvalues --    0.03838   0.04012   0.04333   0.04586   0.04671
 Alpha virt. eigenvalues --    0.05017   0.05326   0.05515   0.05697   0.05900
 Alpha virt. eigenvalues --    0.06009   0.06062   0.06451   0.06710   0.06803
 Alpha virt. eigenvalues --    0.06919   0.07048   0.07425   0.07558   0.07902
 Alpha virt. eigenvalues --    0.08134   0.08271   0.08556   0.08589   0.09022
 Alpha virt. eigenvalues --    0.09165   0.09252   0.09577   0.09679   0.09777
 Alpha virt. eigenvalues --    0.10042   0.10113   0.10618   0.10792   0.10952
 Alpha virt. eigenvalues --    0.11266   0.11321   0.11466   0.11524   0.11602
 Alpha virt. eigenvalues --    0.11758   0.11993   0.12038   0.12426   0.12550
 Alpha virt. eigenvalues --    0.12759   0.12877   0.13036   0.13106   0.13205
 Alpha virt. eigenvalues --    0.13653   0.13727   0.13875   0.14135   0.14422
 Alpha virt. eigenvalues --    0.14509   0.14657   0.14849   0.15056   0.15194
 Alpha virt. eigenvalues --    0.15301   0.15454   0.15781   0.16094   0.16347
 Alpha virt. eigenvalues --    0.16366   0.16556   0.16632   0.16853   0.17012
 Alpha virt. eigenvalues --    0.17148   0.17319   0.17366   0.17513   0.17616
 Alpha virt. eigenvalues --    0.17906   0.18198   0.18267   0.18398   0.18550
 Alpha virt. eigenvalues --    0.18768   0.18999   0.19127   0.19468   0.19532
 Alpha virt. eigenvalues --    0.19791   0.19946   0.20137   0.20280   0.20392
 Alpha virt. eigenvalues --    0.20566   0.20677   0.20732   0.21238   0.21449
 Alpha virt. eigenvalues --    0.21684   0.21920   0.22015   0.22241   0.22543
 Alpha virt. eigenvalues --    0.22715   0.22843   0.23328   0.23458   0.23632
 Alpha virt. eigenvalues --    0.23778   0.23925   0.24271   0.24395   0.24713
 Alpha virt. eigenvalues --    0.24899   0.25091   0.25192   0.25489   0.25572
 Alpha virt. eigenvalues --    0.25832   0.26042   0.26197   0.26412   0.26427
 Alpha virt. eigenvalues --    0.26538   0.26826   0.27102   0.27244   0.27371
 Alpha virt. eigenvalues --    0.27738   0.28281   0.28628   0.28976   0.28999
 Alpha virt. eigenvalues --    0.29224   0.29508   0.29665   0.29866   0.30044
 Alpha virt. eigenvalues --    0.30575   0.30853   0.31111   0.31252   0.31485
 Alpha virt. eigenvalues --    0.31538   0.31877   0.32156   0.32538   0.32737
 Alpha virt. eigenvalues --    0.33072   0.33231   0.33375   0.33609   0.34133
 Alpha virt. eigenvalues --    0.34316   0.34362   0.34444   0.34649   0.35219
 Alpha virt. eigenvalues --    0.35406   0.35875   0.36121   0.36402   0.36573
 Alpha virt. eigenvalues --    0.37016   0.37561   0.37791   0.38270   0.38540
 Alpha virt. eigenvalues --    0.38947   0.39031   0.39484   0.39563   0.39837
 Alpha virt. eigenvalues --    0.40054   0.40125   0.40369   0.40434   0.40762
 Alpha virt. eigenvalues --    0.40904   0.41834   0.41914   0.42082   0.42243
 Alpha virt. eigenvalues --    0.42413   0.42611   0.43064   0.43146   0.43298
 Alpha virt. eigenvalues --    0.43566   0.43727   0.43944   0.44132   0.44305
 Alpha virt. eigenvalues --    0.44431   0.44690   0.44787   0.45034   0.45235
 Alpha virt. eigenvalues --    0.45476   0.45967   0.46171   0.46383   0.46523
 Alpha virt. eigenvalues --    0.46608   0.46718   0.46896   0.46963   0.47205
 Alpha virt. eigenvalues --    0.47465   0.47641   0.47707   0.47874   0.48013
 Alpha virt. eigenvalues --    0.48113   0.48451   0.48616   0.48707   0.49418
 Alpha virt. eigenvalues --    0.49669   0.49988   0.50158   0.50174   0.50328
 Alpha virt. eigenvalues --    0.50616   0.50678   0.51003   0.51137   0.51207
 Alpha virt. eigenvalues --    0.51352   0.51552   0.51730   0.52090   0.52245
 Alpha virt. eigenvalues --    0.52391   0.52444   0.52809   0.53014   0.53097
 Alpha virt. eigenvalues --    0.53209   0.53547   0.53728   0.53942   0.54087
 Alpha virt. eigenvalues --    0.54351   0.54496   0.54673   0.54882   0.54988
 Alpha virt. eigenvalues --    0.55084   0.55437   0.55565   0.55820   0.55966
 Alpha virt. eigenvalues --    0.56107   0.56189   0.56517   0.56542   0.56785
 Alpha virt. eigenvalues --    0.56867   0.57006   0.57373   0.57575   0.57795
 Alpha virt. eigenvalues --    0.57859   0.58074   0.58298   0.58435   0.58554
 Alpha virt. eigenvalues --    0.58665   0.58829   0.58895   0.59102   0.59369
 Alpha virt. eigenvalues --    0.59711   0.59805   0.59955   0.60130   0.60317
 Alpha virt. eigenvalues --    0.60369   0.60569   0.60642   0.60910   0.60989
 Alpha virt. eigenvalues --    0.61188   0.61364   0.61491   0.61699   0.61804
 Alpha virt. eigenvalues --    0.62061   0.62194   0.62228   0.62296   0.62401
 Alpha virt. eigenvalues --    0.62473   0.62773   0.62870   0.62987   0.63069
 Alpha virt. eigenvalues --    0.63151   0.63295   0.63400   0.63426   0.63738
 Alpha virt. eigenvalues --    0.63840   0.63945   0.64147   0.64297   0.64311
 Alpha virt. eigenvalues --    0.64496   0.64507   0.64637   0.64778   0.64860
 Alpha virt. eigenvalues --    0.65037   0.65159   0.65374   0.65507   0.65595
 Alpha virt. eigenvalues --    0.65722   0.65823   0.65929   0.66135   0.66284
 Alpha virt. eigenvalues --    0.66375   0.66410   0.66476   0.66656   0.66741
 Alpha virt. eigenvalues --    0.66863   0.66970   0.67034   0.67063   0.67173
 Alpha virt. eigenvalues --    0.67360   0.67512   0.67609   0.67652   0.67771
 Alpha virt. eigenvalues --    0.67908   0.67961   0.68173   0.68365   0.68483
 Alpha virt. eigenvalues --    0.68625   0.68797   0.68828   0.68881   0.69002
 Alpha virt. eigenvalues --    0.69267   0.69324   0.69420   0.69542   0.69631
 Alpha virt. eigenvalues --    0.69741   0.69978   0.70177   0.70335   0.70392
 Alpha virt. eigenvalues --    0.70500   0.70645   0.70790   0.70920   0.71016
 Alpha virt. eigenvalues --    0.71300   0.71360   0.71386   0.71722   0.71815
 Alpha virt. eigenvalues --    0.71981   0.72020   0.72184   0.72415   0.72492
 Alpha virt. eigenvalues --    0.72586   0.72632   0.72955   0.73294   0.73533
 Alpha virt. eigenvalues --    0.73552   0.73748   0.73971   0.74086   0.74348
 Alpha virt. eigenvalues --    0.74446   0.74561   0.74916   0.75032   0.75309
 Alpha virt. eigenvalues --    0.75356   0.75623   0.75782   0.75855   0.75983
 Alpha virt. eigenvalues --    0.76291   0.76512   0.76693   0.77172   0.77284
 Alpha virt. eigenvalues --    0.77580   0.78058   0.78223   0.78348   0.78705
 Alpha virt. eigenvalues --    0.78797   0.78943   0.79109   0.79434   0.79682
 Alpha virt. eigenvalues --    0.80199   0.80531   0.80572   0.80786   0.81289
 Alpha virt. eigenvalues --    0.81373   0.81473   0.81506   0.82010   0.82172
 Alpha virt. eigenvalues --    0.82359   0.82486   0.82842   0.83026   0.83487
 Alpha virt. eigenvalues --    0.83578   0.83897   0.84228   0.84517   0.84582
 Alpha virt. eigenvalues --    0.84842   0.85369   0.85480   0.85695   0.86052
 Alpha virt. eigenvalues --    0.86220   0.86362   0.86835   0.87184   0.87285
 Alpha virt. eigenvalues --    0.87628   0.87820   0.87915   0.88202   0.88508
 Alpha virt. eigenvalues --    0.89084   0.89186   0.89402   0.89682   0.90010
 Alpha virt. eigenvalues --    0.90317   0.90461   0.90755   0.90849   0.91395
 Alpha virt. eigenvalues --    0.91847   0.92016   0.92174   0.92535   0.92950
 Alpha virt. eigenvalues --    0.93194   0.93650   0.93751   0.94109   0.94231
 Alpha virt. eigenvalues --    0.94608   0.94782   0.95346   0.95516   0.95967
 Alpha virt. eigenvalues --    0.96159   0.96201   0.96541   0.96687   0.96891
 Alpha virt. eigenvalues --    0.97103   0.97291   0.97689   0.97880   0.98148
 Alpha virt. eigenvalues --    0.98523   0.98843   0.98981   0.99483   0.99893
 Alpha virt. eigenvalues --    1.00032   1.00272   1.00645   1.00859   1.01030
 Alpha virt. eigenvalues --    1.01627   1.01923   1.02651   1.03039   1.03120
 Alpha virt. eigenvalues --    1.03685   1.03839   1.03962   1.04085   1.04219
 Alpha virt. eigenvalues --    1.04343   1.04822   1.05211   1.05361   1.05547
 Alpha virt. eigenvalues --    1.05932   1.06283   1.06479   1.06893   1.07395
 Alpha virt. eigenvalues --    1.07752   1.07868   1.08116   1.08317   1.08409
 Alpha virt. eigenvalues --    1.08899   1.09257   1.09666   1.09795   1.10244
 Alpha virt. eigenvalues --    1.10305   1.10604   1.10842   1.11097   1.11539
 Alpha virt. eigenvalues --    1.11871   1.12184   1.12481   1.12609   1.13077
 Alpha virt. eigenvalues --    1.13247   1.13458   1.13786   1.14166   1.14459
 Alpha virt. eigenvalues --    1.14685   1.14819   1.15583   1.16003   1.16309
 Alpha virt. eigenvalues --    1.16432   1.16556   1.16724   1.16896   1.17292
 Alpha virt. eigenvalues --    1.17605   1.17843   1.18593   1.18724   1.18912
 Alpha virt. eigenvalues --    1.19091   1.19428   1.19540   1.19758   1.20168
 Alpha virt. eigenvalues --    1.20676   1.20770   1.21207   1.21435   1.21841
 Alpha virt. eigenvalues --    1.22087   1.22455   1.22614   1.22957   1.23164
 Alpha virt. eigenvalues --    1.23227   1.23520   1.23618   1.23832   1.24004
 Alpha virt. eigenvalues --    1.24126   1.24361   1.24585   1.25041   1.25129
 Alpha virt. eigenvalues --    1.25562   1.25767   1.26012   1.26327   1.26597
 Alpha virt. eigenvalues --    1.26936   1.27184   1.27391   1.27628   1.28005
 Alpha virt. eigenvalues --    1.28464   1.28636   1.28868   1.29152   1.29438
 Alpha virt. eigenvalues --    1.29715   1.29814   1.29971   1.29993   1.30637
 Alpha virt. eigenvalues --    1.30968   1.31075   1.31436   1.31734   1.31983
 Alpha virt. eigenvalues --    1.32106   1.32479   1.32710   1.32889   1.33061
 Alpha virt. eigenvalues --    1.33215   1.33745   1.33800   1.34192   1.34486
 Alpha virt. eigenvalues --    1.34735   1.35055   1.35163   1.35347   1.35543
 Alpha virt. eigenvalues --    1.35944   1.36084   1.36574   1.37042   1.37457
 Alpha virt. eigenvalues --    1.37803   1.38031   1.38181   1.38464   1.38793
 Alpha virt. eigenvalues --    1.38946   1.39376   1.39384   1.39647   1.39762
 Alpha virt. eigenvalues --    1.40092   1.40537   1.40680   1.40911   1.41256
 Alpha virt. eigenvalues --    1.41431   1.41833   1.42296   1.42515   1.42615
 Alpha virt. eigenvalues --    1.42851   1.43530   1.43560   1.43858   1.44352
 Alpha virt. eigenvalues --    1.44634   1.44989   1.45391   1.45720   1.45984
 Alpha virt. eigenvalues --    1.46185   1.46565   1.47001   1.47274   1.47450
 Alpha virt. eigenvalues --    1.47995   1.48416   1.48560   1.48791   1.48883
 Alpha virt. eigenvalues --    1.49025   1.49750   1.49900   1.50049   1.50404
 Alpha virt. eigenvalues --    1.50540   1.51201   1.51313   1.51519   1.51693
 Alpha virt. eigenvalues --    1.51901   1.52207   1.52420   1.52617   1.52945
 Alpha virt. eigenvalues --    1.53395   1.53668   1.53904   1.54079   1.54155
 Alpha virt. eigenvalues --    1.54329   1.54631   1.55246   1.55765   1.55885
 Alpha virt. eigenvalues --    1.56420   1.56742   1.57352   1.57584   1.58070
 Alpha virt. eigenvalues --    1.58445   1.59068   1.59278   1.59696   1.59767
 Alpha virt. eigenvalues --    1.60187   1.60526   1.60601   1.60717   1.61111
 Alpha virt. eigenvalues --    1.61318   1.61638   1.61963   1.62231   1.62301
 Alpha virt. eigenvalues --    1.62558   1.63153   1.63318   1.63495   1.63844
 Alpha virt. eigenvalues --    1.64307   1.64366   1.64615   1.64747   1.64916
 Alpha virt. eigenvalues --    1.65171   1.65728   1.65962   1.66554   1.66884
 Alpha virt. eigenvalues --    1.67086   1.67687   1.67945   1.68118   1.68575
 Alpha virt. eigenvalues --    1.68690   1.69050   1.69670   1.69720   1.70108
 Alpha virt. eigenvalues --    1.70437   1.70614   1.70842   1.70890   1.71163
 Alpha virt. eigenvalues --    1.71210   1.71649   1.71796   1.71892   1.72189
 Alpha virt. eigenvalues --    1.72245   1.72547   1.72639   1.72820   1.73125
 Alpha virt. eigenvalues --    1.73292   1.73546   1.73751   1.73967   1.74371
 Alpha virt. eigenvalues --    1.74525   1.74783   1.75030   1.75185   1.75427
 Alpha virt. eigenvalues --    1.75671   1.75756   1.75959   1.76174   1.76214
 Alpha virt. eigenvalues --    1.76546   1.76607   1.76895   1.76993   1.77322
 Alpha virt. eigenvalues --    1.77615   1.77707   1.77890   1.77996   1.78032
 Alpha virt. eigenvalues --    1.78202   1.78443   1.78520   1.78591   1.78694
 Alpha virt. eigenvalues --    1.78787   1.79179   1.79318   1.79368   1.79595
 Alpha virt. eigenvalues --    1.79738   1.79994   1.80083   1.80191   1.80490
 Alpha virt. eigenvalues --    1.80503   1.80633   1.80870   1.80989   1.81162
 Alpha virt. eigenvalues --    1.81436   1.81552   1.82043   1.82183   1.82412
 Alpha virt. eigenvalues --    1.82644   1.82671   1.82778   1.83003   1.83164
 Alpha virt. eigenvalues --    1.83278   1.83407   1.83641   1.83728   1.84009
 Alpha virt. eigenvalues --    1.84124   1.84404   1.84538   1.84806   1.85099
 Alpha virt. eigenvalues --    1.85285   1.85374   1.85764   1.85962   1.86114
 Alpha virt. eigenvalues --    1.86209   1.86493   1.86546   1.86769   1.87016
 Alpha virt. eigenvalues --    1.87155   1.87297   1.87476   1.87656   1.87861
 Alpha virt. eigenvalues --    1.88072   1.88140   1.88317   1.88492   1.88730
 Alpha virt. eigenvalues --    1.88900   1.89134   1.89311   1.89450   1.89618
 Alpha virt. eigenvalues --    1.89692   1.90020   1.90073   1.90320   1.90406
 Alpha virt. eigenvalues --    1.90853   1.90923   1.91175   1.91381   1.91699
 Alpha virt. eigenvalues --    1.92037   1.92395   1.92599   1.92841   1.92952
 Alpha virt. eigenvalues --    1.93363   1.93470   1.93651   1.93981   1.94085
 Alpha virt. eigenvalues --    1.94236   1.94724   1.94814   1.94865   1.95359
 Alpha virt. eigenvalues --    1.95431   1.95702   1.96049   1.96341   1.96503
 Alpha virt. eigenvalues --    1.96748   1.96908   1.97010   1.97161   1.97529
 Alpha virt. eigenvalues --    1.97588   1.98177   1.98330   1.98523   1.98700
 Alpha virt. eigenvalues --    1.98794   1.98953   1.99381   1.99602   1.99921
 Alpha virt. eigenvalues --    2.00178   2.00353   2.00595   2.00680   2.00957
 Alpha virt. eigenvalues --    2.01038   2.01283   2.01381   2.01427   2.01595
 Alpha virt. eigenvalues --    2.02040   2.02435   2.02638   2.02817   2.03035
 Alpha virt. eigenvalues --    2.03291   2.03620   2.03869   2.04358   2.04603
 Alpha virt. eigenvalues --    2.04732   2.05115   2.05484   2.05807   2.05934
 Alpha virt. eigenvalues --    2.06257   2.06494   2.06760   2.06897   2.07080
 Alpha virt. eigenvalues --    2.07347   2.08173   2.08516   2.08645   2.08923
 Alpha virt. eigenvalues --    2.09343   2.09472   2.09781   2.10034   2.10135
 Alpha virt. eigenvalues --    2.10307   2.10600   2.10857   2.11103   2.11295
 Alpha virt. eigenvalues --    2.11523   2.11719   2.11960   2.12379   2.12815
 Alpha virt. eigenvalues --    2.13247   2.13417   2.13981   2.14052   2.14299
 Alpha virt. eigenvalues --    2.14595   2.14836   2.15004   2.15206   2.15692
 Alpha virt. eigenvalues --    2.16173   2.16506   2.16778   2.17034   2.17450
 Alpha virt. eigenvalues --    2.17591   2.17729   2.17939   2.18221   2.18303
 Alpha virt. eigenvalues --    2.18455   2.18556   2.18833   2.19619   2.19828
 Alpha virt. eigenvalues --    2.20016   2.20095   2.20168   2.20418   2.20979
 Alpha virt. eigenvalues --    2.21450   2.21968   2.22407   2.22723   2.23103
 Alpha virt. eigenvalues --    2.23242   2.23492   2.23801   2.24207   2.24264
 Alpha virt. eigenvalues --    2.24467   2.24833   2.24978   2.25333   2.25571
 Alpha virt. eigenvalues --    2.26212   2.26585   2.26903   2.27040   2.27840
 Alpha virt. eigenvalues --    2.27929   2.28510   2.28722   2.28765   2.29189
 Alpha virt. eigenvalues --    2.29629   2.30063   2.30390   2.30910   2.31258
 Alpha virt. eigenvalues --    2.31652   2.31759   2.31837   2.32159   2.32755
 Alpha virt. eigenvalues --    2.33035   2.33239   2.33493   2.34049   2.34117
 Alpha virt. eigenvalues --    2.34532   2.35197   2.35341   2.35897   2.36127
 Alpha virt. eigenvalues --    2.36353   2.36675   2.36967   2.37158   2.37339
 Alpha virt. eigenvalues --    2.37464   2.37963   2.38156   2.38186   2.38561
 Alpha virt. eigenvalues --    2.38611   2.39255   2.39558   2.40033   2.40294
 Alpha virt. eigenvalues --    2.40419   2.40786   2.41085   2.41480   2.41649
 Alpha virt. eigenvalues --    2.41703   2.41807   2.42111   2.42269   2.42788
 Alpha virt. eigenvalues --    2.43120   2.43515   2.43686   2.44348   2.44664
 Alpha virt. eigenvalues --    2.44949   2.45210   2.45545   2.45959   2.46087
 Alpha virt. eigenvalues --    2.46491   2.47035   2.47082   2.47269   2.47712
 Alpha virt. eigenvalues --    2.47946   2.48455   2.49370   2.49793   2.49909
 Alpha virt. eigenvalues --    2.50221   2.50580   2.51065   2.51404   2.51573
 Alpha virt. eigenvalues --    2.52129   2.52514   2.52936   2.53813   2.54577
 Alpha virt. eigenvalues --    2.54891   2.55032   2.55097   2.55476   2.55545
 Alpha virt. eigenvalues --    2.55840   2.56120   2.56640   2.56876   2.57318
 Alpha virt. eigenvalues --    2.57451   2.57551   2.57606   2.58120   2.58716
 Alpha virt. eigenvalues --    2.58911   2.59182   2.60162   2.60373   2.60449
 Alpha virt. eigenvalues --    2.60763   2.61428   2.61633   2.61752   2.62797
 Alpha virt. eigenvalues --    2.62941   2.63186   2.63500   2.63603   2.63716
 Alpha virt. eigenvalues --    2.63969   2.64502   2.64611   2.64712   2.65304
 Alpha virt. eigenvalues --    2.65364   2.65760   2.65864   2.66139   2.66820
 Alpha virt. eigenvalues --    2.67075   2.67368   2.67388   2.67858   2.67966
 Alpha virt. eigenvalues --    2.68703   2.69003   2.69610   2.69663   2.69921
 Alpha virt. eigenvalues --    2.70002   2.70077   2.70512   2.70583   2.71171
 Alpha virt. eigenvalues --    2.71315   2.71390   2.71774   2.72132   2.72876
 Alpha virt. eigenvalues --    2.72959   2.73136   2.73348   2.73477   2.73826
 Alpha virt. eigenvalues --    2.74024   2.74466   2.74648   2.75073   2.75390
 Alpha virt. eigenvalues --    2.75500   2.75625   2.76017   2.76149   2.76210
 Alpha virt. eigenvalues --    2.76783   2.77242   2.77346   2.77734   2.77870
 Alpha virt. eigenvalues --    2.77957   2.77992   2.78308   2.78420   2.78604
 Alpha virt. eigenvalues --    2.78893   2.79027   2.79315   2.79615   2.80171
 Alpha virt. eigenvalues --    2.80340   2.81225   2.81274   2.81384   2.81466
 Alpha virt. eigenvalues --    2.81955   2.82059   2.82388   2.83020   2.83114
 Alpha virt. eigenvalues --    2.83366   2.83741   2.84041   2.84075   2.84239
 Alpha virt. eigenvalues --    2.84805   2.84959   2.85131   2.85429   2.85819
 Alpha virt. eigenvalues --    2.86319   2.86404   2.86657   2.86931   2.87046
 Alpha virt. eigenvalues --    2.87878   2.87960   2.88120   2.88653   2.88709
 Alpha virt. eigenvalues --    2.88906   2.89067   2.89236   2.89805   2.90969
 Alpha virt. eigenvalues --    2.91435   2.91700   2.91807   2.92157   2.92254
 Alpha virt. eigenvalues --    2.92574   2.92690   2.92849   2.93194   2.93494
 Alpha virt. eigenvalues --    2.93643   2.93828   2.94165   2.94472   2.94866
 Alpha virt. eigenvalues --    2.95276   2.95650   2.95830   2.96039   2.96313
 Alpha virt. eigenvalues --    2.96712   2.96786   2.96859   2.97244   2.97474
 Alpha virt. eigenvalues --    2.97820   2.98126   2.98530   2.98775   2.99044
 Alpha virt. eigenvalues --    2.99343   2.99546   3.00107   3.00250   3.00765
 Alpha virt. eigenvalues --    3.01042   3.01589   3.02025   3.02143   3.02525
 Alpha virt. eigenvalues --    3.02898   3.03169   3.03564   3.03935   3.04211
 Alpha virt. eigenvalues --    3.04806   3.05529   3.05760   3.05961   3.06094
 Alpha virt. eigenvalues --    3.06448   3.07008   3.07192   3.09399   3.09787
 Alpha virt. eigenvalues --    3.10254   3.10545   3.10984   3.11335   3.11609
 Alpha virt. eigenvalues --    3.12072   3.12593   3.12981   3.13167   3.14129
 Alpha virt. eigenvalues --    3.14616   3.15992   3.16180   3.16543   3.16737
 Alpha virt. eigenvalues --    3.16849   3.17546   3.17858   3.18023   3.18447
 Alpha virt. eigenvalues --    3.18559   3.18771   3.19358   3.19371   3.19687
 Alpha virt. eigenvalues --    3.20164   3.20390   3.20532   3.21187   3.21391
 Alpha virt. eigenvalues --    3.21625   3.22652   3.22821   3.23380   3.23804
 Alpha virt. eigenvalues --    3.24544   3.24969   3.25565   3.26310   3.26882
 Alpha virt. eigenvalues --    3.27113   3.27412   3.27846   3.28009   3.28229
 Alpha virt. eigenvalues --    3.28749   3.29664   3.29883   3.30352   3.30589
 Alpha virt. eigenvalues --    3.30719   3.32047   3.33045   3.33128   3.33779
 Alpha virt. eigenvalues --    3.34208   3.37075   3.37273   3.38058   3.38981
 Alpha virt. eigenvalues --    3.39515   3.40261   3.44741   3.45709   3.52055
 Alpha virt. eigenvalues --    3.53380   3.53810   3.54138   3.55102   3.56563
 Alpha virt. eigenvalues --    3.57454   3.57900   3.58666   3.59150   3.60410
 Alpha virt. eigenvalues --    3.60907   3.62982   3.63823   3.64583   3.65059
 Alpha virt. eigenvalues --    3.65740   3.66194   3.66366   3.66917   3.67626
 Alpha virt. eigenvalues --    3.68966   3.69352   3.69672   3.69953   3.70042
 Alpha virt. eigenvalues --    3.70434   3.71096   3.71677   3.71951   3.72306
 Alpha virt. eigenvalues --    3.72781   3.72999   3.73860   3.74430   3.76049
 Alpha virt. eigenvalues --    3.77234   3.79019   3.82436   3.82880
          Condensed to atoms (all electrons):
 Mulliken charges:
               1
     1  C    0.041070
     2  C    0.014207
     3  O   -0.286838
     4  H    0.040720
     5  H    0.023748
     6  H    0.040361
     7  N   -0.111426
     8  C    0.116064
     9  C    0.067736
    10  O   -0.271220
    11  C    0.048367
    12  C    0.201364
    13  O   -0.482319
    14  O   -0.381793
    15  H    0.111602
    16  H    0.002383
    17  H    0.008732
    18  H   -0.017679
    19  N   -0.127792
    20  C    0.125780
    21  C    0.058256
    22  O   -0.289666
    23  C    0.028604
    24  C    0.001770
    25  C   -0.047649
    26  C    0.035018
    27  N    0.076797
    28  H    0.139973
    29  H   -0.004824
    30  H    0.012488
    31  H    0.016520
    32  H    0.031934
    33  H    0.028997
    34  H    0.043151
    35  H    0.032885
    36  H    0.069428
    37  H    0.081843
    38  H    0.185759
    39  H    0.189616
    40  H    0.201581
    41  N   -0.156560
    42  C    0.132505
    43  C    0.044188
    44  O   -0.290605
    45  C    0.044440
    46  C    0.128365
    47  O   -0.377062
    48  O   -0.463876
    49  H    0.151369
    50  H   -0.002885
    51  H   -0.010243
    52  H    0.024036
    53  N   -0.172944
    54  C    0.276518
    55  C    0.017703
    56  O   -0.291079
    57  H    0.148165
    58  H    0.002657
    59  H    0.039265
    60  N   -0.190719
    61  C    0.153783
    62  C    0.060577
    63  O   -0.313258
    64  C    0.097537
    65  C    0.059401
    66  N   -0.038724
    67  O   -0.356758
    68  H    0.161952
    69  H    0.033633
    70  H    0.065003
    71  H   -0.007632
    72  H    0.134222
    73  H    0.114236
    74  N   -0.168944
    75  C    0.320576
    76  C   -0.034958
    77  O   -0.310486
    78  H    0.164877
    79  H    0.040084
    80  H    0.028024
    81  N   -0.163731
    82  C    0.158009
    83  C    0.078434
    84  O   -0.376333
    85  C    0.181201
    86  C    0.007173
    87  C    0.010163
    88  C   -0.016747
    89  C   -0.034050
    90  C   -0.048814
    91  C    0.174998
    92  O   -0.198633
    93  H    0.156137
    94  H   -0.014457
    95  H   -0.041068
    96  H   -0.028311
    97  H   -0.049187
    98  H   -0.030702
    99  H   -0.032705
   100  H   -0.023571
   101  H    0.171853
   102  N   -0.097250
   103  C    0.146210
   104  C    0.043384
   105  O   -0.289812
   106  C   -0.129891
   107  C    0.007816
   108  C    0.046577
   109  C    0.046331
   110  H    0.134185
   111  H    0.022634
   112  H   -0.005180
   113  H   -0.006165
   114  H    0.005329
   115  H    0.019888
   116  H    0.017363
   117  H    0.018418
   118  H    0.011370
   119  H    0.011873
   120  H    0.010455
   121  N   -0.135145
   122  C    0.061201
   123  C    0.132215
   124  O   -0.283335
   125  C    0.272871
   126  O   -0.344533
   127  H    0.155910
   128  H    0.019393
   129  H   -0.051433
   130  H   -0.007216
   131  H    0.176281
   132  N   -0.155919
   133  C    0.091260
   134  C    0.062024
   135  O   -0.251256
   136  C    0.048419
   137  H    0.124029
   138  H    0.025130
   139  H    0.010385
   140  H    0.038864
   141  H    0.031756
   142  N   -0.162428
   143  C    0.117933
   144  C    0.070528
   145  O   -0.286033
   146  C    0.036719
   147  H    0.111550
   148  H    0.024099
   149  H    0.024903
   150  H    0.026350
   151  H    0.009116
   152  N   -0.177748
   153  C    0.175211
   154  C    0.076603
   155  O   -0.301729
   156  C   -0.062482
   157  C    0.110672
   158  C    0.156063
   159  O   -0.400407
   160  O   -0.437809
   161  H    0.131964
   162  H   -0.039823
   163  H    0.046666
   164  H    0.003295
   165  H   -0.006259
   166  H   -0.040032
   167  N   -0.172883
   168  C    0.160103
   169  H    0.024971
   170  H    0.019441
   171  H    0.007528
   172  H    0.136855
   173  Ca   1.280701
   174  O   -0.283233
   175  H    0.186798
   176  H    0.206769
 Sum of Mulliken charges =   0.00000
 Mulliken charges with hydrogens summed into heavy atoms:
               1
     1  C    0.145899
     2  C    0.014207
     3  O   -0.286838
     7  N    0.000176
     8  C    0.118446
     9  C    0.067736
    10  O   -0.271220
    11  C    0.039421
    12  C    0.201364
    13  O   -0.482319
    14  O   -0.381793
    19  N    0.012182
    20  C    0.120956
    21  C    0.058256
    22  O   -0.289666
    23  C    0.057612
    24  C    0.062701
    25  C    0.028387
    26  C    0.186289
    27  N    0.653753
    41  N   -0.005192
    42  C    0.129620
    43  C    0.044188
    44  O   -0.290605
    45  C    0.058232
    46  C    0.128365
    47  O   -0.377062
    48  O   -0.463876
    53  N   -0.024779
    54  C    0.318440
    55  C    0.017703
    56  O   -0.291079
    60  N   -0.028767
    61  C    0.187416
    62  C    0.060577
    63  O   -0.313258
    64  C    0.154908
    65  C    0.059401
    66  N    0.209734
    67  O   -0.356758
    74  N   -0.004067
    75  C    0.388684
    76  C   -0.034958
    77  O   -0.310486
    81  N   -0.007594
    82  C    0.143553
    83  C    0.078434
    84  O   -0.376333
    85  C    0.111822
    86  C    0.007173
    87  C   -0.039023
    88  C   -0.047450
    89  C   -0.066755
    90  C   -0.072385
    91  C    0.174998
    92  O   -0.026780
   102  N    0.036934
   103  C    0.168845
   104  C    0.043384
   105  O   -0.289812
   106  C   -0.135071
   107  C    0.006979
   108  C    0.102247
   109  C    0.080029
   121  N    0.020765
   122  C    0.080594
   123  C    0.132215
   124  O   -0.283335
   125  C    0.214221
   126  O   -0.168252
   132  N   -0.031890
   133  C    0.116390
   134  C    0.062024
   135  O   -0.251256
   136  C    0.129424
   142  N   -0.050878
   143  C    0.142032
   144  C    0.070528
   145  O   -0.286033
   146  C    0.097087
   152  N   -0.045784
   153  C    0.135388
   154  C    0.076603
   155  O   -0.301729
   156  C   -0.012520
   157  C    0.064382
   158  C    0.156063
   159  O   -0.400407
   160  O   -0.437809
   167  N   -0.036028
   168  C    0.212043
   173  Ca   1.280701
   174  O    0.110334
 DipInt: DoE/N= T F RetVal/Mat= T F Init=T NMatP=  1 IDeriv=0 Min/MaxMlt=  0  4
 Entering OneElI...
 OneElI was handed  4286741430 working-precision words.
 Multipole integrals L=0 to 4 MinM= 0 MaxM= 0.
 Requested accuracy = 0.1000D-12
 ShPair: Thresh= 1.00D-13 NBox=     0 BxSize= 0.00D+00 RnKept= 2.55D+01
         NSMCal=               327645 NSMKep=              162540
 PrsmSu:  NPrtUS=   1 ThrOK=F IAlg=1 NPAlg=1 LenDen=           0.
 Prism:   IPart=     0 DynPar=F LinDyn=F Incr=         512.
 PRISM was handed  4276587646 working-precision words and162540 shell-pairs
 IPart=  0 NShTot=      162540 NBatch=         456 AvBLen=       356.4
 PrSmSu:  NxtVal=            513.
 Electronic moments (au):
       -716.00000000         13.30885171          0.84609678         -4.70777655
     -50821.98907174     -31213.38759780     -11786.84703773        140.58774690
        -24.85459728          1.69794466     -28643.15725106     -46703.27591438
     -22504.77360912      -3391.80634842      98449.81582810      54054.98029707
     -15182.80956242       5232.52932203      18559.14120854     -10274.06340542
   -7276270.16902054   -3023621.95319126    -605236.13449366    -363670.97651936
     178231.48018431    -538086.97499285      39544.35354611     -68866.82153363
      53119.58831234   -2379707.73703809    -609627.39411361    -322508.75186952
    -212686.17213282      72271.52290366      76477.30882680
 Electronic spatial extent (au):  <R**2>=          93822.2237
 DipInt: DoE/N= F T RetVal/Mat= T F Init=T NMatP=  1 IDeriv=0 Min/MaxMlt=  0  4
 Nuclear    moments (au):
        716.00000000          0.00000000          0.00000000          0.00000000
      50370.82873449      30884.70871584      11405.89947048          0.00000000
          0.00000000          0.00000000      29911.19844062      47902.66892165
      22548.81498170       6201.53656925     -97267.68649394     -54891.79803569
      15321.80416605      -5343.75411452     -19182.45478193       9845.48360000
    7085701.92259729    2933353.26829329     566200.12462927     383311.89962322
    -180434.53247574     564013.54085450     -44553.19850069      69218.70759806
     -51151.25200767    2350435.93082194     576703.43297572     299277.85944715
     210229.67440611     -79155.29101270     -75463.49046175
 Total      moments (au):
          0.00000000         13.30885171          0.84609678         -4.70777655
       -451.16033724       -328.67888196       -380.94756726        140.58774690
        -24.85459728          1.69794466       1268.04118957       1199.39300728
         44.04137258       2809.73022082       1182.12933416       -836.81773862
        138.99460363       -111.22479249       -623.31357339       -428.57980542
    -190568.24642325     -90268.68489796     -39036.00986439      19640.92310386
      -2203.05229142      25926.56586165      -5008.84495459        351.88606443
       1968.33630467     -29271.80621614     -32923.96113789     -23230.89242237
      -2456.49772671      -6883.76810904       1013.81836505
 Traceless Quadrup. (au):
        -64.23140842         58.25004686          5.98136156        140.58774690
        -24.85459728          1.69794466
 Charge=              0.0000 electrons
 Dipole moment (field-independent basis, Debye):
    X=             33.8277    Y=              2.1506    Z=            -11.9660  Tot=             35.9461
 Quadrupole moment (field-independent basis, Debye-Ang):
   XX=           -606.8261   YY=           -442.0843   ZZ=           -512.3875
   XY=            189.0953   XZ=            -33.4303   YZ=              2.2838
 Traceless Quadrupole moment (field-independent basis, Debye-Ang):
   XX=            -86.3934   YY=             78.3483   ZZ=              8.0451
   XY=            189.0953   XZ=            -33.4303   YZ=              2.2838
 Octapole moment (field-independent basis, Debye-Ang**2):
  XXX=            902.5428  YYY=            853.6817  ZZZ=             31.3470  XYY=           1999.8576
  XXY=            841.3941  XXZ=           -595.6146  XZZ=             98.9310  YZZ=            -79.1655
  YYZ=           -443.6506  XYZ=           -305.0466
 Hexadecapole moment (field-independent basis, Debye-Ang**3):
 XXXX=         -71777.1349 YYYY=         -33999.5130 ZZZZ=         -14702.8322 XXXY=           7397.7130
 XXXZ=           -829.7751 YYYX=           9765.1873 YYYZ=          -1886.5711 ZZZX=            132.5372
 ZZZY=            741.3698 XXYY=         -11025.1651 XXZZ=         -12400.7417 YYZZ=          -8749.8675
 XXYZ=           -925.2348 YYXZ=          -2592.7570 ZZXY=            381.8526
 N-N= 2.186188190458D+04 E-N=-5.620550449045D+04  KE= 5.290727168908D+03
 Leave Link  601 at Mon Sep 16 13:42:56 2019, MaxMem=  4294967296 cpu:        21.9
 FitSet:  NAtFit=   176 NAtPot=   176 NAtFrz=     0 MDM=   180 TotChg=   0.00000
 Merz-Kollman atomic radii used.
 Read replacement radii for each type of atom:
 Rad(20) =   1.700000000000D+00
 Atom Element Radius
    1     6    1.50
    2     6    1.50
    3     8    1.40
    4     1    1.20
    5     1    1.20
    6     1    1.20
    7     7    1.50
    8     6    1.50
    9     6    1.50
   10     8    1.40
   11     6    1.50
   12     6    1.50
   13     8    1.40
   14     8    1.40
   15     1    1.20
   16     1    1.20
   17     1    1.20
   18     1    1.20
   19     7    1.50
   20     6    1.50
   21     6    1.50
   22     8    1.40
   23     6    1.50
   24     6    1.50
   25     6    1.50
   26     6    1.50
   27     7    1.50
   28     1    1.20
   29     1    1.20
   30     1    1.20
   31     1    1.20
   32     1    1.20
   33     1    1.20
   34     1    1.20
   35     1    1.20
   36     1    1.20
   37     1    1.20
   38     1    1.20
   39     1    1.20
   40     1    1.20
   41     7    1.50
   42     6    1.50
   43     6    1.50
   44     8    1.40
   45     6    1.50
   46     6    1.50
   47     8    1.40
   48     8    1.40
   49     1    1.20
   50     1    1.20
   51     1    1.20
   52     1    1.20
   53     7    1.50
   54     6    1.50
   55     6    1.50
   56     8    1.40
   57     1    1.20
   58     1    1.20
   59     1    1.20
   60     7    1.50
   61     6    1.50
   62     6    1.50
   63     8    1.40
   64     6    1.50
   65     6    1.50
   66     7    1.50
   67     8    1.40
   68     1    1.20
   69     1    1.20
   70     1    1.20
   71     1    1.20
   72     1    1.20
   73     1    1.20
   74     7    1.50
   75     6    1.50
   76     6    1.50
   77     8    1.40
   78     1    1.20
   79     1    1.20
   80     1    1.20
   81     7    1.50
   82     6    1.50
   83     6    1.50
   84     8    1.40
   85     6    1.50
   86     6    1.50
   87     6    1.50
   88     6    1.50
   89     6    1.50
   90     6    1.50
   91     6    1.50
   92     8    1.40
   93     1    1.20
   94     1    1.20
   95     1    1.20
   96     1    1.20
   97     1    1.20
   98     1    1.20
   99     1    1.20
  100     1    1.20
  101     1    1.20
  102     7    1.50
  103     6    1.50
  104     6    1.50
  105     8    1.40
  106     6    1.50
  107     6    1.50
  108     6    1.50
  109     6    1.50
  110     1    1.20
  111     1    1.20
  112     1    1.20
  113     1    1.20
  114     1    1.20
  115     1    1.20
  116     1    1.20
  117     1    1.20
  118     1    1.20
  119     1    1.20
  120     1    1.20
  121     7    1.50
  122     6    1.50
  123     6    1.50
  124     8    1.40
  125     6    1.50
  126     8    1.40
  127     1    1.20
  128     1    1.20
  129     1    1.20
  130     1    1.20
  131     1    1.20
  132     7    1.50
  133     6    1.50
  134     6    1.50
  135     8    1.40
  136     6    1.50
  137     1    1.20
  138     1    1.20
  139     1    1.20
  140     1    1.20
  141     1    1.20
  142     7    1.50
  143     6    1.50
  144     6    1.50
  145     8    1.40
  146     6    1.50
  147     1    1.20
  148     1    1.20
  149     1    1.20
  150     1    1.20
  151     1    1.20
  152     7    1.50
  153     6    1.50
  154     6    1.50
  155     8    1.40
  156     6    1.50
  157     6    1.50
  158     6    1.50
  159     8    1.40
  160     8    1.40
  161     1    1.20
  162     1    1.20
  163     1    1.20
  164     1    1.20
  165     1    1.20
  166     1    1.20
  167     7    1.50
  168     6    1.50
  169     1    1.20
  170     1    1.20
  171     1    1.20
  172     1    1.20
  173    20    1.70
  174     8    1.40
  175     1    1.20
  176     1    1.20
 Generate VDW surfaces: Layer= 4 Dens= 6 Start= 1.400 Inc= 0.200

 **********************************************************************

            Electrostatic Properties Using The SCF Density

 **********************************************************************

       Atomic Center    1 is at   2.335672  1.530900  5.501521
       Atomic Center    2 is at   1.790800  1.544909  4.084510
       Atomic Center    3 is at   2.510775  1.437233  3.092068
[...]
 **** Fit      -0.010852
 **** Fit      -0.004245
 **** Fit       0.001991
 **** Fit       0.007285
 **** Fit       0.011132
 **** Fit      -0.040172
 **** Fit      -0.030888
 **** Fit      -0.023882
 **** Fit      -0.016235
 **** Fit      -0.008290
 **** Fit      -0.000540
 **** Fit       0.006388
 **** Fit      -0.014517
 **** Fit       0.022566
 **** Fit       0.027710
 **** Fit       0.018928
 **** Fit       0.022636
 **** Fit       0.025929
 **** Fit       0.001952
 **** Fit       0.021286
 **** Fit       0.022680
 **** Fit       0.022413
 **** Fit       0.019934
 **** Fit       0.015143
 **** Fit       0.008456
 **** Fit       0.000747
 **** Fit       0.018746
 **** Fit       0.017804
 **** Fit       0.014704
 **** Fit       0.009540
 **** Fit       0.003218
 **** Fit      -0.002628
 **** Fit      -0.005863
 **** Fit       0.014570
 **** Fit       0.011552
 **** Fit       0.006991
 **** Fit       0.002290
 **** Fit      -0.000460
 **** Fit       0.000241
 **** Fit       0.004967
 **** Fit       0.003311
 **** Fit      -0.003653
 **** Fit       0.002603
 **** Fit       0.002265
 **** Fit       0.008702
 **** Fit       0.010954
 **** Fit       0.006201
 **** Fit      -0.001954
 **** Fit      -0.006019
 **** Fit      -0.011784
 **** Fit      -0.006153
 **** Fit      -0.010676
 **** Fit      -0.016934
 **** Fit      -0.009193
 **** Fit      -0.014716
 **** Fit      -0.022190
 **** Fit      -0.005309
 **** Fit      -0.010294
 **** Fit      -0.016916
 **** Fit      -0.025403
 **** Fit      -0.008794
 **** Fit      -0.016556
 **** Fit      -0.023268
 **** Fit      -0.003410
 **** Fit      -0.012668
 **** Fit       0.008148
 **** Fit       0.020424
 **** Fit       0.000185
 **** Fit       0.014909
 **** Fit       0.028407
 **** Fit       0.003837
 **** Fit       0.019762
 **** Fit       0.034299
 **** Fit       0.025381
 **** Fit       0.040431
 **** Fit       0.030155
 **** Fit       0.044417
 **** Fit       0.031786
 **** Fit       0.043941
 **** Fit       0.034641
 **** Fit       0.042748
 **** Fit       0.024719
 **** Fit       0.033523
 **** Fit       0.037025
 **** Fit       0.026071
 **** Fit       0.029057
 **** Fit       0.020896
 **** Fit       0.021783
 **** Fit      -0.012556
 **** Fit       0.018014
 **** Fit       0.017195
 **** Fit       0.018634
 **** Fit       0.019598
 **** Fit       0.017462
 **** Fit       0.017730
 **** Fit       0.017092
 **** Fit       0.016381
 **** Fit       0.015363
 **** Fit       0.013129
 **** Fit       0.009830
 **** Fit       0.006553
 **** Fit       0.004715
 **** Fit       0.004823
 **** Fit       0.005410
 **** Fit       0.015188
 **** Fit       0.013731
 **** Fit       0.011191
 **** Fit       0.008316
 **** Fit       0.006627
 **** Fit       0.005928
 **** Fit       0.012214
 **** Fit       0.009559
 **** Fit       0.007763
 **** Fit       0.007606
 **** Fit       0.010406
 **** Fit       0.035020
 **** Fit       0.043078
 **** Fit       0.034016
 **** Fit       0.040320
 **** Fit       0.031426
 **** Fit       0.035364
 **** Fit       0.036484
 **** Fit       0.017538
 **** Fit       0.006431
 **** Fit       0.027430
 **** Fit       0.028271
 **** Fit       0.025346
 **** Fit       0.018678
 **** Fit       0.009702
 **** Fit      -0.002374
 **** Fit      -0.002790
 **** Fit      -0.004153
 **** Fit      -0.000010
 **** Fit      -0.000587
 **** Fit      -0.001541
 **** Fit      -0.003134
 **** Fit      -0.004556
 **** Fit      -0.006083
 **** Fit      -0.007400
 **** Fit       0.000792
 **** Fit       0.000503
 **** Fit      -0.000054
 **** Fit      -0.000872
 **** Fit      -0.001905
 **** Fit      -0.003440
 **** Fit      -0.004882
 **** Fit      -0.006609
 **** Fit      -0.008523
 **** Fit      -0.010289
 **** Fit       0.001455
 **** Fit       0.001390
 **** Fit       0.001104
 **** Fit       0.000556
 **** Fit      -0.000222
 **** Fit      -0.001163
 **** Fit      -0.002227
 **** Fit      -0.003744
 **** Fit      -0.011157
 **** Fit      -0.013518
 **** Fit      -0.015399
 **** Fit       0.002032
 **** Fit       0.002113
 **** Fit       0.002007
 **** Fit       0.001646
 **** Fit       0.001031
 **** Fit       0.000224
 **** Fit      -0.000688
 **** Fit      -0.001648
 **** Fit      -0.002646
 **** Fit      -0.018486
 **** Fit      -0.021203
 **** Fit      -0.022729
 **** Fit       0.002054
 **** Fit       0.002417
 **** Fit       0.002720
 **** Fit       0.000875
 **** Fit      -0.000138
 **** Fit      -0.001156
 **** Fit      -0.002131
 **** Fit      -0.003077
 **** Fit       0.002027
 **** Fit       0.002590
 **** Fit       0.003094
 **** Fit      -0.000790
 **** Fit      -0.001857
 **** Fit      -0.002797
 **** Fit       0.002932
 **** Fit      -0.001647
 **** Fit      -0.002750
 **** Fit      -0.003647
 **** Fit       0.003151
 **** Fit      -0.002886
 **** Fit      -0.003975
 **** Fit       0.002734
 **** Fit      -0.004477
 **** Fit      -0.005551
 **** Fit      -0.006440
 **** Fit      -0.007550
 **** Fit      -0.009202
 **** Fit      -0.010266
 **** Fit      -0.013074
 **** Fit      -0.013942
 **** Fit      -0.018364
 **** Fit      -0.018883
 **** Fit      -0.018984
 **** Fit      -0.025103
 **** Fit      -0.024413
 **** Fit      -0.030132
 **** Fit      -0.005394
 **** Fit      -0.007224
 **** Fit      -0.005443
 **** Fit      -0.007028
 **** Fit      -0.009049
 **** Fit      -0.011438
 **** Fit      -0.013794
 **** Fit      -0.004184
 **** Fit      -0.005619
 **** Fit      -0.007046
 **** Fit      -0.008936
 **** Fit      -0.011387
 **** Fit      -0.014373
 **** Fit      -0.017607
 **** Fit      -0.003521
 **** Fit      -0.004500
 **** Fit      -0.005981
 **** Fit      -0.007302
 **** Fit      -0.009095
 **** Fit      -0.011519
 **** Fit      -0.014702
 **** Fit      -0.018666
 **** Fit      -0.023181
 **** Fit      -0.004096
 **** Fit      -0.004967
 **** Fit      -0.006594
 **** Fit      -0.007798
 **** Fit      -0.009455
 **** Fit      -0.011738
 **** Fit      -0.014841
 **** Fit      -0.018954
 **** Fit      -0.024203
 **** Fit      -0.004167
 **** Fit      -0.004927
 **** Fit      -0.005687
 **** Fit      -0.007526
 **** Fit      -0.008694
 **** Fit      -0.010349
 **** Fit      -0.012690
 **** Fit      -0.015969
 **** Fit      -0.020503
 **** Fit      -0.026658
 **** Fit      -0.005316
 **** Fit      -0.005992
 **** Fit      -0.006676
 **** Fit      -0.008852
 **** Fit      -0.009971
 **** Fit      -0.011596
 **** Fit      -0.013934
 **** Fit      -0.017266
 **** Fit      -0.021990
 **** Fit      -0.006910
 **** Fit      -0.007474
 **** Fit      -0.008070
 **** Fit      -0.010658
 **** Fit      -0.011756
 **** Fit      -0.013401
 **** Fit      -0.015814
 **** Fit      -0.019309
 **** Fit      -0.024362
 **** Fit      -0.009003
 **** Fit      -0.009437
 **** Fit      -0.009935
 **** Fit      -0.013039
 **** Fit      -0.014178
 **** Fit      -0.015978
 **** Fit      -0.018701
 **** Fit      -0.022746
 **** Fit      -0.011735
 **** Fit      -0.011995
 **** Fit      -0.012368
 **** Fit      -0.016096
 **** Fit      -0.017303
 **** Fit      -0.019349
 **** Fit      -0.022548
 **** Fit      -0.027412
 **** Fit      -0.015390
 **** Fit      -0.015346
 **** Fit      -0.015508
 **** Fit      -0.019912
 **** Fit      -0.021163
 **** Fit      -0.023450
 **** Fit      -0.027101
 **** Fit      -0.019664
 **** Fit      -0.019478
 **** Fit      -0.024501
 **** Fit      -0.025878
 **** Fit      -0.028680
 **** Fit      -0.033231
 **** Fit      -0.024333
 **** Fit      -0.029683
 **** Fit      -0.031130
 **** Fit      -0.001657
 **** Fit      -0.002241
 **** Fit      -0.003121
 **** Fit      -0.002488
 **** Fit      -0.001140
 **** Fit      -0.000549
 **** Fit      -0.001027
 **** Fit      -0.002853
 **** Fit      -0.004213
 **** Fit      -0.005044
 **** Fit      -0.004837
 **** Fit      -0.003636
 **** Fit      -0.002061
 **** Fit      -0.000745
 **** Fit       0.000031
 **** Fit       0.000282
 **** Fit       0.000089
 **** Fit      -0.000511
 **** Fit      -0.001518
 **** Fit      -0.005059
 **** Fit      -0.006563
 **** Fit      -0.007569
 **** Fit      -0.007695
 **** Fit      -0.006833
 **** Fit      -0.005264
 **** Fit      -0.003469
 **** Fit      -0.001825
 **** Fit      -0.000560
 **** Fit       0.000269
 **** Fit       0.000733
 **** Fit       0.000898
 **** Fit       0.000815
 **** Fit       0.000514
 **** Fit      -0.000030
 **** Fit      -0.009768
 **** Fit      -0.011060
 **** Fit      -0.011403
 **** Fit      -0.010648
 **** Fit      -0.008996
 **** Fit      -0.006912
 **** Fit      -0.004820
 **** Fit      -0.002914
 **** Fit      -0.001353
 **** Fit      -0.000234
 **** Fit       0.000535
 **** Fit       0.001051
 **** Fit       0.001317
 **** Fit       0.001370
 **** Fit       0.001271
 **** Fit      -0.016062
 **** Fit      -0.016522
 **** Fit      -0.015638
 **** Fit      -0.013660
 **** Fit      -0.011138
 **** Fit      -0.008616
 **** Fit      -0.006249
 **** Fit      -0.004042
 **** Fit      -0.002236
 **** Fit      -0.000951
 **** Fit       0.000022
 **** Fit       0.000850
 **** Fit       0.001423
 **** Fit       0.001692
 **** Fit       0.001781
 **** Fit      -0.023191
 **** Fit      -0.023836
 **** Fit      -0.022804
 **** Fit      -0.020473
 **** Fit      -0.017508
 **** Fit      -0.006250
 **** Fit      -0.004045
 **** Fit       0.001989
 **** Fit       0.002908
 **** Fit       0.002665
 **** Fit       0.002096
 **** Fit       0.003359
 **** Fit       0.003633
 **** Fit       0.003594
 **** Fit       0.003227
 **** Fit       0.002568
 **** Fit       0.001702
 **** Fit       0.000738
 **** Fit       0.003649
 **** Fit       0.004170
 **** Fit       0.004407
 **** Fit       0.004313
 **** Fit       0.003878
 **** Fit       0.003139
 **** Fit       0.002177
 **** Fit       0.001090
 **** Fit      -0.000020
 **** Fit       0.003686
 **** Fit       0.004476
 **** Fit       0.004999
 **** Fit       0.005203
 **** Fit       0.005041
 **** Fit       0.004514
 **** Fit       0.003670
 **** Fit       0.002594
 **** Fit       0.001379
 **** Fit       0.000122
 **** Fit      -0.001091
 **** Fit       0.003619
 **** Fit       0.004757
 **** Fit       0.005576
 **** Fit       0.006007
 **** Fit       0.005985
 **** Fit       0.005498
 **** Fit       0.004598
 **** Fit       0.003381
 **** Fit       0.001964
 **** Fit       0.000464
 **** Fit      -0.001018
 **** Fit      -0.002397
 **** Fit       0.003262
 **** Fit       0.004871
 **** Fit       0.006098
 **** Fit       0.006845
 **** Fit       0.007022
 **** Fit       0.006603
 **** Fit       0.005643
 **** Fit       0.004258
 **** Fit       0.002595
 **** Fit       0.000802
 **** Fit      -0.000994
 **** Fit      -0.002690
 **** Fit      -0.004211
 **** Fit       0.004037
 **** Fit       0.006022
 **** Fit       0.007451
 **** Fit       0.008165
 **** Fit       0.008073
 **** Fit       0.007196
 **** Fit       0.005669
 **** Fit       0.003689
 **** Fit       0.001468
 **** Fit      -0.000805
 **** Fit      -0.002977
 **** Fit      -0.004943
 **** Fit      -0.006636
 **** Fit       0.002875
 **** Fit       0.005924
 **** Fit       0.008237
 **** Fit       0.009526
 **** Fit       0.009595
 **** Fit       0.008446
 **** Fit       0.006304
 **** Fit       0.003519
 **** Fit       0.000446
 **** Fit      -0.002614
 **** Fit      -0.005433
 **** Fit      -0.007867
 **** Fit      -0.009853
 **** Fit       0.003861
 **** Fit      -0.000570
 **** Fit      -0.004928
 **** Fit      -0.008813
 **** Fit      -0.011986
 **** Fit      -0.014373
 **** Fit       0.017297
 **** Fit       0.010351
 **** Fit       0.001271
 **** Fit      -0.010018
 **** Fit       0.019189
 **** Fit       0.009904
 **** Fit      -0.001642
 **** Fit       0.020467
 **** Fit       0.008284
 **** Fit       0.020616
 **** Fit       0.004582
 **** Fit       0.024758
 **** Fit       0.024950
 **** Fit       0.023195
 **** Fit       0.024557
 **** Fit       0.024601
 **** Fit       0.022909
 **** Fit       0.019528
 **** Fit       0.015219
 **** Fit       0.011801
 **** Fit       0.011433
 **** Fit       0.056685
 **** Fit       0.055913
 **** Fit       0.055938
 **** Fit       0.056125
 **** Fit       0.055885
 **** Fit       0.054852
 **** Fit       0.052864
 **** Fit       0.029138
 **** Fit       0.027604
 **** Fit       0.027164
 **** Fit       0.026511
 **** Fit       0.024812
 **** Fit       0.021935
 **** Fit       0.018588
 **** Fit       0.016377
 **** Fit       0.016986
 **** Fit       0.020691
 **** Fit       0.054049
 **** Fit       0.053531
 **** Fit       0.053313
 **** Fit       0.053212
 **** Fit       0.052801
 **** Fit       0.051717
 **** Fit       0.049740
 **** Fit       0.046733
 **** Fit       0.042619
 **** Fit       0.037613
 **** Fit       0.032652
 **** Fit       0.033481
 **** Fit       0.031367
 **** Fit       0.029818
 **** Fit       0.028055
 **** Fit       0.025745
 **** Fit       0.023379
 **** Fit       0.022224
 **** Fit       0.023522
 **** Fit       0.027394
 **** Fit       0.050461
 **** Fit       0.050923
 **** Fit       0.050946
 **** Fit       0.050794
 **** Fit       0.050287
 **** Fit       0.049136
 **** Fit       0.047131
 **** Fit       0.044198
 **** Fit       0.040508
 **** Fit       0.036651
 **** Fit       0.036172
 **** Fit       0.033729
 **** Fit       0.031624
 **** Fit       0.029581
 **** Fit       0.028035
 **** Fit       0.028111
 **** Fit       0.030594
 **** Fit       0.035038
 **** Fit       0.040132
 **** Fit       0.044429
 **** Fit       0.047058
 **** Fit       0.048214
 **** Fit       0.048509
 **** Fit       0.048196
 **** Fit       0.047156
 **** Fit       0.045225
 **** Fit       0.042438
 **** Fit       0.039199
 **** Fit       0.037903
 **** Fit       0.035230
 **** Fit       0.033227
 **** Fit       0.032631
 **** Fit       0.034522
 **** Fit       0.038495
 **** Fit       0.042556
 **** Fit       0.045090
 **** Fit       0.045958
 **** Fit       0.045489
 **** Fit       0.043748
 **** Fit       0.040973
 **** Fit       0.039116
 **** Fit       0.036792
 **** Fit       0.037655
 **** Fit       0.041197
 **** Fit       0.043181
 **** Fit       0.042104
 **** Fit       0.040128
 **** Fit       0.031138
 **** Fit       0.034361
 **** Fit       0.036866
 **** Fit       0.038907
 **** Fit       0.035911
 **** Fit       0.038321
 **** Fit       0.040528
 **** Fit       0.036578
 **** Fit       0.038557
 **** Fit       0.040681
 **** Fit       0.042793
 **** Fit       0.044961
 **** Fit       0.040978
 **** Fit       0.040344
 **** Fit       0.041140
 **** Fit       0.042619
 **** Fit       0.044378
 **** Fit       0.046262
 **** Fit       0.048851
 **** Fit       0.045725
 **** Fit       0.044806
 **** Fit       0.045177
 **** Fit       0.046234
 **** Fit       0.047627
 **** Fit       0.049170
 **** Fit       0.051734
 **** Fit       0.049285
 **** Fit       0.048595
 **** Fit       0.048960
 **** Fit       0.049881
 **** Fit       0.051028
 **** Fit       0.057964
 **** Fit       0.054240
 **** Fit       0.052411
 **** Fit       0.051953
 **** Fit       0.052308
 **** Fit       0.053014
 **** Fit       0.055774
 **** Fit       0.055196
 **** Fit       0.055422
 **** Fit       0.055925
 -----------------------------------------------------------------
 Leave Link  602 at Mon Sep 16 13:43:09 2019, MaxMem=  4294967296 cpu:       157.3

 Test job not archived.
 1\1\GINC-N009\SP\RB3LYP\SVP\C54H83Ca1N15O23\PCIEPLAK\16-Sep-2019\0\\#m
 axdisk=50GB #B3LYP/SVP Density=Current scf=(tight) #IOP(5/87=12)Pop=(M
 K,readradii) iop(6/33=2) iop(6/42=6)\\SOL molecule\\0,1\C,0,67.95,46.7
 1,25.54\C,0,66.75,45.96,26.09\O,0,66.85,44.89,26.69\H,0,68.802,46.033,
 25.473\H,0,67.715,47.096,24.548\H,0,68.197,47.539,26.204\N,0,65.57,46.
 56,26.\C,0,64.27,45.99,26.33\C,0,63.76,45.02,25.27\O,0,63.08,45.29,24.
 28\C,0,63.28,47.15,26.4\C,0,61.85,46.97,26.9\O,0,61.65,45.83,27.37\O,0
 ,60.92,47.79,26.77\H,0,65.6,47.44,25.52\H,0,64.24,45.47,27.28\H,0,63.3
 ,47.7,25.46\H,0,63.86,47.73,27.11\N,0,64.11,43.75,25.49\C,0,64.12,42.7
 3,24.46\C,0,62.71,42.45,23.96\O,0,62.56,42.19,22.76\C,0,64.76,41.48,25
 .06\C,0,65.43,40.59,24.01\C,0,65.76,39.24,24.65\C,0,66.12,38.31,23.49\
 N,0,66.76,37.08,23.97\H,0,64.45,43.53,26.41\H,0,64.6,43.08,23.55\H,0,6
 3.97,40.99,25.63\H,0,65.5,41.74,25.81\H,0,66.29,41.11,23.6\H,0,64.65,4
 0.4,23.27\H,0,64.96,38.86,25.29\H,0,66.62,39.43,25.28\H,0,66.86,38.78,
 22.85\H,0,65.25,38.01,22.91\H,0,66.11,36.58,24.56\H,0,67.02,36.39,23.2
 8\H,0,67.53,37.39,24.56\N,0,61.75,42.45,24.88\C,0,60.35,42.18,24.61\C,
 0,59.55,43.45,24.35\O,0,58.49,43.42,23.72\C,0,59.7,41.34,25.7\C,0,59.7
 ,41.88,27.12\O,0,59.18,41.19,28.02\O,0,60.29,42.95,27.38\H,0,61.98,42.
 65,25.85\H,0,60.25,41.6,23.69\H,0,60.21,40.37,25.66\H,0,58.69,41.18,25
 .32\N,0,60.1,44.57,24.8\C,0,59.63,45.91,24.53\C,0,58.44,46.15,25.44\O,
 0,57.44,46.75,25.04\H,0,60.97,44.45,25.31\H,0,59.4,45.95,23.47\H,0,60.
 42,46.65,24.7\N,0,58.48,45.68,26.69\C,0,57.43,45.99,27.63\C,0,57.59,47
 .35,28.29\O,0,56.71,47.82,29.01\C,0,57.31,44.78,28.55\C,0,58.27,44.94,
 29.72\N,0,57.9,44.65,30.97\O,0,59.4,45.39,29.52\H,0,59.29,45.13,26.97\
 H,0,56.46,45.93,27.12\H,0,57.55,43.85,28.05\H,0,56.27,44.58,28.82\H,0,
 57.07,44.13,31.22\H,0,58.49,44.96,31.73\N,0,58.6,48.15,27.93\C,0,58.79
 ,49.46,28.52\C,0,59.83,49.52,29.62\O,0,60.1,50.5,30.32\H,0,59.22,47.81
 ,27.2\H,0,57.91,49.77,29.08\H,0,59.26,50.09,27.77\N,0,60.6,48.45,29.82
 \C,0,61.51,48.35,30.95\C,0,62.74,47.49,30.64\O,0,62.55,46.43,30.05\C,0
 ,60.74,47.79,32.14\C,0,59.62,48.66,32.68\C,0,59.78,49.67,33.63\C,0,58.
 33,48.36,32.24\C,0,58.68,50.39,34.12\C,0,57.24,49.13,32.67\C,0,57.4,50
 .2,33.57\O,0,56.3,50.91,33.98\H,0,60.65,47.8,29.05\H,0,61.98,49.31,31.
 13\H,0,61.51,47.82,32.91\H,0,60.31,46.82,31.88\H,0,60.77,49.88,34.01\H
 ,0,58.15,47.58,31.51\H,0,58.87,51.17,34.84\H,0,56.27,49.08,32.19\H,0,5
 5.52,50.54,33.56\N,0,63.92,47.77,31.18\C,0,65.12,47.,30.96\C,0,65.42,4
 6.26,32.26\O,0,65.6,46.91,33.29\C,0,66.32,47.9,30.65\C,0,65.98,48.82,2
 9.48\C,0,67.55,47.02,30.46\C,0,67.21,49.66,29.17\H,0,63.88,48.59,31.77
 \H,0,64.99,46.35,30.1\H,0,66.49,48.51,31.54\H,0,65.21,49.54,29.76\H,0,
 65.58,48.23,28.65\H,0,67.53,46.1,31.05\H,0,67.52,46.71,29.42\H,0,68.47
 ,47.55,30.7\H,0,68.02,49.01,28.84\H,0,66.95,50.34,28.36\H,0,67.41,50.1
 4,30.13\N,0,65.38,44.93,32.2\C,0,65.58,44.09,33.36\C,0,66.94,43.41,33.
 34\O,0,67.57,43.23,32.3\C,0,64.44,43.09,33.52\O,0,64.37,42.21,32.43\H,
 0,65.19,44.59,31.26\H,0,65.44,44.79,34.19\H,0,63.51,43.67,33.51\H,0,64
 .5,42.57,34.48\H,0,64.19,42.7,31.62\N,0,67.41,42.88,34.47\C,0,68.79,42
 .46,34.59\C,0,69.11,41.32,33.63\O,0,70.23,41.14,33.17\C,0,68.96,42.13,
 36.07\H,0,66.8,42.94,35.28\H,0,69.46,43.29,34.39\H,0,68.61,41.13,36.31
 \H,0,70.04,42.08,36.16\H,0,68.46,42.84,36.73\N,0,68.08,40.53,33.3\C,0,
 68.26,39.36,32.46\C,0,68.41,39.73,31.\O,0,69.12,39.09,30.22\C,0,67.07,
 38.44,32.75\H,0,67.18,40.8,33.65\H,0,69.21,38.91,32.75\H,0,66.09,38.87
 ,32.55\H,0,67.17,37.46,32.29\H,0,67.11,38.26,33.83\N,0,67.87,40.89,30.
 62\C,0,67.98,41.39,29.27\C,0,69.29,42.15,29.12\O,0,69.86,42.12,28.03\C
 ,0,66.8,42.32,29.02\C,0,65.39,41.73,28.98\C,0,64.31,42.8,28.98\O,0,63.
 47,42.65,28.07\O,0,64.15,43.58,29.94\H,0,67.41,41.47,31.32\H,0,67.89,4
 0.58,28.55\H,0,66.91,42.73,28.01\H,0,66.79,43.,29.87\H,0,65.28,41.09,2
 9.86\H,0,65.4,41.12,28.08\N,0,69.75,42.92,30.11\C,0,70.98,43.67,30.\H,
 0,71.761,43.028,29.592\H,0,70.828,44.523,29.338\H,0,71.28,44.023,30.98
 6\H,0,69.28,42.72,30.99\Ca,0,61.66,44.18,29.25\O,0,61.55,43.97,31.83\H
 ,0,61.02,43.23,32.11\H,0,61.62,44.53,32.61\\Version=ES64L-G09RevD.01\S
 tate=1-A\HF=-5333.581389\RMSD=2.505e-09\Dipole=8.5308359,-10.9718134,2
 .6170068\Quadrupole=-101.8590857,76.2955928,25.563493,-10.3202925,-98.
 6971685,76.7481389\PG=C01 [X(C54H83Ca1N15O23)]\\@


 THERE'S NOTHING SO GREAT AS THE GREAT OUTDOORS.

                                       -- ZIGGY
 Job cpu time:       0 days 16 hours 39 minutes  5.2 seconds.
 File lengths (MBytes):  RWF=   1513 Int=      0 D2E=      0 Chk=    103 Scr=      1
 Normal termination of Gaussian 09 at Mon Sep 16 13:43:09 2019.
