 Entering Gaussian System, Link 0=g09
 Initial command:
 /home/pcieplak/g09/g09/l1.exe "/scratch1/pcieplak/holo_26.0/Gau-5179.inp" -scrdir="/scratch1/pcieplak/holo_26.0/"
 Entering Link 1 = /home/pcieplak/g09/g09/l1.exe PID=      5180.
  
 Copyright (c) 1988,1990,1992,1993,1995,1998,2003,2009,2013,
            Gaussian, Inc.  All Rights Reserved.
  
 This is part of the Gaussian(R) 09 program.  It is based on
 the Gaussian(R) 03 system (copyright 2003, Gaussian, Inc.),
 the Gaussian(R) 98 system (copyright 1998, Gaussian, Inc.),
 the Gaussian(R) 94 system (copyright 1995, Gaussian, Inc.),
 the Gaussian 92(TM) system (copyright 1992, Gaussian, Inc.),
 the Gaussian 90(TM) system (copyright 1990, Gaussian, Inc.),
 the Gaussian 88(TM) system (copyright 1988, Gaussian, Inc.),
 the Gaussian 86(TM) system (copyright 1986, Carnegie Mellon
 University), and the Gaussian 82(TM) system (copyright 1983,
 Carnegie Mellon University). Gaussian is a federally registered
 trademark of Gaussian, Inc.
  
 This software contains proprietary and confidential information,
 including trade secrets, belonging to Gaussian, Inc.
  
 This software is provided under written license and may be
 used, copied, transmitted, or stored only in accord with that
 written license.
  
 The following legend is applicable only to US Government
 contracts under FAR:
  
                    RESTRICTED RIGHTS LEGEND
  
 Use, reproduction and disclosure by the US Government is
 subject to restrictions as set forth in subparagraphs (a)
 and (c) of the Commercial Computer Software - Restricted
 Rights clause in FAR 52.227-19.
  
 Gaussian, Inc.
 340 Quinnipiac St., Bldg. 40, Wallingford CT 06492
  
  
 ---------------------------------------------------------------
 Warning -- This program may not be used in any manner that
 competes with the business of Gaussian, Inc. or will provide
 assistance to any competitor of Gaussian, Inc.  The licensee
 of this program is prohibited from giving any competitor of
 Gaussian, Inc. access to this program.  By using this program,
 the user acknowledges that Gaussian, Inc. is engaged in the
 business of creating and licensing software in the field of
 computational chemistry and represents and warrants to the
 licensee that it is not a competitor of Gaussian, Inc. and that
 it will not use this program in any manner prohibited above.
 ---------------------------------------------------------------
  

 Cite this work as:
 Gaussian 09, Revision D.01,
 M. J. Frisch, G. W. Trucks, H. B. Schlegel, G. E. Scuseria, 
 M. A. Robb, J. R. Cheeseman, G. Scalmani, V. Barone, B. Mennucci, 
 G. A. Petersson, H. Nakatsuji, M. Caricato, X. Li, H. P. Hratchian, 
 A. F. Izmaylov, J. Bloino, G. Zheng, J. L. Sonnenberg, M. Hada, 
 M. Ehara, K. Toyota, R. Fukuda, J. Hasegawa, M. Ishida, T. Nakajima, 
 Y. Honda, O. Kitao, H. Nakai, T. Vreven, J. A. Montgomery, Jr., 
 J. E. Peralta, F. Ogliaro, M. Bearpark, J. J. Heyd, E. Brothers, 
 K. N. Kudin, V. N. Staroverov, T. Keith, R. Kobayashi, J. Normand, 
 K. Raghavachari, A. Rendell, J. C. Burant, S. S. Iyengar, J. Tomasi, 
 M. Cossi, N. Rega, J. M. Millam, M. Klene, J. E. Knox, J. B. Cross, 
 V. Bakken, C. Adamo, J. Jaramillo, R. Gomperts, R. E. Stratmann, 
 O. Yazyev, A. J. Austin, R. Cammi, C. Pomelli, J. W. Ochterski, 
 R. L. Martin, K. Morokuma, V. G. Zakrzewski, G. A. Voth, 
 P. Salvador, J. J. Dannenberg, S. Dapprich, A. D. Daniels, 
 O. Farkas, J. B. Foresman, J. V. Ortiz, J. Cioslowski, 
 and D. J. Fox, Gaussian, Inc., Wallingford CT, 2013.
 
 ******************************************
 Gaussian 09:  ES64L-G09RevD.01 24-Apr-2013
                16-Sep-2019 
 ******************************************
 %Nproc=12
 Will use up to   12 processors via shared memory.
 %chk=chk1mol
 %mem=32GB
 ----------------------------------------------------------------------
 #maxdisk=50GB #B3LYP/SVP Density=Current scf=(tight) #IOP(5/87=12)Pop=
 (MK,readradii) iop(6/33=2) iop(6/42=6)
 ----------------------------------------------------------------------
 1/30=1,38=1/1;
 2/12=2,17=6,18=5,40=1/2;
 3/5=18,7=101,11=2,16=1,25=1,30=1,74=-5/1,2,3;
 4//1;
 5/5=2,32=2,38=5,87=12/2;
 6/7=2,8=2,9=2,10=2,15=8,20=101,22=-1,28=1,33=2,42=6/1,2;
 99/5=1,9=1/99;
 ------------
 SOL molecule
 ------------
 Symbolic Z-matrix:
 Charge =  0 Multiplicity = 1
 C                     49.36     39.9      22.34 
 C                     49.53     39.06     23.6 
 O                     49.36     39.6      24.69 
 H                     48.678    40.725    22.544 
 H                     50.328    40.297    22.034 
 H                     48.952    39.28     21.542 
 N                     49.77     37.75     23.55 
 C                     50.69     37.09     24.45 
 C                     52.05     37.77     24.57 
 O                     52.67     38.04     23.55 
 C                     50.78     35.62     24.07 
 C                     51.66     34.74     24.95 
 O                     51.98     35.15     26.08 
 O                     52.1      33.64     24.55 
 H                     49.79     37.33     22.63 
 H                     50.16     37.07     25.41 
 H                     51.22     35.67     23.07 
 H                     49.77     35.22     24.09 
 N                     52.46     37.96     25.83 
 C                     53.63     38.76     26.1 
 C                     54.74     37.93     26.73 
 O                     55.92     38.25     26.56 
 C                     53.37     39.97     27. 
 C                     52.59     41.08     26.31 
 C                     52.62     42.29     27.24 
 C                     51.86     43.55     26.83 
 N                     52.47     44.26     25.69 
 H                     51.83     37.63     26.54 
 H                     54.       39.22     25.18 
 H                     54.31     40.39     27.38 
 H                     52.77     39.68     27.86 
 H                     51.56     40.77     26.16 
 H                     52.97     41.22     25.29 
 H                     53.64     42.55     27.51 
 H                     52.3      42.01     28.24 
 H                     52.       44.26     27.65 
 H                     50.81     43.37     26.59 
 H                     52.25     45.24     25.58 
 H                     53.48     44.26     25.73 
 H                     52.3      43.78     24.82 
 N                     54.48     36.77     27.34 
 C                     55.5      35.88     27.86 
 C                     55.65     34.57     27.1 
 O                     56.46     33.68     27.35 
 C                     55.41     35.72     29.37 
 C                     54.02     35.24     29.78 
 O                     53.79     34.93     30.97 
 O                     53.07     35.05     28.99 
 H                     53.5      36.55     27.45 
 H                     56.48     36.34     27.73 
 H                     55.64     36.67     29.85 
 H                     56.21     35.02     29.59 
 N                     55.06     34.53     25.9 
 C                     55.2      33.65     24.76 
 C                     54.84     32.19     25.04 
 O                     55.53     31.38     24.43 
 H                     54.23     35.08     25.74 
 H                     56.2      33.74     24.34 
 H                     54.5      33.91     23.97 
 N                     53.93     31.91     25.97 
 C                     53.43     30.59     26.29 
 C                     52.23     30.06     25.51 
 O                     51.78     28.96     25.81 
 C                     53.27     30.43     27.8 
 C                     52.13     31.31     28.29 
 N                     51.73     31.13     29.55 
 O                     51.59     32.2      27.63 
 H                     53.51     32.71     26.43 
 H                     54.14     29.83     25.98 
 H                     54.22     30.63     28.28 
 H                     52.94     29.41     28. 
 H                     52.25     30.52     30.16 
 H                     50.99     31.69     29.95 
 N                     51.74     30.78     24.5 
 C                     50.59     30.51     23.66 
 C                     49.2      30.85     24.19 
 O                     48.23     30.18     23.82 
 H                     52.14     31.7      24.43 
 H                     50.58     29.48     23.31 
 H                     50.75     31.02     22.7 
 N                     49.1      31.77     25.15 
 C                     47.9      31.97     25.94 
 C                     47.81     33.4      26.44 
 O                     48.8      34.09     26.66 
 C                     47.88     31.01     27.12 
 C                     47.87     29.51     27.05 
 C                     49.12     28.92     27.29 
 C                     46.72     28.72     26.9 
 C                     49.21     27.53     27.15 
 C                     46.82     27.32     26.83 
 C                     48.08     26.71     26.95 
 O                     48.18     25.35     26.88 
 H                     49.96     32.2      25.47 
 H                     47.03     31.74     25.33 
 H                     46.95     31.25     27.64 
 H                     48.63     31.35     27.84 
 H                     50.06     29.46     27.34 
 H                     45.75     29.18     26.92 
 H                     50.17     27.04     27.23 
 H                     45.93     26.71     26.73 
 H                     47.3      24.97     26.88 
 N                     46.58     33.9      26.63 
 C                     46.3      35.26     27.04 
 C                     45.71     35.28     28.44 
 O                     44.75     34.56     28.69 
 C                     45.58     36.09     25.98 
 C                     46.57     36.45     24.87 
 C                     44.82     37.3      26.51 
 C                     45.96     37.39     23.84 
 H                     45.77     33.32     26.48 
 H                     47.32     35.66     27.12 
 H                     44.75     35.51     25.56 
 H                     46.82     35.51     24.37 
 H                     47.45     36.94     25.29 
 H                     44.26     37.68     25.66 
 H                     44.11     37.11     27.31 
 H                     45.49     38.07     26.89 
 H                     46.14     38.4      24.2 
 H                     46.5      37.25     22.9 
 H                     44.91     37.17     23.65 
 N                     46.26     36.09     29.35 
 C                     45.73     36.37     30.67 
 C                     45.1      37.75     30.79 
 O                     45.27     38.57     29.89 
 C                     46.78     36.03     31.71 
 O                     47.84     36.93     31.51 
 H                     47.14     36.53     29.13 
 H                     44.94     35.64     30.84 
 H                     46.99     34.96     31.65 
 H                     46.32     36.17     32.69 
 H                     48.4      36.5      30.86 
 N                     44.55     38.08     31.96 
 C                     44.03     39.42     32.18 
 C                     45.02     40.55     31.99 
 O                     44.7      41.57     31.37 
 C                     43.18     39.58     33.43 
 H                     44.5      37.47     32.76 
 H                     43.34     39.51     31.33 
 H                     42.56     38.69     33.58 
 H                     43.91     39.76     34.22 
 H                     42.57     40.48     33.45 
 N                     46.26     40.47     32.48 
 C                     47.26     41.51     32.36 
 C                     47.69     41.81     30.93 
 O                     48.32     42.83     30.65 
 C                     48.42     41.07     33.26 
 H                     46.61     39.62     32.9 
 H                     46.92     42.41     32.87 
 H                     49.11     41.9      33.3 
 H                     48.03     40.78     34.24 
 H                     48.98     40.28     32.76 
 N                     47.43     40.86     30.03 
 C                     47.69     40.96     28.61 
 C                     46.44     41.54     27.96 
 O                     46.56     42.27     26.99 
 C                     48.       39.56     28.09 
 C                     49.16     39.01     28.9 
 C                     49.49     37.58     28.46 
 O                     50.56     37.32     27.87 
 O                     48.93     36.59     28.98 
 H                     47.02     39.98     30.31 
 H                     48.56     41.59     28.43 
 H                     48.38     39.6      27.07 
 H                     47.09     38.96     28.2 
 H                     49.02     39.12     29.98 
 H                     49.97     39.66     28.57 
 N                     45.25     41.17     28.44 
 C                     44.02     41.61     27.83 
 H                     43.274    41.787    28.605 
 H                     44.197    42.534    27.279 
 H                     43.658    40.842    27.146 
 H                     45.25     40.48     29.18 
 Ca                    50.68     34.77     28.31 
 O                     51.15     35.28     30.89 
 H                     52.1      35.14     30.92 
 H                     50.91     35.43     31.81 
 
 Stoichiometry    C54H83CaN15O23
 Framework group  C1[X(C54H83CaN15O23)]
 Deg. of freedom   522
 Full point group                 C1      NOp   1
 Largest Abelian subgroup         C1      NOp   1
 Largest concise Abelian subgroup C1      NOp   1
                         Standard orientation:                         
 ---------------------------------------------------------------------
 Center     Atomic      Atomic             Coordinates (Angstroms)
 Number     Number       Type             X           Y           Z
 ---------------------------------------------------------------------
      1          6           0        2.059782    2.950780    5.440370
      2          6           0        1.635919    2.358770    4.101728
      3          8           0        2.497095    2.172078    3.246087
      4          1           0        3.104950    2.707334    5.629378
      5          1           0        1.938828    4.033803    5.413916
      6          1           0        1.440295    2.534521    6.234494
      7          7           0        0.385352    1.961826    3.867807
      8          6           0       -0.280055    2.182680    2.602715
      9          6           0       -0.179838    3.612022    2.079900
     10          8           0       -0.488674    4.536913    2.819425
     11          6           0       -1.710014    1.674410    2.704093
     12          6           0       -2.557685    1.764200    1.440529
     13          8           0       -1.988395    1.918059    0.345250
     14          8           0       -3.806930    1.728761    1.482131
     15          1           0       -0.262323    2.032250    4.641601
     16          1           0        0.193984    1.466673    1.920424
     17          1           0       -2.134813    2.339600    3.461171
     18          1           0       -1.660417    0.632354    3.007672
     19          7           0        0.201284    3.703424    0.799981
     20          6           0        0.524598    4.988283    0.228663
     21          6           0       -0.443200    5.362847   -0.885324
     22          8           0       -0.673239    6.551261   -1.127098
     23          6           0        1.948536    5.090724   -0.322343
     24          6           0        3.014436    5.140959    0.762983
     25          6           0        4.334603    5.479200    0.075486
     26          6           0        5.606822    5.540314    0.918709
     27          7           0        5.649899    6.695092    1.835459
     28          1           0        0.369481    2.826292    0.339274
     29          1           0        0.508350    5.764527    0.998131
     30          1           0        2.062551    5.974571   -0.962823
     31          1           0        2.184571    4.216776   -0.925836
     32          1           0        3.099731    4.170340    1.242695
     33          1           0        2.685492    5.803185    1.573941
     34          1           0        4.245280    6.385431   -0.517530
     35          1           0        4.512191    4.807432   -0.759971
     36          1           0        6.415484    5.767225    0.218226
     37          1           0        5.786492    4.638096    1.507115
     38          1           0        6.557318    6.998056    2.160580
     39          1           0        5.269313    7.533848    1.419115
     40          1           0        5.038603    6.564052    2.626247
     41          7           0       -1.172358    4.436111   -1.513647
     42          6           0       -2.190224    4.736801   -2.501794
     43          6           0       -3.616986    4.457042   -2.052031
     44          8           0       -4.633550    4.654432   -2.714099
     45          6           0       -1.845679    4.176053   -3.873162
     46          6           0       -1.602188    2.670981   -3.795239
     47          8           0       -1.429227    2.009277   -4.842776
     48          8           0       -1.633680    1.997635   -2.742475
     49          1           0       -0.950676    3.478990   -1.277690
     50          1           0       -2.208554    5.811555   -2.684737
     51          1           0       -0.963813    4.683244   -4.261580
     52          1           0       -2.701584    4.462005   -4.476534
     53          7           0       -3.779502    4.268047   -0.737661
     54          6           0       -4.940400    4.284138    0.125852
     55          6           0       -5.990473    3.222688   -0.206218
     56          8           0       -7.146421    3.590179   -0.024463
     57          1           0       -3.024907    3.870433   -0.199619
     58          1           0       -5.375426    5.281531    0.147311
     59          1           0       -4.676603    4.031468    1.149702
     60          7           0       -5.604433    2.073622   -0.755782
     61          6           0       -6.466113    0.948984   -1.051581
     62          6           0       -6.693990   -0.096330    0.036854
     63          8           0       -7.389190   -1.070625   -0.227622
     64          6           0       -6.094366    0.329351   -2.396631
     65          6           0       -4.738194   -0.351359   -2.289242
     66          7           0       -4.364980   -1.114312   -3.318131
     67          8           0       -3.948493   -0.210232   -1.353424
     68          1           0       -4.606740    1.969336   -0.903205
     69          1           0       -7.497002    1.275169   -1.144697
     70          1           0       -6.146353    1.091593   -3.164214
     71          1           0       -6.796172   -0.479431   -2.603126
     72          1           0       -4.917596   -1.127781   -4.160173
     73          1           0       -3.470082   -1.583684   -3.325035
     74          7           0       -6.176071    0.102472    1.249635
     75          6           0       -6.214481   -0.762932    2.411788
     76          6           0       -5.220190   -1.917259    2.498465
     77          8           0       -5.537594   -2.945934    3.104916
     78          1           0       -5.550010    0.888070    1.296364
     79          1           0       -7.212941   -1.157776    2.586937
     80          1           0       -6.117417   -0.129100    3.304053
     81          7           0       -4.093487   -1.832100    1.790447
     82          6           0       -3.217791   -2.962683    1.547471
     83          6           0       -1.787025   -2.505715    1.330475
     84          8           0       -1.504564   -1.410114    0.856688
     85          6           0       -3.696265   -3.748888    0.336131
     86          6           0       -5.021327   -4.439526    0.187031
     87          6           0       -5.950223   -3.729037   -0.587926
     88          6           0       -5.308002   -5.735488    0.642443
     89          6           0       -7.239035   -4.265111   -0.694646
     90          6           0       -6.588601   -6.286842    0.466448
     91          6           0       -7.574515   -5.544690   -0.205328
     92          8           0       -8.820230   -6.077345   -0.375538
     93          1           0       -3.957509   -0.994573    1.236408
     94          1           0       -3.261719   -3.636335    2.399623
     95          1           0       -2.970911   -4.560291    0.244551
     96          1           0       -3.477061   -3.154642   -0.555677
     97          1           0       -5.829707   -2.699435   -0.909011
     98          1           0       -4.523955   -6.341849    1.055356
     99          1           0       -8.015616   -3.708356   -1.199665
    100          1           0       -6.804464   -7.293525    0.804374
    101          1           0       -8.809658   -6.995259   -0.099637
    102          7           0       -0.816498   -3.358277    1.691329
    103          6           0        0.600288   -3.069412    1.618020
    104          6           0        1.263391   -3.936732    0.561351
    105          8           0        1.082897   -5.148813    0.589340
    106          6           0        1.288643   -2.999080    2.978947
    107          6           0        0.887746   -1.696415    3.674752
    108          6           0        2.796833   -3.216723    2.954579
    109          6           0        1.638207   -1.490276    4.982772
    110          1           0       -1.052157   -4.270053    2.049280
    111          1           0        0.576547   -2.046113    1.219153
    112          1           0        0.980452   -3.854327    3.591541
    113          1           0       -0.177874   -1.789717    3.902455
    114          1           0        1.098019   -0.841183    3.030344
    115          1           0        3.093032   -3.279224    3.998064
    116          1           0        3.144977   -4.120153    2.461822
    117          1           0        3.320999   -2.396379    2.466229
    118          1           0        2.556138   -0.964493    4.731662
    119          1           0        1.026697   -0.846090    5.619859
    120          1           0        1.797865   -2.424777    5.519630
    121          7           0        2.026705   -3.342626   -0.361194
    122          6           0        2.869441   -4.016190   -1.329599
    123          6           0        4.353425   -3.933611   -1.002995
    124          8           0        4.734796   -3.162745   -0.124575
    125          6           0        2.474222   -3.574416   -2.725428
    126          8           0        2.787703   -2.207649   -2.810747
    127          1           0        2.003025   -2.336892   -0.427057
    128          1           0        2.590371   -5.068204   -1.293749
    129          1           0        1.441640   -3.881680   -2.904208
    130          1           0        3.066541   -4.162172   -3.429204
    131          1           0        2.001768   -1.761000   -2.488549
    132          7           0        5.202924   -4.559872   -1.819358
    133          6           0        6.639022   -4.430629   -1.631423
    134          6           0        7.183258   -3.017940   -1.666315
    135          8           0        8.012735   -2.641839   -0.831021
    136          6           0        7.480639   -5.410462   -2.432802
    137          1           0        4.928318   -5.104451   -2.620998
    138          1           0        6.732834   -4.738060   -0.581002
    139          1           0        6.990026   -6.388836   -2.465701
    140          1           0        7.588901   -4.926857   -3.404299
    141          1           0        8.508508   -5.508289   -2.091607
    142          7           0        6.777367   -2.145362   -2.592576
    143          6           0        7.260049   -0.785353   -2.708313
    144          6           0        6.929266    0.105122   -1.517751
    145          8           0        7.490700    1.188002   -1.350826
    146          6           0        6.693238   -0.259760   -4.031822
    147          1           0        6.025002   -2.362415   -3.231509
    148          1           0        8.328734   -0.789177   -2.917115
    149          1           0        7.160834    0.697830   -4.207821
    150          1           0        6.883358   -0.989654   -4.824102
    151          1           0        5.637965   -0.022161   -3.898978
    152          7           0        5.934142   -0.313199   -0.733638
    153          6           0        5.497978    0.338054    0.482763
    154          6           0        6.296210   -0.265719    1.631537
    155          8           0        6.597703    0.440029    2.579810
    156          6           0        4.001934    0.085611    0.639688
    157          6           0        3.312425    0.584231   -0.617355
    158          6           0        1.806241    0.312853   -0.545509
    159          8           0        0.988222    1.251693   -0.445389
    160          8           0        1.315149   -0.762321   -0.954081
    161          1           0        5.409309   -1.145563   -0.963031
    162          1           0        5.655777    1.413333    0.411526
    163          1           0        3.585781    0.701087    1.436184
    164          1           0        3.865022   -0.990274    0.794372
    165          1           0        3.783973    0.224469   -1.537308
    166          1           0        3.466369    1.659140   -0.525850
    167          7           0        6.578730   -1.570142    1.586104
    168          6           0        7.258995   -2.233408    2.670501
    169          1           0        7.933749   -2.988759    2.267236
    170          1           0        7.832142   -1.502851    3.241899
    171          1           0        6.526470   -2.711132    3.321585
    172          1           0        6.197082   -2.093759    0.809013
    173         20           0       -1.151363    0.040985   -1.262005
    174          8           0       -0.121895   -0.026163   -3.726368
    175          1           0       -0.604231    0.699388   -4.131247
    176          1           0        0.375808   -0.407878   -4.456495
 ---------------------------------------------------------------------
 Rotational constants (GHZ):      0.0241671      0.0149154      0.0119464
 Standard basis: SVP (5D, 7F)
 There are  1809 symmetry adapted cartesian basis functions of A   symmetry.
 There are  1717 symmetry adapted basis functions of A   symmetry.
  1717 basis functions,  2922 primitive gaussians,  1809 cartesian basis functions
   358 alpha electrons      358 beta electrons
       nuclear repulsion energy     21762.6709117495 Hartrees.
 NAtoms=  176 NActive=  176 NUniq=  176 SFac= 1.00D+00 NAtFMM=   60 NAOKFM=T Big=T
 Integral buffers will be    131072 words long.
 Raffenetti 2 integral format.
 Two-electron integral symmetry is turned on.
 One-electron integrals computed using PRISM.
 NBasis=  1717 RedAO= T EigKep=  2.91D-04  NBF=  1717
 NBsUse=  1717 1.00D-06 EigRej= -1.00D+00 NBFU=  1717
 ExpMin= 1.98D-02 ExpMax= 3.51D+04 ExpMxC= 5.28D+03 IAcc=3 IRadAn=         5 AccDes= 0.00D+00
 Harris functional with IExCor=  402 and IRadAn=       5 diagonalized for initial guess.
 HarFok:  IExCor=  402 AccDes= 0.00D+00 IRadAn=         5 IDoV= 1 UseB2=F ITyADJ=14
 ICtDFT=  3500011 ScaDFX=  1.000000  1.000000  1.000000  1.000000
 FoFCou: FMM=F IPFlag=           0 FMFlag=      100000 FMFlg1=        2001
         NFxFlg=           0 DoJE=T BraDBF=F KetDBF=T FulRan=T
         wScrn=  0.000000 ICntrl=     500 IOpCl=  0 I1Cent=   200000004 NGrid=           0
         NMat0=    1 NMatS0=      1 NMatT0=    0 NMatD0=    1 NMtDS0=    0 NMtDT0=    0
 Petite list used in FoFCou.
 Requested convergence on RMS density matrix=1.00D-08 within 128 cycles.
 Requested convergence on MAX density matrix=1.00D-06.
 Requested convergence on             energy=1.00D-06.
 No special actions if energy rises.
 EnCoef did     5 forward-backward iterations
 SCF Done:  E(RB3LYP) =  -5333.60678935     A.U. after   17 cycles
            NFock= 17  Conv=0.59D-08     -V/T= 2.0081

 **********************************************************************

            Population analysis using the SCF density.

 **********************************************************************

 Orbital symmetries:
 BldTbl:  Degeneracy threshold= 1.00D-02
       Occupied  (A) (A) (A) (A) (A) (A) (A) (A) (A) (A) (A) (A)
                 (A) (A) (A) (A) (A) (A) (A) (A) (A) (A) (A) (A)
                 (A) (A) (A) (A) (A) (A) (A) (A) (A) (A) (A) (A)
                 (A) (A) (A) (A) (A) (A) (A) (A) (A) (A) (A) (A)
                 (A) (A) (A) (A) (A) (A) (A) (A) (A) (A) (A) (A)
                 (A) (A) (A) (A) (A) (A) (A) (A) (A) (A) (A) (A)
                 (A) (A) (A) (A) (A) (A) (A) (A) (A) (A) (A) (A)
                 (A) (A) (A) (A) (A) (A) (A) (A) (A) (A) (A) (A)
                 (A) (A) (A) (A) (A) (A) (A) (A) (A) (A) (A) (A)
                 (A) (A) (A) (A) (A) (A) (A) (A) (A) (A) (A) (A)
                 (A) (A) (A) (A) (A) (A) (A) (A) (A) (A) (A) (A)
                 (A) (A) (A) (A) (A) (A) (A) (A) (A) (A) (A) (A)
                 (A) (A) (A) (A) (A) (A) (A) (A) (A) (A) (A) (A)
                 (A) (A) (A) (A) (A) (A) (A) (A) (A) (A) (A) (A)
                 (A) (A) (A) (A) (A) (A) (A) (A) (A) (A) (A) (A)
                 (A) (A) (A) (A) (A) (A) (A) (A) (A) (A) (A) (A)
                 (A) (A) (A) (A) (A) (A) (A) (A) (A) (A) (A) (A)
                 (A) (A) (A) (A) (A) (A) (A) (A) (A) (A) (A) (A)
                 (A) (A) (A) (A) (A) (A) (A) (A) (A) (A) (A) (A)
                 (A) (A) (A) (A) (A) (A) (A) (A) (A) (A) (A) (A)
                 (A) (A) (A) (A) (A) (A) (A) (A) (A) (A) (A) (A)
                 (A) (A) (A) (A) (A) (A) (A) (A) (A) (A) (A) (A)
                 (A) (A) (A) (A) (A) (A) (A) (A) (A) (A) (A) (A)
                 (A) (A) (A) (A) (A) (A) (A) (A) (A) (A) (A) (A)
                 (A) (A) (A) (A) (A) (A) (A) (A) (A) (A) (A) (A)
                 (A) (A) (A) (A) (A) (A) (A) (A) (A) (A) (A) (A)
                 (A) (A) (A) (A) (A) (A) (A) (A) (A) (A) (A) (A)
                 (A) (A) (A) (A) (A) (A) (A) (A) (A) (A) (A) (A)
                 (A) (A) (A) (A) (A) (A) (A) (A) (A) (A) (A) (A)
                 (A) (A) (A) (A) (A) (A) (A) (A) (A) (A)
       Virtual   (A) (A) (A) (A) (A) (A) (A) (A) (A) (A) (A) (A)
                 (A) (A) (A) (A) (A) (A) (A) (A) (A) (A) (A) (A)
                 (A) (A) (A) (A) (A) (A) (A) (A) (A) (A) (A) (A)
                 (A) (A) (A) (A) (A) (A) (A) (A) (A) (A) (A) (A)
                 (A) (A) (A) (A) (A) (A) (A) (A) (A) (A) (A) (A)
                 (A) (A) (A) (A) (A) (A) (A) (A) (A) (A) (A) (A)
                 (A) (A) (A) (A) (A) (A) (A) (A) (A) (A) (A) (A)
                 (A) (A) (A) (A) (A) (A) (A) (A) (A) (A) (A) (A)
                 (A) (A) (A) (A) (A) (A) (A) (A) (A) (A) (A) (A)
                 (A) (A) (A) (A) (A) (A) (A) (A) (A) (A) (A) (A)
                 (A) (A) (A) (A) (A) (A) (A) (A) (A) (A) (A) (A)
                 (A) (A) (A) (A) (A) (A) (A) (A) (A) (A) (A) (A)
                 (A) (A) (A) (A) (A) (A) (A) (A) (A) (A) (A) (A)
                 (A) (A) (A) (A) (A) (A) (A) (A) (A) (A) (A) (A)
                 (A) (A) (A) (A) (A) (A) (A) (A) (A) (A) (A) (A)
                 (A) (A) (A) (A) (A) (A) (A) (A) (A) (A) (A) (A)
                 (A) (A) (A) (A) (A) (A) (A) (A) (A) (A) (A) (A)
                 (A) (A) (A) (A) (A) (A) (A) (A) (A) (A) (A) (A)
                 (A) (A) (A) (A) (A) (A) (A) (A) (A) (A) (A) (A)
                 (A) (A) (A) (A) (A) (A) (A) (A) (A) (A) (A) (A)
                 (A) (A) (A) (A) (A) (A) (A) (A) (A) (A) (A) (A)
                 (A) (A) (A) (A) (A) (A) (A) (A) (A) (A) (A) (A)
                 (A) (A) (A) (A) (A) (A) (A) (A) (A) (A) (A) (A)
                 (A) (A) (A) (A) (A) (A) (A) (A) (A) (A) (A) (A)
                 (A) (A) (A) (A) (A) (A) (A) (A) (A) (A) (A) (A)
                 (A) (A) (A) (A) (A) (A) (A) (A) (A) (A) (A) (A)
                 (A) (A) (A) (A) (A) (A) (A) (A) (A) (A) (A) (A)
                 (A) (A) (A) (A) (A) (A) (A) (A) (A) (A) (A) (A)
                 (A) (A) (A) (A) (A) (A) (A) (A) (A) (A) (A) (A)
                 (A) (A) (A) (A) (A) (A) (A) (A) (A) (A) (A) (A)
                 (A) (A) (A) (A) (A) (A) (A) (A) (A) (A) (A) (A)
                 (A) (A) (A) (A) (A) (A) (A) (A) (A) (A) (A) (A)
                 (A) (A) (A) (A) (A) (A) (A) (A) (A) (A) (A) (A)
                 (A) (A) (A) (A) (A) (A) (A) (A) (A) (A) (A) (A)
                 (A) (A) (A) (A) (A) (A) (A) (A) (A) (A) (A) (A)
                 (A) (A) (A) (A) (A) (A) (A) (A) (A) (A) (A) (A)
                 (A) (A) (A) (A) (A) (A) (A) (A) (A) (A) (A) (A)
                 (A) (A) (A) (A) (A) (A) (A) (A) (A) (A) (A) (A)
                 (A) (A) (A) (A) (A) (A) (A) (A) (A) (A) (A) (A)
                 (A) (A) (A) (A) (A) (A) (A) (A) (A) (A) (A) (A)
                 (A) (A) (A) (A) (A) (A) (A) (A) (A) (A) (A) (A)
                 (A) (A) (A) (A) (A) (A) (A) (A) (A) (A) (A) (A)
                 (A) (A) (A) (A) (A) (A) (A) (A) (A) (A) (A) (A)
                 (A) (A) (A) (A) (A) (A) (A) (A) (A) (A) (A) (A)
                 (A) (A) (A) (A) (A) (A) (A) (A) (A) (A) (A) (A)
                 (A) (A) (A) (A) (A) (A) (A) (A) (A) (A) (A) (A)
                 (A) (A) (A) (A) (A) (A) (A) (A) (A) (A) (A) (A)
                 (A) (A) (A) (A) (A) (A) (A) (A) (A) (A) (A) (A)
                 (A) (A) (A) (A) (A) (A) (A) (A) (A) (A) (A) (A)
                 (A) (A) (A) (A) (A) (A) (A) (A) (A) (A) (A) (A)
                 (A) (A) (A) (A) (A) (A) (A) (A) (A) (A) (A) (A)
                 (A) (A) (A) (A) (A) (A) (A) (A) (A) (A) (A) (A)
                 (A) (A) (A) (A) (A) (A) (A) (A) (A) (A) (A) (A)
                 (A) (A) (A) (A) (A) (A) (A) (A) (A) (A) (A) (A)
                 (A) (A) (A) (A) (A) (A) (A) (A) (A) (A) (A) (A)
                 (A) (A) (A) (A) (A) (A) (A) (A) (A) (A) (A) (A)
                 (A) (A) (A) (A) (A) (A) (A) (A) (A) (A) (A) (A)
                 (A) (A) (A) (A) (A) (A) (A) (A) (A) (A) (A) (A)
                 (A) (A) (A) (A) (A) (A) (A) (A) (A) (A) (A) (A)
                 (A) (A) (A) (A) (A) (A) (A) (A) (A) (A) (A) (A)
                 (A) (A) (A) (A) (A) (A) (A) (A) (A) (A) (A) (A)
                 (A) (A) (A) (A) (A) (A) (A) (A) (A) (A) (A) (A)
                 (A) (A) (A) (A) (A) (A) (A) (A) (A) (A) (A) (A)
                 (A) (A) (A) (A) (A) (A) (A) (A) (A) (A) (A) (A)
                 (A) (A) (A) (A) (A) (A) (A) (A) (A) (A) (A) (A)
                 (A) (A) (A) (A) (A) (A) (A) (A) (A) (A) (A) (A)
                 (A) (A) (A) (A) (A) (A) (A) (A) (A) (A) (A) (A)
                 (A) (A) (A) (A) (A) (A) (A) (A) (A) (A) (A) (A)
                 (A) (A) (A) (A) (A) (A) (A) (A) (A) (A) (A) (A)
                 (A) (A) (A) (A) (A) (A) (A) (A) (A) (A) (A) (A)
                 (A) (A) (A) (A) (A) (A) (A) (A) (A) (A) (A) (A)
                 (A) (A) (A) (A) (A) (A) (A) (A) (A) (A) (A) (A)
                 (A) (A) (A) (A) (A) (A) (A) (A) (A) (A) (A) (A)
                 (A) (A) (A) (A) (A) (A) (A) (A) (A) (A) (A) (A)
                 (A) (A) (A) (A) (A) (A) (A) (A) (A) (A) (A) (A)
                 (A) (A) (A) (A) (A) (A) (A) (A) (A) (A) (A) (A)
                 (A) (A) (A) (A) (A) (A) (A) (A) (A) (A) (A) (A)
                 (A) (A) (A) (A) (A) (A) (A) (A) (A) (A) (A) (A)
                 (A) (A) (A) (A) (A) (A) (A) (A) (A) (A) (A) (A)
                 (A) (A) (A) (A) (A) (A) (A) (A) (A) (A) (A) (A)
                 (A) (A) (A) (A) (A) (A) (A) (A) (A) (A) (A) (A)
                 (A) (A) (A) (A) (A) (A) (A) (A) (A) (A) (A) (A)
                 (A) (A) (A) (A) (A) (A) (A) (A) (A) (A) (A) (A)
                 (A) (A) (A) (A) (A) (A) (A) (A) (A) (A) (A) (A)
                 (A) (A) (A) (A) (A) (A) (A) (A) (A) (A) (A) (A)
                 (A) (A) (A) (A) (A) (A) (A) (A) (A) (A) (A) (A)
                 (A) (A) (A) (A) (A) (A) (A) (A) (A) (A) (A) (A)
                 (A) (A) (A) (A) (A) (A) (A) (A) (A) (A) (A) (A)
                 (A) (A) (A) (A) (A) (A) (A) (A) (A) (A) (A) (A)
                 (A) (A) (A) (A) (A) (A) (A) (A) (A) (A) (A) (A)
                 (A) (A) (A) (A) (A) (A) (A) (A) (A) (A) (A) (A)
                 (A) (A) (A) (A) (A) (A) (A) (A) (A) (A) (A) (A)
                 (A) (A) (A) (A) (A) (A) (A) (A) (A) (A) (A) (A)
                 (A) (A) (A) (A) (A) (A) (A) (A) (A) (A) (A) (A)
                 (A) (A) (A) (A) (A) (A) (A) (A) (A) (A) (A) (A)
                 (A) (A) (A) (A) (A) (A) (A) (A) (A) (A) (A) (A)
                 (A) (A) (A) (A) (A) (A) (A) (A) (A) (A) (A) (A)
                 (A) (A) (A) (A) (A) (A) (A) (A) (A) (A) (A) (A)
                 (A) (A) (A) (A) (A) (A) (A) (A) (A) (A) (A) (A)
                 (A) (A) (A) (A) (A) (A) (A) (A) (A) (A) (A) (A)
                 (A) (A) (A) (A) (A) (A) (A) (A) (A) (A) (A) (A)
                 (A) (A) (A) (A) (A) (A) (A) (A) (A) (A) (A) (A)
                 (A) (A) (A) (A) (A) (A) (A) (A) (A) (A) (A) (A)
                 (A) (A) (A) (A) (A) (A) (A) (A) (A) (A) (A) (A)
                 (A) (A) (A) (A) (A) (A) (A) (A) (A) (A) (A) (A)
                 (A) (A) (A) (A) (A) (A) (A) (A) (A) (A) (A) (A)
                 (A) (A) (A) (A) (A) (A) (A) (A) (A) (A) (A) (A)
                 (A) (A) (A) (A) (A) (A) (A) (A) (A) (A) (A) (A)
                 (A) (A) (A) (A) (A) (A) (A) (A) (A) (A) (A) (A)
                 (A) (A) (A) (A) (A) (A) (A) (A) (A) (A) (A) (A)
                 (A) (A) (A) (A) (A) (A) (A) (A) (A) (A) (A) (A)
                 (A) (A) (A) (A) (A) (A) (A) (A) (A) (A) (A) (A)
                 (A) (A) (A) (A) (A) (A) (A) (A) (A) (A) (A) (A)
                 (A) (A) (A)
 The electronic state is 1-A.
 Alpha  occ. eigenvalues -- -145.38233 -19.14985 -19.14513 -19.14160 -19.14114
 Alpha  occ. eigenvalues --  -19.12855 -19.11434 -19.11083 -19.10762 -19.09904
 Alpha  occ. eigenvalues --  -19.09623 -19.09528 -19.09363 -19.08309 -19.06889
 Alpha  occ. eigenvalues --  -19.06858 -19.06624 -19.05994 -19.05219 -19.04914
 Alpha  occ. eigenvalues --  -19.04749 -19.04212 -19.03942 -19.03019 -15.43982
 Alpha  occ. eigenvalues --  -14.57780 -14.40007 -14.38021 -14.37635 -14.37244
 Alpha  occ. eigenvalues --  -14.34974 -14.34936 -14.34570 -14.33685 -14.32884
 Alpha  occ. eigenvalues --  -14.32444 -14.31773 -14.31689 -14.30807 -14.29567
 Alpha  occ. eigenvalues --  -12.57600 -12.57550 -12.57545 -10.34267 -10.32317
 Alpha  occ. eigenvalues --  -10.31924 -10.30987 -10.30186 -10.29223 -10.28608
 Alpha  occ. eigenvalues --  -10.28455 -10.28386 -10.26628 -10.26437 -10.26332
 Alpha  occ. eigenvalues --  -10.26190 -10.26077 -10.25478 -10.25259 -10.25096
 Alpha  occ. eigenvalues --  -10.24752 -10.24715 -10.24401 -10.24002 -10.23763
 Alpha  occ. eigenvalues --  -10.23734 -10.23282 -10.23071 -10.22933 -10.22832
 Alpha  occ. eigenvalues --  -10.22537 -10.22396 -10.22193 -10.21091 -10.20912
 Alpha  occ. eigenvalues --  -10.20604 -10.20595 -10.20368 -10.19959 -10.19818
 Alpha  occ. eigenvalues --  -10.19774 -10.19737 -10.19418 -10.19104 -10.19046
 Alpha  occ. eigenvalues --  -10.18691 -10.18047 -10.17758 -10.17676 -10.17428
 Alpha  occ. eigenvalues --  -10.17408 -10.17398 -10.17303 -10.17049 -10.16730
 Alpha  occ. eigenvalues --  -10.16235 -10.15483  -1.80861  -1.13109  -1.08716
 Alpha  occ. eigenvalues --   -1.08369  -1.08253  -1.07303  -1.06756  -1.05622
 Alpha  occ. eigenvalues --   -1.05229  -1.04412  -1.03894  -1.03213  -1.02914
 Alpha  occ. eigenvalues --   -1.02812  -1.02200  -1.01096  -1.00297  -1.00194
 Alpha  occ. eigenvalues --   -1.00108  -0.99981  -0.99556  -0.99352  -0.97921
 Alpha  occ. eigenvalues --   -0.97335  -0.96891  -0.96545  -0.94590  -0.94303
 Alpha  occ. eigenvalues --   -0.94166  -0.92337  -0.92260  -0.92008  -0.91748
 Alpha  occ. eigenvalues --   -0.91121  -0.90713  -0.89539  -0.88898  -0.88843
 Alpha  occ. eigenvalues --   -0.88681  -0.87976  -0.87818  -0.87624  -0.85789
 Alpha  occ. eigenvalues --   -0.83127  -0.82404  -0.81803  -0.81662  -0.80078
 Alpha  occ. eigenvalues --   -0.78632  -0.78400  -0.77635  -0.77441  -0.77204
 Alpha  occ. eigenvalues --   -0.75577  -0.74521  -0.74279  -0.72787  -0.72760
 Alpha  occ. eigenvalues --   -0.72692  -0.72221  -0.72185  -0.71233  -0.71005
 Alpha  occ. eigenvalues --   -0.69919  -0.69381  -0.68826  -0.68343  -0.68153
 Alpha  occ. eigenvalues --   -0.67365  -0.66163  -0.65806  -0.65013  -0.64836
 Alpha  occ. eigenvalues --   -0.64570  -0.63190  -0.62910  -0.62293  -0.61704
 Alpha  occ. eigenvalues --   -0.61546  -0.61094  -0.60390  -0.60233  -0.60034
 Alpha  occ. eigenvalues --   -0.59773  -0.59541  -0.59165  -0.57913  -0.57583
 Alpha  occ. eigenvalues --   -0.57092  -0.57031  -0.56854  -0.56254  -0.56125
 Alpha  occ. eigenvalues --   -0.55940  -0.55709  -0.55475  -0.55306  -0.54730
 Alpha  occ. eigenvalues --   -0.54472  -0.54050  -0.53670  -0.53418  -0.53236
 Alpha  occ. eigenvalues --   -0.52978  -0.52852  -0.52072  -0.51568  -0.51475
 Alpha  occ. eigenvalues --   -0.51302  -0.51104  -0.50827  -0.50508  -0.49945
 Alpha  occ. eigenvalues --   -0.49772  -0.49590  -0.49507  -0.49293  -0.48938
 Alpha  occ. eigenvalues --   -0.48856  -0.48742  -0.48497  -0.48220  -0.48095
 Alpha  occ. eigenvalues --   -0.47908  -0.47298  -0.47128  -0.47056  -0.46790
 Alpha  occ. eigenvalues --   -0.46704  -0.46668  -0.46565  -0.46416  -0.46026
 Alpha  occ. eigenvalues --   -0.45677  -0.45618  -0.45064  -0.44940  -0.44859
 Alpha  occ. eigenvalues --   -0.44697  -0.44630  -0.44578  -0.44254  -0.44101
 Alpha  occ. eigenvalues --   -0.43925  -0.43810  -0.43486  -0.43335  -0.43295
 Alpha  occ. eigenvalues --   -0.42988  -0.42764  -0.42602  -0.42463  -0.42262
 Alpha  occ. eigenvalues --   -0.42231  -0.42027  -0.42000  -0.41838  -0.41625
 Alpha  occ. eigenvalues --   -0.41610  -0.41333  -0.41193  -0.40904  -0.40839
 Alpha  occ. eigenvalues --   -0.40647  -0.40631  -0.40516  -0.40377  -0.40247
 Alpha  occ. eigenvalues --   -0.40163  -0.40116  -0.39982  -0.39694  -0.39619
 Alpha  occ. eigenvalues --   -0.39457  -0.39325  -0.39244  -0.39128  -0.38962
 Alpha  occ. eigenvalues --   -0.38890  -0.38704  -0.38477  -0.38320  -0.38203
 Alpha  occ. eigenvalues --   -0.38170  -0.38015  -0.37775  -0.37452  -0.37422
 Alpha  occ. eigenvalues --   -0.37353  -0.37269  -0.37231  -0.36850  -0.36846
 Alpha  occ. eigenvalues --   -0.36674  -0.36399  -0.36335  -0.36123  -0.36003
 Alpha  occ. eigenvalues --   -0.35887  -0.35587  -0.35349  -0.35159  -0.35062
 Alpha  occ. eigenvalues --   -0.34917  -0.34850  -0.34507  -0.34424  -0.34228
 Alpha  occ. eigenvalues --   -0.34179  -0.33468  -0.33282  -0.33138  -0.32816
 Alpha  occ. eigenvalues --   -0.32629  -0.32566  -0.32478  -0.32382  -0.32215
 Alpha  occ. eigenvalues --   -0.31167  -0.31050  -0.30934  -0.30643  -0.29934
 Alpha  occ. eigenvalues --   -0.29789  -0.29650  -0.29591  -0.29320  -0.29159
 Alpha  occ. eigenvalues --   -0.28792  -0.28509  -0.27847  -0.27190  -0.26809
 Alpha  occ. eigenvalues --   -0.26664  -0.26568  -0.25993  -0.25505  -0.25322
 Alpha  occ. eigenvalues --   -0.25250  -0.25088  -0.24927  -0.24580  -0.24242
 Alpha  occ. eigenvalues --   -0.24054  -0.23630  -0.23551  -0.23314  -0.23097
 Alpha  occ. eigenvalues --   -0.22964  -0.22702  -0.21962  -0.21867  -0.21742
 Alpha  occ. eigenvalues --   -0.21601  -0.21426  -0.20654  -0.20202  -0.20002
 Alpha  occ. eigenvalues --   -0.19539  -0.18836  -0.18589
 Alpha virt. eigenvalues --   -0.09920  -0.03875  -0.03444  -0.02669  -0.02342
 Alpha virt. eigenvalues --   -0.01487  -0.00670  -0.00556  -0.00141   0.00267
 Alpha virt. eigenvalues --    0.00532   0.00621   0.00796   0.01520   0.01696
 Alpha virt. eigenvalues --    0.01977   0.02740   0.02994   0.03484   0.03902
 Alpha virt. eigenvalues --    0.03977   0.04070   0.04287   0.04470   0.04639
 Alpha virt. eigenvalues --    0.04935   0.05039   0.05268   0.05554   0.05630
 Alpha virt. eigenvalues --    0.05894   0.06202   0.06297   0.06482   0.06824
 Alpha virt. eigenvalues --    0.07103   0.07292   0.07612   0.07803   0.07906
 Alpha virt. eigenvalues --    0.08018   0.08096   0.08298   0.08457   0.08937
 Alpha virt. eigenvalues --    0.09114   0.09255   0.09539   0.09802   0.10065
 Alpha virt. eigenvalues --    0.10290   0.10546   0.10730   0.10822   0.10962
 Alpha virt. eigenvalues --    0.11197   0.11285   0.11427   0.11550   0.11745
 Alpha virt. eigenvalues --    0.11861   0.12185   0.12296   0.12562   0.12693
 Alpha virt. eigenvalues --    0.12986   0.12991   0.13126   0.13226   0.13389
 Alpha virt. eigenvalues --    0.13486   0.13721   0.13954   0.14121   0.14307
 Alpha virt. eigenvalues --    0.14447   0.14546   0.14770   0.14963   0.15369
 Alpha virt. eigenvalues --    0.15458   0.15518   0.15594   0.15807   0.15918
 Alpha virt. eigenvalues --    0.16119   0.16322   0.16576   0.16818   0.16849
 Alpha virt. eigenvalues --    0.16959   0.17134   0.17279   0.17578   0.17799
 Alpha virt. eigenvalues --    0.17884   0.18121   0.18253   0.18338   0.18680
 Alpha virt. eigenvalues --    0.18849   0.18948   0.19057   0.19288   0.19596
 Alpha virt. eigenvalues --    0.19667   0.19739   0.19806   0.20102   0.20248
 Alpha virt. eigenvalues --    0.20523   0.20607   0.20802   0.21080   0.21457
 Alpha virt. eigenvalues --    0.21650   0.21829   0.22037   0.22364   0.22684
 Alpha virt. eigenvalues --    0.22903   0.23152   0.23357   0.23443   0.23991
 Alpha virt. eigenvalues --    0.24088   0.24185   0.24368   0.24589   0.24854
 Alpha virt. eigenvalues --    0.25083   0.25227   0.25397   0.25531   0.25614
 Alpha virt. eigenvalues --    0.25841   0.26048   0.26200   0.26336   0.26479
 Alpha virt. eigenvalues --    0.26741   0.26874   0.27254   0.27405   0.27622
 Alpha virt. eigenvalues --    0.27826   0.27851   0.28022   0.28542   0.28608
 Alpha virt. eigenvalues --    0.29054   0.29325   0.29754   0.30104   0.30509
 Alpha virt. eigenvalues --    0.30603   0.30706   0.31022   0.31116   0.31305
 Alpha virt. eigenvalues --    0.31500   0.31572   0.31768   0.32186   0.32375
 Alpha virt. eigenvalues --    0.32416   0.32890   0.32988   0.33315   0.33475
 Alpha virt. eigenvalues --    0.33779   0.33928   0.34241   0.34411   0.35119
 Alpha virt. eigenvalues --    0.35496   0.35913   0.36199   0.36470   0.36627
 Alpha virt. eigenvalues --    0.36773   0.37080   0.37373   0.37870   0.38028
 Alpha virt. eigenvalues --    0.38391   0.38772   0.39002   0.39427   0.39589
 Alpha virt. eigenvalues --    0.39792   0.40128   0.40313   0.40482   0.40907
 Alpha virt. eigenvalues --    0.41047   0.41146   0.41515   0.41791   0.41990
 Alpha virt. eigenvalues --    0.42217   0.42401   0.42728   0.42799   0.43244
 Alpha virt. eigenvalues --    0.43294   0.43452   0.43501   0.43753   0.43902
 Alpha virt. eigenvalues --    0.44152   0.44520   0.44701   0.44851   0.45139
 Alpha virt. eigenvalues --    0.45232   0.45350   0.45531   0.45712   0.45942
 Alpha virt. eigenvalues --    0.46155   0.46344   0.46475   0.46542   0.46950
 Alpha virt. eigenvalues --    0.47020   0.47598   0.47668   0.47829   0.48090
 Alpha virt. eigenvalues --    0.48328   0.48415   0.48569   0.48724   0.48940
 Alpha virt. eigenvalues --    0.49251   0.49392   0.49599   0.49709   0.49967
 Alpha virt. eigenvalues --    0.50161   0.50296   0.50535   0.50641   0.50855
 Alpha virt. eigenvalues --    0.51174   0.51402   0.51429   0.51803   0.51855
 Alpha virt. eigenvalues --    0.52156   0.52306   0.52518   0.52657   0.53061
 Alpha virt. eigenvalues --    0.53253   0.53469   0.53489   0.53904   0.54103
 Alpha virt. eigenvalues --    0.54462   0.54490   0.54699   0.54868   0.55036
 Alpha virt. eigenvalues --    0.55278   0.55329   0.55498   0.55660   0.55845
 Alpha virt. eigenvalues --    0.56218   0.56359   0.56451   0.56532   0.56702
 Alpha virt. eigenvalues --    0.56905   0.57260   0.57441   0.57645   0.57807
 Alpha virt. eigenvalues --    0.58013   0.58110   0.58213   0.58572   0.58666
 Alpha virt. eigenvalues --    0.58866   0.58951   0.59142   0.59294   0.59403
 Alpha virt. eigenvalues --    0.59558   0.59894   0.59999   0.60283   0.60389
 Alpha virt. eigenvalues --    0.60439   0.60507   0.60751   0.60790   0.60983
 Alpha virt. eigenvalues --    0.61090   0.61350   0.61408   0.61549   0.61635
 Alpha virt. eigenvalues --    0.61898   0.61937   0.61990   0.62294   0.62406
 Alpha virt. eigenvalues --    0.62460   0.62668   0.62923   0.63022   0.63173
 Alpha virt. eigenvalues --    0.63248   0.63392   0.63507   0.63587   0.63630
 Alpha virt. eigenvalues --    0.63683   0.63854   0.63919   0.64023   0.64157
 Alpha virt. eigenvalues --    0.64460   0.64503   0.64596   0.64666   0.64764
 Alpha virt. eigenvalues --    0.64856   0.65022   0.65168   0.65278   0.65364
 Alpha virt. eigenvalues --    0.65466   0.65586   0.65635   0.65737   0.65855
 Alpha virt. eigenvalues --    0.66047   0.66139   0.66259   0.66368   0.66414
 Alpha virt. eigenvalues --    0.66606   0.66667   0.66941   0.67033   0.67220
 Alpha virt. eigenvalues --    0.67286   0.67347   0.67477   0.67495   0.67604
 Alpha virt. eigenvalues --    0.67819   0.67829   0.67952   0.68179   0.68382
 Alpha virt. eigenvalues --    0.68414   0.68556   0.68570   0.68700   0.68763
 Alpha virt. eigenvalues --    0.68997   0.69057   0.69195   0.69301   0.69340
 Alpha virt. eigenvalues --    0.69434   0.69656   0.69703   0.69947   0.70038
 Alpha virt. eigenvalues --    0.70212   0.70289   0.70556   0.70627   0.70685
 Alpha virt. eigenvalues --    0.70780   0.70951   0.71022   0.71185   0.71457
 Alpha virt. eigenvalues --    0.71550   0.71677   0.71813   0.71946   0.72048
 Alpha virt. eigenvalues --    0.72266   0.72382   0.72554   0.72794   0.72808
 Alpha virt. eigenvalues --    0.73100   0.73170   0.73314   0.73514   0.73576
 Alpha virt. eigenvalues --    0.73750   0.74152   0.74183   0.74269   0.74597
 Alpha virt. eigenvalues --    0.74672   0.75029   0.75066   0.75191   0.75511
 Alpha virt. eigenvalues --    0.75607   0.76045   0.76214   0.76524   0.76577
 Alpha virt. eigenvalues --    0.76823   0.77034   0.77151   0.77394   0.77538
 Alpha virt. eigenvalues --    0.77873   0.77985   0.78416   0.78669   0.78761
 Alpha virt. eigenvalues --    0.78870   0.79235   0.79444   0.79641   0.79848
 Alpha virt. eigenvalues --    0.80028   0.80635   0.80677   0.81349   0.81472
 Alpha virt. eigenvalues --    0.81669   0.81852   0.82133   0.82399   0.82582
 Alpha virt. eigenvalues --    0.82841   0.82973   0.83344   0.83498   0.83678
 Alpha virt. eigenvalues --    0.84374   0.84457   0.84749   0.85059   0.85218
 Alpha virt. eigenvalues --    0.85381   0.85654   0.86224   0.86406   0.86851
 Alpha virt. eigenvalues --    0.87605   0.87792   0.87975   0.88235   0.88498
 Alpha virt. eigenvalues --    0.88715   0.88971   0.89268   0.89302   0.89357
 Alpha virt. eigenvalues --    0.89639   0.90201   0.90383   0.91199   0.91346
 Alpha virt. eigenvalues --    0.91724   0.91892   0.92378   0.92832   0.92984
 Alpha virt. eigenvalues --    0.93383   0.93483   0.93898   0.94114   0.94660
 Alpha virt. eigenvalues --    0.94785   0.95070   0.95189   0.95705   0.95841
 Alpha virt. eigenvalues --    0.95957   0.96245   0.96541   0.96622   0.96760
 Alpha virt. eigenvalues --    0.97102   0.97516   0.97644   0.97865   0.97982
 Alpha virt. eigenvalues --    0.98269   0.98753   0.99004   0.99272   0.99594
 Alpha virt. eigenvalues --    1.00088   1.00208   1.00601   1.00649   1.01081
 Alpha virt. eigenvalues --    1.01282   1.01414   1.01641   1.02202   1.02802
 Alpha virt. eigenvalues --    1.03079   1.03261   1.03499   1.03756   1.04239
 Alpha virt. eigenvalues --    1.04377   1.04817   1.05094   1.05548   1.06039
 Alpha virt. eigenvalues --    1.06204   1.06680   1.06847   1.07057   1.07441
 Alpha virt. eigenvalues --    1.08028   1.08138   1.08733   1.08881   1.08954
 Alpha virt. eigenvalues --    1.09317   1.09839   1.10027   1.10201   1.10287
 Alpha virt. eigenvalues --    1.10419   1.10574   1.11013   1.11350   1.11445
 Alpha virt. eigenvalues --    1.11754   1.11989   1.12383   1.13180   1.13483
 Alpha virt. eigenvalues --    1.13905   1.14057   1.14297   1.14511   1.14729
 Alpha virt. eigenvalues --    1.15063   1.15325   1.15497   1.15631   1.15913
 Alpha virt. eigenvalues --    1.16395   1.16427   1.16749   1.17366   1.17440
 Alpha virt. eigenvalues --    1.17656   1.17828   1.18132   1.18387   1.18559
 Alpha virt. eigenvalues --    1.18697   1.19040   1.19328   1.19818   1.20161
 Alpha virt. eigenvalues --    1.20334   1.20697   1.21023   1.21272   1.21329
 Alpha virt. eigenvalues --    1.21509   1.21632   1.22211   1.22642   1.22782
 Alpha virt. eigenvalues --    1.23033   1.23103   1.23422   1.23824   1.24064
 Alpha virt. eigenvalues --    1.24085   1.24233   1.24467   1.24812   1.24877
 Alpha virt. eigenvalues --    1.25339   1.25847   1.26078   1.26418   1.26672
 Alpha virt. eigenvalues --    1.26946   1.27182   1.27279   1.27568   1.27660
 Alpha virt. eigenvalues --    1.27960   1.28097   1.28545   1.28613   1.28962
 Alpha virt. eigenvalues --    1.29100   1.29428   1.29621   1.29760   1.30196
 Alpha virt. eigenvalues --    1.30664   1.30892   1.31242   1.31565   1.31789
 Alpha virt. eigenvalues --    1.31974   1.32337   1.32562   1.32809   1.32944
 Alpha virt. eigenvalues --    1.33191   1.33658   1.33807   1.33984   1.34528
 Alpha virt. eigenvalues --    1.34737   1.35042   1.35281   1.35659   1.35806
 Alpha virt. eigenvalues --    1.36222   1.36448   1.36513   1.36998   1.37207
 Alpha virt. eigenvalues --    1.37415   1.37769   1.38151   1.38553   1.38867
 Alpha virt. eigenvalues --    1.38949   1.39247   1.39420   1.39680   1.40194
 Alpha virt. eigenvalues --    1.40449   1.40603   1.40818   1.41209   1.41473
 Alpha virt. eigenvalues --    1.41675   1.41823   1.42143   1.42377   1.42630
 Alpha virt. eigenvalues --    1.42796   1.43032   1.43220   1.43326   1.43637
 Alpha virt. eigenvalues --    1.43891   1.44013   1.44439   1.44488   1.44709
 Alpha virt. eigenvalues --    1.45253   1.45655   1.46198   1.46540   1.46898
 Alpha virt. eigenvalues --    1.47199   1.47341   1.47495   1.47941   1.48001
 Alpha virt. eigenvalues --    1.48501   1.48569   1.48837   1.49030   1.49301
 Alpha virt. eigenvalues --    1.49537   1.49971   1.50588   1.50992   1.51125
 Alpha virt. eigenvalues --    1.51558   1.51727   1.51877   1.52439   1.52579
 Alpha virt. eigenvalues --    1.52806   1.53315   1.53401   1.53698   1.53954
 Alpha virt. eigenvalues --    1.54136   1.54532   1.55044   1.55208   1.55499
 Alpha virt. eigenvalues --    1.55602   1.55827   1.56190   1.56504   1.56814
 Alpha virt. eigenvalues --    1.56881   1.57304   1.57641   1.58005   1.58286
 Alpha virt. eigenvalues --    1.58974   1.59405   1.59897   1.60283   1.60467
 Alpha virt. eigenvalues --    1.60867   1.60930   1.61551   1.61755   1.62027
 Alpha virt. eigenvalues --    1.62494   1.63272   1.63545   1.63693   1.63860
 Alpha virt. eigenvalues --    1.63965   1.64622   1.64883   1.64933   1.65153
 Alpha virt. eigenvalues --    1.65693   1.66304   1.66480   1.66757   1.66840
 Alpha virt. eigenvalues --    1.66936   1.67239   1.67647   1.67723   1.67958
 Alpha virt. eigenvalues --    1.68168   1.68522   1.68623   1.68696   1.68939
 Alpha virt. eigenvalues --    1.69100   1.69339   1.69664   1.69729   1.69922
 Alpha virt. eigenvalues --    1.70107   1.70500   1.70696   1.71068   1.71205
 Alpha virt. eigenvalues --    1.71314   1.71793   1.71993   1.72347   1.72948
 Alpha virt. eigenvalues --    1.73133   1.73259   1.73491   1.74017   1.74191
 Alpha virt. eigenvalues --    1.74552   1.74719   1.74923   1.75063   1.75136
 Alpha virt. eigenvalues --    1.75214   1.75388   1.75528   1.75664   1.75736
 Alpha virt. eigenvalues --    1.75952   1.76176   1.76696   1.76718   1.76923
 Alpha virt. eigenvalues --    1.76987   1.77085   1.77327   1.77549   1.77859
 Alpha virt. eigenvalues --    1.77991   1.78008   1.78325   1.78436   1.78606
 Alpha virt. eigenvalues --    1.78761   1.78869   1.79120   1.79266   1.79656
 Alpha virt. eigenvalues --    1.79693   1.79772   1.79834   1.80194   1.80339
 Alpha virt. eigenvalues --    1.80451   1.80650   1.80704   1.80905   1.81077
 Alpha virt. eigenvalues --    1.81350   1.81397   1.81674   1.81867   1.81999
 Alpha virt. eigenvalues --    1.82070   1.82285   1.82340   1.82671   1.82915
 Alpha virt. eigenvalues --    1.82938   1.83323   1.83562   1.83847   1.83938
 Alpha virt. eigenvalues --    1.84205   1.84306   1.84469   1.84718   1.84924
 Alpha virt. eigenvalues --    1.84977   1.85337   1.85515   1.85721   1.85950
 Alpha virt. eigenvalues --    1.85988   1.86179   1.86606   1.86916   1.87092
 Alpha virt. eigenvalues --    1.87160   1.87303   1.87620   1.87781   1.87903
 Alpha virt. eigenvalues --    1.88133   1.88265   1.88457   1.88641   1.88724
 Alpha virt. eigenvalues --    1.88836   1.88974   1.89252   1.89285   1.89747
 Alpha virt. eigenvalues --    1.89831   1.90162   1.90255   1.90542   1.90839
 Alpha virt. eigenvalues --    1.90953   1.91202   1.91263   1.91531   1.91584
 Alpha virt. eigenvalues --    1.91661   1.92045   1.92264   1.92510   1.92843
 Alpha virt. eigenvalues --    1.93017   1.93153   1.93371   1.93649   1.93780
 Alpha virt. eigenvalues --    1.93809   1.94008   1.94223   1.94522   1.94747
 Alpha virt. eigenvalues --    1.94889   1.95134   1.95357   1.95793   1.96017
 Alpha virt. eigenvalues --    1.96216   1.96698   1.96834   1.96999   1.97206
 Alpha virt. eigenvalues --    1.97345   1.97666   1.97900   1.98092   1.98394
 Alpha virt. eigenvalues --    1.98821   1.98914   1.99128   1.99206   1.99564
 Alpha virt. eigenvalues --    1.99685   1.99941   2.00016   2.00280   2.00555
 Alpha virt. eigenvalues --    2.00834   2.00915   2.01169   2.01292   2.01612
 Alpha virt. eigenvalues --    2.01796   2.02195   2.02252   2.02320   2.02740
 Alpha virt. eigenvalues --    2.02934   2.03223   2.03350   2.03590   2.03834
 Alpha virt. eigenvalues --    2.04098   2.04356   2.04625   2.04827   2.05227
 Alpha virt. eigenvalues --    2.05302   2.05453   2.05853   2.06049   2.06530
 Alpha virt. eigenvalues --    2.06697   2.07340   2.07540   2.07633   2.07725
 Alpha virt. eigenvalues --    2.08124   2.08708   2.08843   2.08974   2.09552
 Alpha virt. eigenvalues --    2.09703   2.10153   2.10225   2.10661   2.10731
 Alpha virt. eigenvalues --    2.11297   2.11738   2.12129   2.12476   2.12696
 Alpha virt. eigenvalues --    2.13081   2.13273   2.13637   2.13906   2.14080
 Alpha virt. eigenvalues --    2.14234   2.14660   2.14701   2.14778   2.15202
 Alpha virt. eigenvalues --    2.15420   2.15727   2.16127   2.16450   2.16569
 Alpha virt. eigenvalues --    2.16899   2.17403   2.17559   2.17975   2.18047
 Alpha virt. eigenvalues --    2.18175   2.18569   2.18960   2.19146   2.19567
 Alpha virt. eigenvalues --    2.19988   2.20153   2.20672   2.20916   2.21247
 Alpha virt. eigenvalues --    2.21426   2.21604   2.21835   2.22030   2.22325
 Alpha virt. eigenvalues --    2.22993   2.23403   2.23633   2.24073   2.24116
 Alpha virt. eigenvalues --    2.24192   2.24527   2.24996   2.25323   2.25519
 Alpha virt. eigenvalues --    2.25923   2.26233   2.26491   2.27070   2.27211
 Alpha virt. eigenvalues --    2.27534   2.27895   2.28327   2.28943   2.29448
 Alpha virt. eigenvalues --    2.29549   2.29790   2.29927   2.30234   2.30321
 Alpha virt. eigenvalues --    2.30463   2.30985   2.31491   2.32204   2.32540
 Alpha virt. eigenvalues --    2.32937   2.32975   2.33253   2.33869   2.34229
 Alpha virt. eigenvalues --    2.34665   2.34898   2.35394   2.35780   2.36051
 Alpha virt. eigenvalues --    2.36132   2.36302   2.36688   2.37006   2.37421
 Alpha virt. eigenvalues --    2.37667   2.37976   2.38179   2.38410   2.39004
 Alpha virt. eigenvalues --    2.39174   2.39312   2.39855   2.39932   2.39951
 Alpha virt. eigenvalues --    2.40595   2.40743   2.40795   2.41205   2.41447
 Alpha virt. eigenvalues --    2.41586   2.41963   2.42078   2.42424   2.42802
 Alpha virt. eigenvalues --    2.43223   2.43284   2.43818   2.44158   2.44294
 Alpha virt. eigenvalues --    2.44523   2.44837   2.45057   2.45686   2.45908
 Alpha virt. eigenvalues --    2.46594   2.46726   2.46908   2.47403   2.47922
 Alpha virt. eigenvalues --    2.48472   2.48911   2.49435   2.49916   2.50078
 Alpha virt. eigenvalues --    2.50364   2.50920   2.51211   2.52009   2.52049
 Alpha virt. eigenvalues --    2.52461   2.52489   2.53311   2.53682   2.53841
 Alpha virt. eigenvalues --    2.54247   2.54355   2.54528   2.55068   2.55534
 Alpha virt. eigenvalues --    2.55768   2.56047   2.56158   2.56430   2.56582
 Alpha virt. eigenvalues --    2.57140   2.57497   2.57683   2.58232   2.58262
 Alpha virt. eigenvalues --    2.58811   2.59139   2.59816   2.60061   2.60082
 Alpha virt. eigenvalues --    2.60229   2.60694   2.60843   2.61272   2.61612
 Alpha virt. eigenvalues --    2.61802   2.62267   2.62342   2.62551   2.62752
 Alpha virt. eigenvalues --    2.63389   2.63436   2.63678   2.63912   2.64385
 Alpha virt. eigenvalues --    2.64668   2.65252   2.65642   2.66394   2.66532
 Alpha virt. eigenvalues --    2.66615   2.66719   2.67383   2.67797   2.68217
 Alpha virt. eigenvalues --    2.68518   2.68583   2.68676   2.68868   2.69177
 Alpha virt. eigenvalues --    2.69311   2.69755   2.69763   2.70350   2.70823
 Alpha virt. eigenvalues --    2.70904   2.71020   2.71775   2.71835   2.72201
 Alpha virt. eigenvalues --    2.72387   2.72527   2.72592   2.72816   2.72921
 Alpha virt. eigenvalues --    2.73201   2.73475   2.73579   2.74048   2.74395
 Alpha virt. eigenvalues --    2.74415   2.74566   2.74981   2.75101   2.75222
 Alpha virt. eigenvalues --    2.75554   2.75845   2.76378   2.76718   2.76985
 Alpha virt. eigenvalues --    2.77422   2.77625   2.77755   2.77969   2.78354
 Alpha virt. eigenvalues --    2.78419   2.78624   2.78958   2.79289   2.79683
 Alpha virt. eigenvalues --    2.80109   2.80285   2.80584   2.80844   2.81167
 Alpha virt. eigenvalues --    2.81919   2.82003   2.82239   2.82478   2.82585
 Alpha virt. eigenvalues --    2.82966   2.83158   2.83513   2.83838   2.84270
 Alpha virt. eigenvalues --    2.84488   2.84847   2.84995   2.85200   2.86146
 Alpha virt. eigenvalues --    2.86424   2.86678   2.87057   2.87424   2.87859
 Alpha virt. eigenvalues --    2.87990   2.88583   2.88809   2.89112   2.89456
 Alpha virt. eigenvalues --    2.89665   2.89903   2.90162   2.90255   2.90548
 Alpha virt. eigenvalues --    2.90701   2.90906   2.91482   2.91658   2.91935
 Alpha virt. eigenvalues --    2.92741   2.93018   2.93306   2.93474   2.93756
 Alpha virt. eigenvalues --    2.94498   2.94738   2.95094   2.95166   2.95517
 Alpha virt. eigenvalues --    2.95674   2.95843   2.95919   2.96026   2.96191
 Alpha virt. eigenvalues --    2.96769   2.96924   2.97483   2.98333   2.98475
 Alpha virt. eigenvalues --    2.98614   2.99210   2.99339   3.00218   3.00725
 Alpha virt. eigenvalues --    3.00892   3.00980   3.01378   3.01499   3.01698
 Alpha virt. eigenvalues --    3.01895   3.02412   3.02587   3.02692   3.03129
 Alpha virt. eigenvalues --    3.03379   3.03830   3.04238   3.04409   3.04988
 Alpha virt. eigenvalues --    3.05198   3.05827   3.06188   3.06796   3.07117
 Alpha virt. eigenvalues --    3.07883   3.08014   3.08193   3.08508   3.08746
 Alpha virt. eigenvalues --    3.09395   3.10119   3.10924   3.11146   3.11500
 Alpha virt. eigenvalues --    3.11954   3.12180   3.12519   3.13062   3.13460
 Alpha virt. eigenvalues --    3.13696   3.14337   3.14777   3.15735   3.15781
 Alpha virt. eigenvalues --    3.16044   3.16179   3.16389   3.17530   3.18184
 Alpha virt. eigenvalues --    3.18402   3.18450   3.18911   3.18933   3.19373
 Alpha virt. eigenvalues --    3.19753   3.20304   3.20741   3.20862   3.21325
 Alpha virt. eigenvalues --    3.21361   3.21535   3.21808   3.22027   3.22210
 Alpha virt. eigenvalues --    3.22392   3.23064   3.23558   3.23838   3.24027
 Alpha virt. eigenvalues --    3.24805   3.24866   3.25920   3.26247   3.26834
 Alpha virt. eigenvalues --    3.27322   3.28102   3.28891   3.29551   3.29620
 Alpha virt. eigenvalues --    3.30663   3.32672   3.33392   3.33542   3.34368
 Alpha virt. eigenvalues --    3.34788   3.35589   3.35918   3.36401   3.36650
 Alpha virt. eigenvalues --    3.39393   3.40522   3.47557   3.52014   3.52594
 Alpha virt. eigenvalues --    3.52754   3.53311   3.54599   3.55469   3.56647
 Alpha virt. eigenvalues --    3.57476   3.57878   3.58855   3.59634   3.60084
 Alpha virt. eigenvalues --    3.60403   3.60655   3.61451   3.61686   3.62530
 Alpha virt. eigenvalues --    3.66013   3.66297   3.66785   3.67979   3.68549
 Alpha virt. eigenvalues --    3.68812   3.69001   3.69230   3.69527   3.69839
 Alpha virt. eigenvalues --    3.69926   3.70635   3.70891   3.71199   3.71915
 Alpha virt. eigenvalues --    3.72231   3.72709   3.72959   3.73494   3.74408
 Alpha virt. eigenvalues --    3.76847   3.80316   3.82774   3.93045
          Condensed to atoms (all electrons):
 Mulliken charges:
               1
     1  C    0.066908
     2  C    0.021462
     3  O   -0.288390
     4  H    0.026787
     5  H    0.034340
     6  H    0.011878
     7  N   -0.106719
     8  C    0.099461
     9  C    0.048894
    10  O   -0.289089
    11  C    0.045447
    12  C    0.136309
    13  O   -0.460936
    14  O   -0.375155
    15  H    0.108334
    16  H   -0.006372
    17  H    0.008747
    18  H    0.017140
    19  N   -0.127242
    20  C    0.167029
    21  C    0.054911
    22  O   -0.306962
    23  C   -0.005767
    24  C    0.029826
    25  C   -0.061389
    26  C    0.090441
    27  N    0.063662
    28  H    0.158215
    29  H    0.006008
    30  H    0.008603
    31  H    0.015612
    32  H    0.038130
    33  H   -0.019005
    34  H    0.002845
    35  H    0.051918
    36  H    0.059959
    37  H    0.107829
    38  H    0.190297
    39  H    0.173469
    40  H    0.189720
    41  N   -0.149417
    42  C    0.121041
    43  C    0.074400
    44  O   -0.280727
    45  C    0.091376
    46  C    0.149355
    47  O   -0.404757
    48  O   -0.491799
    49  H    0.147343
    50  H    0.031055
    51  H    0.005171
    52  H    0.030732
    53  N   -0.173126
    54  C    0.224002
    55  C    0.013752
    56  O   -0.289006
    57  H    0.140414
    58  H    0.012186
    59  H    0.026406
    60  N   -0.144270
    61  C    0.163231
    62  C    0.020918
    63  O   -0.291695
    64  C    0.055151
    65  C    0.064678
    66  N   -0.026642
    67  O   -0.345980
    68  H    0.149570
    69  H    0.027801
    70  H    0.066895
    71  H    0.036745
    72  H    0.130904
    73  H    0.117668
    74  N   -0.129144
    75  C    0.216035
    76  C    0.042533
    77  O   -0.292916
    78  H    0.149982
    79  H    0.027883
    80  H    0.026712
    81  N   -0.147032
    82  C    0.154339
    83  C    0.126071
    84  O   -0.370036
    85  C    0.105148
    86  C    0.031544
    87  C   -0.003786
    88  C    0.020355
    89  C   -0.015111
    90  C   -0.047698
    91  C    0.163025
    92  O   -0.191155
    93  H    0.143611
    94  H    0.000831
    95  H   -0.027230
    96  H   -0.044752
    97  H   -0.012757
    98  H   -0.047985
    99  H   -0.022471
   100  H   -0.050528
   101  H    0.168307
   102  N   -0.124556
   103  C    0.169241
   104  C    0.049887
   105  O   -0.289138
   106  C   -0.118741
   107  C   -0.007003
   108  C    0.077846
   109  C    0.041213
   110  H    0.128699
   111  H   -0.001838
   112  H   -0.016998
   113  H    0.003261
   114  H    0.027981
   115  H    0.004903
   116  H    0.016151
   117  H    0.006295
   118  H    0.029561
   119  H   -0.006975
   120  H    0.009274
   121  N   -0.144295
   122  C    0.087691
   123  C    0.138411
   124  O   -0.278859
   125  C    0.238950
   126  O   -0.323536
   127  H    0.131892
   128  H    0.008331
   129  H    0.016195
   130  H   -0.031840
   131  H    0.173863
   132  N   -0.133194
   133  C    0.085672
   134  C    0.041774
   135  O   -0.270189
   136  C    0.062419
   137  H    0.119908
   138  H    0.019064
   139  H    0.034236
   140  H    0.004016
   141  H    0.046688
   142  N   -0.144019
   143  C    0.070079
   144  C    0.106558
   145  O   -0.289856
   146  C    0.025661
   147  H    0.112982
   148  H    0.021634
   149  H    0.028103
   150  H    0.026923
   151  H    0.020450
   152  N   -0.178031
   153  C    0.127958
   154  C    0.082167
   155  O   -0.287569
   156  C   -0.093428
   157  C    0.098941
   158  C    0.221194
   159  O   -0.401457
   160  O   -0.475309
   161  H    0.138560
   162  H   -0.031343
   163  H    0.046701
   164  H    0.049305
   165  H    0.013448
   166  H   -0.023394
   167  N   -0.162075
   168  C    0.137507
   169  H    0.015980
   170  H    0.030666
   171  H    0.009889
   172  H    0.134513
   173  Ca   1.302694
   174  O   -0.340849
   175  H    0.148137
   176  H    0.166709
 Sum of Mulliken charges =   0.00000
 Mulliken charges with hydrogens summed into heavy atoms:
               1
     1  C    0.139913
     2  C    0.021462
     3  O   -0.288390
     7  N    0.001614
     8  C    0.093089
     9  C    0.048894
    10  O   -0.289089
    11  C    0.071334
    12  C    0.136309
    13  O   -0.460936
    14  O   -0.375155
    19  N    0.030972
    20  C    0.173037
    21  C    0.054911
    22  O   -0.306962
    23  C    0.018448
    24  C    0.048951
    25  C   -0.006626
    26  C    0.258229
    27  N    0.617148
    41  N   -0.002074
    42  C    0.152097
    43  C    0.074400
    44  O   -0.280727
    45  C    0.127279
    46  C    0.149355
    47  O   -0.404757
    48  O   -0.491799
    53  N   -0.032712
    54  C    0.262594
    55  C    0.013752
    56  O   -0.289006
    60  N    0.005300
    61  C    0.191033
    62  C    0.020918
    63  O   -0.291695
    64  C    0.158791
    65  C    0.064678
    66  N    0.221930
    67  O   -0.345980
    74  N    0.020838
    75  C    0.270630
    76  C    0.042533
    77  O   -0.292916
    81  N   -0.003420
    82  C    0.155170
    83  C    0.126071
    84  O   -0.370036
    85  C    0.033165
    86  C    0.031544
    87  C   -0.016543
    88  C   -0.027630
    89  C   -0.037582
    90  C   -0.098226
    91  C    0.163025
    92  O   -0.022848
   102  N    0.004143
   103  C    0.167403
   104  C    0.049887
   105  O   -0.289138
   106  C   -0.135740
   107  C    0.024239
   108  C    0.105196
   109  C    0.073074
   121  N   -0.012403
   122  C    0.096021
   123  C    0.138411
   124  O   -0.278859
   125  C    0.223305
   126  O   -0.149673
   132  N   -0.013286
   133  C    0.104736
   134  C    0.041774
   135  O   -0.270189
   136  C    0.147360
   142  N   -0.031036
   143  C    0.091713
   144  C    0.106558
   145  O   -0.289856
   146  C    0.101136
   152  N   -0.039471
   153  C    0.096615
   154  C    0.082167
   155  O   -0.287569
   156  C    0.002579
   157  C    0.088995
   158  C    0.221194
   159  O   -0.401457
   160  O   -0.475309
   167  N   -0.027561
   168  C    0.194042
   173  Ca   1.302694
   174  O   -0.026002
 DipInt: DoE/N= T F RetVal/Mat= T F Init=T NMatP=  1 IDeriv=0 Min/MaxMlt=  0  4
 Entering OneElI...
 OneElI was handed  4286741430 working-precision words.
 Multipole integrals L=0 to 4 MinM= 0 MaxM= 0.
 Requested accuracy = 0.1000D-12
 ShPair: Thresh= 1.00D-13 NBox=     0 BxSize= 0.00D+00 RnKept= 2.55D+01
         NSMCal=               327645 NSMKep=              162372
 PrsmSu:  NPrtUS=   1 ThrOK=F IAlg=1 NPAlg=1 LenDen=           0.
 Prism:   IPart=     0 DynPar=F LinDyn=F Incr=         512.
 PRISM was handed  4276605034 working-precision words and162372 shell-pairs
 IPart=  0 NShTot=      162372 NBatch=         455 AvBLen=       356.9
 PrSmSu:  NxtVal=            513.
 Electronic moments (au):
       -716.00000000         11.75911221          0.64798097          0.35526862
     -53029.83661070     -28554.62558052     -12712.92519203        116.10437556
          3.67248148         70.65269107     -17483.89245099     -19675.74460206
      -8843.26607219      15715.02453777     104319.78360750      30232.62126029
     -16809.84609183      -9378.28834972       3368.92825279     -37301.17858551
   -7787730.07966603   -2455718.98223765    -617594.19510469    -299572.70353022
     305187.18571323    -511764.90835916     -32795.72961918     -64805.20816385
       1352.56393626   -2268055.22080595    -677897.09700427    -355936.48401906
    -160142.91446447     -32803.68411356      89230.54344024
 Electronic spatial extent (au):  <R**2>=          94297.3874
 DipInt: DoE/N= F T RetVal/Mat= T F Init=T NMatP=  1 IDeriv=0 Min/MaxMlt=  0  4
 Nuclear    moments (au):
        716.00000000          0.00000000          0.00000000          0.00000000
      52576.97608474      28234.74785440      12314.53165913          0.00000000
          0.00000000          0.00000000      18851.37098937      20458.61177556
       8923.32885621     -13751.85187209    -103845.33277528     -30428.68815393
      17069.49661449       9298.84179840      -2967.68822825      37672.04222570
    7583706.52639241    2376880.92702698     574216.02269050     312380.96424539
    -304685.70435750     535715.87489804      41027.07962182      64769.88321180
       1771.24969798    2238510.99327311     642387.88546544     333813.03774412
     167276.63440286      35560.15070484     -88525.19090862
 Total      moments (au):
          0.00000000         11.75911221          0.64798097          0.35526862
       -452.86052597       -319.87772612       -398.39353290        116.10437556
          3.67248148         70.65269107       1367.47853838        782.86717349
         80.06278402       1963.17266568        474.45083223       -196.06689364
        259.65052267        -79.44655131        401.24002454        370.86364019
    -204023.55327362     -78838.05521067     -43378.17241419      12808.26071517
        501.48135573      23950.96653888       8231.35000264        -35.32495205
       3123.81363424     -29544.22753285     -35509.21153883     -22123.44627494
       7133.71993839       2756.46659128        705.35253162
 Traceless Quadrup. (au):
        -62.48326431         70.49953555         -8.01627124        116.10437556
          3.67248148         70.65269107
 Charge=              0.0000 electrons
 Dipole moment (field-independent basis, Debye):
    X=             29.8887    Y=              1.6470    Z=              0.9030  Tot=             29.9476
 Quadrupole moment (field-independent basis, Debye-Ang):
   XX=           -609.1129   YY=           -430.2465   ZZ=           -535.8529
   XY=            156.1644   XZ=              4.9396   YZ=             95.0303
 Traceless Quadrupole moment (field-independent basis, Debye-Ang):
   XX=            -84.0421   YY=             94.8243   ZZ=            -10.7822
   XY=            156.1644   XZ=              4.9396   YZ=             95.0303
 Octapole moment (field-independent basis, Debye-Ang**2):
  XXX=            973.3185  YYY=            557.2147  ZZZ=             56.9856  XYY=           1397.3106
  XXY=            337.6958  XXZ=           -139.5529  XZZ=            184.8092  YZZ=            -56.5470
  YYZ=            285.5872  XYZ=            263.9664
 Hexadecapole moment (field-independent basis, Debye-Ang**3):
 XXXX=         -76845.0483 YYYY=         -29694.1900 ZZZZ=         -16338.2987 XXXY=           4824.2048
 XXXZ=            188.8819 YYYX=           9021.0819 YYYZ=           3100.3209 ZZZX=            -13.3051
 ZZZY=           1176.5779 XXYY=         -11127.7720 XXZZ=         -13374.4709 YYZZ=          -8332.7502
 XXYZ=           2686.9008 YYXZ=           1038.2174 ZZXY=            265.6696
 N-N= 2.176267091175D+04 E-N=-5.600579140158D+04  KE= 5.290698003357D+03
 Leave Link  601 at Mon Sep 16 20:42:29 2019, MaxMem=  4294967296 cpu:        21.9
 FitSet:  NAtFit=   176 NAtPot=   176 NAtFrz=     0 MDM=   180 TotChg=   0.00000
 Merz-Kollman atomic radii used.
 Read replacement radii for each type of atom:
 Rad(20) =   1.700000000000D+00
 Atom Element Radius
    1     6    1.50
    2     6    1.50
    3     8    1.40
    4     1    1.20
    5     1    1.20
    6     1    1.20
    7     7    1.50
    8     6    1.50
    9     6    1.50
   10     8    1.40
   11     6    1.50
   12     6    1.50
   13     8    1.40
   14     8    1.40
   15     1    1.20
   16     1    1.20
   17     1    1.20
   18     1    1.20
   19     7    1.50
   20     6    1.50
   21     6    1.50
   22     8    1.40
   23     6    1.50
   24     6    1.50
   25     6    1.50
   26     6    1.50
   27     7    1.50
   28     1    1.20
   29     1    1.20
   30     1    1.20
   31     1    1.20
   32     1    1.20
   33     1    1.20
   34     1    1.20
   35     1    1.20
   36     1    1.20
   37     1    1.20
   38     1    1.20
   39     1    1.20
   40     1    1.20
   41     7    1.50
   42     6    1.50
   43     6    1.50
   44     8    1.40
   45     6    1.50
   46     6    1.50
   47     8    1.40
   48     8    1.40
   49     1    1.20
   50     1    1.20
   51     1    1.20
   52     1    1.20
   53     7    1.50
   54     6    1.50
   55     6    1.50
   56     8    1.40
   57     1    1.20
   58     1    1.20
   59     1    1.20
   60     7    1.50
   61     6    1.50
   62     6    1.50
   63     8    1.40
   64     6    1.50
   65     6    1.50
   66     7    1.50
   67     8    1.40
   68     1    1.20
   69     1    1.20
   70     1    1.20
   71     1    1.20
   72     1    1.20
   73     1    1.20
   74     7    1.50
   75     6    1.50
   76     6    1.50
   77     8    1.40
   78     1    1.20
   79     1    1.20
   80     1    1.20
   81     7    1.50
   82     6    1.50
   83     6    1.50
   84     8    1.40
   85     6    1.50
   86     6    1.50
   87     6    1.50
   88     6    1.50
   89     6    1.50
   90     6    1.50
   91     6    1.50
   92     8    1.40
   93     1    1.20
   94     1    1.20
   95     1    1.20
   96     1    1.20
   97     1    1.20
   98     1    1.20
   99     1    1.20
  100     1    1.20
  101     1    1.20
  102     7    1.50
  103     6    1.50
  104     6    1.50
  105     8    1.40
  106     6    1.50
  107     6    1.50
  108     6    1.50
  109     6    1.50
  110     1    1.20
  111     1    1.20
  112     1    1.20
  113     1    1.20
  114     1    1.20
  115     1    1.20
  116     1    1.20
  117     1    1.20
  118     1    1.20
  119     1    1.20
  120     1    1.20
  121     7    1.50
  122     6    1.50
  123     6    1.50
  124     8    1.40
  125     6    1.50
  126     8    1.40
  127     1    1.20
  128     1    1.20
  129     1    1.20
  130     1    1.20
  131     1    1.20
  132     7    1.50
  133     6    1.50
  134     6    1.50
  135     8    1.40
  136     6    1.50
  137     1    1.20
  138     1    1.20
  139     1    1.20
  140     1    1.20
  141     1    1.20
  142     7    1.50
  143     6    1.50
  144     6    1.50
  145     8    1.40
  146     6    1.50
  147     1    1.20
  148     1    1.20
  149     1    1.20
  150     1    1.20
  151     1    1.20
  152     7    1.50
  153     6    1.50
  154     6    1.50
  155     8    1.40
  156     6    1.50
  157     6    1.50
  158     6    1.50
  159     8    1.40
  160     8    1.40
  161     1    1.20
  162     1    1.20
  163     1    1.20
  164     1    1.20
  165     1    1.20
  166     1    1.20
  167     7    1.50
  168     6    1.50
  169     1    1.20
  170     1    1.20
  171     1    1.20
  172     1    1.20
  173    20    1.70
  174     8    1.40
  175     1    1.20
  176     1    1.20
 Generate VDW surfaces: Layer= 4 Dens= 6 Start= 1.400 Inc= 0.200

 **********************************************************************

            Electrostatic Properties Using The SCF Density

 **********************************************************************

       Atomic Center    1 is at   2.059782  2.950780  5.440370
       Atomic Center    2 is at   1.635919  2.358770  4.101728
       Atomic Center    3 is at   2.497095  2.172078  3.246087
[...]
 **** Fit      -0.006213
 **** Fit      -0.006865
 **** Fit      -0.009763
 **** Fit      -0.014782
 **** Fit      -0.021204
 **** Fit      -0.021750
 **** Fit      -0.020709
 **** Fit      -0.018730
 **** Fit      -0.015966
 **** Fit      -0.012582
 **** Fit      -0.008825
 **** Fit      -0.005090
 **** Fit      -0.001968
 **** Fit      -0.000231
 **** Fit      -0.000685
 **** Fit      -0.003912
 **** Fit      -0.010038
 **** Fit      -0.021960
 **** Fit      -0.022028
 **** Fit      -0.020969
 **** Fit      -0.018956
 **** Fit      -0.016087
 **** Fit      -0.012448
 **** Fit      -0.008178
 **** Fit      -0.003532
 **** Fit       0.001037
 **** Fit       0.004818
 **** Fit       0.006855
 **** Fit       0.006117
 **** Fit       0.001860
 **** Fit      -0.006085
 **** Fit      -0.022665
 **** Fit      -0.022568
 **** Fit      -0.021370
 **** Fit      -0.019183
 **** Fit      -0.016050
 **** Fit      -0.011998
 **** Fit      -0.007095
 **** Fit      -0.001520
 **** Fit       0.004347
 **** Fit       0.009812
 **** Fit       0.013768
 **** Fit       0.003296
 **** Fit      -0.023737
 **** Fit      -0.023440
 **** Fit      -0.022140
 **** Fit      -0.019869
 **** Fit      -0.016609
 **** Fit      -0.012326
 **** Fit      -0.007020
 **** Fit      -0.000778
 **** Fit       0.006146
 **** Fit       0.013215
 **** Fit      -0.025184
 **** Fit      -0.024693
 **** Fit      -0.023298
 **** Fit      -0.020947
 **** Fit      -0.017553
 **** Fit      -0.013029
 **** Fit      -0.007322
 **** Fit      -0.000458
 **** Fit       0.007395
 **** Fit      -0.027056
 **** Fit      -0.026433
 **** Fit      -0.025002
 **** Fit      -0.022607
 **** Fit      -0.019085
 **** Fit      -0.014292
 **** Fit      -0.008140
 **** Fit      -0.000634
 **** Fit       0.008083
 **** Fit      -0.026997
 **** Fit      -0.028856
 **** Fit      -0.027599
 **** Fit      -0.025384
 **** Fit      -0.021959
 **** Fit      -0.017126
 **** Fit      -0.010781
 **** Fit      -0.002951
 **** Fit      -0.031346
 **** Fit      -0.029392
 **** Fit      -0.025905
 **** Fit      -0.020614
 **** Fit      -0.013445
 **** Fit       0.012660
 **** Fit       0.011380
 **** Fit       0.013032
 **** Fit       0.013847
 **** Fit       0.013010
 **** Fit       0.010277
 **** Fit       0.005777
 **** Fit      -0.007597
 **** Fit       0.011937
 **** Fit       0.011354
 **** Fit       0.009890
 **** Fit       0.007024
 **** Fit       0.002697
 **** Fit      -0.002876
 **** Fit      -0.009284
 **** Fit       0.009730
 **** Fit       0.006993
 **** Fit       0.003101
 **** Fit      -0.001963
 **** Fit      -0.007778
 **** Fit       0.005485
 **** Fit       0.001176
 **** Fit      -0.003754
 **** Fit      -0.008606
 **** Fit      -0.001149
 **** Fit      -0.004836
 **** Fit      -0.012650
 **** Fit      -0.010393
 **** Fit      -0.013346
 **** Fit      -0.017182
 **** Fit      -0.019147
 **** Fit       0.005252
 **** Fit       0.006916
 **** Fit       0.006126
 **** Fit       0.002132
 **** Fit      -0.001369
 **** Fit      -0.003520
 **** Fit       0.004551
 **** Fit       0.001382
 **** Fit       0.017628
 **** Fit       0.020039
 **** Fit       0.013373
 **** Fit       0.009680
 **** Fit      -0.028491
 **** Fit      -0.031208
 **** Fit      -0.031524
 **** Fit      -0.035244
 **** Fit      -0.005221
 **** Fit      -0.004667
 **** Fit      -0.006579
 **** Fit      -0.007343
 **** Fit      -0.003622
 **** Fit      -0.004073
 **** Fit      -0.010180
 **** Fit      -0.008459
 **** Fit      -0.002414
 **** Fit      -0.003003
 **** Fit      -0.014004
 **** Fit      -0.011931
 **** Fit      -0.001243
 **** Fit      -0.001498
 **** Fit      -0.001939
 **** Fit      -0.002596
 **** Fit      -0.018400
 **** Fit      -0.015074
 **** Fit      -0.000484
 **** Fit      -0.000748
 **** Fit      -0.001124
 **** Fit      -0.001640
 **** Fit      -0.002294
 **** Fit      -0.020641
 **** Fit       0.000046
 **** Fit      -0.000213
 **** Fit      -0.000562
 **** Fit      -0.001022
 **** Fit      -0.001580
 **** Fit      -0.002211
 **** Fit       0.000554
 **** Fit       0.000319
 **** Fit      -0.000007
 **** Fit      -0.000453
 **** Fit      -0.001009
 **** Fit      -0.001641
 **** Fit      -0.002307
 **** Fit       0.000998
 **** Fit       0.000797
 **** Fit       0.000494
 **** Fit       0.000057
 **** Fit      -0.000516
 **** Fit      -0.001193
 **** Fit      -0.001922
 **** Fit      -0.002652
 **** Fit       0.001544
 **** Fit       0.001461
 **** Fit       0.001314
 **** Fit       0.001054
 **** Fit       0.000642
 **** Fit       0.000060
 **** Fit      -0.000675
 **** Fit      -0.001512
 **** Fit      -0.002383
 **** Fit      -0.003232
 **** Fit      -0.005003
 **** Fit       0.001949
 **** Fit       0.001947
 **** Fit       0.001860
 **** Fit      -0.003078
 **** Fit      -0.004073
 **** Fit      -0.006272
 **** Fit       0.002382
 **** Fit       0.002494
 **** Fit      -0.005180
 **** Fit      -0.007904
 **** Fit      -0.009140
 **** Fit       0.002626
 **** Fit       0.003012
 **** Fit      -0.010027
 **** Fit      -0.011412
 **** Fit      -0.012843
 **** Fit       0.000950
 **** Fit       0.002387
 **** Fit       0.003352
 **** Fit       0.003861
 **** Fit      -0.014334
 **** Fit      -0.015800
 **** Fit      -0.017495
 **** Fit       0.000818
 **** Fit       0.003024
 **** Fit       0.004387
 **** Fit      -0.018284
 **** Fit      -0.019731
 **** Fit      -0.021377
 **** Fit      -0.023498
 **** Fit      -0.026391
 **** Fit      -0.023707
 **** Fit      -0.024948
 **** Fit      -0.026369
 **** Fit       0.001233
 **** Fit       0.000726
 **** Fit       0.000015
 **** Fit      -0.000863
 **** Fit       0.002110
 **** Fit       0.001799
 **** Fit       0.001269
 **** Fit       0.000543
 **** Fit      -0.000351
 **** Fit      -0.001379
 **** Fit      -0.002506
 **** Fit      -0.004711
 **** Fit       0.002864
 **** Fit       0.002840
 **** Fit       0.002544
 **** Fit       0.002000
 **** Fit       0.001239
 **** Fit       0.000295
 **** Fit      -0.000803
 **** Fit      -0.002022
 **** Fit      -0.003335
 **** Fit      -0.006089
 **** Fit      -0.007689
 **** Fit       0.003657
 **** Fit       0.003668
 **** Fit       0.003347
 **** Fit       0.002746
 **** Fit       0.001911
 **** Fit       0.000883
 **** Fit      -0.000303
 **** Fit      -0.001619
 **** Fit      -0.003037
 **** Fit      -0.004533
 **** Fit      -0.007995
 **** Fit      -0.009816
 **** Fit       0.004560
 **** Fit       0.004712
 **** Fit       0.004396
 **** Fit       0.003717
 **** Fit       0.002760
 **** Fit       0.001588
 **** Fit       0.000245
 **** Fit      -0.001234
 **** Fit      -0.002820
 **** Fit      -0.004488
 **** Fit      -0.006217
 **** Fit      -0.010686
 **** Fit      -0.012842
 **** Fit      -0.015042
 **** Fit       0.005915
 **** Fit       0.006003
 **** Fit       0.005381
 **** Fit       0.004288
 **** Fit       0.002885
 **** Fit       0.001266
 **** Fit      -0.000515
 **** Fit      -0.002418
 **** Fit      -0.004410
 **** Fit      -0.006464
 **** Fit      -0.008559
 **** Fit      -0.014565
 **** Fit      -0.017179
 **** Fit      -0.019810
 **** Fit       0.005223
 **** Fit       0.003118
 **** Fit       0.000819
 **** Fit      -0.001610
 **** Fit      -0.004133
 **** Fit      -0.006718
 **** Fit      -0.009331
 **** Fit      -0.011950
 **** Fit      -0.000255
 **** Fit      -0.003635
 **** Fit      -0.007026
 **** Fit      -0.010416
 **** Fit      -0.013774
 **** Fit      -0.017075
 **** Fit      -0.007363
 **** Fit      -0.006170
 **** Fit      -0.008469
 **** Fit      -0.010146
 **** Fit      -0.008807
 **** Fit      -0.005350
 **** Fit      -0.005257
 **** Fit      -0.007122
 **** Fit      -0.009791
 **** Fit      -0.012589
 **** Fit      -0.014048
 **** Fit      -0.013117
 **** Fit      -0.004218
 **** Fit      -0.004641
 **** Fit      -0.006158
 **** Fit      -0.008393
 **** Fit      -0.011408
 **** Fit      -0.014924
 **** Fit      -0.018079
 **** Fit      -0.019612
 **** Fit      -0.018734
 **** Fit      -0.003076
 **** Fit      -0.003665
 **** Fit      -0.004338
 **** Fit      -0.005672
 **** Fit      -0.007617
 **** Fit      -0.010374
 **** Fit      -0.014071
 **** Fit      -0.018574
 **** Fit      -0.002765
 **** Fit      -0.003419
 **** Fit      -0.004360
 **** Fit      -0.005592
 **** Fit      -0.007365
 **** Fit      -0.009919
 **** Fit      -0.013521
 **** Fit      -0.018391
 **** Fit      -0.002786
 **** Fit      -0.003474
 **** Fit      -0.004725
 **** Fit      -0.005864
 **** Fit      -0.007466
 **** Fit      -0.009762
 **** Fit      -0.013050
 **** Fit      -0.017693
 **** Fit      -0.003161
 **** Fit      -0.003870
 **** Fit      -0.005457
 **** Fit      -0.006595
 **** Fit      -0.008184
 **** Fit      -0.010473
 **** Fit      -0.013807
 **** Fit      -0.018664
 **** Fit      -0.003808
 **** Fit      -0.004578
 **** Fit      -0.006590
 **** Fit      -0.007725
 **** Fit      -0.009285
 **** Fit      -0.011519
 **** Fit      -0.014782
 **** Fit      -0.019596
 **** Fit      -0.005683
 **** Fit      -0.008177
 **** Fit      -0.009341
 **** Fit      -0.010920
 **** Fit      -0.013177
 **** Fit      -0.016482
 **** Fit      -0.021400
 **** Fit      -0.007220
 **** Fit      -0.010299
 **** Fit      -0.011546
 **** Fit      -0.013248
 **** Fit      -0.015718
 **** Fit      -0.019397
 **** Fit      -0.014404
 **** Fit      -0.016254
 **** Fit      -0.019006
 **** Fit      -0.023184
 **** Fit      -0.022745
 **** Fit      -0.003349
 **** Fit      -0.003397
 **** Fit      -0.005024
 **** Fit      -0.005000
 **** Fit      -0.003223
 **** Fit      -0.001960
 **** Fit      -0.002102
 **** Fit      -0.007992
 **** Fit      -0.007180
 **** Fit      -0.005173
 **** Fit      -0.003046
 **** Fit      -0.001532
 **** Fit      -0.000819
 **** Fit      -0.000746
 **** Fit      -0.001162
 **** Fit      -0.002014
 **** Fit      -0.010038
 **** Fit      -0.007615
 **** Fit      -0.005065
 **** Fit      -0.002831
 **** Fit      -0.001216
 **** Fit      -0.000308
 **** Fit       0.000087
 **** Fit       0.000149
 **** Fit      -0.000042
 **** Fit      -0.000452
 **** Fit      -0.001073
 **** Fit      -0.012700
 **** Fit      -0.009431
 **** Fit      -0.006401
 **** Fit       0.000411
 **** Fit       0.000695
 **** Fit       0.000788
 **** Fit       0.000724
 **** Fit       0.000511
 **** Fit       0.000159
 **** Fit      -0.013910
 **** Fit      -0.009874
 **** Fit       0.000985
 **** Fit       0.001129
 **** Fit       0.001195
 **** Fit       0.001147
 **** Fit       0.000974
 **** Fit       0.000690
 **** Fit      -0.014265
 **** Fit       0.001081
 **** Fit       0.001304
 **** Fit       0.001436
 **** Fit       0.001444
 **** Fit       0.001330
 **** Fit       0.001108
 **** Fit       0.001125
 **** Fit       0.001467
 **** Fit       0.001644
 **** Fit       0.001664
 **** Fit       0.001545
 **** Fit       0.001289
 **** Fit       0.001683
 **** Fit       0.001882
 **** Fit       0.001901
 **** Fit       0.000674
 **** Fit       0.001386
 **** Fit       0.001885
 **** Fit       0.002153
 **** Fit       0.000992
 **** Fit       0.001829
 **** Fit       0.039057
 **** Fit       0.037554
 **** Fit       0.042435
 **** Fit       0.041019
 **** Fit       0.046016
 **** Fit       0.043853
 **** Fit       0.045963
 **** Fit       0.043244
 **** Fit       0.045241
 **** Fit       0.041108
 **** Fit      -0.021382
 **** Fit      -0.005474
 **** Fit      -0.008415
 **** Fit      -0.011887
 **** Fit      -0.015570
 **** Fit      -0.019325
 **** Fit       0.038576
 **** Fit       0.035249
 **** Fit      -0.002040
 **** Fit      -0.003999
 **** Fit      -0.007052
 **** Fit      -0.010669
 **** Fit      -0.014614
 **** Fit      -0.018833
 **** Fit       0.032550
 **** Fit       0.030578
 **** Fit      -0.002253
 **** Fit      -0.005833
 **** Fit      -0.009991
 **** Fit      -0.014614
 **** Fit      -0.019787
 **** Fit       0.028076
 **** Fit       0.026853
 **** Fit       0.027078
 **** Fit      -0.004658
 **** Fit      -0.009531
 **** Fit      -0.015048
 **** Fit      -0.021503
 **** Fit       0.023518
 **** Fit       0.023376
 **** Fit      -0.010619
 **** Fit      -0.017755
 **** Fit       0.016838
 **** Fit       0.018152
 **** Fit       0.019145
 **** Fit      -0.013580
 **** Fit      -0.008249
 **** Fit       0.001545
 **** Fit       0.007856
 **** Fit       0.011853
 **** Fit       0.014777
 **** Fit      -0.010811
 **** Fit      -0.001431
 **** Fit       0.005145
 **** Fit      -0.005522
 **** Fit      -0.012881
 **** Fit       0.001182
 **** Fit       0.027500
 **** Fit       0.005194
 **** Fit       0.003431
 **** Fit       0.000186
 **** Fit      -0.004314
 **** Fit       0.023427
 **** Fit       0.024860
 **** Fit       0.025945
 **** Fit       0.008712
 **** Fit       0.007344
 **** Fit       0.004808
 **** Fit       0.001051
 **** Fit      -0.003938
 **** Fit       0.019996
 **** Fit       0.021864
 **** Fit       0.023323
 **** Fit       0.024116
 **** Fit       0.023824
 **** Fit       0.022058
 **** Fit       0.009260
 **** Fit       0.010749
 **** Fit       0.008551
 **** Fit       0.005440
 **** Fit       0.001249
 **** Fit      -0.004198
 **** Fit      -0.011252
 **** Fit       0.012286
 **** Fit       0.015846
 **** Fit       0.018471
 **** Fit       0.020454
 **** Fit       0.021800
 **** Fit       0.022336
 **** Fit       0.021859
 **** Fit       0.020334
 **** Fit       0.018088
 **** Fit       0.015763
 **** Fit       0.013867
 **** Fit       0.012354
 **** Fit       0.011554
 **** Fit       0.008666
 **** Fit       0.004832
 **** Fit      -0.000200
 **** Fit      -0.006749
 **** Fit      -0.015353
 **** Fit       0.006915
 **** Fit       0.011862
 **** Fit       0.015404
 **** Fit       0.017952
 **** Fit       0.019647
 **** Fit       0.020447
 **** Fit       0.020279
 **** Fit       0.019224
 **** Fit       0.017588
 **** Fit       0.015739
 **** Fit       0.013797
 **** Fit       0.011329
 **** Fit       0.007930
 **** Fit       0.003460
 **** Fit      -0.002360
 **** Fit      -0.009849
 **** Fit      -0.007543
 **** Fit       0.001002
 **** Fit       0.007340
 **** Fit       0.011906
 **** Fit       0.015121
 **** Fit       0.017223
 **** Fit       0.018276
 **** Fit       0.018312
 **** Fit       0.017459
 **** Fit       0.015946
 **** Fit       0.013924
 **** Fit       0.010237
 **** Fit       0.006261
 **** Fit       0.000945
 **** Fit      -0.005847
 **** Fit      -0.013886
 **** Fit      -0.008805
 **** Fit      -0.000486
 **** Fit       0.006045
 **** Fit       0.010739
 **** Fit       0.013827
 **** Fit       0.015480
 **** Fit       0.015806
 **** Fit       0.014952
 **** Fit       0.013085
 **** Fit       0.008397
 **** Fit       0.003505
 **** Fit      -0.003006
 **** Fit      -0.009824
 **** Fit      -0.013669
 **** Fit      -0.011474
 **** Fit      -0.004716
 **** Fit       0.002633
 **** Fit       0.008242
 **** Fit       0.011534
 **** Fit       0.012536
 **** Fit       0.011428
 **** Fit       0.005896
 **** Fit      -0.000082
 **** Fit      -0.004285
 **** Fit      -0.000772
 **** Fit       0.005598
 **** Fit       0.008284
 **** Fit       0.002810
 -----------------------------------------------------------------
 Leave Link  602 at Mon Sep 16 20:42:42 2019, MaxMem=  4294967296 cpu:       156.6

 Test job not archived.
 1\1\GINC-N005\SP\RB3LYP\SVP\C54H83Ca1N15O23\PCIEPLAK\16-Sep-2019\0\\#m
 axdisk=50GB #B3LYP/SVP Density=Current scf=(tight) #IOP(5/87=12)Pop=(M
 K,readradii) iop(6/33=2) iop(6/42=6)\\SOL molecule\\0,1\C,0,49.36,39.9
 ,22.34\C,0,49.53,39.06,23.6\O,0,49.36,39.6,24.69\H,0,48.678,40.725,22.
 544\H,0,50.328,40.297,22.034\H,0,48.952,39.28,21.542\N,0,49.77,37.75,2
 3.55\C,0,50.69,37.09,24.45\C,0,52.05,37.77,24.57\O,0,52.67,38.04,23.55
 \C,0,50.78,35.62,24.07\C,0,51.66,34.74,24.95\O,0,51.98,35.15,26.08\O,0
 ,52.1,33.64,24.55\H,0,49.79,37.33,22.63\H,0,50.16,37.07,25.41\H,0,51.2
 2,35.67,23.07\H,0,49.77,35.22,24.09\N,0,52.46,37.96,25.83\C,0,53.63,38
 .76,26.1\C,0,54.74,37.93,26.73\O,0,55.92,38.25,26.56\C,0,53.37,39.97,2
 7.\C,0,52.59,41.08,26.31\C,0,52.62,42.29,27.24\C,0,51.86,43.55,26.83\N
 ,0,52.47,44.26,25.69\H,0,51.83,37.63,26.54\H,0,54.,39.22,25.18\H,0,54.
 31,40.39,27.38\H,0,52.77,39.68,27.86\H,0,51.56,40.77,26.16\H,0,52.97,4
 1.22,25.29\H,0,53.64,42.55,27.51\H,0,52.3,42.01,28.24\H,0,52.,44.26,27
 .65\H,0,50.81,43.37,26.59\H,0,52.25,45.24,25.58\H,0,53.48,44.26,25.73\
 H,0,52.3,43.78,24.82\N,0,54.48,36.77,27.34\C,0,55.5,35.88,27.86\C,0,55
 .65,34.57,27.1\O,0,56.46,33.68,27.35\C,0,55.41,35.72,29.37\C,0,54.02,3
 5.24,29.78\O,0,53.79,34.93,30.97\O,0,53.07,35.05,28.99\H,0,53.5,36.55,
 27.45\H,0,56.48,36.34,27.73\H,0,55.64,36.67,29.85\H,0,56.21,35.02,29.5
 9\N,0,55.06,34.53,25.9\C,0,55.2,33.65,24.76\C,0,54.84,32.19,25.04\O,0,
 55.53,31.38,24.43\H,0,54.23,35.08,25.74\H,0,56.2,33.74,24.34\H,0,54.5,
 33.91,23.97\N,0,53.93,31.91,25.97\C,0,53.43,30.59,26.29\C,0,52.23,30.0
 6,25.51\O,0,51.78,28.96,25.81\C,0,53.27,30.43,27.8\C,0,52.13,31.31,28.
 29\N,0,51.73,31.13,29.55\O,0,51.59,32.2,27.63\H,0,53.51,32.71,26.43\H,
 0,54.14,29.83,25.98\H,0,54.22,30.63,28.28\H,0,52.94,29.41,28.\H,0,52.2
 5,30.52,30.16\H,0,50.99,31.69,29.95\N,0,51.74,30.78,24.5\C,0,50.59,30.
 51,23.66\C,0,49.2,30.85,24.19\O,0,48.23,30.18,23.82\H,0,52.14,31.7,24.
 43\H,0,50.58,29.48,23.31\H,0,50.75,31.02,22.7\N,0,49.1,31.77,25.15\C,0
 ,47.9,31.97,25.94\C,0,47.81,33.4,26.44\O,0,48.8,34.09,26.66\C,0,47.88,
 31.01,27.12\C,0,47.87,29.51,27.05\C,0,49.12,28.92,27.29\C,0,46.72,28.7
 2,26.9\C,0,49.21,27.53,27.15\C,0,46.82,27.32,26.83\C,0,48.08,26.71,26.
 95\O,0,48.18,25.35,26.88\H,0,49.96,32.2,25.47\H,0,47.03,31.74,25.33\H,
 0,46.95,31.25,27.64\H,0,48.63,31.35,27.84\H,0,50.06,29.46,27.34\H,0,45
 .75,29.18,26.92\H,0,50.17,27.04,27.23\H,0,45.93,26.71,26.73\H,0,47.3,2
 4.97,26.88\N,0,46.58,33.9,26.63\C,0,46.3,35.26,27.04\C,0,45.71,35.28,2
 8.44\O,0,44.75,34.56,28.69\C,0,45.58,36.09,25.98\C,0,46.57,36.45,24.87
 \C,0,44.82,37.3,26.51\C,0,45.96,37.39,23.84\H,0,45.77,33.32,26.48\H,0,
 47.32,35.66,27.12\H,0,44.75,35.51,25.56\H,0,46.82,35.51,24.37\H,0,47.4
 5,36.94,25.29\H,0,44.26,37.68,25.66\H,0,44.11,37.11,27.31\H,0,45.49,38
 .07,26.89\H,0,46.14,38.4,24.2\H,0,46.5,37.25,22.9\H,0,44.91,37.17,23.6
 5\N,0,46.26,36.09,29.35\C,0,45.73,36.37,30.67\C,0,45.1,37.75,30.79\O,0
 ,45.27,38.57,29.89\C,0,46.78,36.03,31.71\O,0,47.84,36.93,31.51\H,0,47.
 14,36.53,29.13\H,0,44.94,35.64,30.84\H,0,46.99,34.96,31.65\H,0,46.32,3
 6.17,32.69\H,0,48.4,36.5,30.86\N,0,44.55,38.08,31.96\C,0,44.03,39.42,3
 2.18\C,0,45.02,40.55,31.99\O,0,44.7,41.57,31.37\C,0,43.18,39.58,33.43\
 H,0,44.5,37.47,32.76\H,0,43.34,39.51,31.33\H,0,42.56,38.69,33.58\H,0,4
 3.91,39.76,34.22\H,0,42.57,40.48,33.45\N,0,46.26,40.47,32.48\C,0,47.26
 ,41.51,32.36\C,0,47.69,41.81,30.93\O,0,48.32,42.83,30.65\C,0,48.42,41.
 07,33.26\H,0,46.61,39.62,32.9\H,0,46.92,42.41,32.87\H,0,49.11,41.9,33.
 3\H,0,48.03,40.78,34.24\H,0,48.98,40.28,32.76\N,0,47.43,40.86,30.03\C,
 0,47.69,40.96,28.61\C,0,46.44,41.54,27.96\O,0,46.56,42.27,26.99\C,0,48
 .,39.56,28.09\C,0,49.16,39.01,28.9\C,0,49.49,37.58,28.46\O,0,50.56,37.
 32,27.87\O,0,48.93,36.59,28.98\H,0,47.02,39.98,30.31\H,0,48.56,41.59,2
 8.43\H,0,48.38,39.6,27.07\H,0,47.09,38.96,28.2\H,0,49.02,39.12,29.98\H
 ,0,49.97,39.66,28.57\N,0,45.25,41.17,28.44\C,0,44.02,41.61,27.83\H,0,4
 3.274,41.787,28.605\H,0,44.197,42.534,27.279\H,0,43.658,40.842,27.146\
 H,0,45.25,40.48,29.18\Ca,0,50.68,34.77,28.31\O,0,51.15,35.28,30.89\H,0
 ,52.1,35.14,30.92\H,0,50.91,35.43,31.81\\Version=ES64L-G09RevD.01\Stat
 e=1-A\HF=-5333.6067893\RMSD=5.851e-09\Dipole=-4.1580355,10.6092601,2.9
 961901\Quadrupole=-80.2056655,72.869941,7.3357245,108.1848444,-16.6287
 641,-71.2456756\PG=C01 [X(C54H83Ca1N15O23)]\\@


 ERROR IS THE FORCE THAT WELDS MEN TOGETHER....
 TRUTH IS COMMUNICATED TO MEN ONLY BY DEEDS OF TRUTH.
           TOLSTOI,MY RELIGION
 Job cpu time:       0 days 14 hours 51 minutes 13.9 seconds.
 File lengths (MBytes):  RWF=   1513 Int=      0 D2E=      0 Chk=    103 Scr=      1
 Normal termination of Gaussian 09 at Mon Sep 16 20:42:42 2019.
