 Entering Gaussian System, Link 0=g09
 Initial command:
 /home/pcieplak/g09/g09/l1.exe "/scratch1/pcieplak/holo_1.0/Gau-27983.inp" -scrdir="/scratch1/pcieplak/holo_1.0/"
 Entering Link 1 = /home/pcieplak/g09/g09/l1.exe PID=     27984.
  
 Copyright (c) 1988,1990,1992,1993,1995,1998,2003,2009,2013,
            Gaussian, Inc.  All Rights Reserved.
  
 This is part of the Gaussian(R) 09 program.  It is based on
 the Gaussian(R) 03 system (copyright 2003, Gaussian, Inc.),
 the Gaussian(R) 98 system (copyright 1998, Gaussian, Inc.),
 the Gaussian(R) 94 system (copyright 1995, Gaussian, Inc.),
 the Gaussian 92(TM) system (copyright 1992, Gaussian, Inc.),
 the Gaussian 90(TM) system (copyright 1990, Gaussian, Inc.),
 the Gaussian 88(TM) system (copyright 1988, Gaussian, Inc.),
 the Gaussian 86(TM) system (copyright 1986, Carnegie Mellon
 University), and the Gaussian 82(TM) system (copyright 1983,
 Carnegie Mellon University). Gaussian is a federally registered
 trademark of Gaussian, Inc.
  
 This software contains proprietary and confidential information,
 including trade secrets, belonging to Gaussian, Inc.
  
 This software is provided under written license and may be
 used, copied, transmitted, or stored only in accord with that
 written license.
  
 The following legend is applicable only to US Government
 contracts under FAR:
  
                    RESTRICTED RIGHTS LEGEND
  
 Use, reproduction and disclosure by the US Government is
 subject to restrictions as set forth in subparagraphs (a)
 and (c) of the Commercial Computer Software - Restricted
 Rights clause in FAR 52.227-19.
  
 Gaussian, Inc.
 340 Quinnipiac St., Bldg. 40, Wallingford CT 06492
  
  
 ---------------------------------------------------------------
 Warning -- This program may not be used in any manner that
 competes with the business of Gaussian, Inc. or will provide
 assistance to any competitor of Gaussian, Inc.  The licensee
 of this program is prohibited from giving any competitor of
 Gaussian, Inc. access to this program.  By using this program,
 the user acknowledges that Gaussian, Inc. is engaged in the
 business of creating and licensing software in the field of
 computational chemistry and represents and warrants to the
 licensee that it is not a competitor of Gaussian, Inc. and that
 it will not use this program in any manner prohibited above.
 ---------------------------------------------------------------
  

 Cite this work as:
 Gaussian 09, Revision D.01,
 M. J. Frisch, G. W. Trucks, H. B. Schlegel, G. E. Scuseria, 
 M. A. Robb, J. R. Cheeseman, G. Scalmani, V. Barone, B. Mennucci, 
 G. A. Petersson, H. Nakatsuji, M. Caricato, X. Li, H. P. Hratchian, 
 A. F. Izmaylov, J. Bloino, G. Zheng, J. L. Sonnenberg, M. Hada, 
 M. Ehara, K. Toyota, R. Fukuda, J. Hasegawa, M. Ishida, T. Nakajima, 
 Y. Honda, O. Kitao, H. Nakai, T. Vreven, J. A. Montgomery, Jr., 
 J. E. Peralta, F. Ogliaro, M. Bearpark, J. J. Heyd, E. Brothers, 
 K. N. Kudin, V. N. Staroverov, T. Keith, R. Kobayashi, J. Normand, 
 K. Raghavachari, A. Rendell, J. C. Burant, S. S. Iyengar, J. Tomasi, 
 M. Cossi, N. Rega, J. M. Millam, M. Klene, J. E. Knox, J. B. Cross, 
 V. Bakken, C. Adamo, J. Jaramillo, R. Gomperts, R. E. Stratmann, 
 O. Yazyev, A. J. Austin, R. Cammi, C. Pomelli, J. W. Ochterski, 
 R. L. Martin, K. Morokuma, V. G. Zakrzewski, G. A. Voth, 
 P. Salvador, J. J. Dannenberg, S. Dapprich, A. D. Daniels, 
 O. Farkas, J. B. Foresman, J. V. Ortiz, J. Cioslowski, 
 and D. J. Fox, Gaussian, Inc., Wallingford CT, 2013.
 
 ******************************************
 Gaussian 09:  ES64L-G09RevD.01 24-Apr-2013
                16-Sep-2019 
 ******************************************
 %Nproc=12
 Will use up to   12 processors via shared memory.
 %chk=chk1mol
 %mem=32GB
 ----------------------------------------------------------------------
 #maxdisk=50GB #B3LYP/SVP Density=Current scf=(tight) #IOP(5/87=12)Pop=
 (MK,readradii) iop(6/33=2) iop(6/42=6)
 ----------------------------------------------------------------------
 1/30=1,38=1/1;
 2/12=2,17=6,18=5,40=1/2;
 3/5=18,7=101,11=2,16=1,25=1,30=1,74=-5/1,2,3;
 4//1;
 5/5=2,32=2,38=5,87=12/2;
 6/7=2,8=2,9=2,10=2,15=8,20=101,22=-1,28=1,33=2,42=6/1,2;
 99/5=1,9=1/99;
 ------------
 SOL molecule
 ------------
 Symbolic Z-matrix:
 Charge =  0 Multiplicity = 1
 C                     43.68     45.57     29.91 
 C                     43.91     44.73     31.16 
 O                     43.81     45.21     32.28 
 H                     42.918    46.323    30.114 
 H                     44.61     46.062    29.626 
 H                     43.346    44.927    29.096 
 N                     44.35     43.48     30.97 
 C                     44.75     42.71     32.14 
 C                     46.09     43.18     32.68 
 O                     47.14     42.85     32.13 
 C                     44.87     41.23     31.82 
 C                     45.37     40.4      33. 
 O                     45.29     40.85     34.16 
 O                     45.95     39.32     32.73 
 H                     44.1      43.03     30.1 
 H                     44.11     42.81     33.02 
 H                     45.5      41.06     30.94 
 H                     43.92     40.76     31.59 
 N                     46.12     43.77     33.88 
 C                     47.24     44.58     34.32 
 C                     48.25     43.79     35.14 
 O                     49.43     43.86     34.79 
 C                     46.85     45.93     34.92 
 C                     48.01     46.74     35.5 
 C                     47.5      48.14     35.83 
 C                     48.62     48.84     36.59 
 N                     49.69     49.46     35.8 
 H                     45.29     43.71     34.45 
 H                     47.79     44.79     33.41 
 H                     46.15     45.75     35.73 
 H                     46.26     46.49     34.2 
 H                     48.8      46.79     34.76 
 H                     48.46     46.23     36.35 
 H                     46.64     47.97     36.49 
 H                     47.17     48.63     34.91 
 H                     49.01     48.09     37.28 
 H                     48.12     49.63     37.16 
 H                     50.46     49.54     36.45 
 H                     49.96     48.79     35.08 
 H                     49.43     50.39     35.51 
 N                     47.87     42.86     36.02 
 C                     48.77     42.03     36.8 
 C                     48.91     40.65     36.18 
 O                     49.67     39.82     36.68 
 C                     48.25     42.09     38.23 
 C                     46.9      41.44     38.49 
 O                     46.28     40.86     37.57 
 O                     46.35     41.41     39.61 
 H                     46.89     42.75     36.24 
 H                     49.8      42.37     36.73 
 H                     48.24     43.1      38.63 
 H                     48.95     41.56     38.89 
 N                     48.14     40.38     35.12 
 C                     48.53     39.36     34.18 
 C                     48.04     37.97     34.57 
 O                     48.67     37.06     34.04 
 H                     47.31     40.93     34.94 
 H                     49.61     39.21     34.05 
 H                     48.06     39.63     33.24 
 N                     47.04     37.8      35.43 
 C                     46.58     36.47     35.77 
 C                     45.59     35.91     34.76 
 O                     44.87     34.98     35.14 
 C                     46.02     36.41     37.19 
 C                     44.77     37.26     37.35 
 N                     43.91     36.91     38.32 
 O                     44.49     38.27     36.71 
 H                     46.67     38.6      35.92 
 H                     47.5      35.89     35.78 
 H                     46.76     36.88     37.83 
 H                     45.86     35.38     37.51 
 H                     43.96     36.05     38.84 
 H                     42.95     37.2      38.3 
 N                     45.52     36.47     33.56 
 C                     44.61     36.02     32.52 
 C                     43.16     36.45     32.63 
 O                     42.34     35.96     31.85 
 H                     46.03     37.3      33.29 
 H                     44.66     34.94     32.38 
 H                     44.87     36.49     31.57 
 N                     42.78     37.18     33.68 
 C                     41.42     37.56     34.01 
 C                     41.39     39.06     34.26 
 O                     42.32     39.69     34.75 
 C                     41.       36.8      35.27 
 C                     41.11     35.3      35.33 
 C                     41.47     34.62     36.5 
 C                     40.69     34.52     34.24 
 C                     41.48     33.23     36.66 
 C                     40.87     33.13     34.26 
 C                     41.16     32.51     35.49 
 O                     41.04     31.16     35.67 
 H                     43.5      37.52     34.31 
 H                     40.75     37.29     33.2 
 H                     39.96     37.04     35.49 
 H                     41.43     37.33     36.12 
 H                     41.6      35.29     37.34 
 H                     40.36     35.04     33.36 
 H                     41.55     32.78     37.64 
 H                     40.61     32.47     33.45 
 H                     40.62     30.85     34.86 
 N                     40.28     39.75     33.99 
 C                     40.03     41.14     34.34 
 C                     39.1      41.31     35.53 
 O                     38.04     40.68     35.64 
 C                     39.66     41.85     33.04 
 C                     40.81     42.35     32.17 
 C                     38.74     43.05     33.26 
 C                     40.4      42.87     30.8 
 H                     39.56     39.3      33.45 
 H                     41.01     41.53     34.62 
 H                     39.       41.18     32.5 
 H                     41.56     41.57     32.15 
 H                     41.18     43.22     32.72 
 H                     38.46     43.5      32.31 
 H                     37.81     42.73     33.74 
 H                     39.16     43.78     33.95 
 H                     41.34     42.77     30.26 
 H                     39.56     42.33     30.36 
 H                     40.11     43.91     30.97 
 N                     39.45     42.21     36.44 
 C                     38.8      42.64     37.66 
 C                     38.08     43.94     37.32 
 O                     38.3      44.56     36.28 
 C                     39.77     42.75     38.83 
 O                     40.96     43.48     38.62 
 H                     40.37     42.61     36.29 
 H                     38.01     41.94     37.95 
 H                     40.06     41.74     39.13 
 H                     39.26     43.16     39.7 
 H                     41.38     42.91     37.97 
 N                     37.24     44.4      38.25 
 C                     36.48     45.62     38.07 
 C                     37.36     46.85     37.85 
 O                     37.01     47.58     36.93 
 C                     35.68     45.75     39.36 
 H                     37.08     43.9      39.11 
 H                     35.74     45.55     37.27 
 H                     35.01     46.6      39.23 
 H                     35.15     44.79     39.42 
 H                     36.43     45.97     40.11 
 N                     38.41     47.07     38.64 
 C                     39.27     48.23     38.58 
 C                     40.       48.27     37.24 
 O                     40.11     49.31     36.61 
 C                     40.25     48.28     39.75 
 H                     38.61     46.39     39.37 
 H                     38.74     49.18     38.64 
 H                     40.83     47.37     39.56 
 H                     40.93     49.13     39.65 
 H                     39.75     48.22     40.72 
 N                     40.44     47.12     36.72 
 C                     40.89     46.88     35.36 
 C                     39.78     47.05     34.33 
 O                     40.01     47.65     33.28 
 C                     41.41     45.45     35.18 
 C                     42.72     45.2      35.93 
 C                     43.13     43.74     35.96 
 O                     44.34     43.44     35.91 
 O                     42.25     42.86     36.08 
 H                     40.29     46.32     37.32 
 H                     41.74     47.53     35.19 
 H                     41.58     45.43     34.1 
 H                     40.66     44.69     35.39 
 H                     42.66     45.52     36.97 
 H                     43.52     45.8      35.49 
 N                     38.57     46.53     34.52 
 C                     37.43     46.77     33.65 
 H                     36.628    47.235    34.223 
 H                     37.726    47.433    32.837 
 H                     37.08     45.823    33.239 
 H                     38.46     46.15     35.45 
 Ca                    44.03     40.78     36.45 
 O                     43.93     42.19     38.72 
 H                     43.81     43.12     38.91 
 H                     44.78     41.97     39.1 
 
 Stoichiometry    C54H83CaN15O23
 Framework group  C1[X(C54H83CaN15O23)]
 Deg. of freedom   522
 Full point group                 C1      NOp   1
 Largest Abelian subgroup         C1      NOp   1
 Largest concise Abelian subgroup C1      NOp   1
                         Standard orientation:                         
 ---------------------------------------------------------------------
 Center     Atomic      Atomic             Coordinates (Angstroms)
 Number     Number       Type             X           Y           Z
 ---------------------------------------------------------------------
      1          6           0        2.569515    2.314383    5.654812
      2          6           0        1.861723    2.111387    4.321087
      3          8           0        2.475663    2.120035    3.263825
      4          1           0        3.571135    1.886211    5.602897
      5          1           0        2.640843    3.380243    5.870396
      6          1           0        2.004474    1.820967    6.445300
      7          7           0        0.524748    2.051617    4.354627
      8          6           0       -0.191731    2.037903    3.086452
      9          6           0       -0.194252    3.411587    2.437541
     10          8           0       -0.955943    4.292710    2.834215
     11          6           0       -1.636560    1.605041    3.266179
     12          6           0       -2.444341    1.659660    1.971650
     13          8           0       -1.860637    1.672254    0.870000
     14          8           0       -3.686819    1.799871    2.082507
     15          1           0        0.099152    1.713653    5.207005
     16          1           0        0.245193    1.421605    2.296975
     17          1           0       -2.134146    2.185309    4.050970
     18          1           0       -1.742175    0.567388    3.563537
     19          7           0        0.482018    3.576130    1.295357
     20          6           0        0.862294    4.884979    0.798967
     21          6           0       -0.142406    5.451219   -0.194286
     22          8           0       -0.560521    6.590446    0.022835
     23          6           0        2.322049    4.998640    0.362164
     24          6           0        2.704284    6.333914   -0.277397
     25          6           0        4.222248    6.376314   -0.429010
     26          6           0        4.539927    7.619237   -1.251337
     27          7           0        4.615741    8.900635   -0.540230
     28          1           0        0.805267    2.746626    0.821191
     29          1           0        0.740504    5.539433    1.654278
     30          1           0        2.515346    4.225010   -0.374472
     31          1           0        2.970514    4.723521    1.189148
     32          1           0        2.366259    7.135390    0.368804
     33          1           0        2.169731    6.489639   -1.212867
     34          1           0        4.466356    5.470352   -0.997995
     35          1           0        4.685185    6.328608    0.560341
     36          1           0        3.787689    7.639644   -2.041541
     37          1           0        5.521962    7.419267   -1.692495
     38          1           0        4.480409    9.591917   -1.265223
     39          1           0        3.811826    8.945976    0.085761
     40          1           0        5.533294    9.039170   -0.145891
     41          7           0       -0.749999    4.679614   -1.099358
     42          6           0       -1.755274    5.132223   -2.043745
     43          6           0       -3.151754    4.778384   -1.561003
     44          8           0       -4.138558    5.122903   -2.212174
     45          6           0       -1.333592    4.570215   -3.394756
     46          6           0       -1.396442    3.058911   -3.551629
     47          8           0       -1.809596    2.334197   -2.618198
     48          8           0       -1.083744    2.457828   -4.599827
     49          1           0       -0.458984    3.718853   -1.214034
     50          1           0       -1.835276    6.216006   -2.064122
     51          1           0       -0.352516    4.918309   -3.705434
     52          1           0       -2.002740    4.962562   -4.172447
     53          7           0       -3.240651    4.044758   -0.445973
     54          6           0       -4.437841    4.082812    0.354894
     55          6           0       -5.486639    3.070071   -0.090839
     56          8           0       -6.622746    3.340775    0.285831
     57          1           0       -2.446709    3.504724   -0.126882
     58          1           0       -4.994490    5.029323    0.347362
     59          1           0       -4.127457    3.823395    1.361753
     60          7           0       -5.166173    2.020355   -0.841770
     61          6           0       -6.177001    1.061942   -1.236446
     62          6           0       -6.444551    0.010928   -0.169869
     63          8           0       -6.985578   -1.036559   -0.541032
     64          6           0       -5.851988    0.417866   -2.582973
     65          6           0       -4.584354   -0.419158   -2.527346
     66          7           0       -4.468443   -1.417126   -3.418201
     67          8           0       -3.627956   -0.242376   -1.777579
     68          1           0       -4.233095    1.949849   -1.217794
     69          1           0       -7.052624    1.685972   -1.400061
     70          1           0       -5.618568    1.231715   -3.262139
     71          1           0       -6.701197   -0.147901   -2.967226
     72          1           0       -5.215507   -1.739270   -4.010333
     73          1           0       -3.845874   -2.188365   -3.264265
     74          7           0       -6.048004    0.250225    1.072704
     75          6           0       -6.247833   -0.682755    2.168978
     76          6           0       -5.297962   -1.861139    2.262023
     77          8           0       -5.536813   -2.745904    3.087276
     78          1           0       -5.507343    1.057877    1.350703
     79          1           0       -7.276871   -1.040163    2.211864
     80          1           0       -6.027062   -0.192697    3.118769
     81          7           0       -4.358010   -2.009283    1.326960
     82          6           0       -3.461185   -3.140311    1.187747
     83          6           0       -2.039982   -2.611724    1.068670
     84          8           0       -1.748363   -1.550492    0.529555
     85          6           0       -3.851641   -3.911835   -0.074748
     86          6           0       -5.265308   -4.389801   -0.271710
     87          6           0       -5.884070   -4.405855   -1.527805
     88          6           0       -5.957571   -4.994387    0.790433
     89          6           0       -7.147174   -4.941168   -1.803138
     90          6           0       -7.300992   -5.362782    0.634213
     91          6           0       -7.831205   -5.424751   -0.668259
     92          8           0       -9.006593   -6.065910   -0.945166
     93          1           0       -4.237921   -1.262920    0.649154
     94          1           0       -3.557245   -3.800443    2.043842
     95          1           0       -3.216271   -4.793720   -0.153393
     96          1           0       -3.422029   -3.376008   -0.921284
     97          1           0       -5.214937   -4.091842   -2.318410
     98          1           0       -5.462214   -5.033569    1.742686
     99          1           0       -7.469063   -5.121968   -2.818765
    100          1           0       -7.908801   -5.794881    1.410847
    101          1           0       -9.232733   -6.511200   -0.121044
    102          7           0       -1.023630   -3.349215    1.520593
    103          6           0        0.390532   -3.072757    1.318563
    104          6           0        1.037445   -3.952260    0.261266
    105          8           0        0.866694   -5.177760    0.221324
    106          6           0        1.024945   -3.044755    2.706993
    107          6           0        0.950871   -1.729742    3.478131
    108          6           0        2.498648   -3.448298    2.694579
    109          6           0        1.416986   -1.806172    4.924608
    110          1           0       -1.234054   -4.144415    2.100142
    111          1           0        0.417391   -2.041853    0.961608
    112          1           0        0.589754   -3.869017    3.261340
    113          1           0       -0.048918   -1.336635    3.347027
    114          1           0        1.679459   -1.096582    2.963769
    115          1           0        2.902513   -3.463069    3.704566
    116          1           0        2.609181   -4.462811    2.299301
    117          1           0        3.096676   -2.833152    2.024237
    118          1           0        0.909125   -0.938933    5.343145
    119          1           0        1.180606   -2.753771    5.411415
    120          1           0        2.502398   -1.687283    4.876187
    121          7           0        1.844509   -3.352766   -0.604675
    122          6           0        2.629738   -3.877080   -1.702086
    123          6           0        4.053268   -4.016561   -1.174728
    124          8           0        4.416096   -3.499164   -0.118766
    125          6           0        2.510088   -3.028802   -2.962248
    126          8           0        2.712263   -1.637866   -2.829877
    127          1           0        1.851097   -2.341323   -0.528259
    128          1           0        2.315554   -4.894193   -1.956976
    129          1           0        1.508955   -3.171116   -3.376589
    130          1           0        3.182470   -3.405880   -3.730893
    131          1           0        1.952811   -1.421305   -2.282033
    132          7           0        4.902015   -4.682761   -1.960797
    133          6           0        6.286175   -4.901612   -1.593908
    134          6           0        7.062768   -3.603749   -1.374468
    135          8           0        7.753944   -3.577903   -0.362832
    136          6           0        6.859844   -5.684185   -2.768422
    137          1           0        4.605480   -5.085561   -2.835451
    138          1           0        6.401421   -5.550297   -0.723032
    139          1           0        7.876086   -5.965670   -2.492164
    140          1           0        6.181732   -6.544463   -2.847078
    141          1           0        6.872822   -4.965100   -3.578452
    142          7           0        6.968629   -2.611433   -2.258463
    143          6           0        7.707588   -1.370694   -2.200950
    144          6           0        7.310392   -0.583711   -0.954759
    145          8           0        8.150071   -0.037113   -0.257070
    146          6           0        7.529013   -0.536201   -3.467257
    147          1           0        6.356505   -2.742104   -3.060665
    148          1           0        8.786496   -1.499082   -2.120484
    149          1           0        6.452567   -0.336793   -3.421430
    150          1           0        8.045141    0.423000   -3.375353
    151          1           0        7.777368   -1.091601   -4.375195
    152          7           0        6.025610   -0.580645   -0.586215
    153          6           0        5.472906   -0.157258    0.688525
    154          6           0        5.919252   -1.037540    1.849465
    155          8           0        6.258744   -0.517858    2.912514
    156          6           0        3.941703   -0.213092    0.688006
    157          6           0        3.313370    0.841474   -0.225334
    158          6           0        1.820941    0.657268   -0.423633
    159          8           0        1.087446    1.660045   -0.537749
    160          8           0        1.354254   -0.499050   -0.514923
    161          1           0        5.418015   -1.069876   -1.229629
    162          1           0        5.733178    0.887020    0.813586
    163          1           0        3.729624    0.016002    1.735974
    164          1           0        3.547752   -1.210426    0.502728
    165          1           0        3.755552    0.831583   -1.221314
    166          1           0        3.513742    1.840620    0.168567
    167          7           0        5.915308   -2.364934    1.756677
    168          6           0        6.456537   -3.257901    2.768498
    169          1           0        7.252651   -3.860675    2.331893
    170          1           0        6.857939   -2.670921    3.594625
    171          1           0        5.666417   -3.912480    3.136556
    172          1           0        5.718946   -2.680918    0.816999
    173         20           0       -1.178707    0.315233   -1.258395
    174          8           0        0.429435    0.594802   -3.376583
    175          1           0        1.352637    0.826569   -3.473441
    176          1           0       -0.044281    1.264843   -3.868456
 ---------------------------------------------------------------------
 Rotational constants (GHZ):      0.0224149      0.0154575      0.0117521
 Standard basis: SVP (5D, 7F)
 There are  1809 symmetry adapted cartesian basis functions of A   symmetry.
 There are  1717 symmetry adapted basis functions of A   symmetry.
  1717 basis functions,  2922 primitive gaussians,  1809 cartesian basis functions
   358 alpha electrons      358 beta electrons
       nuclear repulsion energy     21717.1175487142 Hartrees.
 NAtoms=  176 NActive=  176 NUniq=  176 SFac= 1.00D+00 NAtFMM=   60 NAOKFM=T Big=T
 Integral buffers will be    131072 words long.
 Raffenetti 2 integral format.
 Two-electron integral symmetry is turned on.
 One-electron integrals computed using PRISM.
 NBasis=  1717 RedAO= T EigKep=  3.57D-04  NBF=  1717
 NBsUse=  1717 1.00D-06 EigRej= -1.00D+00 NBFU=  1717
 ExpMin= 1.98D-02 ExpMax= 3.51D+04 ExpMxC= 5.28D+03 IAcc=3 IRadAn=         5 AccDes= 0.00D+00
 Harris functional with IExCor=  402 and IRadAn=       5 diagonalized for initial guess.
 HarFok:  IExCor=  402 AccDes= 0.00D+00 IRadAn=         5 IDoV= 1 UseB2=F ITyADJ=14
 ICtDFT=  3500011 ScaDFX=  1.000000  1.000000  1.000000  1.000000
 FoFCou: FMM=F IPFlag=           0 FMFlag=      100000 FMFlg1=        2001
         NFxFlg=           0 DoJE=T BraDBF=F KetDBF=T FulRan=T
         wScrn=  0.000000 ICntrl=     500 IOpCl=  0 I1Cent=   200000004 NGrid=           0
         NMat0=    1 NMatS0=      1 NMatT0=    0 NMatD0=    1 NMtDS0=    0 NMtDT0=    0
 Petite list used in FoFCou.
 Requested convergence on RMS density matrix=1.00D-08 within 128 cycles.
 Requested convergence on MAX density matrix=1.00D-06.
 Requested convergence on             energy=1.00D-06.
 No special actions if energy rises.
 EnCoef did     1 forward-backward iterations
 SCF Done:  E(RB3LYP) =  -5333.58018546     A.U. after   15 cycles
            NFock= 15  Conv=0.70D-08     -V/T= 2.0081

 **********************************************************************

            Population analysis using the SCF density.

 **********************************************************************

 Orbital symmetries:
 BldTbl:  Degeneracy threshold= 1.00D-02
       Occupied  (A) (A) (A) (A) (A) (A) (A) (A) (A) (A) (A) (A)
                 (A) (A) (A) (A) (A) (A) (A) (A) (A) (A) (A) (A)
                 (A) (A) (A) (A) (A) (A) (A) (A) (A) (A) (A) (A)
                 (A) (A) (A) (A) (A) (A) (A) (A) (A) (A) (A) (A)
                 (A) (A) (A) (A) (A) (A) (A) (A) (A) (A) (A) (A)
                 (A) (A) (A) (A) (A) (A) (A) (A) (A) (A) (A) (A)
                 (A) (A) (A) (A) (A) (A) (A) (A) (A) (A) (A) (A)
                 (A) (A) (A) (A) (A) (A) (A) (A) (A) (A) (A) (A)
                 (A) (A) (A) (A) (A) (A) (A) (A) (A) (A) (A) (A)
                 (A) (A) (A) (A) (A) (A) (A) (A) (A) (A) (A) (A)
                 (A) (A) (A) (A) (A) (A) (A) (A) (A) (A) (A) (A)
                 (A) (A) (A) (A) (A) (A) (A) (A) (A) (A) (A) (A)
                 (A) (A) (A) (A) (A) (A) (A) (A) (A) (A) (A) (A)
                 (A) (A) (A) (A) (A) (A) (A) (A) (A) (A) (A) (A)
                 (A) (A) (A) (A) (A) (A) (A) (A) (A) (A) (A) (A)
                 (A) (A) (A) (A) (A) (A) (A) (A) (A) (A) (A) (A)
                 (A) (A) (A) (A) (A) (A) (A) (A) (A) (A) (A) (A)
                 (A) (A) (A) (A) (A) (A) (A) (A) (A) (A) (A) (A)
                 (A) (A) (A) (A) (A) (A) (A) (A) (A) (A) (A) (A)
                 (A) (A) (A) (A) (A) (A) (A) (A) (A) (A) (A) (A)
                 (A) (A) (A) (A) (A) (A) (A) (A) (A) (A) (A) (A)
                 (A) (A) (A) (A) (A) (A) (A) (A) (A) (A) (A) (A)
                 (A) (A) (A) (A) (A) (A) (A) (A) (A) (A) (A) (A)
                 (A) (A) (A) (A) (A) (A) (A) (A) (A) (A) (A) (A)
                 (A) (A) (A) (A) (A) (A) (A) (A) (A) (A) (A) (A)
                 (A) (A) (A) (A) (A) (A) (A) (A) (A) (A) (A) (A)
                 (A) (A) (A) (A) (A) (A) (A) (A) (A) (A) (A) (A)
                 (A) (A) (A) (A) (A) (A) (A) (A) (A) (A) (A) (A)
                 (A) (A) (A) (A) (A) (A) (A) (A) (A) (A) (A) (A)
                 (A) (A) (A) (A) (A) (A) (A) (A) (A) (A)
       Virtual   (A) (A) (A) (A) (A) (A) (A) (A) (A) (A) (A) (A)
                 (A) (A) (A) (A) (A) (A) (A) (A) (A) (A) (A) (A)
                 (A) (A) (A) (A) (A) (A) (A) (A) (A) (A) (A) (A)
                 (A) (A) (A) (A) (A) (A) (A) (A) (A) (A) (A) (A)
                 (A) (A) (A) (A) (A) (A) (A) (A) (A) (A) (A) (A)
                 (A) (A) (A) (A) (A) (A) (A) (A) (A) (A) (A) (A)
                 (A) (A) (A) (A) (A) (A) (A) (A) (A) (A) (A) (A)
                 (A) (A) (A) (A) (A) (A) (A) (A) (A) (A) (A) (A)
                 (A) (A) (A) (A) (A) (A) (A) (A) (A) (A) (A) (A)
                 (A) (A) (A) (A) (A) (A) (A) (A) (A) (A) (A) (A)
                 (A) (A) (A) (A) (A) (A) (A) (A) (A) (A) (A) (A)
                 (A) (A) (A) (A) (A) (A) (A) (A) (A) (A) (A) (A)
                 (A) (A) (A) (A) (A) (A) (A) (A) (A) (A) (A) (A)
                 (A) (A) (A) (A) (A) (A) (A) (A) (A) (A) (A) (A)
                 (A) (A) (A) (A) (A) (A) (A) (A) (A) (A) (A) (A)
                 (A) (A) (A) (A) (A) (A) (A) (A) (A) (A) (A) (A)
                 (A) (A) (A) (A) (A) (A) (A) (A) (A) (A) (A) (A)
                 (A) (A) (A) (A) (A) (A) (A) (A) (A) (A) (A) (A)
                 (A) (A) (A) (A) (A) (A) (A) (A) (A) (A) (A) (A)
                 (A) (A) (A) (A) (A) (A) (A) (A) (A) (A) (A) (A)
                 (A) (A) (A) (A) (A) (A) (A) (A) (A) (A) (A) (A)
                 (A) (A) (A) (A) (A) (A) (A) (A) (A) (A) (A) (A)
                 (A) (A) (A) (A) (A) (A) (A) (A) (A) (A) (A) (A)
                 (A) (A) (A) (A) (A) (A) (A) (A) (A) (A) (A) (A)
                 (A) (A) (A) (A) (A) (A) (A) (A) (A) (A) (A) (A)
                 (A) (A) (A) (A) (A) (A) (A) (A) (A) (A) (A) (A)
                 (A) (A) (A) (A) (A) (A) (A) (A) (A) (A) (A) (A)
                 (A) (A) (A) (A) (A) (A) (A) (A) (A) (A) (A) (A)
                 (A) (A) (A) (A) (A) (A) (A) (A) (A) (A) (A) (A)
                 (A) (A) (A) (A) (A) (A) (A) (A) (A) (A) (A) (A)
                 (A) (A) (A) (A) (A) (A) (A) (A) (A) (A) (A) (A)
                 (A) (A) (A) (A) (A) (A) (A) (A) (A) (A) (A) (A)
                 (A) (A) (A) (A) (A) (A) (A) (A) (A) (A) (A) (A)
                 (A) (A) (A) (A) (A) (A) (A) (A) (A) (A) (A) (A)
                 (A) (A) (A) (A) (A) (A) (A) (A) (A) (A) (A) (A)
                 (A) (A) (A) (A) (A) (A) (A) (A) (A) (A) (A) (A)
                 (A) (A) (A) (A) (A) (A) (A) (A) (A) (A) (A) (A)
                 (A) (A) (A) (A) (A) (A) (A) (A) (A) (A) (A) (A)
                 (A) (A) (A) (A) (A) (A) (A) (A) (A) (A) (A) (A)
                 (A) (A) (A) (A) (A) (A) (A) (A) (A) (A) (A) (A)
                 (A) (A) (A) (A) (A) (A) (A) (A) (A) (A) (A) (A)
                 (A) (A) (A) (A) (A) (A) (A) (A) (A) (A) (A) (A)
                 (A) (A) (A) (A) (A) (A) (A) (A) (A) (A) (A) (A)
                 (A) (A) (A) (A) (A) (A) (A) (A) (A) (A) (A) (A)
                 (A) (A) (A) (A) (A) (A) (A) (A) (A) (A) (A) (A)
                 (A) (A) (A) (A) (A) (A) (A) (A) (A) (A) (A) (A)
                 (A) (A) (A) (A) (A) (A) (A) (A) (A) (A) (A) (A)
                 (A) (A) (A) (A) (A) (A) (A) (A) (A) (A) (A) (A)
                 (A) (A) (A) (A) (A) (A) (A) (A) (A) (A) (A) (A)
                 (A) (A) (A) (A) (A) (A) (A) (A) (A) (A) (A) (A)
                 (A) (A) (A) (A) (A) (A) (A) (A) (A) (A) (A) (A)
                 (A) (A) (A) (A) (A) (A) (A) (A) (A) (A) (A) (A)
                 (A) (A) (A) (A) (A) (A) (A) (A) (A) (A) (A) (A)
                 (A) (A) (A) (A) (A) (A) (A) (A) (A) (A) (A) (A)
                 (A) (A) (A) (A) (A) (A) (A) (A) (A) (A) (A) (A)
                 (A) (A) (A) (A) (A) (A) (A) (A) (A) (A) (A) (A)
                 (A) (A) (A) (A) (A) (A) (A) (A) (A) (A) (A) (A)
                 (A) (A) (A) (A) (A) (A) (A) (A) (A) (A) (A) (A)
                 (A) (A) (A) (A) (A) (A) (A) (A) (A) (A) (A) (A)
                 (A) (A) (A) (A) (A) (A) (A) (A) (A) (A) (A) (A)
                 (A) (A) (A) (A) (A) (A) (A) (A) (A) (A) (A) (A)
                 (A) (A) (A) (A) (A) (A) (A) (A) (A) (A) (A) (A)
                 (A) (A) (A) (A) (A) (A) (A) (A) (A) (A) (A) (A)
                 (A) (A) (A) (A) (A) (A) (A) (A) (A) (A) (A) (A)
                 (A) (A) (A) (A) (A) (A) (A) (A) (A) (A) (A) (A)
                 (A) (A) (A) (A) (A) (A) (A) (A) (A) (A) (A) (A)
                 (A) (A) (A) (A) (A) (A) (A) (A) (A) (A) (A) (A)
                 (A) (A) (A) (A) (A) (A) (A) (A) (A) (A) (A) (A)
                 (A) (A) (A) (A) (A) (A) (A) (A) (A) (A) (A) (A)
                 (A) (A) (A) (A) (A) (A) (A) (A) (A) (A) (A) (A)
                 (A) (A) (A) (A) (A) (A) (A) (A) (A) (A) (A) (A)
                 (A) (A) (A) (A) (A) (A) (A) (A) (A) (A) (A) (A)
                 (A) (A) (A) (A) (A) (A) (A) (A) (A) (A) (A) (A)
                 (A) (A) (A) (A) (A) (A) (A) (A) (A) (A) (A) (A)
                 (A) (A) (A) (A) (A) (A) (A) (A) (A) (A) (A) (A)
                 (A) (A) (A) (A) (A) (A) (A) (A) (A) (A) (A) (A)
                 (A) (A) (A) (A) (A) (A) (A) (A) (A) (A) (A) (A)
                 (A) (A) (A) (A) (A) (A) (A) (A) (A) (A) (A) (A)
                 (A) (A) (A) (A) (A) (A) (A) (A) (A) (A) (A) (A)
                 (A) (A) (A) (A) (A) (A) (A) (A) (A) (A) (A) (A)
                 (A) (A) (A) (A) (A) (A) (A) (A) (A) (A) (A) (A)
                 (A) (A) (A) (A) (A) (A) (A) (A) (A) (A) (A) (A)
                 (A) (A) (A) (A) (A) (A) (A) (A) (A) (A) (A) (A)
                 (A) (A) (A) (A) (A) (A) (A) (A) (A) (A) (A) (A)
                 (A) (A) (A) (A) (A) (A) (A) (A) (A) (A) (A) (A)
                 (A) (A) (A) (A) (A) (A) (A) (A) (A) (A) (A) (A)
                 (A) (A) (A) (A) (A) (A) (A) (A) (A) (A) (A) (A)
                 (A) (A) (A) (A) (A) (A) (A) (A) (A) (A) (A) (A)
                 (A) (A) (A) (A) (A) (A) (A) (A) (A) (A) (A) (A)
                 (A) (A) (A) (A) (A) (A) (A) (A) (A) (A) (A) (A)
                 (A) (A) (A) (A) (A) (A) (A) (A) (A) (A) (A) (A)
                 (A) (A) (A) (A) (A) (A) (A) (A) (A) (A) (A) (A)
                 (A) (A) (A) (A) (A) (A) (A) (A) (A) (A) (A) (A)
                 (A) (A) (A) (A) (A) (A) (A) (A) (A) (A) (A) (A)
                 (A) (A) (A) (A) (A) (A) (A) (A) (A) (A) (A) (A)
                 (A) (A) (A) (A) (A) (A) (A) (A) (A) (A) (A) (A)
                 (A) (A) (A) (A) (A) (A) (A) (A) (A) (A) (A) (A)
                 (A) (A) (A) (A) (A) (A) (A) (A) (A) (A) (A) (A)
                 (A) (A) (A) (A) (A) (A) (A) (A) (A) (A) (A) (A)
                 (A) (A) (A) (A) (A) (A) (A) (A) (A) (A) (A) (A)
                 (A) (A) (A) (A) (A) (A) (A) (A) (A) (A) (A) (A)
                 (A) (A) (A) (A) (A) (A) (A) (A) (A) (A) (A) (A)
                 (A) (A) (A) (A) (A) (A) (A) (A) (A) (A) (A) (A)
                 (A) (A) (A) (A) (A) (A) (A) (A) (A) (A) (A) (A)
                 (A) (A) (A) (A) (A) (A) (A) (A) (A) (A) (A) (A)
                 (A) (A) (A) (A) (A) (A) (A) (A) (A) (A) (A) (A)
                 (A) (A) (A) (A) (A) (A) (A) (A) (A) (A) (A) (A)
                 (A) (A) (A) (A) (A) (A) (A) (A) (A) (A) (A) (A)
                 (A) (A) (A) (A) (A) (A) (A) (A) (A) (A) (A) (A)
                 (A) (A) (A) (A) (A) (A) (A) (A) (A) (A) (A) (A)
                 (A) (A) (A) (A) (A) (A) (A) (A) (A) (A) (A) (A)
                 (A) (A) (A) (A) (A) (A) (A) (A) (A) (A) (A) (A)
                 (A) (A) (A) (A) (A) (A) (A) (A) (A) (A) (A) (A)
                 (A) (A) (A)
 The electronic state is 1-A.
 Alpha  occ. eigenvalues -- -145.37782 -19.15399 -19.14886 -19.13236 -19.13082
 Alpha  occ. eigenvalues --  -19.12327 -19.11983 -19.10868 -19.10207 -19.09064
 Alpha  occ. eigenvalues --  -19.09005 -19.08117 -19.08020 -19.06597 -19.06436
 Alpha  occ. eigenvalues --  -19.06317 -19.05502 -19.05159 -19.04656 -19.04456
 Alpha  occ. eigenvalues --  -19.04259 -19.03607 -19.03551 -19.02377 -15.43512
 Alpha  occ. eigenvalues --  -14.59562 -14.38991 -14.38237 -14.36729 -14.36649
 Alpha  occ. eigenvalues --  -14.35228 -14.34216 -14.33951 -14.33235 -14.32385
 Alpha  occ. eigenvalues --  -14.31851 -14.30500 -14.30326 -14.30084 -14.28897
 Alpha  occ. eigenvalues --  -12.57137 -12.57086 -12.57075 -10.35253 -10.31548
 Alpha  occ. eigenvalues --  -10.31207 -10.30452 -10.29820 -10.28265 -10.28236
 Alpha  occ. eigenvalues --  -10.27502 -10.27018 -10.26632 -10.26544 -10.25734
 Alpha  occ. eigenvalues --  -10.25583 -10.25353 -10.25274 -10.24959 -10.24463
 Alpha  occ. eigenvalues --  -10.24321 -10.23961 -10.23927 -10.23740 -10.23545
 Alpha  occ. eigenvalues --  -10.23510 -10.23182 -10.22937 -10.22515 -10.22094
 Alpha  occ. eigenvalues --  -10.22085 -10.21389 -10.21269 -10.21226 -10.20658
 Alpha  occ. eigenvalues --  -10.20499 -10.19886 -10.19773 -10.19718 -10.19710
 Alpha  occ. eigenvalues --  -10.19528 -10.18231 -10.18132 -10.17978 -10.17940
 Alpha  occ. eigenvalues --  -10.17932 -10.17900 -10.17731 -10.17697 -10.17444
 Alpha  occ. eigenvalues --  -10.17352 -10.16866 -10.16779 -10.16573 -10.15739
 Alpha  occ. eigenvalues --  -10.15358 -10.14960  -1.80316  -1.14718  -1.07999
 Alpha  occ. eigenvalues --   -1.07826  -1.07636  -1.06423  -1.05646  -1.05556
 Alpha  occ. eigenvalues --   -1.04515  -1.04197  -1.03837  -1.03748  -1.01804
 Alpha  occ. eigenvalues --   -1.01596  -1.01299  -1.00396  -0.99915  -0.99844
 Alpha  occ. eigenvalues --   -0.98987  -0.98640  -0.98129  -0.97909  -0.97785
 Alpha  occ. eigenvalues --   -0.97373  -0.96660  -0.96107  -0.94612  -0.94420
 Alpha  occ. eigenvalues --   -0.93113  -0.92207  -0.91686  -0.90798  -0.90422
 Alpha  occ. eigenvalues --   -0.90126  -0.89601  -0.89379  -0.88823  -0.88427
 Alpha  occ. eigenvalues --   -0.88109  -0.87876  -0.87588  -0.86367  -0.85552
 Alpha  occ. eigenvalues --   -0.83556  -0.82176  -0.81340  -0.81110  -0.79503
 Alpha  occ. eigenvalues --   -0.78217  -0.77929  -0.77554  -0.76803  -0.76322
 Alpha  occ. eigenvalues --   -0.75236  -0.74933  -0.74367  -0.74204  -0.72989
 Alpha  occ. eigenvalues --   -0.72416  -0.72285  -0.71531  -0.70830  -0.70509
 Alpha  occ. eigenvalues --   -0.69174  -0.68664  -0.68235  -0.67907  -0.67572
 Alpha  occ. eigenvalues --   -0.66611  -0.65852  -0.65665  -0.64649  -0.64161
 Alpha  occ. eigenvalues --   -0.63903  -0.63111  -0.62540  -0.62051  -0.61992
 Alpha  occ. eigenvalues --   -0.61457  -0.61309  -0.60805  -0.60665  -0.60401
 Alpha  occ. eigenvalues --   -0.59033  -0.57841  -0.57715  -0.57689  -0.56965
 Alpha  occ. eigenvalues --   -0.56892  -0.56610  -0.56402  -0.55620  -0.55550
 Alpha  occ. eigenvalues --   -0.55374  -0.55278  -0.55072  -0.54475  -0.54182
 Alpha  occ. eigenvalues --   -0.53965  -0.53285  -0.53227  -0.52981  -0.52605
 Alpha  occ. eigenvalues --   -0.52529  -0.52217  -0.52171  -0.52065  -0.51761
 Alpha  occ. eigenvalues --   -0.51295  -0.50593  -0.50308  -0.50151  -0.49850
 Alpha  occ. eigenvalues --   -0.49471  -0.49346  -0.48830  -0.48651  -0.48589
 Alpha  occ. eigenvalues --   -0.48440  -0.48291  -0.47707  -0.47672  -0.47507
 Alpha  occ. eigenvalues --   -0.47415  -0.47200  -0.46631  -0.46470  -0.46179
 Alpha  occ. eigenvalues --   -0.45929  -0.45820  -0.45545  -0.45443  -0.45195
 Alpha  occ. eigenvalues --   -0.44914  -0.44880  -0.44840  -0.44707  -0.44627
 Alpha  occ. eigenvalues --   -0.44447  -0.44319  -0.43921  -0.43762  -0.43483
 Alpha  occ. eigenvalues --   -0.43199  -0.42949  -0.42910  -0.42806  -0.42619
 Alpha  occ. eigenvalues --   -0.42490  -0.42354  -0.42114  -0.42033  -0.41957
 Alpha  occ. eigenvalues --   -0.41561  -0.41499  -0.41361  -0.41269  -0.41140
 Alpha  occ. eigenvalues --   -0.40940  -0.40728  -0.40551  -0.40504  -0.40466
 Alpha  occ. eigenvalues --   -0.40335  -0.40267  -0.40100  -0.39898  -0.39776
 Alpha  occ. eigenvalues --   -0.39721  -0.39632  -0.39437  -0.39351  -0.39250
 Alpha  occ. eigenvalues --   -0.39091  -0.38806  -0.38603  -0.38536  -0.38441
 Alpha  occ. eigenvalues --   -0.38386  -0.38278  -0.38096  -0.37698  -0.37643
 Alpha  occ. eigenvalues --   -0.37480  -0.37362  -0.37219  -0.37042  -0.36938
 Alpha  occ. eigenvalues --   -0.36722  -0.36638  -0.36541  -0.36464  -0.35978
 Alpha  occ. eigenvalues --   -0.35929  -0.35895  -0.35784  -0.35532  -0.35487
 Alpha  occ. eigenvalues --   -0.35056  -0.34992  -0.34707  -0.34632  -0.34352
 Alpha  occ. eigenvalues --   -0.33932  -0.33851  -0.33737  -0.33674  -0.33412
 Alpha  occ. eigenvalues --   -0.33207  -0.33025  -0.32941  -0.32588  -0.32363
 Alpha  occ. eigenvalues --   -0.32127  -0.31780  -0.31452  -0.31329  -0.31224
 Alpha  occ. eigenvalues --   -0.30949  -0.30742  -0.30418  -0.30387  -0.30230
 Alpha  occ. eigenvalues --   -0.29932  -0.28980  -0.28841  -0.28502  -0.28440
 Alpha  occ. eigenvalues --   -0.28066  -0.27543  -0.27246  -0.26171  -0.26032
 Alpha  occ. eigenvalues --   -0.25892  -0.25584  -0.25295  -0.25142  -0.24588
 Alpha  occ. eigenvalues --   -0.24560  -0.24290  -0.23946  -0.23815  -0.23730
 Alpha  occ. eigenvalues --   -0.23658  -0.23464  -0.23428  -0.22573  -0.22383
 Alpha  occ. eigenvalues --   -0.21645  -0.21620  -0.21336  -0.20761  -0.20654
 Alpha  occ. eigenvalues --   -0.20585  -0.20427  -0.20160  -0.20130  -0.19525
 Alpha  occ. eigenvalues --   -0.19175  -0.18492  -0.17925
 Alpha virt. eigenvalues --   -0.11282  -0.05740  -0.04549  -0.01818  -0.01262
 Alpha virt. eigenvalues --   -0.00941  -0.00714  -0.00565  -0.00192   0.00159
 Alpha virt. eigenvalues --    0.00393   0.01523   0.01590   0.01832   0.02233
 Alpha virt. eigenvalues --    0.02320   0.02680   0.02988   0.03222   0.03613
 Alpha virt. eigenvalues --    0.03990   0.04278   0.04535   0.04849   0.05057
 Alpha virt. eigenvalues --    0.05182   0.05595   0.05692   0.05889   0.06108
 Alpha virt. eigenvalues --    0.06283   0.06726   0.06994   0.07128   0.07187
 Alpha virt. eigenvalues --    0.07391   0.07579   0.07832   0.08062   0.08187
 Alpha virt. eigenvalues --    0.08398   0.08576   0.08601   0.09055   0.09570
 Alpha virt. eigenvalues --    0.09740   0.10040   0.10179   0.10361   0.10486
 Alpha virt. eigenvalues --    0.10650   0.10809   0.10846   0.11015   0.11375
 Alpha virt. eigenvalues --    0.11578   0.11713   0.11821   0.11911   0.12051
 Alpha virt. eigenvalues --    0.12314   0.12446   0.12499   0.12565   0.12941
 Alpha virt. eigenvalues --    0.13259   0.13403   0.13447   0.13595   0.13786
 Alpha virt. eigenvalues --    0.13917   0.14146   0.14232   0.14528   0.14800
 Alpha virt. eigenvalues --    0.15033   0.15218   0.15488   0.15583   0.15661
 Alpha virt. eigenvalues --    0.15814   0.16027   0.16064   0.16162   0.16468
 Alpha virt. eigenvalues --    0.16525   0.16609   0.16929   0.17026   0.17394
 Alpha virt. eigenvalues --    0.17540   0.17660   0.17701   0.18057   0.18183
 Alpha virt. eigenvalues --    0.18328   0.18467   0.18566   0.18639   0.18875
 Alpha virt. eigenvalues --    0.18985   0.19244   0.19480   0.19714   0.19968
 Alpha virt. eigenvalues --    0.20131   0.20330   0.20449   0.20988   0.21125
 Alpha virt. eigenvalues --    0.21324   0.21374   0.21655   0.21971   0.21992
 Alpha virt. eigenvalues --    0.22209   0.22479   0.22535   0.22793   0.22833
 Alpha virt. eigenvalues --    0.23135   0.23593   0.23705   0.23887   0.24210
 Alpha virt. eigenvalues --    0.24260   0.24444   0.24916   0.25090   0.25308
 Alpha virt. eigenvalues --    0.25482   0.25674   0.25874   0.26167   0.26416
 Alpha virt. eigenvalues --    0.26592   0.26939   0.26998   0.27213   0.27279
 Alpha virt. eigenvalues --    0.27399   0.27630   0.27835   0.28033   0.28088
 Alpha virt. eigenvalues --    0.28263   0.28605   0.28655   0.28867   0.29261
 Alpha virt. eigenvalues --    0.29427   0.29861   0.30028   0.30417   0.30674
 Alpha virt. eigenvalues --    0.30835   0.30876   0.31207   0.31288   0.31445
 Alpha virt. eigenvalues --    0.31640   0.32077   0.32489   0.32626   0.32930
 Alpha virt. eigenvalues --    0.33099   0.33340   0.33558   0.33764   0.33822
 Alpha virt. eigenvalues --    0.34244   0.34456   0.34928   0.34959   0.35234
 Alpha virt. eigenvalues --    0.35511   0.35978   0.36213   0.36649   0.36891
 Alpha virt. eigenvalues --    0.37330   0.37485   0.37763   0.37873   0.38179
 Alpha virt. eigenvalues --    0.38465   0.38498   0.38872   0.39129   0.39486
 Alpha virt. eigenvalues --    0.39730   0.40055   0.40339   0.40545   0.40659
 Alpha virt. eigenvalues --    0.41214   0.41566   0.41907   0.42406   0.42630
 Alpha virt. eigenvalues --    0.42793   0.42956   0.43068   0.43207   0.43504
 Alpha virt. eigenvalues --    0.43698   0.43850   0.44068   0.44114   0.44302
 Alpha virt. eigenvalues --    0.44434   0.44664   0.44936   0.45334   0.45503
 Alpha virt. eigenvalues --    0.45828   0.45908   0.46092   0.46255   0.46533
 Alpha virt. eigenvalues --    0.46755   0.46817   0.46937   0.47248   0.47442
 Alpha virt. eigenvalues --    0.47592   0.47729   0.48117   0.48230   0.48446
 Alpha virt. eigenvalues --    0.48621   0.48991   0.49282   0.49535   0.49702
 Alpha virt. eigenvalues --    0.49824   0.49859   0.49992   0.50250   0.50559
 Alpha virt. eigenvalues --    0.50838   0.50994   0.51307   0.51419   0.51508
 Alpha virt. eigenvalues --    0.51913   0.52131   0.52174   0.52386   0.52581
 Alpha virt. eigenvalues --    0.52710   0.52902   0.53103   0.53179   0.53572
 Alpha virt. eigenvalues --    0.53779   0.53788   0.54108   0.54249   0.54474
 Alpha virt. eigenvalues --    0.54633   0.54717   0.54861   0.55007   0.55126
 Alpha virt. eigenvalues --    0.55383   0.55633   0.55812   0.55890   0.56220
 Alpha virt. eigenvalues --    0.56524   0.56845   0.57069   0.57116   0.57146
 Alpha virt. eigenvalues --    0.57488   0.57657   0.57982   0.58140   0.58174
 Alpha virt. eigenvalues --    0.58388   0.58497   0.58571   0.58799   0.58863
 Alpha virt. eigenvalues --    0.59147   0.59161   0.59389   0.59490   0.59628
 Alpha virt. eigenvalues --    0.59928   0.59993   0.60043   0.60242   0.60491
 Alpha virt. eigenvalues --    0.60684   0.60785   0.60911   0.61180   0.61432
 Alpha virt. eigenvalues --    0.61532   0.61680   0.61924   0.61998   0.62021
 Alpha virt. eigenvalues --    0.62213   0.62415   0.62439   0.62469   0.62591
 Alpha virt. eigenvalues --    0.62667   0.62902   0.62994   0.63192   0.63417
 Alpha virt. eigenvalues --    0.63499   0.63567   0.63759   0.63907   0.63965
 Alpha virt. eigenvalues --    0.64068   0.64214   0.64530   0.64660   0.64796
 Alpha virt. eigenvalues --    0.64948   0.64995   0.65119   0.65198   0.65344
 Alpha virt. eigenvalues --    0.65534   0.65617   0.65700   0.65839   0.65880
 Alpha virt. eigenvalues --    0.66039   0.66095   0.66214   0.66256   0.66513
 Alpha virt. eigenvalues --    0.66599   0.66677   0.66752   0.66818   0.66863
 Alpha virt. eigenvalues --    0.66992   0.67167   0.67213   0.67389   0.67538
 Alpha virt. eigenvalues --    0.67640   0.67786   0.67825   0.68017   0.68110
 Alpha virt. eigenvalues --    0.68279   0.68360   0.68422   0.68559   0.68637
 Alpha virt. eigenvalues --    0.68654   0.68836   0.69021   0.69053   0.69218
 Alpha virt. eigenvalues --    0.69251   0.69298   0.69444   0.69600   0.69644
 Alpha virt. eigenvalues --    0.69793   0.69935   0.70056   0.70127   0.70222
 Alpha virt. eigenvalues --    0.70330   0.70363   0.70390   0.70524   0.70811
 Alpha virt. eigenvalues --    0.70919   0.71015   0.71240   0.71331   0.71498
 Alpha virt. eigenvalues --    0.71608   0.71864   0.71958   0.72054   0.72202
 Alpha virt. eigenvalues --    0.72267   0.72449   0.72720   0.72989   0.73112
 Alpha virt. eigenvalues --    0.73427   0.73708   0.73717   0.73911   0.73993
 Alpha virt. eigenvalues --    0.74296   0.74467   0.74556   0.74762   0.74986
 Alpha virt. eigenvalues --    0.75164   0.75330   0.75682   0.75809   0.75996
 Alpha virt. eigenvalues --    0.76099   0.76323   0.76569   0.76627   0.76834
 Alpha virt. eigenvalues --    0.76940   0.77247   0.77456   0.77578   0.77890
 Alpha virt. eigenvalues --    0.78034   0.78149   0.78393   0.78918   0.79126
 Alpha virt. eigenvalues --    0.79429   0.79746   0.79785   0.80226   0.80403
 Alpha virt. eigenvalues --    0.80449   0.80782   0.81075   0.81442   0.81558
 Alpha virt. eigenvalues --    0.81753   0.82213   0.82427   0.82556   0.82912
 Alpha virt. eigenvalues --    0.83459   0.83623   0.84004   0.84338   0.84350
 Alpha virt. eigenvalues --    0.84546   0.84575   0.85070   0.85123   0.85660
 Alpha virt. eigenvalues --    0.86032   0.86532   0.86723   0.87133   0.87218
 Alpha virt. eigenvalues --    0.87618   0.87640   0.87903   0.88565   0.88994
 Alpha virt. eigenvalues --    0.89193   0.89747   0.89794   0.90230   0.90371
 Alpha virt. eigenvalues --    0.90818   0.91095   0.91239   0.91413   0.91841
 Alpha virt. eigenvalues --    0.92162   0.92456   0.92574   0.92840   0.93491
 Alpha virt. eigenvalues --    0.93787   0.93970   0.94102   0.94414   0.94649
 Alpha virt. eigenvalues --    0.94931   0.95210   0.95358   0.95919   0.96319
 Alpha virt. eigenvalues --    0.96766   0.96931   0.97208   0.97595   0.97913
 Alpha virt. eigenvalues --    0.98022   0.98261   0.98564   0.98972   0.99074
 Alpha virt. eigenvalues --    0.99134   0.99317   0.99449   0.99715   0.99947
 Alpha virt. eigenvalues --    1.00092   1.00515   1.00661   1.01147   1.01516
 Alpha virt. eigenvalues --    1.01979   1.02054   1.02292   1.02590   1.02794
 Alpha virt. eigenvalues --    1.02993   1.03260   1.03869   1.04691   1.04761
 Alpha virt. eigenvalues --    1.04973   1.05187   1.05459   1.05891   1.06022
 Alpha virt. eigenvalues --    1.06368   1.06795   1.07228   1.07348   1.07855
 Alpha virt. eigenvalues --    1.08007   1.08322   1.08480   1.08610   1.09088
 Alpha virt. eigenvalues --    1.09369   1.09582   1.09911   1.10187   1.10586
 Alpha virt. eigenvalues --    1.10741   1.11139   1.11554   1.11619   1.12018
 Alpha virt. eigenvalues --    1.12302   1.12470   1.12797   1.13217   1.13619
 Alpha virt. eigenvalues --    1.13838   1.14080   1.14323   1.14744   1.14927
 Alpha virt. eigenvalues --    1.15272   1.15606   1.16043   1.16230   1.16394
 Alpha virt. eigenvalues --    1.16606   1.16811   1.16971   1.17172   1.17795
 Alpha virt. eigenvalues --    1.17987   1.18209   1.18409   1.18573   1.18814
 Alpha virt. eigenvalues --    1.19084   1.19156   1.19466   1.19662   1.19843
 Alpha virt. eigenvalues --    1.20051   1.20313   1.20649   1.20838   1.21109
 Alpha virt. eigenvalues --    1.21291   1.21577   1.21965   1.22457   1.22592
 Alpha virt. eigenvalues --    1.23041   1.23259   1.23602   1.23974   1.24074
 Alpha virt. eigenvalues --    1.24190   1.24794   1.24903   1.25054   1.25309
 Alpha virt. eigenvalues --    1.25452   1.25746   1.25807   1.26296   1.26492
 Alpha virt. eigenvalues --    1.26825   1.27150   1.27366   1.27912   1.28138
 Alpha virt. eigenvalues --    1.28311   1.28437   1.28729   1.28973   1.29351
 Alpha virt. eigenvalues --    1.29673   1.30061   1.30334   1.30547   1.31084
 Alpha virt. eigenvalues --    1.31252   1.31546   1.32192   1.32237   1.32557
 Alpha virt. eigenvalues --    1.32719   1.32813   1.33222   1.33273   1.33502
 Alpha virt. eigenvalues --    1.33863   1.34176   1.34507   1.34787   1.34884
 Alpha virt. eigenvalues --    1.35298   1.35594   1.36097   1.36536   1.36660
 Alpha virt. eigenvalues --    1.36735   1.37201   1.37543   1.37888   1.38125
 Alpha virt. eigenvalues --    1.38398   1.38582   1.38769   1.39197   1.39352
 Alpha virt. eigenvalues --    1.39425   1.39817   1.40045   1.40151   1.40342
 Alpha virt. eigenvalues --    1.41100   1.41166   1.41417   1.41657   1.41709
 Alpha virt. eigenvalues --    1.41993   1.42179   1.42694   1.42955   1.43095
 Alpha virt. eigenvalues --    1.43252   1.43679   1.44042   1.44478   1.44705
 Alpha virt. eigenvalues --    1.45232   1.45441   1.45992   1.46253   1.46471
 Alpha virt. eigenvalues --    1.46618   1.46960   1.47199   1.47281   1.47428
 Alpha virt. eigenvalues --    1.47676   1.48164   1.48249   1.48359   1.48377
 Alpha virt. eigenvalues --    1.48770   1.49234   1.49597   1.49807   1.50485
 Alpha virt. eigenvalues --    1.50764   1.50960   1.51130   1.51373   1.51730
 Alpha virt. eigenvalues --    1.51958   1.52265   1.52408   1.52551   1.52845
 Alpha virt. eigenvalues --    1.53111   1.53241   1.53659   1.54207   1.54378
 Alpha virt. eigenvalues --    1.54809   1.55303   1.55537   1.55832   1.56164
 Alpha virt. eigenvalues --    1.56429   1.56564   1.56715   1.57374   1.58204
 Alpha virt. eigenvalues --    1.58601   1.59014   1.59364   1.59419   1.59970
 Alpha virt. eigenvalues --    1.60167   1.60215   1.60420   1.60495   1.60981
 Alpha virt. eigenvalues --    1.61307   1.61619   1.62418   1.62486   1.62771
 Alpha virt. eigenvalues --    1.62878   1.63274   1.63574   1.63686   1.63966
 Alpha virt. eigenvalues --    1.64355   1.64872   1.65103   1.65360   1.65790
 Alpha virt. eigenvalues --    1.65902   1.66247   1.66482   1.66928   1.67032
 Alpha virt. eigenvalues --    1.67145   1.67308   1.67339   1.67642   1.67794
 Alpha virt. eigenvalues --    1.68029   1.68635   1.68772   1.68828   1.69321
 Alpha virt. eigenvalues --    1.69535   1.69872   1.70370   1.70745   1.71140
 Alpha virt. eigenvalues --    1.71277   1.71313   1.71488   1.71631   1.71935
 Alpha virt. eigenvalues --    1.72159   1.72666   1.72817   1.73053   1.73248
 Alpha virt. eigenvalues --    1.73435   1.73513   1.73635   1.74158   1.74423
 Alpha virt. eigenvalues --    1.74559   1.74748   1.74835   1.75008   1.75252
 Alpha virt. eigenvalues --    1.75348   1.75648   1.76023   1.76073   1.76390
 Alpha virt. eigenvalues --    1.76625   1.76668   1.76744   1.76850   1.77069
 Alpha virt. eigenvalues --    1.77206   1.77423   1.77577   1.77826   1.78012
 Alpha virt. eigenvalues --    1.78292   1.78423   1.78597   1.78659   1.78875
 Alpha virt. eigenvalues --    1.78997   1.79237   1.79342   1.79580   1.79778
 Alpha virt. eigenvalues --    1.80023   1.80183   1.80354   1.80501   1.80546
 Alpha virt. eigenvalues --    1.80710   1.80860   1.80959   1.80995   1.81213
 Alpha virt. eigenvalues --    1.81436   1.81599   1.81801   1.82241   1.82264
 Alpha virt. eigenvalues --    1.82444   1.82762   1.82958   1.83375   1.83747
 Alpha virt. eigenvalues --    1.83869   1.83990   1.84193   1.84244   1.84518
 Alpha virt. eigenvalues --    1.84691   1.84933   1.85009   1.85271   1.85442
 Alpha virt. eigenvalues --    1.85688   1.85939   1.86011   1.86635   1.86723
 Alpha virt. eigenvalues --    1.86811   1.87040   1.87095   1.87611   1.87624
 Alpha virt. eigenvalues --    1.87996   1.88104   1.88224   1.88682   1.88760
 Alpha virt. eigenvalues --    1.88945   1.89106   1.89230   1.89368   1.89621
 Alpha virt. eigenvalues --    1.89772   1.89965   1.90025   1.90178   1.90294
 Alpha virt. eigenvalues --    1.90573   1.90671   1.90763   1.90950   1.91288
 Alpha virt. eigenvalues --    1.91487   1.91756   1.91896   1.92076   1.92339
 Alpha virt. eigenvalues --    1.92508   1.92646   1.92748   1.92916   1.92993
 Alpha virt. eigenvalues --    1.93317   1.93855   1.94056   1.94140   1.94386
 Alpha virt. eigenvalues --    1.94586   1.94986   1.95210   1.95456   1.95742
 Alpha virt. eigenvalues --    1.95816   1.95890   1.95971   1.96155   1.96716
 Alpha virt. eigenvalues --    1.96834   1.96969   1.97077   1.97279   1.97426
 Alpha virt. eigenvalues --    1.97702   1.97949   1.98428   1.98469   1.98634
 Alpha virt. eigenvalues --    1.98815   1.99131   1.99138   1.99362   1.99507
 Alpha virt. eigenvalues --    2.00084   2.00284   2.00960   2.01143   2.01333
 Alpha virt. eigenvalues --    2.01452   2.01593   2.01875   2.02080   2.02314
 Alpha virt. eigenvalues --    2.02588   2.02991   2.03287   2.03791   2.04101
 Alpha virt. eigenvalues --    2.04217   2.04363   2.04520   2.04814   2.05166
 Alpha virt. eigenvalues --    2.05257   2.05302   2.05605   2.05700   2.05931
 Alpha virt. eigenvalues --    2.06287   2.06579   2.06810   2.06886   2.06974
 Alpha virt. eigenvalues --    2.07271   2.07454   2.08318   2.08558   2.08877
 Alpha virt. eigenvalues --    2.08917   2.09196   2.09291   2.09491   2.09937
 Alpha virt. eigenvalues --    2.10121   2.10385   2.10688   2.11079   2.11371
 Alpha virt. eigenvalues --    2.11949   2.12082   2.12427   2.12620   2.13017
 Alpha virt. eigenvalues --    2.13246   2.13341   2.13556   2.14305   2.14442
 Alpha virt. eigenvalues --    2.14866   2.15263   2.15531   2.15758   2.15800
 Alpha virt. eigenvalues --    2.15982   2.16170   2.16506   2.16749   2.17255
 Alpha virt. eigenvalues --    2.17290   2.17561   2.17779   2.18003   2.18333
 Alpha virt. eigenvalues --    2.18555   2.18829   2.19040   2.19184   2.19482
 Alpha virt. eigenvalues --    2.20272   2.20529   2.20765   2.20817   2.21097
 Alpha virt. eigenvalues --    2.21638   2.21684   2.21946   2.22031   2.22225
 Alpha virt. eigenvalues --    2.22371   2.22903   2.23039   2.23347   2.23820
 Alpha virt. eigenvalues --    2.24184   2.24470   2.25310   2.25477   2.26360
 Alpha virt. eigenvalues --    2.26539   2.26646   2.26833   2.27150   2.27208
 Alpha virt. eigenvalues --    2.27681   2.27907   2.28240   2.28616   2.28907
 Alpha virt. eigenvalues --    2.29616   2.29859   2.30138   2.30183   2.30600
 Alpha virt. eigenvalues --    2.31127   2.31590   2.32135   2.32536   2.32861
 Alpha virt. eigenvalues --    2.33362   2.33840   2.33953   2.34654   2.34894
 Alpha virt. eigenvalues --    2.35059   2.35400   2.35669   2.35939   2.36055
 Alpha virt. eigenvalues --    2.36350   2.36545   2.36665   2.37413   2.37652
 Alpha virt. eigenvalues --    2.37767   2.38150   2.38414   2.38740   2.38812
 Alpha virt. eigenvalues --    2.39310   2.39893   2.40060   2.40261   2.40653
 Alpha virt. eigenvalues --    2.40970   2.41036   2.41451   2.41784   2.42103
 Alpha virt. eigenvalues --    2.42213   2.42350   2.43393   2.43590   2.43978
 Alpha virt. eigenvalues --    2.44146   2.44220   2.44326   2.44969   2.45060
 Alpha virt. eigenvalues --    2.45142   2.45400   2.45770   2.46370   2.46404
 Alpha virt. eigenvalues --    2.46869   2.47542   2.47810   2.48411   2.48739
 Alpha virt. eigenvalues --    2.49149   2.50240   2.50338   2.50667   2.50712
 Alpha virt. eigenvalues --    2.50873   2.51093   2.51250   2.51543   2.51775
 Alpha virt. eigenvalues --    2.52162   2.52756   2.53072   2.53603   2.53854
 Alpha virt. eigenvalues --    2.54126   2.54740   2.54971   2.55616   2.55882
 Alpha virt. eigenvalues --    2.56210   2.56326   2.56563   2.57207   2.57460
 Alpha virt. eigenvalues --    2.57863   2.58312   2.58818   2.59007   2.59491
 Alpha virt. eigenvalues --    2.59563   2.59888   2.60202   2.60304   2.60642
 Alpha virt. eigenvalues --    2.61055   2.61395   2.61634   2.61933   2.62568
 Alpha virt. eigenvalues --    2.62790   2.62875   2.63036   2.64147   2.64269
 Alpha virt. eigenvalues --    2.64319   2.64807   2.64954   2.65202   2.65341
 Alpha virt. eigenvalues --    2.65637   2.65809   2.66316   2.66790   2.67050
 Alpha virt. eigenvalues --    2.67173   2.67298   2.67545   2.67829   2.68270
 Alpha virt. eigenvalues --    2.68732   2.69002   2.69507   2.69558   2.69814
 Alpha virt. eigenvalues --    2.70368   2.70475   2.70842   2.70953   2.71264
 Alpha virt. eigenvalues --    2.71515   2.71708   2.72107   2.72645   2.72872
 Alpha virt. eigenvalues --    2.72985   2.73361   2.73549   2.73794   2.74003
 Alpha virt. eigenvalues --    2.74197   2.74748   2.74926   2.75101   2.75256
 Alpha virt. eigenvalues --    2.75320   2.75810   2.76099   2.76461   2.76876
 Alpha virt. eigenvalues --    2.77084   2.77308   2.77410   2.77884   2.78213
 Alpha virt. eigenvalues --    2.78540   2.78875   2.79006   2.79418   2.79543
 Alpha virt. eigenvalues --    2.79636   2.79788   2.80083   2.80334   2.80887
 Alpha virt. eigenvalues --    2.81137   2.81421   2.81715   2.81797   2.81910
 Alpha virt. eigenvalues --    2.82226   2.82277   2.82664   2.82866   2.83021
 Alpha virt. eigenvalues --    2.83493   2.83975   2.84014   2.84203   2.84600
 Alpha virt. eigenvalues --    2.85039   2.85243   2.85487   2.85709   2.86783
 Alpha virt. eigenvalues --    2.86997   2.87021   2.87559   2.87724   2.87829
 Alpha virt. eigenvalues --    2.87926   2.88088   2.88480   2.89040   2.89124
 Alpha virt. eigenvalues --    2.89353   2.90033   2.90447   2.90632   2.90833
 Alpha virt. eigenvalues --    2.90999   2.91318   2.91881   2.92099   2.92318
 Alpha virt. eigenvalues --    2.92893   2.93257   2.94489   2.94584   2.94955
 Alpha virt. eigenvalues --    2.95315   2.95380   2.95438   2.95778   2.95996
 Alpha virt. eigenvalues --    2.96065   2.96932   2.97060   2.97661   2.97734
 Alpha virt. eigenvalues --    2.98272   2.98483   2.98702   2.98725   2.99003
 Alpha virt. eigenvalues --    2.99229   2.99790   3.00257   3.00533   3.00578
 Alpha virt. eigenvalues --    3.01001   3.01054   3.01236   3.01555   3.01716
 Alpha virt. eigenvalues --    3.01923   3.02164   3.02381   3.03018   3.03090
 Alpha virt. eigenvalues --    3.03332   3.03367   3.03568   3.03752   3.04721
 Alpha virt. eigenvalues --    3.05098   3.05507   3.05535   3.06440   3.07064
 Alpha virt. eigenvalues --    3.07123   3.07528   3.08151   3.08299   3.08916
 Alpha virt. eigenvalues --    3.09299   3.10279   3.10525   3.11154   3.11287
 Alpha virt. eigenvalues --    3.12424   3.12947   3.13048   3.13771   3.13907
 Alpha virt. eigenvalues --    3.14124   3.14447   3.14626   3.15611   3.15759
 Alpha virt. eigenvalues --    3.15970   3.16504   3.17714   3.18432   3.18649
 Alpha virt. eigenvalues --    3.18980   3.19444   3.19617   3.20044   3.20308
 Alpha virt. eigenvalues --    3.20552   3.20625   3.20714   3.21128   3.21601
 Alpha virt. eigenvalues --    3.21792   3.22609   3.22913   3.22994   3.23394
 Alpha virt. eigenvalues --    3.24067   3.24366   3.24488   3.25026   3.25394
 Alpha virt. eigenvalues --    3.25546   3.25667   3.26536   3.26837   3.27414
 Alpha virt. eigenvalues --    3.27562   3.28007   3.28127   3.28843   3.30096
 Alpha virt. eigenvalues --    3.30718   3.30999   3.31653   3.32048   3.33837
 Alpha virt. eigenvalues --    3.34170   3.35366   3.35775   3.38127   3.41767
 Alpha virt. eigenvalues --    3.42906   3.44737   3.48474   3.50775   3.51209
 Alpha virt. eigenvalues --    3.52559   3.55332   3.55711   3.56209   3.56717
 Alpha virt. eigenvalues --    3.57093   3.57988   3.58314   3.60049   3.60076
 Alpha virt. eigenvalues --    3.60511   3.60898   3.61569   3.62107   3.63307
 Alpha virt. eigenvalues --    3.63645   3.67511   3.67797   3.68553   3.68858
 Alpha virt. eigenvalues --    3.68878   3.69257   3.69778   3.70269   3.70446
 Alpha virt. eigenvalues --    3.70757   3.71167   3.71629   3.72176   3.72354
 Alpha virt. eigenvalues --    3.72716   3.72897   3.73165   3.73461   3.74387
 Alpha virt. eigenvalues --    3.79376   3.82328   3.83127   3.93149
          Condensed to atoms (all electrons):
 Mulliken charges:
               1
     1  C    0.064968
     2  C    0.029248
     3  O   -0.287525
     4  H    0.041533
     5  H    0.037754
     6  H   -0.002597
     7  N   -0.129018
     8  C    0.145223
     9  C    0.034798
    10  O   -0.279002
    11  C    0.061219
    12  C    0.150660
    13  O   -0.469548
    14  O   -0.381825
    15  H    0.123269
    16  H   -0.007994
    17  H    0.013179
    18  H   -0.003017
    19  N   -0.134442
    20  C    0.190504
    21  C    0.023917
    22  O   -0.304800
    23  C    0.020287
    24  C   -0.038037
    25  C   -0.012502
    26  C    0.002914
    27  N    0.091398
    28  H    0.147546
    29  H   -0.004072
    30  H    0.006595
    31  H    0.018241
    32  H   -0.012459
    33  H    0.027802
    34  H    0.054297
    35  H    0.038068
    36  H    0.075854
    37  H    0.066858
    38  H    0.197936
    39  H    0.202972
    40  H    0.204205
    41  N   -0.148383
    42  C    0.152814
    43  C    0.064415
    44  O   -0.288878
    45  C    0.084781
    46  C    0.101439
    47  O   -0.476532
    48  O   -0.383941
    49  H    0.131765
    50  H    0.009374
    51  H   -0.016539
    52  H    0.026073
    53  N   -0.179955
    54  C    0.261388
    55  C    0.003047
    56  O   -0.310020
    57  H    0.143459
    58  H    0.015907
    59  H    0.044755
    60  N   -0.158291
    61  C    0.136890
    62  C    0.056694
    63  O   -0.298629
    64  C    0.088279
    65  C    0.094849
    66  N   -0.041167
    67  O   -0.374076
    68  H    0.137487
    69  H    0.028568
    70  H    0.056108
    71  H    0.030733
    72  H    0.122416
    73  H    0.121497
    74  N   -0.139262
    75  C    0.221844
    76  C    0.032564
    77  O   -0.314306
    78  H    0.165541
    79  H    0.041366
    80  H    0.032763
    81  N   -0.129920
    82  C    0.114624
    83  C    0.123063
    84  O   -0.361119
    85  C    0.142285
    86  C    0.014389
    87  C    0.019447
    88  C    0.009651
    89  C    0.024048
    90  C    0.006050
    91  C    0.108143
    92  O   -0.199730
    93  H    0.148032
    94  H    0.009537
    95  H    0.005310
    96  H   -0.063177
    97  H   -0.092789
    98  H   -0.016722
    99  H   -0.026927
   100  H   -0.042212
   101  H    0.165845
   102  N   -0.110679
   103  C    0.176598
   104  C    0.028052
   105  O   -0.291755
   106  C   -0.131649
   107  C   -0.006093
   108  C    0.050155
   109  C    0.041618
   110  H    0.122502
   111  H    0.020960
   112  H   -0.030057
   113  H    0.005482
   114  H    0.022618
   115  H    0.006504
   116  H    0.003896
   117  H    0.020298
   118  H   -0.006709
   119  H    0.011154
   120  H    0.036680
   121  N   -0.135330
   122  C    0.084816
   123  C    0.112280
   124  O   -0.267325
   125  C    0.233634
   126  O   -0.319588
   127  H    0.141512
   128  H    0.021114
   129  H    0.012567
   130  H   -0.021207
   131  H    0.165279
   132  N   -0.125394
   133  C    0.077162
   134  C    0.057327
   135  O   -0.243509
   136  C    0.032852
   137  H    0.113704
   138  H    0.023074
   139  H    0.043579
   140  H    0.036272
   141  H   -0.002553
   142  N   -0.122321
   143  C    0.088810
   144  C    0.031087
   145  O   -0.248990
   146  C    0.040593
   147  H    0.112393
   148  H    0.018550
   149  H   -0.000761
   150  H    0.039135
   151  H    0.027833
   152  N   -0.146438
   153  C    0.171486
   154  C    0.037568
   155  O   -0.294507
   156  C   -0.078278
   157  C    0.114759
   158  C    0.169037
   159  O   -0.406128
   160  O   -0.435936
   161  H    0.104549
   162  H   -0.019323
   163  H    0.055342
   164  H    0.025113
   165  H   -0.013740
   166  H   -0.004049
   167  N   -0.151285
   168  C    0.136805
   169  H    0.020907
   170  H    0.032771
   171  H    0.003938
   172  H    0.136072
   173  Ca   1.300957
   174  O   -0.329073
   175  H    0.171863
   176  H    0.162348
 Sum of Mulliken charges =   0.00000
 Mulliken charges with hydrogens summed into heavy atoms:
               1
     1  C    0.141659
     2  C    0.029248
     3  O   -0.287525
     7  N   -0.005749
     8  C    0.137228
     9  C    0.034798
    10  O   -0.279002
    11  C    0.071381
    12  C    0.150660
    13  O   -0.469548
    14  O   -0.381825
    19  N    0.013104
    20  C    0.186432
    21  C    0.023917
    22  O   -0.304800
    23  C    0.045123
    24  C   -0.022694
    25  C    0.079863
    26  C    0.145626
    27  N    0.696512
    41  N   -0.016618
    42  C    0.162189
    43  C    0.064415
    44  O   -0.288878
    45  C    0.094316
    46  C    0.101439
    47  O   -0.476532
    48  O   -0.383941
    53  N   -0.036496
    54  C    0.322051
    55  C    0.003047
    56  O   -0.310020
    60  N   -0.020805
    61  C    0.165457
    62  C    0.056694
    63  O   -0.298629
    64  C    0.175120
    65  C    0.094849
    66  N    0.202746
    67  O   -0.374076
    74  N    0.026279
    75  C    0.295973
    76  C    0.032564
    77  O   -0.314306
    81  N    0.018112
    82  C    0.124160
    83  C    0.123063
    84  O   -0.361119
    85  C    0.084418
    86  C    0.014389
    87  C   -0.073342
    88  C   -0.007071
    89  C   -0.002880
    90  C   -0.036162
    91  C    0.108143
    92  O   -0.033885
   102  N    0.011823
   103  C    0.197558
   104  C    0.028052
   105  O   -0.291755
   106  C   -0.161706
   107  C    0.022007
   108  C    0.080853
   109  C    0.082743
   121  N    0.006182
   122  C    0.105930
   123  C    0.112280
   124  O   -0.267325
   125  C    0.224995
   126  O   -0.154310
   132  N   -0.011690
   133  C    0.100236
   134  C    0.057327
   135  O   -0.243509
   136  C    0.110150
   142  N   -0.009928
   143  C    0.107360
   144  C    0.031087
   145  O   -0.248990
   146  C    0.106800
   152  N   -0.041890
   153  C    0.152163
   154  C    0.037568
   155  O   -0.294507
   156  C    0.002177
   157  C    0.096970
   158  C    0.169037
   159  O   -0.406128
   160  O   -0.435936
   167  N   -0.015212
   168  C    0.194422
   173  Ca   1.300957
   174  O    0.005138
 DipInt: DoE/N= T F RetVal/Mat= T F Init=T NMatP=  1 IDeriv=0 Min/MaxMlt=  0  4
 Entering OneElI...
 OneElI was handed  4286741430 working-precision words.
 Multipole integrals L=0 to 4 MinM= 0 MaxM= 0.
 Requested accuracy = 0.1000D-12
 ShPair: Thresh= 1.00D-13 NBox=     0 BxSize= 0.00D+00 RnKept= 2.55D+01
         NSMCal=               327645 NSMKep=              160408
 PrsmSu:  NPrtUS=   1 ThrOK=F IAlg=1 NPAlg=1 LenDen=           0.
 Prism:   IPart=     0 DynPar=F LinDyn=F Incr=         512.
 PRISM was handed  4276678456 working-precision words and160408 shell-pairs
 IPart=  0 NShTot=      160408 NBatch=         452 AvBLen=       354.9
 PrSmSu:  NxtVal=            513.
 Electronic moments (au):
       -716.00000000         10.26671345          4.96604889         -4.61208799
     -50973.34035909     -31994.29000630     -12474.73512000        153.59498412
        -45.11495748          6.39650425      -8988.68165094     -69708.34174592
     -16968.21286903     -10240.22530042     134492.61234167      37389.56129347
     -13985.23796952      -4302.72965068      21815.94266114     -15320.58776239
   -7459038.35523017   -3418705.05364877    -605223.38782127    -302821.66919326
     235705.44995278    -788641.72108790      68453.35969207     -86427.98764664
     -22124.63849064   -2407886.43396743    -648404.65800684    -362069.08341719
    -174706.98883515      69539.69354710      82121.48495534
 Electronic spatial extent (au):  <R**2>=          95442.3655
 DipInt: DoE/N= F T RetVal/Mat= T F Init=T NMatP=  1 IDeriv=0 Min/MaxMlt=  0  4
 Nuclear    moments (au):
        716.00000000          0.00000000          0.00000000          0.00000000
      50513.30617870      31766.55027491      12067.68936446          0.00000000
          0.00000000          0.00000000       9402.43751861      72982.82467340
      17059.21140795      12916.48264203    -133875.33965647     -38156.69370903
      14150.18850772       4120.20164664     -22242.69836483      15321.03365798
    7262407.08467596    3370528.29277912     562142.64973454     316530.34600055
    -244098.38223957     827850.07744238     -73162.14595342      86356.56456874
      24397.94702442    2379829.95025839     613325.41615791     337486.80042537
     174643.28106083     -74737.60982838     -81996.02750268
 Total      moments (au):
          0.00000000         10.26671346          4.96604889         -4.61208799
       -460.03418039       -227.73973139       -407.04575554        153.59498412
        -45.11495748          6.39650425        413.75586767       3274.48292748
         90.99853892       2676.25734161        617.27268520       -767.13241556
        164.95053819       -182.52800404       -426.75570369          0.44589559
    -196631.27055421     -48176.76086965     -43080.73808672      13708.67680729
      -8392.93228679      39208.35635448      -4708.78626135        -71.42307790
       2273.30853378     -28056.48370903     -35079.24184893     -24582.28299182
        -63.70777432      -5197.91628128        125.45745266
 Traceless Quadrup. (au):
        -95.09429128        137.20015772        -42.10586643        153.59498412
        -45.11495748          6.39650425
 Charge=              0.0000 electrons
 Dipole moment (field-independent basis, Debye):
    X=             26.0954    Y=             12.6224    Z=            -11.7228  Tot=             31.2685
 Quadrupole moment (field-independent basis, Debye-Ang):
   XX=           -618.7617   YY=           -306.3177   ZZ=           -547.4905
   XY=            206.5905   XZ=            -60.6812   YZ=              8.6035
 Traceless Quadrupole moment (field-independent basis, Debye-Ang):
   XX=           -127.9051   YY=            184.5389   ZZ=            -56.6338
   XY=            206.5905   XZ=            -60.6812   YZ=              8.6035
 Octapole moment (field-independent basis, Debye-Ang**2):
  XXX=            294.4955  YYY=           2330.6507  ZZZ=             64.7693  XYY=           1904.8568
  XXY=            439.3509  XXZ=           -546.0153  XZZ=            117.4054  YZZ=           -129.9164
  YYZ=           -303.7482  XYZ=              0.3174
 Hexadecapole moment (field-independent basis, Debye-Ang**3):
 XXXX=         -74060.7604 YYYY=         -18145.6771 ZZZZ=         -16226.2707 XXXY=           5163.3447
 XXXZ=          -3161.1805 YYYX=          14767.7461 YYYZ=          -1773.5546 ZZZX=            -26.9014
 ZZZY=            856.2369 XXYY=         -10567.4164 XXZZ=         -13212.5237 YYZZ=          -9258.8659
 XXYZ=            -23.9954 YYXZ=          -1957.7844 ZZXY=             47.2533
 N-N= 2.171711754871D+04 E-N=-5.591825544941D+04  KE= 5.290637116442D+03
 Leave Link  601 at Mon Sep 16 17:21:21 2019, MaxMem=  4294967296 cpu:        21.9
 FitSet:  NAtFit=   176 NAtPot=   176 NAtFrz=     0 MDM=   180 TotChg=   0.00000
 Merz-Kollman atomic radii used.
 Read replacement radii for each type of atom:
 Rad(20) =   1.700000000000D+00
 Atom Element Radius
    1     6    1.50
    2     6    1.50
    3     8    1.40
    4     1    1.20
    5     1    1.20
    6     1    1.20
    7     7    1.50
    8     6    1.50
    9     6    1.50
   10     8    1.40
   11     6    1.50
   12     6    1.50
   13     8    1.40
   14     8    1.40
   15     1    1.20
   16     1    1.20
   17     1    1.20
   18     1    1.20
   19     7    1.50
   20     6    1.50
   21     6    1.50
   22     8    1.40
   23     6    1.50
   24     6    1.50
   25     6    1.50
   26     6    1.50
   27     7    1.50
   28     1    1.20
   29     1    1.20
   30     1    1.20
   31     1    1.20
   32     1    1.20
   33     1    1.20
   34     1    1.20
   35     1    1.20
   36     1    1.20
   37     1    1.20
   38     1    1.20
   39     1    1.20
   40     1    1.20
   41     7    1.50
   42     6    1.50
   43     6    1.50
   44     8    1.40
   45     6    1.50
   46     6    1.50
   47     8    1.40
   48     8    1.40
   49     1    1.20
   50     1    1.20
   51     1    1.20
   52     1    1.20
   53     7    1.50
   54     6    1.50
   55     6    1.50
   56     8    1.40
   57     1    1.20
   58     1    1.20
   59     1    1.20
   60     7    1.50
   61     6    1.50
   62     6    1.50
   63     8    1.40
   64     6    1.50
   65     6    1.50
   66     7    1.50
   67     8    1.40
   68     1    1.20
   69     1    1.20
   70     1    1.20
   71     1    1.20
   72     1    1.20
   73     1    1.20
   74     7    1.50
   75     6    1.50
   76     6    1.50
   77     8    1.40
   78     1    1.20
   79     1    1.20
   80     1    1.20
   81     7    1.50
   82     6    1.50
   83     6    1.50
   84     8    1.40
   85     6    1.50
   86     6    1.50
   87     6    1.50
   88     6    1.50
   89     6    1.50
   90     6    1.50
   91     6    1.50
   92     8    1.40
   93     1    1.20
   94     1    1.20
   95     1    1.20
   96     1    1.20
   97     1    1.20
   98     1    1.20
   99     1    1.20
  100     1    1.20
  101     1    1.20
  102     7    1.50
  103     6    1.50
  104     6    1.50
  105     8    1.40
  106     6    1.50
  107     6    1.50
  108     6    1.50
  109     6    1.50
  110     1    1.20
  111     1    1.20
  112     1    1.20
  113     1    1.20
  114     1    1.20
  115     1    1.20
  116     1    1.20
  117     1    1.20
  118     1    1.20
  119     1    1.20
  120     1    1.20
  121     7    1.50
  122     6    1.50
  123     6    1.50
  124     8    1.40
  125     6    1.50
  126     8    1.40
  127     1    1.20
  128     1    1.20
  129     1    1.20
  130     1    1.20
  131     1    1.20
  132     7    1.50
  133     6    1.50
  134     6    1.50
  135     8    1.40
  136     6    1.50
  137     1    1.20
  138     1    1.20
  139     1    1.20
  140     1    1.20
  141     1    1.20
  142     7    1.50
  143     6    1.50
  144     6    1.50
  145     8    1.40
  146     6    1.50
  147     1    1.20
  148     1    1.20
  149     1    1.20
  150     1    1.20
  151     1    1.20
  152     7    1.50
  153     6    1.50
  154     6    1.50
  155     8    1.40
  156     6    1.50
  157     6    1.50
  158     6    1.50
  159     8    1.40
  160     8    1.40
  161     1    1.20
  162     1    1.20
  163     1    1.20
  164     1    1.20
  165     1    1.20
  166     1    1.20
  167     7    1.50
  168     6    1.50
  169     1    1.20
  170     1    1.20
  171     1    1.20
  172     1    1.20
  173    20    1.70
  174     8    1.40
  175     1    1.20
  176     1    1.20
 Generate VDW surfaces: Layer= 4 Dens= 6 Start= 1.400 Inc= 0.200

 **********************************************************************

            Electrostatic Properties Using The SCF Density

 **********************************************************************

       Atomic Center    1 is at   2.569515  2.314383  5.654812
       Atomic Center    2 is at   1.861723  2.111387  4.321087
       Atomic Center    3 is at   2.475663  2.120035  3.263825
[...]
 **** Fit      -0.048827
 **** Fit      -0.048446
 **** Fit      -0.047720
 **** Fit      -0.046767
 **** Fit      -0.045724
 **** Fit      -0.044750
 **** Fit      -0.044011
 **** Fit      -0.043665
 **** Fit      -0.043823
 **** Fit      -0.046790
 **** Fit      -0.049529
 **** Fit      -0.050126
 **** Fit      -0.050154
 **** Fit      -0.049692
 **** Fit      -0.048827
 **** Fit      -0.047670
 **** Fit      -0.046356
 **** Fit      -0.045054
 **** Fit      -0.043962
 **** Fit      -0.043309
 **** Fit      -0.043344
 **** Fit      -0.044325
 **** Fit      -0.046474
 **** Fit      -0.048262
 **** Fit      -0.051405
 **** Fit      -0.051996
 **** Fit      -0.051946
 **** Fit      -0.051310
 **** Fit      -0.050166
 **** Fit      -0.048632
 **** Fit      -0.046869
 **** Fit      -0.045076
 **** Fit      -0.043497
 **** Fit      -0.042420
 **** Fit      -0.042189
 **** Fit      -0.043205
 **** Fit      -0.045924
 **** Fit      -0.048049
 **** Fit      -0.050121
 **** Fit      -0.053981
 **** Fit      -0.054611
 **** Fit      -0.054502
 **** Fit      -0.053668
 **** Fit      -0.052177
 **** Fit      -0.050160
 **** Fit      -0.047805
 **** Fit      -0.045345
 **** Fit      -0.043055
 **** Fit      -0.041259
 **** Fit      -0.040340
 **** Fit      -0.040752
 **** Fit      -0.043025
 **** Fit      -0.050550
 **** Fit      -0.052628
 **** Fit      -0.057611
 **** Fit      -0.058395
 **** Fit      -0.058241
 **** Fit      -0.057106
 **** Fit      -0.055057
 **** Fit      -0.052274
 **** Fit      -0.049013
 **** Fit      -0.045577
 **** Fit      -0.042298
 **** Fit      -0.039544
 **** Fit      -0.037735
 **** Fit      -0.053733
 **** Fit      -0.056015
 **** Fit      -0.055143
 **** Fit      -0.050415
 **** Fit      -0.045479
 **** Fit      -0.060671
 **** Fit       0.017678
 **** Fit       0.015141
 **** Fit       0.020412
 **** Fit       0.025548
 **** Fit       0.022819
 **** Fit       0.027009
 **** Fit       0.028197
 **** Fit       0.021715
 **** Fit       0.016709
 **** Fit       0.012673
 **** Fit       0.010330
 **** Fit       0.007528
 **** Fit       0.004283
 **** Fit      -0.033176
 **** Fit      -0.032888
 **** Fit      -0.037008
 **** Fit      -0.031947
 **** Fit      -0.025663
 **** Fit      -0.022267
 **** Fit      -0.022227
 **** Fit      -0.026079
 **** Fit      -0.038303
 **** Fit      -0.028844
 **** Fit      -0.021263
 **** Fit      -0.015764
 **** Fit      -0.012636
 **** Fit      -0.012269
 **** Fit      -0.015085
 **** Fit      -0.036182
 **** Fit      -0.025670
 **** Fit      -0.017038
 **** Fit      -0.010322
 **** Fit      -0.005671
 **** Fit      -0.003360
 **** Fit      -0.003713
 **** Fit      -0.024349
 **** Fit      -0.014619
 **** Fit      -0.006834
 **** Fit      -0.000929
 **** Fit       0.002977
 **** Fit       0.004661
 **** Fit       0.003959
 **** Fit      -0.012363
 **** Fit      -0.003783
 **** Fit       0.002898
 **** Fit       0.007704
 **** Fit       0.010500
 **** Fit      -0.008219
 **** Fit       0.000675
 **** Fit       0.007511
 **** Fit       0.012381
 **** Fit       0.015183
 **** Fit      -0.003024
 **** Fit       0.005530
 **** Fit       0.011911
 **** Fit       0.016183
 **** Fit       0.001618
 **** Fit       0.009197
 **** Fit       0.014616
 **** Fit       0.017849
 **** Fit       0.007767
 **** Fit       0.013404
 **** Fit       0.016657
 **** Fit       0.011392
 **** Fit       0.018043
 **** Fit       0.022323
 **** Fit       0.017149
 **** Fit       0.020745
 **** Fit       0.024082
 **** Fit       0.026526
 **** Fit       0.027281
 **** Fit       0.019774
 **** Fit       0.022277
 **** Fit       0.024497
 **** Fit       0.025741
 **** Fit       0.025361
 **** Fit       0.023017
 **** Fit       0.021460
 **** Fit       0.023085
 **** Fit       0.024123
 **** Fit       0.023951
 **** Fit       0.022336
 **** Fit       0.019705
 **** Fit       0.020876
 **** Fit       0.021818
 **** Fit       0.022638
 **** Fit       0.022740
 **** Fit       0.022050
 **** Fit       0.021392
 **** Fit       0.020709
 **** Fit       0.021383
 **** Fit       0.021763
 **** Fit       0.022183
 **** Fit       0.019226
 **** Fit       0.020199
 **** Fit       0.021280
 **** Fit       0.016071
 **** Fit       0.018630
 **** Fit      -0.008951
 **** Fit       0.003684
 **** Fit       0.011115
 **** Fit       0.016489
 **** Fit       0.020906
 **** Fit       0.018621
 **** Fit       0.022179
 **** Fit       0.024557
 **** Fit      -0.017775
 **** Fit      -0.019488
 **** Fit      -0.017326
 **** Fit      -0.016184
 **** Fit      -0.015905
 **** Fit      -0.016366
 **** Fit      -0.022120
 **** Fit      -0.018964
 **** Fit      -0.016788
 **** Fit      -0.014761
 **** Fit      -0.014545
 **** Fit      -0.014724
 **** Fit      -0.015288
 **** Fit      -0.016251
 **** Fit      -0.028369
 **** Fit      -0.023330
 **** Fit      -0.019460
 **** Fit      -0.013448
 **** Fit      -0.013752
 **** Fit      -0.014322
 **** Fit      -0.015196
 **** Fit      -0.016387
 **** Fit      -0.033282
 **** Fit      -0.026635
 **** Fit      -0.012687
 **** Fit      -0.013080
 **** Fit      -0.013670
 **** Fit      -0.014498
 **** Fit      -0.015582
 **** Fit      -0.016919
 **** Fit      -0.011985
 **** Fit      -0.012376
 **** Fit      -0.012931
 **** Fit      -0.013701
 **** Fit      -0.014716
 **** Fit      -0.015984
 **** Fit      -0.017498
 **** Fit      -0.011439
 **** Fit      -0.011814
 **** Fit      -0.012330
 **** Fit      -0.013041
 **** Fit      -0.013984
 **** Fit      -0.015178
 **** Fit      -0.016623
 **** Fit      -0.018307
 **** Fit      -0.020233
 **** Fit      -0.023769
 **** Fit      -0.011281
 **** Fit      -0.011735
 **** Fit      -0.012368
 **** Fit      -0.013223
 **** Fit      -0.014331
 **** Fit      -0.015707
 **** Fit      -0.017346
 **** Fit      -0.019231
 **** Fit      -0.021359
 **** Fit      -0.025292
 **** Fit      -0.028242
 **** Fit      -0.010849
 **** Fit      -0.011241
 **** Fit      -0.011801
 **** Fit      -0.012571
 **** Fit      -0.020385
 **** Fit      -0.022708
 **** Fit      -0.027090
 **** Fit      -0.030203
 **** Fit      -0.033829
 **** Fit      -0.010423
 **** Fit      -0.010723
 **** Fit      -0.011203
 **** Fit      -0.032695
 **** Fit      -0.036543
 **** Fit      -0.041175
 **** Fit      -0.047015
 **** Fit      -0.010120
 **** Fit      -0.010446
 **** Fit      -0.035827
 **** Fit      -0.039792
 **** Fit      -0.044470
 **** Fit      -0.050215
 **** Fit      -0.009687
 **** Fit      -0.009730
 **** Fit      -0.043895
 **** Fit      -0.048448
 **** Fit      -0.053916
 **** Fit      -0.009650
 **** Fit      -0.009107
 **** Fit      -0.009189
 **** Fit      -0.054050
 **** Fit      -0.009764
 **** Fit      -0.008460
 **** Fit      -0.008179
 **** Fit      -0.013898
 **** Fit      -0.015222
 **** Fit      -0.016906
 **** Fit      -0.022403
 **** Fit      -0.012252
 **** Fit      -0.013136
 **** Fit      -0.014349
 **** Fit      -0.015884
 **** Fit      -0.017735
 **** Fit      -0.019905
 **** Fit      -0.023791
 **** Fit      -0.026873
 **** Fit      -0.010991
 **** Fit      -0.011429
 **** Fit      -0.012229
 **** Fit      -0.013373
 **** Fit      -0.014839
 **** Fit      -0.016614
 **** Fit      -0.018690
 **** Fit      -0.021075
 **** Fit      -0.025693
 **** Fit      -0.028942
 **** Fit      -0.032599
 **** Fit      -0.010335
 **** Fit      -0.010703
 **** Fit      -0.011476
 **** Fit      -0.012615
 **** Fit      -0.014081
 **** Fit      -0.015844
 **** Fit      -0.017885
 **** Fit      -0.020199
 **** Fit      -0.022793
 **** Fit      -0.028391
 **** Fit      -0.031867
 **** Fit      -0.035717
 **** Fit      -0.009632
 **** Fit      -0.009852
 **** Fit      -0.010590
 **** Fit      -0.011771
 **** Fit      -0.013324
 **** Fit      -0.015192
 **** Fit      -0.017333
 **** Fit      -0.019723
 **** Fit      -0.022354
 **** Fit      -0.025234
 **** Fit      -0.032300
 **** Fit      -0.036207
 **** Fit      -0.040449
 **** Fit      -0.045053
 **** Fit      -0.008750
 **** Fit      -0.009136
 **** Fit      -0.010249
 **** Fit      -0.011929
 **** Fit      -0.014041
 **** Fit      -0.016487
 **** Fit      -0.019202
 **** Fit      -0.022146
 **** Fit      -0.025304
 **** Fit      -0.028680
 **** Fit      -0.009456
 **** Fit      -0.011885
 **** Fit      -0.014875
 **** Fit      -0.018238
 **** Fit      -0.021863
 **** Fit      -0.022395
 **** Fit      -0.022152
 **** Fit      -0.025059
 **** Fit      -0.025525
 **** Fit      -0.022786
 **** Fit      -0.020320
 **** Fit      -0.020097
 **** Fit      -0.022113
 **** Fit      -0.025222
 **** Fit      -0.028452
 **** Fit      -0.030414
 **** Fit      -0.029779
 **** Fit      -0.026823
 **** Fit      -0.023254
 **** Fit      -0.020423
 **** Fit      -0.018707
 **** Fit      -0.018061
 **** Fit      -0.018428
 **** Fit      -0.019789
 **** Fit      -0.022319
 **** Fit      -0.025323
 **** Fit      -0.028927
 **** Fit      -0.032728
 **** Fit      -0.035834
 **** Fit      -0.037037
 **** Fit      -0.035599
 **** Fit      -0.032007
 **** Fit      -0.027635
 **** Fit      -0.023706
 **** Fit      -0.016739
 **** Fit      -0.017246
 **** Fit      -0.018326
 **** Fit      -0.020000
 **** Fit      -0.022807
 **** Fit      -0.025824
 **** Fit      -0.029575
 **** Fit      -0.034026
 **** Fit      -0.038853
 **** Fit      -0.036847
 **** Fit      -0.031057
 **** Fit      -0.026069
 **** Fit      -0.017258
 **** Fit      -0.018619
 **** Fit      -0.020441
 **** Fit      -0.023610
 **** Fit      -0.026710
 **** Fit      -0.030622
 **** Fit      -0.035490
 **** Fit      -0.041339
 **** Fit      -0.017644
 **** Fit      -0.019200
 **** Fit      -0.021154
 **** Fit      -0.024758
 **** Fit      -0.027886
 **** Fit      -0.031830
 **** Fit      -0.036829
 **** Fit      -0.043131
 **** Fit      -0.020189
 **** Fit      -0.022245
 **** Fit      -0.026287
 **** Fit      -0.029619
 **** Fit      -0.033841
 **** Fit      -0.039283
 **** Fit      -0.021350
 **** Fit      -0.023594
 **** Fit      -0.028238
 **** Fit      -0.031719
 **** Fit      -0.036110
 **** Fit      -0.041794
 **** Fit      -0.025386
 **** Fit      -0.034343
 **** Fit      -0.038961
 **** Fit      -0.044946
 **** Fit      -0.042732
 **** Fit      -0.049348
 **** Fit      -0.015366
 **** Fit      -0.014255
 **** Fit      -0.016671
 **** Fit      -0.014233
 **** Fit      -0.013036
 **** Fit      -0.012709
 **** Fit      -0.012994
 **** Fit      -0.011590
 **** Fit      -0.011555
 **** Fit      -0.011746
 **** Fit      -0.012224
 **** Fit      -0.010740
 **** Fit      -0.010782
 **** Fit      -0.010849
 **** Fit      -0.011079
 **** Fit      -0.011537
 **** Fit      -0.010479
 **** Fit      -0.010410
 **** Fit      -0.010391
 **** Fit      -0.010545
 **** Fit      -0.010921
 **** Fit      -0.011524
 **** Fit      -0.010572
 **** Fit      -0.010287
 **** Fit      -0.010137
 **** Fit      -0.010192
 **** Fit      -0.010478
 **** Fit      -0.010994
 **** Fit      -0.011245
 **** Fit      -0.010618
 **** Fit      -0.010176
 **** Fit      -0.009975
 **** Fit      -0.010048
 **** Fit      -0.010399
 **** Fit      -0.011354
 **** Fit      -0.010571
 **** Fit      -0.010061
 **** Fit      -0.009862
 **** Fit      -0.009994
 **** Fit      -0.010440
 **** Fit      -0.011639
 **** Fit      -0.010676
 **** Fit      -0.010038
 **** Fit      -0.009787
 **** Fit      -0.009938
 **** Fit      -0.011409
 **** Fit      -0.010363
 **** Fit      -0.009798
 **** Fit      -0.009771
 **** Fit      -0.011373
 **** Fit      -0.010167
 **** Fit      -0.009670
 **** Fit      -0.013373
 **** Fit      -0.011241
 **** Fit       0.033003
 **** Fit       0.038292
 **** Fit       0.036275
 **** Fit       0.035392
 **** Fit       0.038166
 **** Fit       0.036346
 **** Fit       0.036700
 **** Fit       0.034308
 **** Fit       0.032347
 **** Fit       0.029382
 **** Fit       0.025293
 **** Fit       0.021777
 **** Fit       0.016792
 **** Fit       0.006526
 **** Fit       0.015536
 **** Fit       0.014589
 **** Fit       0.003196
 **** Fit       0.005195
 **** Fit       0.005800
 **** Fit       0.006022
 **** Fit      -0.019591
 **** Fit      -0.011718
 **** Fit      -0.006505
 **** Fit      -0.003462
 **** Fit      -0.001849
 **** Fit      -0.000905
 **** Fit      -0.023559
 **** Fit      -0.016378
 **** Fit      -0.011702
 **** Fit      -0.008813
 **** Fit      -0.007011
 **** Fit      -0.005819
 **** Fit      -0.005156
 **** Fit      -0.005253
 **** Fit      -0.025846
 **** Fit      -0.019395
 **** Fit      -0.015149
 **** Fit      -0.012358
 **** Fit      -0.010460
 **** Fit      -0.009170
 **** Fit      -0.008394
 **** Fit      -0.007924
 **** Fit      -0.007163
 **** Fit      -0.005340
 **** Fit      -0.029815
 **** Fit      -0.022903
 **** Fit      -0.018279
 **** Fit      -0.015131
 **** Fit      -0.012880
 **** Fit      -0.011158
 **** Fit      -0.009615
 **** Fit      -0.007790
 **** Fit      -0.005386
 **** Fit      -0.006611
 **** Fit      -0.008000
 **** Fit      -0.013112
 **** Fit      -0.027440
 **** Fit      -0.021525
 **** Fit      -0.017501
 **** Fit      -0.014568
 **** Fit      -0.012139
 **** Fit      -0.009812
 **** Fit      -0.007674
 **** Fit      -0.012846
 **** Fit      -0.016359
 **** Fit      -0.031302
 **** Fit      -0.023933
 **** Fit      -0.018961
 **** Fit      -0.015509
 **** Fit      -0.013196
 **** Fit      -0.019433
 **** Fit      -0.025554
 **** Fit      -0.020051
 **** Fit      -0.026378
 **** Fit       0.013899
 **** Fit       0.020966
 **** Fit       0.018925
 **** Fit       0.015651
 **** Fit       0.011227
 **** Fit       0.006074
 **** Fit       0.022585
 **** Fit       0.022186
 **** Fit       0.020646
 **** Fit       0.017835
 **** Fit       0.013717
 **** Fit       0.008444
 **** Fit       0.015602
 **** Fit       0.019383
 **** Fit       0.021371
 **** Fit       0.022049
 **** Fit       0.021540
 **** Fit       0.019756
 **** Fit       0.016539
 **** Fit       0.011769
 **** Fit       0.005388
 **** Fit       0.015138
 **** Fit       0.018416
 **** Fit       0.020068
 **** Fit       0.020372
 **** Fit       0.019342
 **** Fit       0.016825
 **** Fit       0.012582
 **** Fit       0.006312
 **** Fit       0.014108
 **** Fit       0.016713
 **** Fit       0.017843
 **** Fit       0.017584
 **** Fit       0.015844
 **** Fit       0.012390
 **** Fit       0.006850
 **** Fit       0.009793
 **** Fit       0.012323
 **** Fit       0.014275
 **** Fit       0.014656
 **** Fit       0.013366
 **** Fit       0.010150
 **** Fit       0.004568
 **** Fit       0.008827
 **** Fit       0.009659
 **** Fit       0.010874
 **** Fit       0.010297
 **** Fit       0.007635
 **** Fit       0.002448
 **** Fit      -0.005933
 **** Fit      -0.001185
 **** Fit       0.003043
 **** Fit       0.006905
 **** Fit       0.006029
 **** Fit       0.006401
 **** Fit       0.004353
 **** Fit      -0.000622
 **** Fit      -0.009057
 **** Fit       0.000183
 **** Fit       0.003746
 **** Fit       0.001361
 **** Fit       0.000439
 **** Fit      -0.004522
 **** Fit      -0.000890
 **** Fit      -0.004429
 -----------------------------------------------------------------
 Leave Link  602 at Mon Sep 16 17:21:34 2019, MaxMem=  4294967296 cpu:       155.7

 Test job not archived.
 1\1\GINC-N008\SP\RB3LYP\SVP\C54H83Ca1N15O23\PCIEPLAK\16-Sep-2019\0\\#m
 axdisk=50GB #B3LYP/SVP Density=Current scf=(tight) #IOP(5/87=12)Pop=(M
 K,readradii) iop(6/33=2) iop(6/42=6)\\SOL molecule\\0,1\C,0,43.68,45.5
 7,29.91\C,0,43.91,44.73,31.16\O,0,43.81,45.21,32.28\H,0,42.918,46.323,
 30.114\H,0,44.61,46.062,29.626\H,0,43.346,44.927,29.096\N,0,44.35,43.4
 8,30.97\C,0,44.75,42.71,32.14\C,0,46.09,43.18,32.68\O,0,47.14,42.85,32
 .13\C,0,44.87,41.23,31.82\C,0,45.37,40.4,33.\O,0,45.29,40.85,34.16\O,0
 ,45.95,39.32,32.73\H,0,44.1,43.03,30.1\H,0,44.11,42.81,33.02\H,0,45.5,
 41.06,30.94\H,0,43.92,40.76,31.59\N,0,46.12,43.77,33.88\C,0,47.24,44.5
 8,34.32\C,0,48.25,43.79,35.14\O,0,49.43,43.86,34.79\C,0,46.85,45.93,34
 .92\C,0,48.01,46.74,35.5\C,0,47.5,48.14,35.83\C,0,48.62,48.84,36.59\N,
 0,49.69,49.46,35.8\H,0,45.29,43.71,34.45\H,0,47.79,44.79,33.41\H,0,46.
 15,45.75,35.73\H,0,46.26,46.49,34.2\H,0,48.8,46.79,34.76\H,0,48.46,46.
 23,36.35\H,0,46.64,47.97,36.49\H,0,47.17,48.63,34.91\H,0,49.01,48.09,3
 7.28\H,0,48.12,49.63,37.16\H,0,50.46,49.54,36.45\H,0,49.96,48.79,35.08
 \H,0,49.43,50.39,35.51\N,0,47.87,42.86,36.02\C,0,48.77,42.03,36.8\C,0,
 48.91,40.65,36.18\O,0,49.67,39.82,36.68\C,0,48.25,42.09,38.23\C,0,46.9
 ,41.44,38.49\O,0,46.28,40.86,37.57\O,0,46.35,41.41,39.61\H,0,46.89,42.
 75,36.24\H,0,49.8,42.37,36.73\H,0,48.24,43.1,38.63\H,0,48.95,41.56,38.
 89\N,0,48.14,40.38,35.12\C,0,48.53,39.36,34.18\C,0,48.04,37.97,34.57\O
 ,0,48.67,37.06,34.04\H,0,47.31,40.93,34.94\H,0,49.61,39.21,34.05\H,0,4
 8.06,39.63,33.24\N,0,47.04,37.8,35.43\C,0,46.58,36.47,35.77\C,0,45.59,
 35.91,34.76\O,0,44.87,34.98,35.14\C,0,46.02,36.41,37.19\C,0,44.77,37.2
 6,37.35\N,0,43.91,36.91,38.32\O,0,44.49,38.27,36.71\H,0,46.67,38.6,35.
 92\H,0,47.5,35.89,35.78\H,0,46.76,36.88,37.83\H,0,45.86,35.38,37.51\H,
 0,43.96,36.05,38.84\H,0,42.95,37.2,38.3\N,0,45.52,36.47,33.56\C,0,44.6
 1,36.02,32.52\C,0,43.16,36.45,32.63\O,0,42.34,35.96,31.85\H,0,46.03,37
 .3,33.29\H,0,44.66,34.94,32.38\H,0,44.87,36.49,31.57\N,0,42.78,37.18,3
 3.68\C,0,41.42,37.56,34.01\C,0,41.39,39.06,34.26\O,0,42.32,39.69,34.75
 \C,0,41.,36.8,35.27\C,0,41.11,35.3,35.33\C,0,41.47,34.62,36.5\C,0,40.6
 9,34.52,34.24\C,0,41.48,33.23,36.66\C,0,40.87,33.13,34.26\C,0,41.16,32
 .51,35.49\O,0,41.04,31.16,35.67\H,0,43.5,37.52,34.31\H,0,40.75,37.29,3
 3.2\H,0,39.96,37.04,35.49\H,0,41.43,37.33,36.12\H,0,41.6,35.29,37.34\H
 ,0,40.36,35.04,33.36\H,0,41.55,32.78,37.64\H,0,40.61,32.47,33.45\H,0,4
 0.62,30.85,34.86\N,0,40.28,39.75,33.99\C,0,40.03,41.14,34.34\C,0,39.1,
 41.31,35.53\O,0,38.04,40.68,35.64\C,0,39.66,41.85,33.04\C,0,40.81,42.3
 5,32.17\C,0,38.74,43.05,33.26\C,0,40.4,42.87,30.8\H,0,39.56,39.3,33.45
 \H,0,41.01,41.53,34.62\H,0,39.,41.18,32.5\H,0,41.56,41.57,32.15\H,0,41
 .18,43.22,32.72\H,0,38.46,43.5,32.31\H,0,37.81,42.73,33.74\H,0,39.16,4
 3.78,33.95\H,0,41.34,42.77,30.26\H,0,39.56,42.33,30.36\H,0,40.11,43.91
 ,30.97\N,0,39.45,42.21,36.44\C,0,38.8,42.64,37.66\C,0,38.08,43.94,37.3
 2\O,0,38.3,44.56,36.28\C,0,39.77,42.75,38.83\O,0,40.96,43.48,38.62\H,0
 ,40.37,42.61,36.29\H,0,38.01,41.94,37.95\H,0,40.06,41.74,39.13\H,0,39.
 26,43.16,39.7\H,0,41.38,42.91,37.97\N,0,37.24,44.4,38.25\C,0,36.48,45.
 62,38.07\C,0,37.36,46.85,37.85\O,0,37.01,47.58,36.93\C,0,35.68,45.75,3
 9.36\H,0,37.08,43.9,39.11\H,0,35.74,45.55,37.27\H,0,35.01,46.6,39.23\H
 ,0,35.15,44.79,39.42\H,0,36.43,45.97,40.11\N,0,38.41,47.07,38.64\C,0,3
 9.27,48.23,38.58\C,0,40.,48.27,37.24\O,0,40.11,49.31,36.61\C,0,40.25,4
 8.28,39.75\H,0,38.61,46.39,39.37\H,0,38.74,49.18,38.64\H,0,40.83,47.37
 ,39.56\H,0,40.93,49.13,39.65\H,0,39.75,48.22,40.72\N,0,40.44,47.12,36.
 72\C,0,40.89,46.88,35.36\C,0,39.78,47.05,34.33\O,0,40.01,47.65,33.28\C
 ,0,41.41,45.45,35.18\C,0,42.72,45.2,35.93\C,0,43.13,43.74,35.96\O,0,44
 .34,43.44,35.91\O,0,42.25,42.86,36.08\H,0,40.29,46.32,37.32\H,0,41.74,
 47.53,35.19\H,0,41.58,45.43,34.1\H,0,40.66,44.69,35.39\H,0,42.66,45.52
 ,36.97\H,0,43.52,45.8,35.49\N,0,38.57,46.53,34.52\C,0,37.43,46.77,33.6
 5\H,0,36.628,47.235,34.223\H,0,37.726,47.433,32.837\H,0,37.08,45.823,3
 3.239\H,0,38.46,46.15,35.45\Ca,0,44.03,40.78,36.45\O,0,43.93,42.19,38.
 72\H,0,43.81,43.12,38.91\H,0,44.78,41.97,39.1\\Version=ES64L-G09RevD.0
 1\State=1-A\HF=-5333.5801855\RMSD=7.044e-09\Dipole=1.2696235,10.963105
 4,5.434775\Quadrupole=-8.2326448,41.1590075,-32.9263627,195.9367358,-1
 0.3848338,23.7804017\PG=C01 [X(C54H83Ca1N15O23)]\\@


 ALL PAPERS THAT YOU SAVE WILL NEVER BE NEEDED UNTIL
 SUCH TIME AS THEY ARE DISPOSED OF, WHEN THEY BECOME
 ESSENTIAL.

           -- JOHN CORCORAN IN
              PAUL DICKSON'S "THE OFFICIAL RULES"
 Job cpu time:       0 days 13 hours  3 minutes  1.9 seconds.
 File lengths (MBytes):  RWF=   1513 Int=      0 D2E=      0 Chk=    103 Scr=      1
 Normal termination of Gaussian 09 at Mon Sep 16 17:21:35 2019.
