 Entering Gaussian System, Link 0=g09
 Initial command:
 /home/pcieplak/g09/g09/l1.exe "/scratch1/pcieplak/holo_9.0/Gau-11383.inp" -scrdir="/scratch1/pcieplak/holo_9.0/"
 Entering Link 1 = /home/pcieplak/g09/g09/l1.exe PID=     11384.
  
 Copyright (c) 1988,1990,1992,1993,1995,1998,2003,2009,2013,
            Gaussian, Inc.  All Rights Reserved.
  
 This is part of the Gaussian(R) 09 program.  It is based on
 the Gaussian(R) 03 system (copyright 2003, Gaussian, Inc.),
 the Gaussian(R) 98 system (copyright 1998, Gaussian, Inc.),
 the Gaussian(R) 94 system (copyright 1995, Gaussian, Inc.),
 the Gaussian 92(TM) system (copyright 1992, Gaussian, Inc.),
 the Gaussian 90(TM) system (copyright 1990, Gaussian, Inc.),
 the Gaussian 88(TM) system (copyright 1988, Gaussian, Inc.),
 the Gaussian 86(TM) system (copyright 1986, Carnegie Mellon
 University), and the Gaussian 82(TM) system (copyright 1983,
 Carnegie Mellon University). Gaussian is a federally registered
 trademark of Gaussian, Inc.
  
 This software contains proprietary and confidential information,
 including trade secrets, belonging to Gaussian, Inc.
  
 This software is provided under written license and may be
 used, copied, transmitted, or stored only in accord with that
 written license.
  
 The following legend is applicable only to US Government
 contracts under FAR:
  
                    RESTRICTED RIGHTS LEGEND
  
 Use, reproduction and disclosure by the US Government is
 subject to restrictions as set forth in subparagraphs (a)
 and (c) of the Commercial Computer Software - Restricted
 Rights clause in FAR 52.227-19.
  
 Gaussian, Inc.
 340 Quinnipiac St., Bldg. 40, Wallingford CT 06492
  
  
 ---------------------------------------------------------------
 Warning -- This program may not be used in any manner that
 competes with the business of Gaussian, Inc. or will provide
 assistance to any competitor of Gaussian, Inc.  The licensee
 of this program is prohibited from giving any competitor of
 Gaussian, Inc. access to this program.  By using this program,
 the user acknowledges that Gaussian, Inc. is engaged in the
 business of creating and licensing software in the field of
 computational chemistry and represents and warrants to the
 licensee that it is not a competitor of Gaussian, Inc. and that
 it will not use this program in any manner prohibited above.
 ---------------------------------------------------------------
  

 Cite this work as:
 Gaussian 09, Revision D.01,
 M. J. Frisch, G. W. Trucks, H. B. Schlegel, G. E. Scuseria, 
 M. A. Robb, J. R. Cheeseman, G. Scalmani, V. Barone, B. Mennucci, 
 G. A. Petersson, H. Nakatsuji, M. Caricato, X. Li, H. P. Hratchian, 
 A. F. Izmaylov, J. Bloino, G. Zheng, J. L. Sonnenberg, M. Hada, 
 M. Ehara, K. Toyota, R. Fukuda, J. Hasegawa, M. Ishida, T. Nakajima, 
 Y. Honda, O. Kitao, H. Nakai, T. Vreven, J. A. Montgomery, Jr., 
 J. E. Peralta, F. Ogliaro, M. Bearpark, J. J. Heyd, E. Brothers, 
 K. N. Kudin, V. N. Staroverov, T. Keith, R. Kobayashi, J. Normand, 
 K. Raghavachari, A. Rendell, J. C. Burant, S. S. Iyengar, J. Tomasi, 
 M. Cossi, N. Rega, J. M. Millam, M. Klene, J. E. Knox, J. B. Cross, 
 V. Bakken, C. Adamo, J. Jaramillo, R. Gomperts, R. E. Stratmann, 
 O. Yazyev, A. J. Austin, R. Cammi, C. Pomelli, J. W. Ochterski, 
 R. L. Martin, K. Morokuma, V. G. Zakrzewski, G. A. Voth, 
 P. Salvador, J. J. Dannenberg, S. Dapprich, A. D. Daniels, 
 O. Farkas, J. B. Foresman, J. V. Ortiz, J. Cioslowski, 
 and D. J. Fox, Gaussian, Inc., Wallingford CT, 2013.
 
 ******************************************
 Gaussian 09:  ES64L-G09RevD.01 24-Apr-2013
                16-Sep-2019 
 ******************************************
 %Nproc=12
 Will use up to   12 processors via shared memory.
 %chk=chk1mol
 %mem=32GB
 ----------------------------------------------------------------------
 #maxdisk=50GB #B3LYP/SVP Density=Current scf=(tight) #IOP(5/87=12)Pop=
 (MK,readradii) iop(6/33=2) iop(6/42=6)
 ----------------------------------------------------------------------
 1/30=1,38=1/1;
 2/12=2,17=6,18=5,40=1/2;
 3/5=18,7=101,11=2,16=1,25=1,30=1,74=-5/1,2,3;
 4//1;
 5/5=2,32=2,38=5,87=12/2;
 6/7=2,8=2,9=2,10=2,15=8,20=101,22=-1,28=1,33=2,42=6/1,2;
 99/5=1,9=1/99;
 ------------
 SOL molecule
 ------------
 Symbolic Z-matrix:
 Charge =  0 Multiplicity = 1
 C                     93.28     58.6      103.533 
 C                     94.57     59.03     102.843 
 O                     95.28     58.18     102.313 
 H                     92.476    58.549    102.799 
 H                     93.42     57.619    103.987 
 H                     93.021    59.325    104.305 
 N                     94.91     60.32     102.833 
 C                     96.12     60.85     102.233 
 C                     97.35     60.54     103.073 
 O                     97.32     60.85     104.263 
 C                     95.93     62.33     101.923 
 C                     96.97     62.93     100.983 
 O                     96.87     64.17     100.823 
 O                     97.85     62.18     100.523 
 H                     94.34     60.97     103.343 
 H                     96.18     60.31     101.283 
 H                     95.75     62.91     102.833 
 H                     94.99     62.45     101.383 
 N                     98.42     60.06     102.433 
 C                     99.57     59.52     103.123 
 C                     100.75    60.48     103.103 
 O                     101.52    60.38     104.053 
 C                     99.84     58.08     102.693 
 C                     98.66     57.15     102.943 
 C                     98.92     55.66     102.803 
 C                     99.87     55.1      103.863 
 N                     99.28     55.15     105.203 
 H                     98.39     59.9      101.433 
 H                     99.22     59.41     104.153 
 H                     100.73    57.78     103.263 
 H                     100.12    58.06     101.643 
 H                     97.89     57.4      102.213 
 H                     98.3      57.28     103.963 
 H                     99.3      55.47     101.793 
 H                     97.94     55.19     102.863 
 H                     100.81    55.64     103.773 
 H                     100.05    54.07     103.563 
 H                     99.47     56.03     105.653 
 H                     98.31     54.87     105.223 
 H                     99.77     54.49     105.793 
 N                     100.81    61.39     102.123 
 C                     101.84    62.41     102.093 
 C                     101.35    63.83     102.333 
 O                     102.17    64.68     102.673 
 C                     102.66    62.44     100.803 
 C                     101.96    63.08     99.613 
 O                     102.7     63.48     98.693 
 O                     100.71    63.12     99.533 
 H                     100.21    61.3      101.313 
 H                     102.6     62.18     102.843 
 H                     102.94    61.44     100.473 
 H                     103.56    63.01     101.023 
 N                     100.04    64.06     102.223 
 C                     99.38     65.33     102.443 
 C                     99.45     66.33     101.293 
 O                     99.64     67.53     101.523 
 H                     99.45     63.36     101.813 
 H                     99.79     65.89     103.283 
 H                     98.34     65.16     102.733 
 N                     99.5      65.85     100.053 
 C                     99.39     66.71     98.893 
 C                     97.96     67.16     98.643 
 O                     97.77     68.13     97.913 
 C                     100.04    65.98     97.723 
 C                     99.22     64.92     96.993 
 N                     99.61     64.41     95.823 
 O                     98.2      64.48     97.503 
 H                     99.79     64.9      99.883 
 H                     99.92     67.63     99.123 
 H                     101.04    65.64     97.983 
 H                     100.37    66.75     97.023 
 H                     100.56    64.55     95.503 
 H                     99.01     63.89     95.203 
 N                     96.98     66.51     99.283 
 C                     95.57     66.85     99.233 
 C                     94.66     65.96     98.413 
 O                     93.48     66.27     98.293 
 H                     97.18     65.66     99.793 
 H                     95.56     67.88     98.873 
 H                     95.23     66.97     100.263 
 N                     95.21     64.95     97.733 
 C                     94.63     64.       96.813 
 C                     95.1      62.57     97.073 
 O                     96.21     62.35     97.553 
 C                     95.09     64.45     95.433 
 C                     95.1      65.91     95.043 
 C                     96.3      66.64     95.063 
 C                     93.84     66.5      94.923 
 C                     96.19     68.03     95.003 
 C                     93.81     67.89     94.723 
 C                     94.96     68.7      94.793 
 O                     94.92     70.05     94.683 
 H                     96.21     64.86     97.813 
 H                     93.54     64.03     96.853 
 H                     94.52     63.87     94.703 
 H                     96.12     64.09     95.343 
 H                     97.24     66.12     95.153 
 H                     92.96     65.89     94.773 
 H                     97.08     68.64     94.943 
 H                     92.9      68.47     94.793 
 H                     94.03     70.42     94.643 
 N                     94.19     61.67     96.703 
 C                     94.31     60.24     96.873 
 C                     94.87     59.52     95.653 
 O                     94.45     59.86     94.543 
 C                     93.03     59.56     97.343 
 C                     92.28     60.3      98.443 
 C                     93.37     58.15     97.843 
 C                     93.1      60.68     99.683 
 H                     93.53     62.02     96.023 
 H                     95.03     60.09     97.683 
 H                     92.45     59.36     96.453 
 H                     91.41     59.68     98.663 
 H                     91.88     61.22     98.013 
 H                     92.43     57.75     98.223 
 H                     93.67     57.53     97.003 
 H                     94.07     58.07     98.683 
 H                     94.       61.25     99.473 
 H                     92.46     61.26     100.343 
 H                     93.38     59.74     100.153 
 N                     95.83     58.6      95.753 
 C                     96.34     57.76     94.693 
 C                     96.11     56.29     95.013 
 O                     95.77     55.98     96.153 
 C                     97.82     58.05     94.423 
 O                     98.66     57.94     95.543 
 H                     96.22     58.48     96.673 
 H                     95.83     57.93     93.743 
 H                     97.85     59.07     94.053 
 H                     98.03     57.41     93.553 
 H                     98.34     58.52     96.243 
 N                     96.41     55.43     94.033 
 C                     96.13     54.02     94.123 
 C                     97.12     53.26     94.993 
 O                     96.73     52.27     95.613 
 C                     96.08     53.45     92.713 
 H                     96.79     55.78     93.163 
 H                     95.1      53.87     94.463 
 H                     96.23     52.38     92.833 
 H                     95.15     53.7      92.203 
 H                     96.9      53.8      92.083 
 N                     98.37     53.72     95.153 
 C                     99.24     53.2      96.193 
 C                     98.68     53.54     97.573 
 O                     98.7      52.71     98.473 
 C                     100.62    53.81     95.993 
 H                     98.72     54.45     94.553 
 H                     99.36     52.12     96.223 
 H                     100.53    54.9      96.003 
 H                     101.27    53.56     96.823 
 H                     100.99    53.38     95.063 
 N                     98.03     54.68     97.763 
 C                     97.43     55.09     99.023 
 C                     96.11     54.42     99.393 
 O                     95.85     54.05     100.533 
 C                     97.27     56.61     99.063 
 C                     98.59     57.35     98.853 
 C                     98.4      58.85     98.693 
 O                     98.8      59.67     99.543 
 O                     97.95     59.33     97.633 
 H                     97.85     55.29     96.973 
 H                     98.18     54.94     99.793 
 H                     96.83     56.93     100.003 
 H                     96.64     56.94     98.233 
 H                     99.07     57.       97.933 
 H                     99.35     57.11     99.593 
 N                     95.28     54.22     98.363 
 C                     94.04     53.48     98.263 
 H                     93.274    54.115    97.818 
 H                     94.191    52.601    97.637 
 H                     93.721    53.168    99.258 
 H                     95.62     54.58     97.483 
 Ca                    98.9      61.91     98.18 
 O                     98.74     61.5      95.56 
 H                     98.37     62.08     94.89 
 H                     99.54     61.15     95.17 
 
 Stoichiometry    C54H83CaN15O23
 Framework group  C1[X(C54H83CaN15O23)]
 Deg. of freedom   522
 Full point group                 C1      NOp   1
 Largest Abelian subgroup         C1      NOp   1
 Largest concise Abelian subgroup C1      NOp   1
                         Standard orientation:                         
 ---------------------------------------------------------------------
 Center     Atomic      Atomic             Coordinates (Angstroms)
 Number     Number       Type             X           Y           Z
 ---------------------------------------------------------------------
      1          6           0        1.970952    2.158478    5.944353
      2          6           0        1.537425    2.193402    4.482869
      3          8           0        2.389124    2.119148    3.601622
      4          1           0        2.057224    1.122676    6.272139
      5          1           0        2.936019    2.654164    6.049327
      6          1           0        1.229186    2.672116    6.556439
      7          7           0        0.242294    2.311770    4.185505
      8          6           0       -0.292279    2.381109    2.838500
      9          6           0       -0.028450    3.734067    2.194684
     10          8           0       -0.371419    4.737843    2.817505
     11          6           0       -1.759237    1.968181    2.849684
     12          6           0       -2.351075    1.655967    1.479483
     13          8           0       -3.584041    1.425901    1.487618
     14          8           0       -1.604373    1.724046    0.486357
     15          1           0       -0.411480    2.445557    4.935292
     16          1           0        0.273225    1.607645    2.309672
     17          1           0       -2.361418    2.645604    3.462363
     18          1           0       -1.846904    1.026311    3.392633
     19          7           0        0.450069    3.732574    0.947320
     20          6           0        0.949459    4.923448    0.297221
     21          6           0       -0.030748    5.464963   -0.732514
     22          8           0        0.028395    6.675615   -0.922841
     23          6           0        2.395942    4.735094   -0.154011
     24          6           0        3.339655    4.391494    0.991041
     25          6           0        4.828082    4.450624    0.693735
     26          6           0        5.340600    5.862000    0.402114
     27          7           0        5.263353    6.723746    1.584327
     28          1           0        0.638828    2.858040    0.471862
     29          1           0        1.036563    5.642658    1.116153
     30          1           0        2.663561    5.683907   -0.638918
     31          1           0        2.440596    3.967888   -0.922581
     32          1           0        3.124370    3.366083    1.291846
     33          1           0        3.187358    5.088995    1.813962
     34          1           0        5.039701    3.773802   -0.141567
     35          1           0        5.313820    4.027438    1.571159
     36          1           0        4.786473    6.236857   -0.455630
     37          1           0        6.375260    5.727248    0.094510
     38          1           0        4.367679    7.178581    1.646718
     39          1           0        5.560151    6.264599    2.433324
     40          1           0        5.897429    7.501588    1.455059
     41          7           0       -0.913577    4.616907   -1.274284
     42          6           0       -1.950758    5.072631   -2.179144
     43          6           0       -3.367900    4.987139   -1.632793
     44          8           0       -4.241857    5.663389   -2.170738
     45          6           0       -1.959037    4.366644   -3.535209
     46          6           0       -2.552346    2.965366   -3.524961
     47          8           0       -2.939444    2.526900   -4.625826
     48          8           0       -2.567479    2.268754   -2.483327
     49          1           0       -0.789861    3.618859   -1.161173
     50          1           0       -1.755847    6.109661   -2.461242
     51          1           0       -0.955317    4.255025   -3.944340
     52          1           0       -2.551200    4.988571   -4.202929
     53          7           0       -3.570994    4.228155   -0.553999
     54          6           0       -4.834583    4.045251    0.129220
     55          6           0       -5.802730    3.052156   -0.506275
     56          8           0       -7.011996    3.305983   -0.553683
     57          1           0       -2.849125    3.601530   -0.249947
     58          1           0       -5.425452    4.958314    0.196237
     59          1           0       -4.654102    3.780870    1.174269
     60          7           0       -5.288803    2.020857   -1.171708
     61          6           0       -6.113494    0.933654   -1.656656
     62          6           0       -6.530333   -0.013897   -0.543870
     63          8           0       -7.475690   -0.772963   -0.743921
     64          6           0       -5.362527    0.271801   -2.806569
     65          6           0       -4.267649   -0.734705   -2.464390
     66          7           0       -3.731862   -1.534163   -3.388997
     67          8           0       -3.823909   -0.789738   -1.326775
     68          1           0       -4.339765    2.050949   -1.509230
     69          1           0       -7.049060    1.367168   -1.998683
     70          1           0       -5.048142    1.008939   -3.542089
     71          1           0       -6.118239   -0.194159   -3.441849
     72          1           0       -3.879884   -1.339799   -4.371246
     73          1           0       -3.183766   -2.353459   -3.181282
     74          7           0       -5.881114    0.070583    0.623982
     75          6           0       -6.194038   -0.690285    1.819540
     76          6           0       -5.264890   -1.825411    2.194738
     77          8           0       -5.550004   -2.530615    3.156142
     78          1           0       -5.049643    0.640359    0.705292
     79          1           0       -7.213086   -1.041204    1.649254
     80          1           0       -6.336985    0.026218    2.630151
     81          7           0       -4.246146   -2.104167    1.376536
     82          6           0       -3.260162   -3.158483    1.415967
     83          6           0       -1.846818   -2.650234    1.137502
     84          8           0       -1.660580   -1.671755    0.417229
     85          6           0       -3.679153   -4.136710    0.326924
     86          6           0       -5.127470   -4.517984    0.124916
     87          6           0       -5.879301   -3.924141   -0.902411
     88          6           0       -5.690981   -5.272651    1.155951
     89          6           0       -7.264831   -4.077761   -0.835288
     90          6           0       -7.073994   -5.507285    1.083681
     91          6           0       -7.906291   -4.897925    0.124796
     92          8           0       -9.251693   -5.058386    0.106229
     93          1           0       -4.176524   -1.531094    0.551164
     94          1           0       -3.271588   -3.670836    2.379276
     95          1           0       -3.068520   -5.034104    0.453462
     96          1           0       -3.335413   -3.686582   -0.610001
     97          1           0       -5.379121   -3.358045   -1.671473
     98          1           0       -5.061183   -5.822678    1.841389
     99          1           0       -7.888865   -3.704349   -1.634628
    100          1           0       -7.639210   -5.921988    1.907059
    101          1           0       -9.604276   -5.551163    0.856866
    102          7           0       -0.920414   -3.395831    1.738220
    103          6           0        0.501800   -3.140724    1.717516
    104          6           0        1.245813   -3.891233    0.620438
    105          8           0        0.945013   -5.073015    0.428053
    106          6           0        1.191233   -3.352525    3.059724
    107          6           0        0.434059   -2.801635    4.261102
    108          6           0        2.580142   -2.702490    3.014066
    109          6           0        0.004360   -1.331230    4.173546
    110          1           0       -1.239046   -4.326258    1.969041
    111          1           0        0.615780   -2.074520    1.500218
    112          1           0        1.426790   -4.406055    3.115274
    113          1           0        1.063197   -3.026314    5.123311
    114          1           0       -0.466024   -3.404742    4.393055
    115          1           0        2.986139   -2.831230    4.017357
    116          1           0        3.218152   -3.257926    2.332572
    117          1           0        2.623675   -1.622706    2.829212
    118          1           0       -0.575631   -1.081199    3.290316
    119          1           0       -0.582435   -1.100423    5.058984
    120          1           0        0.925468   -0.752961    4.165452
    121          7           0        2.145123   -3.293052   -0.161496
    122          6           0        3.005443   -3.926199   -1.135290
    123          6           0        4.469710   -3.715321   -0.778005
    124          8           0        4.753406   -2.889256    0.087115
    125          6           0        2.696515   -3.428166   -2.550891
    126          8           0        2.759576   -2.035089   -2.716604
    127          1           0        2.231968   -2.298004   -0.038058
    128          1           0        2.871643   -5.008974   -1.169850
    129          1           0        1.687022   -3.767363   -2.760817
    130          1           0        3.356989   -4.053955   -3.169570
    131          1           0        2.165868   -1.609411   -2.088027
    132          7           0        5.351547   -4.383788   -1.530013
    133          6           0        6.763262   -4.398888   -1.244648
    134          6           0        7.480323   -3.125094   -1.666397
    135          8           0        8.459259   -2.750994   -1.019609
    136          6           0        7.373757   -5.624283   -1.908878
    137          1           0        5.019508   -4.957644   -2.294368
    138          1           0        6.922158   -4.615687   -0.183163
    139          1           0        8.437047   -5.409471   -1.980082
    140          1           0        7.155134   -6.539560   -1.359359
    141          1           0        7.026976   -5.770188   -2.933698
    142          7           0        6.993474   -2.376066   -2.667214
    143          6           0        7.468026   -1.023399   -2.899574
    144          6           0        7.099269   -0.121760   -1.722856
    145          8           0        7.902963    0.694490   -1.290292
    146          6           0        6.839104   -0.525646   -4.193096
    147          1           0        6.274548   -2.744180   -3.269740
    148          1           0        8.544400   -0.901116   -2.989939
    149          1           0        5.751062   -0.598643   -4.108630
    150          1           0        7.053727    0.526149   -4.339942
    151          1           0        7.288504   -1.130235   -4.979997
    152          7           0        5.966275   -0.321241   -1.063514
    153          6           0        5.531677    0.454229    0.087777
    154          6           0        6.214669    0.135571    1.414494
    155          8           0        6.556886    1.003717    2.210301
    156          6           0        4.014292    0.357692    0.248474
    157          6           0        3.256810    0.812383   -0.997952
    158          6           0        1.765617    0.528515   -0.911562
    159          8           0        0.914793    1.436495   -0.830503
    160          8           0        1.324022   -0.629745   -1.052725
    161          1           0        5.382233   -1.115113   -1.302810
    162          1           0        5.646248    1.500864   -0.175529
    163          1           0        3.675811    0.939560    1.100801
    164          1           0        3.719353   -0.686770    0.378128
    165          1           0        3.623985    0.268854   -1.874912
    166          1           0        3.461999    1.841099   -1.285077
    167          7           0        6.458705   -1.164259    1.616212
    168          6           0        7.223517   -1.846991    2.638044
    169          1           0        6.615308   -2.636826    3.078781
    170          1           0        8.117014   -2.283284    2.192365
    171          1           0        7.512937   -1.135748    3.412317
    172          1           0        6.117677   -1.767133    0.881473
    173         20           0       -1.287167    0.232608   -1.596920
    174          8           0       -0.800343   -2.099750   -2.772169
    175          1           0       -1.354366   -2.883995   -2.786952
    176          1           0       -0.453951   -2.024619   -3.660407
 ---------------------------------------------------------------------
 Rotational constants (GHZ):      0.0245798      0.0148361      0.0119306
 Standard basis: SVP (5D, 7F)
 There are  1809 symmetry adapted cartesian basis functions of A   symmetry.
 There are  1717 symmetry adapted basis functions of A   symmetry.
  1717 basis functions,  2922 primitive gaussians,  1809 cartesian basis functions
   358 alpha electrons      358 beta electrons
       nuclear repulsion energy     21800.2581230726 Hartrees.
 NAtoms=  176 NActive=  176 NUniq=  176 SFac= 1.00D+00 NAtFMM=   60 NAOKFM=T Big=T
 Integral buffers will be    131072 words long.
 Raffenetti 2 integral format.
 Two-electron integral symmetry is turned on.
 One-electron integrals computed using PRISM.
 NBasis=  1717 RedAO= T EigKep=  2.94D-04  NBF=  1717
 NBsUse=  1717 1.00D-06 EigRej= -1.00D+00 NBFU=  1717
 ExpMin= 1.98D-02 ExpMax= 3.51D+04 ExpMxC= 5.28D+03 IAcc=3 IRadAn=         5 AccDes= 0.00D+00
 Harris functional with IExCor=  402 and IRadAn=       5 diagonalized for initial guess.
 HarFok:  IExCor=  402 AccDes= 0.00D+00 IRadAn=         5 IDoV= 1 UseB2=F ITyADJ=14
 ICtDFT=  3500011 ScaDFX=  1.000000  1.000000  1.000000  1.000000
 FoFCou: FMM=F IPFlag=           0 FMFlag=      100000 FMFlg1=        2001
         NFxFlg=           0 DoJE=T BraDBF=F KetDBF=T FulRan=T
         wScrn=  0.000000 ICntrl=     500 IOpCl=  0 I1Cent=   200000004 NGrid=           0
         NMat0=    1 NMatS0=      1 NMatT0=    0 NMatD0=    1 NMtDS0=    0 NMtDT0=    0
 Petite list used in FoFCou.
 Requested convergence on RMS density matrix=1.00D-08 within 128 cycles.
 Requested convergence on MAX density matrix=1.00D-06.
 Requested convergence on             energy=1.00D-06.
 No special actions if energy rises.
 EnCoef did     3 forward-backward iterations
 SCF Done:  E(RB3LYP) =  -5333.59747792     A.U. after   18 cycles
            NFock= 18  Conv=0.33D-08     -V/T= 2.0082

 **********************************************************************

            Population analysis using the SCF density.

 **********************************************************************

 Orbital symmetries:
 BldTbl:  Degeneracy threshold= 1.00D-02
       Occupied  (A) (A) (A) (A) (A) (A) (A) (A) (A) (A) (A) (A)
                 (A) (A) (A) (A) (A) (A) (A) (A) (A) (A) (A) (A)
                 (A) (A) (A) (A) (A) (A) (A) (A) (A) (A) (A) (A)
                 (A) (A) (A) (A) (A) (A) (A) (A) (A) (A) (A) (A)
                 (A) (A) (A) (A) (A) (A) (A) (A) (A) (A) (A) (A)
                 (A) (A) (A) (A) (A) (A) (A) (A) (A) (A) (A) (A)
                 (A) (A) (A) (A) (A) (A) (A) (A) (A) (A) (A) (A)
                 (A) (A) (A) (A) (A) (A) (A) (A) (A) (A) (A) (A)
                 (A) (A) (A) (A) (A) (A) (A) (A) (A) (A) (A) (A)
                 (A) (A) (A) (A) (A) (A) (A) (A) (A) (A) (A) (A)
                 (A) (A) (A) (A) (A) (A) (A) (A) (A) (A) (A) (A)
                 (A) (A) (A) (A) (A) (A) (A) (A) (A) (A) (A) (A)
                 (A) (A) (A) (A) (A) (A) (A) (A) (A) (A) (A) (A)
                 (A) (A) (A) (A) (A) (A) (A) (A) (A) (A) (A) (A)
                 (A) (A) (A) (A) (A) (A) (A) (A) (A) (A) (A) (A)
                 (A) (A) (A) (A) (A) (A) (A) (A) (A) (A) (A) (A)
                 (A) (A) (A) (A) (A) (A) (A) (A) (A) (A) (A) (A)
                 (A) (A) (A) (A) (A) (A) (A) (A) (A) (A) (A) (A)
                 (A) (A) (A) (A) (A) (A) (A) (A) (A) (A) (A) (A)
                 (A) (A) (A) (A) (A) (A) (A) (A) (A) (A) (A) (A)
                 (A) (A) (A) (A) (A) (A) (A) (A) (A) (A) (A) (A)
                 (A) (A) (A) (A) (A) (A) (A) (A) (A) (A) (A) (A)
                 (A) (A) (A) (A) (A) (A) (A) (A) (A) (A) (A) (A)
                 (A) (A) (A) (A) (A) (A) (A) (A) (A) (A) (A) (A)
                 (A) (A) (A) (A) (A) (A) (A) (A) (A) (A) (A) (A)
                 (A) (A) (A) (A) (A) (A) (A) (A) (A) (A) (A) (A)
                 (A) (A) (A) (A) (A) (A) (A) (A) (A) (A) (A) (A)
                 (A) (A) (A) (A) (A) (A) (A) (A) (A) (A) (A) (A)
                 (A) (A) (A) (A) (A) (A) (A) (A) (A) (A) (A) (A)
                 (A) (A) (A) (A) (A) (A) (A) (A) (A) (A)
       Virtual   (A) (A) (A) (A) (A) (A) (A) (A) (A) (A) (A) (A)
                 (A) (A) (A) (A) (A) (A) (A) (A) (A) (A) (A) (A)
                 (A) (A) (A) (A) (A) (A) (A) (A) (A) (A) (A) (A)
                 (A) (A) (A) (A) (A) (A) (A) (A) (A) (A) (A) (A)
                 (A) (A) (A) (A) (A) (A) (A) (A) (A) (A) (A) (A)
                 (A) (A) (A) (A) (A) (A) (A) (A) (A) (A) (A) (A)
                 (A) (A) (A) (A) (A) (A) (A) (A) (A) (A) (A) (A)
                 (A) (A) (A) (A) (A) (A) (A) (A) (A) (A) (A) (A)
                 (A) (A) (A) (A) (A) (A) (A) (A) (A) (A) (A) (A)
                 (A) (A) (A) (A) (A) (A) (A) (A) (A) (A) (A) (A)
                 (A) (A) (A) (A) (A) (A) (A) (A) (A) (A) (A) (A)
                 (A) (A) (A) (A) (A) (A) (A) (A) (A) (A) (A) (A)
                 (A) (A) (A) (A) (A) (A) (A) (A) (A) (A) (A) (A)
                 (A) (A) (A) (A) (A) (A) (A) (A) (A) (A) (A) (A)
                 (A) (A) (A) (A) (A) (A) (A) (A) (A) (A) (A) (A)
                 (A) (A) (A) (A) (A) (A) (A) (A) (A) (A) (A) (A)
                 (A) (A) (A) (A) (A) (A) (A) (A) (A) (A) (A) (A)
                 (A) (A) (A) (A) (A) (A) (A) (A) (A) (A) (A) (A)
                 (A) (A) (A) (A) (A) (A) (A) (A) (A) (A) (A) (A)
                 (A) (A) (A) (A) (A) (A) (A) (A) (A) (A) (A) (A)
                 (A) (A) (A) (A) (A) (A) (A) (A) (A) (A) (A) (A)
                 (A) (A) (A) (A) (A) (A) (A) (A) (A) (A) (A) (A)
                 (A) (A) (A) (A) (A) (A) (A) (A) (A) (A) (A) (A)
                 (A) (A) (A) (A) (A) (A) (A) (A) (A) (A) (A) (A)
                 (A) (A) (A) (A) (A) (A) (A) (A) (A) (A) (A) (A)
                 (A) (A) (A) (A) (A) (A) (A) (A) (A) (A) (A) (A)
                 (A) (A) (A) (A) (A) (A) (A) (A) (A) (A) (A) (A)
                 (A) (A) (A) (A) (A) (A) (A) (A) (A) (A) (A) (A)
                 (A) (A) (A) (A) (A) (A) (A) (A) (A) (A) (A) (A)
                 (A) (A) (A) (A) (A) (A) (A) (A) (A) (A) (A) (A)
                 (A) (A) (A) (A) (A) (A) (A) (A) (A) (A) (A) (A)
                 (A) (A) (A) (A) (A) (A) (A) (A) (A) (A) (A) (A)
                 (A) (A) (A) (A) (A) (A) (A) (A) (A) (A) (A) (A)
                 (A) (A) (A) (A) (A) (A) (A) (A) (A) (A) (A) (A)
                 (A) (A) (A) (A) (A) (A) (A) (A) (A) (A) (A) (A)
                 (A) (A) (A) (A) (A) (A) (A) (A) (A) (A) (A) (A)
                 (A) (A) (A) (A) (A) (A) (A) (A) (A) (A) (A) (A)
                 (A) (A) (A) (A) (A) (A) (A) (A) (A) (A) (A) (A)
                 (A) (A) (A) (A) (A) (A) (A) (A) (A) (A) (A) (A)
                 (A) (A) (A) (A) (A) (A) (A) (A) (A) (A) (A) (A)
                 (A) (A) (A) (A) (A) (A) (A) (A) (A) (A) (A) (A)
                 (A) (A) (A) (A) (A) (A) (A) (A) (A) (A) (A) (A)
                 (A) (A) (A) (A) (A) (A) (A) (A) (A) (A) (A) (A)
                 (A) (A) (A) (A) (A) (A) (A) (A) (A) (A) (A) (A)
                 (A) (A) (A) (A) (A) (A) (A) (A) (A) (A) (A) (A)
                 (A) (A) (A) (A) (A) (A) (A) (A) (A) (A) (A) (A)
                 (A) (A) (A) (A) (A) (A) (A) (A) (A) (A) (A) (A)
                 (A) (A) (A) (A) (A) (A) (A) (A) (A) (A) (A) (A)
                 (A) (A) (A) (A) (A) (A) (A) (A) (A) (A) (A) (A)
                 (A) (A) (A) (A) (A) (A) (A) (A) (A) (A) (A) (A)
                 (A) (A) (A) (A) (A) (A) (A) (A) (A) (A) (A) (A)
                 (A) (A) (A) (A) (A) (A) (A) (A) (A) (A) (A) (A)
                 (A) (A) (A) (A) (A) (A) (A) (A) (A) (A) (A) (A)
                 (A) (A) (A) (A) (A) (A) (A) (A) (A) (A) (A) (A)
                 (A) (A) (A) (A) (A) (A) (A) (A) (A) (A) (A) (A)
                 (A) (A) (A) (A) (A) (A) (A) (A) (A) (A) (A) (A)
                 (A) (A) (A) (A) (A) (A) (A) (A) (A) (A) (A) (A)
                 (A) (A) (A) (A) (A) (A) (A) (A) (A) (A) (A) (A)
                 (A) (A) (A) (A) (A) (A) (A) (A) (A) (A) (A) (A)
                 (A) (A) (A) (A) (A) (A) (A) (A) (A) (A) (A) (A)
                 (A) (A) (A) (A) (A) (A) (A) (A) (A) (A) (A) (A)
                 (A) (A) (A) (A) (A) (A) (A) (A) (A) (A) (A) (A)
                 (A) (A) (A) (A) (A) (A) (A) (A) (A) (A) (A) (A)
                 (A) (A) (A) (A) (A) (A) (A) (A) (A) (A) (A) (A)
                 (A) (A) (A) (A) (A) (A) (A) (A) (A) (A) (A) (A)
                 (A) (A) (A) (A) (A) (A) (A) (A) (A) (A) (A) (A)
                 (A) (A) (A) (A) (A) (A) (A) (A) (A) (A) (A) (A)
                 (A) (A) (A) (A) (A) (A) (A) (A) (A) (A) (A) (A)
                 (A) (A) (A) (A) (A) (A) (A) (A) (A) (A) (A) (A)
                 (A) (A) (A) (A) (A) (A) (A) (A) (A) (A) (A) (A)
                 (A) (A) (A) (A) (A) (A) (A) (A) (A) (A) (A) (A)
                 (A) (A) (A) (A) (A) (A) (A) (A) (A) (A) (A) (A)
                 (A) (A) (A) (A) (A) (A) (A) (A) (A) (A) (A) (A)
                 (A) (A) (A) (A) (A) (A) (A) (A) (A) (A) (A) (A)
                 (A) (A) (A) (A) (A) (A) (A) (A) (A) (A) (A) (A)
                 (A) (A) (A) (A) (A) (A) (A) (A) (A) (A) (A) (A)
                 (A) (A) (A) (A) (A) (A) (A) (A) (A) (A) (A) (A)
                 (A) (A) (A) (A) (A) (A) (A) (A) (A) (A) (A) (A)
                 (A) (A) (A) (A) (A) (A) (A) (A) (A) (A) (A) (A)
                 (A) (A) (A) (A) (A) (A) (A) (A) (A) (A) (A) (A)
                 (A) (A) (A) (A) (A) (A) (A) (A) (A) (A) (A) (A)
                 (A) (A) (A) (A) (A) (A) (A) (A) (A) (A) (A) (A)
                 (A) (A) (A) (A) (A) (A) (A) (A) (A) (A) (A) (A)
                 (A) (A) (A) (A) (A) (A) (A) (A) (A) (A) (A) (A)
                 (A) (A) (A) (A) (A) (A) (A) (A) (A) (A) (A) (A)
                 (A) (A) (A) (A) (A) (A) (A) (A) (A) (A) (A) (A)
                 (A) (A) (A) (A) (A) (A) (A) (A) (A) (A) (A) (A)
                 (A) (A) (A) (A) (A) (A) (A) (A) (A) (A) (A) (A)
                 (A) (A) (A) (A) (A) (A) (A) (A) (A) (A) (A) (A)
                 (A) (A) (A) (A) (A) (A) (A) (A) (A) (A) (A) (A)
                 (A) (A) (A) (A) (A) (A) (A) (A) (A) (A) (A) (A)
                 (A) (A) (A) (A) (A) (A) (A) (A) (A) (A) (A) (A)
                 (A) (A) (A) (A) (A) (A) (A) (A) (A) (A) (A) (A)
                 (A) (A) (A) (A) (A) (A) (A) (A) (A) (A) (A) (A)
                 (A) (A) (A) (A) (A) (A) (A) (A) (A) (A) (A) (A)
                 (A) (A) (A) (A) (A) (A) (A) (A) (A) (A) (A) (A)
                 (A) (A) (A) (A) (A) (A) (A) (A) (A) (A) (A) (A)
                 (A) (A) (A) (A) (A) (A) (A) (A) (A) (A) (A) (A)
                 (A) (A) (A) (A) (A) (A) (A) (A) (A) (A) (A) (A)
                 (A) (A) (A) (A) (A) (A) (A) (A) (A) (A) (A) (A)
                 (A) (A) (A) (A) (A) (A) (A) (A) (A) (A) (A) (A)
                 (A) (A) (A) (A) (A) (A) (A) (A) (A) (A) (A) (A)
                 (A) (A) (A) (A) (A) (A) (A) (A) (A) (A) (A) (A)
                 (A) (A) (A) (A) (A) (A) (A) (A) (A) (A) (A) (A)
                 (A) (A) (A) (A) (A) (A) (A) (A) (A) (A) (A) (A)
                 (A) (A) (A) (A) (A) (A) (A) (A) (A) (A) (A) (A)
                 (A) (A) (A) (A) (A) (A) (A) (A) (A) (A) (A) (A)
                 (A) (A) (A) (A) (A) (A) (A) (A) (A) (A) (A) (A)
                 (A) (A) (A) (A) (A) (A) (A) (A) (A) (A) (A) (A)
                 (A) (A) (A) (A) (A) (A) (A) (A) (A) (A) (A) (A)
                 (A) (A) (A) (A) (A) (A) (A) (A) (A) (A) (A) (A)
                 (A) (A) (A) (A) (A) (A) (A) (A) (A) (A) (A) (A)
                 (A) (A) (A) (A) (A) (A) (A) (A) (A) (A) (A) (A)
                 (A) (A) (A)
 The electronic state is 1-A.
 Alpha  occ. eigenvalues -- -145.40860 -19.22933 -19.15393 -19.14731 -19.14564
 Alpha  occ. eigenvalues --  -19.13072 -19.12747 -19.12233 -19.11545 -19.10612
 Alpha  occ. eigenvalues --  -19.10437 -19.09642 -19.08539 -19.08033 -19.07395
 Alpha  occ. eigenvalues --  -19.07184 -19.06492 -19.05975 -19.05148 -19.04771
 Alpha  occ. eigenvalues --  -19.04411 -19.03904 -19.03851 -19.03026 -15.46563
 Alpha  occ. eigenvalues --  -14.57764 -14.40902 -14.39038 -14.38866 -14.37502
 Alpha  occ. eigenvalues --  -14.36729 -14.36139 -14.34354 -14.33198 -14.33190
 Alpha  occ. eigenvalues --  -14.32302 -14.31611 -14.30330 -14.29233 -14.29103
 Alpha  occ. eigenvalues --  -12.60192 -12.60149 -12.60117 -10.33383 -10.33209
 Alpha  occ. eigenvalues --  -10.32161 -10.31093 -10.30477 -10.30080 -10.29407
 Alpha  occ. eigenvalues --  -10.28513 -10.27591 -10.27324 -10.27186 -10.26997
 Alpha  occ. eigenvalues --  -10.26303 -10.26139 -10.25621 -10.25301 -10.25208
 Alpha  occ. eigenvalues --  -10.24532 -10.24456 -10.24098 -10.23659 -10.23647
 Alpha  occ. eigenvalues --  -10.23361 -10.23280 -10.23220 -10.22935 -10.22807
 Alpha  occ. eigenvalues --  -10.22517 -10.22063 -10.21764 -10.21608 -10.21250
 Alpha  occ. eigenvalues --  -10.20908 -10.20620 -10.20304 -10.20212 -10.19931
 Alpha  occ. eigenvalues --  -10.19647 -10.19259 -10.19206 -10.19139 -10.18812
 Alpha  occ. eigenvalues --  -10.18614 -10.17950 -10.17932 -10.17760 -10.17643
 Alpha  occ. eigenvalues --  -10.17576 -10.17405 -10.17161 -10.16984 -10.16652
 Alpha  occ. eigenvalues --  -10.16059 -10.15191  -1.83320  -1.13054  -1.10951
 Alpha  occ. eigenvalues --   -1.10837  -1.10545  -1.08668  -1.08262  -1.06886
 Alpha  occ. eigenvalues --   -1.06659  -1.05434  -1.05012  -1.03746  -1.03296
 Alpha  occ. eigenvalues --   -1.03240  -1.02965  -1.01755  -1.00668  -1.00578
 Alpha  occ. eigenvalues --   -0.99719  -0.99525  -0.99244  -0.98535  -0.98138
 Alpha  occ. eigenvalues --   -0.97722  -0.97313  -0.96342  -0.95488  -0.95131
 Alpha  occ. eigenvalues --   -0.94746  -0.93601  -0.93346  -0.92758  -0.91007
 Alpha  occ. eigenvalues --   -0.90723  -0.90051  -0.89714  -0.89547  -0.89527
 Alpha  occ. eigenvalues --   -0.89058  -0.87602  -0.87328  -0.86649  -0.85702
 Alpha  occ. eigenvalues --   -0.83463  -0.83048  -0.82670  -0.81094  -0.80454
 Alpha  occ. eigenvalues --   -0.79516  -0.78579  -0.77596  -0.76730  -0.76244
 Alpha  occ. eigenvalues --   -0.75184  -0.74699  -0.74252  -0.74028  -0.72924
 Alpha  occ. eigenvalues --   -0.72462  -0.72335  -0.71759  -0.70674  -0.70346
 Alpha  occ. eigenvalues --   -0.70049  -0.69544  -0.69485  -0.68305  -0.67984
 Alpha  occ. eigenvalues --   -0.67717  -0.66973  -0.65758  -0.65452  -0.64355
 Alpha  occ. eigenvalues --   -0.64276  -0.63735  -0.63300  -0.63162  -0.62369
 Alpha  occ. eigenvalues --   -0.62269  -0.61820  -0.61224  -0.60809  -0.60576
 Alpha  occ. eigenvalues --   -0.60511  -0.59895  -0.59381  -0.58875  -0.58787
 Alpha  occ. eigenvalues --   -0.58040  -0.57440  -0.57152  -0.57071  -0.56957
 Alpha  occ. eigenvalues --   -0.56729  -0.56533  -0.56076  -0.55626  -0.55594
 Alpha  occ. eigenvalues --   -0.54886  -0.54483  -0.54090  -0.53752  -0.53671
 Alpha  occ. eigenvalues --   -0.53571  -0.53295  -0.53081  -0.52368  -0.51894
 Alpha  occ. eigenvalues --   -0.51735  -0.51687  -0.51325  -0.50667  -0.50544
 Alpha  occ. eigenvalues --   -0.49817  -0.49710  -0.49507  -0.49312  -0.49147
 Alpha  occ. eigenvalues --   -0.48885  -0.48774  -0.48394  -0.48204  -0.48005
 Alpha  occ. eigenvalues --   -0.47731  -0.47455  -0.47342  -0.47195  -0.46997
 Alpha  occ. eigenvalues --   -0.46945  -0.46889  -0.46410  -0.46133  -0.46065
 Alpha  occ. eigenvalues --   -0.45935  -0.45663  -0.45559  -0.45481  -0.45300
 Alpha  occ. eigenvalues --   -0.45148  -0.44921  -0.44666  -0.44449  -0.44315
 Alpha  occ. eigenvalues --   -0.44235  -0.44042  -0.43617  -0.43542  -0.43439
 Alpha  occ. eigenvalues --   -0.43310  -0.43113  -0.42993  -0.42925  -0.42823
 Alpha  occ. eigenvalues --   -0.42646  -0.42396  -0.42193  -0.41931  -0.41725
 Alpha  occ. eigenvalues --   -0.41628  -0.41352  -0.41295  -0.41046  -0.40960
 Alpha  occ. eigenvalues --   -0.40897  -0.40894  -0.40678  -0.40540  -0.40414
 Alpha  occ. eigenvalues --   -0.40260  -0.40202  -0.40084  -0.40021  -0.39729
 Alpha  occ. eigenvalues --   -0.39632  -0.39512  -0.39435  -0.39344  -0.39269
 Alpha  occ. eigenvalues --   -0.39097  -0.38938  -0.38726  -0.38647  -0.38577
 Alpha  occ. eigenvalues --   -0.38501  -0.38335  -0.37911  -0.37820  -0.37775
 Alpha  occ. eigenvalues --   -0.37704  -0.37546  -0.37450  -0.36904  -0.36870
 Alpha  occ. eigenvalues --   -0.36628  -0.36488  -0.36443  -0.36220  -0.36149
 Alpha  occ. eigenvalues --   -0.36018  -0.35821  -0.35582  -0.35377  -0.35296
 Alpha  occ. eigenvalues --   -0.35053  -0.34782  -0.34421  -0.34240  -0.34109
 Alpha  occ. eigenvalues --   -0.34062  -0.33835  -0.33768  -0.33157  -0.32947
 Alpha  occ. eigenvalues --   -0.32854  -0.32828  -0.32416  -0.32209  -0.31945
 Alpha  occ. eigenvalues --   -0.31799  -0.31516  -0.31382  -0.31250  -0.30879
 Alpha  occ. eigenvalues --   -0.30152  -0.30104  -0.29878  -0.29832  -0.29355
 Alpha  occ. eigenvalues --   -0.28908  -0.28649  -0.27829  -0.27702  -0.27642
 Alpha  occ. eigenvalues --   -0.27120  -0.26352  -0.26158  -0.25991  -0.25464
 Alpha  occ. eigenvalues --   -0.25218  -0.24900  -0.24488  -0.24068  -0.23918
 Alpha  occ. eigenvalues --   -0.23562  -0.23499  -0.23280  -0.23211  -0.22986
 Alpha  occ. eigenvalues --   -0.22831  -0.22430  -0.22243  -0.21904  -0.21845
 Alpha  occ. eigenvalues --   -0.21706  -0.20396  -0.20219  -0.19803  -0.19737
 Alpha  occ. eigenvalues --   -0.19094  -0.19006  -0.18630
 Alpha virt. eigenvalues --   -0.09374  -0.05592  -0.03863  -0.03325  -0.03037
 Alpha virt. eigenvalues --   -0.02074  -0.01980  -0.01208  -0.00656  -0.00256
 Alpha virt. eigenvalues --    0.00253   0.00580   0.00710   0.00902   0.01445
 Alpha virt. eigenvalues --    0.02126   0.02612   0.03100   0.03243   0.03439
 Alpha virt. eigenvalues --    0.03506   0.03653   0.04072   0.04176   0.04304
 Alpha virt. eigenvalues --    0.04606   0.04814   0.04933   0.05305   0.05576
 Alpha virt. eigenvalues --    0.05898   0.06110   0.06284   0.06330   0.06344
 Alpha virt. eigenvalues --    0.06691   0.06996   0.07178   0.07260   0.07561
 Alpha virt. eigenvalues --    0.07657   0.08033   0.08058   0.08407   0.08634
 Alpha virt. eigenvalues --    0.08699   0.08999   0.09091   0.09267   0.09535
 Alpha virt. eigenvalues --    0.09802   0.09942   0.10434   0.10536   0.10663
 Alpha virt. eigenvalues --    0.10732   0.10988   0.11199   0.11516   0.11745
 Alpha virt. eigenvalues --    0.11783   0.12053   0.12195   0.12263   0.12460
 Alpha virt. eigenvalues --    0.12674   0.12781   0.12945   0.13070   0.13304
 Alpha virt. eigenvalues --    0.13418   0.13603   0.13927   0.13985   0.14074
 Alpha virt. eigenvalues --    0.14379   0.14627   0.14792   0.14924   0.14965
 Alpha virt. eigenvalues --    0.15188   0.15411   0.15464   0.15567   0.15883
 Alpha virt. eigenvalues --    0.15934   0.16090   0.16266   0.16396   0.16666
 Alpha virt. eigenvalues --    0.16817   0.17023   0.17191   0.17518   0.17571
 Alpha virt. eigenvalues --    0.17745   0.18096   0.18299   0.18324   0.18473
 Alpha virt. eigenvalues --    0.18606   0.18797   0.18930   0.18973   0.19175
 Alpha virt. eigenvalues --    0.19376   0.19536   0.19863   0.19916   0.20128
 Alpha virt. eigenvalues --    0.20517   0.20636   0.20846   0.20998   0.21100
 Alpha virt. eigenvalues --    0.21287   0.21722   0.21801   0.21988   0.22156
 Alpha virt. eigenvalues --    0.22414   0.22552   0.23025   0.23080   0.23198
 Alpha virt. eigenvalues --    0.23506   0.23648   0.23905   0.24052   0.24228
 Alpha virt. eigenvalues --    0.24438   0.24630   0.24887   0.25188   0.25459
 Alpha virt. eigenvalues --    0.25511   0.25618   0.25952   0.26081   0.26204
 Alpha virt. eigenvalues --    0.26356   0.26616   0.26790   0.26874   0.27310
 Alpha virt. eigenvalues --    0.27877   0.28218   0.28278   0.28745   0.28861
 Alpha virt. eigenvalues --    0.29043   0.29359   0.29429   0.29782   0.30119
 Alpha virt. eigenvalues --    0.30233   0.30586   0.30762   0.30972   0.31263
 Alpha virt. eigenvalues --    0.31442   0.31608   0.31729   0.31941   0.32246
 Alpha virt. eigenvalues --    0.32517   0.32898   0.32934   0.33095   0.33510
 Alpha virt. eigenvalues --    0.33893   0.34229   0.34637   0.34795   0.35144
 Alpha virt. eigenvalues --    0.35438   0.35541   0.35855   0.36229   0.36550
 Alpha virt. eigenvalues --    0.36753   0.37042   0.37258   0.37607   0.37750
 Alpha virt. eigenvalues --    0.37807   0.38017   0.38221   0.38974   0.39070
 Alpha virt. eigenvalues --    0.39316   0.39497   0.39617   0.39773   0.40375
 Alpha virt. eigenvalues --    0.40456   0.40921   0.41095   0.41287   0.41767
 Alpha virt. eigenvalues --    0.41985   0.42419   0.42539   0.42688   0.42871
 Alpha virt. eigenvalues --    0.42999   0.43300   0.43444   0.43861   0.44150
 Alpha virt. eigenvalues --    0.44230   0.44437   0.44725   0.44855   0.45166
 Alpha virt. eigenvalues --    0.45310   0.45589   0.45678   0.45886   0.46066
 Alpha virt. eigenvalues --    0.46144   0.46463   0.46590   0.46724   0.46979
 Alpha virt. eigenvalues --    0.47208   0.47512   0.47624   0.47762   0.47942
 Alpha virt. eigenvalues --    0.48119   0.48234   0.48513   0.48608   0.48704
 Alpha virt. eigenvalues --    0.48808   0.49031   0.49247   0.49545   0.49888
 Alpha virt. eigenvalues --    0.50084   0.50253   0.50621   0.50824   0.50918
 Alpha virt. eigenvalues --    0.51062   0.51396   0.51498   0.51959   0.52006
 Alpha virt. eigenvalues --    0.52239   0.52380   0.52701   0.52821   0.53013
 Alpha virt. eigenvalues --    0.53218   0.53495   0.53774   0.53956   0.54082
 Alpha virt. eigenvalues --    0.54298   0.54482   0.54543   0.54743   0.54961
 Alpha virt. eigenvalues --    0.55161   0.55181   0.55377   0.55575   0.55823
 Alpha virt. eigenvalues --    0.55914   0.56010   0.56220   0.56335   0.56384
 Alpha virt. eigenvalues --    0.56571   0.56838   0.56989   0.57069   0.57250
 Alpha virt. eigenvalues --    0.57437   0.57750   0.57839   0.58115   0.58243
 Alpha virt. eigenvalues --    0.58337   0.58516   0.58587   0.58683   0.58772
 Alpha virt. eigenvalues --    0.59045   0.59202   0.59535   0.59619   0.59771
 Alpha virt. eigenvalues --    0.59931   0.60198   0.60321   0.60540   0.60660
 Alpha virt. eigenvalues --    0.60805   0.61017   0.61243   0.61345   0.61551
 Alpha virt. eigenvalues --    0.61625   0.61696   0.61842   0.61933   0.61986
 Alpha virt. eigenvalues --    0.62142   0.62350   0.62487   0.62666   0.62781
 Alpha virt. eigenvalues --    0.62860   0.62945   0.63070   0.63245   0.63479
 Alpha virt. eigenvalues --    0.63557   0.63706   0.63797   0.63913   0.64211
 Alpha virt. eigenvalues --    0.64333   0.64421   0.64528   0.64633   0.64770
 Alpha virt. eigenvalues --    0.64879   0.64943   0.65117   0.65225   0.65263
 Alpha virt. eigenvalues --    0.65332   0.65467   0.65631   0.65734   0.65813
 Alpha virt. eigenvalues --    0.65972   0.66056   0.66258   0.66335   0.66409
 Alpha virt. eigenvalues --    0.66522   0.66646   0.66820   0.66979   0.67101
 Alpha virt. eigenvalues --    0.67233   0.67289   0.67416   0.67548   0.67703
 Alpha virt. eigenvalues --    0.67735   0.67904   0.68116   0.68134   0.68302
 Alpha virt. eigenvalues --    0.68431   0.68521   0.68708   0.68777   0.68847
 Alpha virt. eigenvalues --    0.69012   0.69079   0.69194   0.69312   0.69386
 Alpha virt. eigenvalues --    0.69693   0.69733   0.69763   0.69941   0.70048
 Alpha virt. eigenvalues --    0.70156   0.70435   0.70537   0.70808   0.70896
 Alpha virt. eigenvalues --    0.71061   0.71202   0.71228   0.71353   0.71562
 Alpha virt. eigenvalues --    0.71811   0.71887   0.71926   0.71988   0.72292
 Alpha virt. eigenvalues --    0.72522   0.72600   0.72821   0.72914   0.72934
 Alpha virt. eigenvalues --    0.73135   0.73288   0.73421   0.73733   0.73945
 Alpha virt. eigenvalues --    0.74049   0.74147   0.74446   0.74660   0.74708
 Alpha virt. eigenvalues --    0.74887   0.75085   0.75269   0.75473   0.75588
 Alpha virt. eigenvalues --    0.75628   0.75880   0.76217   0.76259   0.76578
 Alpha virt. eigenvalues --    0.76674   0.77113   0.77164   0.77555   0.77697
 Alpha virt. eigenvalues --    0.77831   0.78077   0.78447   0.78690   0.78798
 Alpha virt. eigenvalues --    0.78995   0.79306   0.79638   0.79705   0.80054
 Alpha virt. eigenvalues --    0.80447   0.80835   0.80977   0.81151   0.81328
 Alpha virt. eigenvalues --    0.81747   0.82120   0.82451   0.82619   0.82699
 Alpha virt. eigenvalues --    0.83004   0.83153   0.83233   0.83602   0.83949
 Alpha virt. eigenvalues --    0.84172   0.84358   0.84747   0.85023   0.85119
 Alpha virt. eigenvalues --    0.85209   0.85360   0.85984   0.86246   0.86899
 Alpha virt. eigenvalues --    0.87175   0.87279   0.87577   0.87584   0.87856
 Alpha virt. eigenvalues --    0.88224   0.88466   0.88704   0.88915   0.89429
 Alpha virt. eigenvalues --    0.89544   0.89900   0.90113   0.90264   0.90734
 Alpha virt. eigenvalues --    0.90969   0.91149   0.91267   0.91705   0.92297
 Alpha virt. eigenvalues --    0.92526   0.92740   0.92921   0.93218   0.93402
 Alpha virt. eigenvalues --    0.93843   0.94173   0.94384   0.94703   0.95004
 Alpha virt. eigenvalues --    0.95389   0.95458   0.95534   0.96111   0.96342
 Alpha virt. eigenvalues --    0.96788   0.96941   0.97214   0.97531   0.97733
 Alpha virt. eigenvalues --    0.98292   0.98577   0.98864   0.99214   0.99571
 Alpha virt. eigenvalues --    0.99697   0.99963   1.00246   1.00475   1.00993
 Alpha virt. eigenvalues --    1.01133   1.01416   1.01589   1.01837   1.02335
 Alpha virt. eigenvalues --    1.02477   1.03120   1.03177   1.03748   1.04208
 Alpha virt. eigenvalues --    1.04373   1.04767   1.05247   1.05348   1.05425
 Alpha virt. eigenvalues --    1.05827   1.05967   1.06184   1.06445   1.06744
 Alpha virt. eigenvalues --    1.06930   1.07118   1.07336   1.08063   1.08430
 Alpha virt. eigenvalues --    1.08537   1.08850   1.09274   1.09671   1.09968
 Alpha virt. eigenvalues --    1.10109   1.10272   1.10484   1.11121   1.11262
 Alpha virt. eigenvalues --    1.11434   1.11741   1.12164   1.12478   1.12720
 Alpha virt. eigenvalues --    1.12939   1.13241   1.13342   1.13586   1.13906
 Alpha virt. eigenvalues --    1.14092   1.14551   1.14703   1.15095   1.15371
 Alpha virt. eigenvalues --    1.15931   1.16103   1.16601   1.16797   1.16897
 Alpha virt. eigenvalues --    1.17338   1.17406   1.17914   1.18259   1.18359
 Alpha virt. eigenvalues --    1.18542   1.18715   1.18953   1.19249   1.19690
 Alpha virt. eigenvalues --    1.19866   1.20071   1.20315   1.20435   1.20844
 Alpha virt. eigenvalues --    1.21014   1.21384   1.21984   1.22045   1.22408
 Alpha virt. eigenvalues --    1.22629   1.22741   1.23159   1.23199   1.23469
 Alpha virt. eigenvalues --    1.23561   1.23695   1.24190   1.24362   1.24709
 Alpha virt. eigenvalues --    1.24972   1.24985   1.25257   1.25627   1.25913
 Alpha virt. eigenvalues --    1.26299   1.26469   1.26562   1.26995   1.27149
 Alpha virt. eigenvalues --    1.27353   1.27654   1.28219   1.28299   1.28628
 Alpha virt. eigenvalues --    1.28840   1.28989   1.29105   1.29474   1.29676
 Alpha virt. eigenvalues --    1.29936   1.30233   1.30690   1.31002   1.31091
 Alpha virt. eigenvalues --    1.31239   1.31445   1.31562   1.32059   1.32513
 Alpha virt. eigenvalues --    1.32722   1.33137   1.33450   1.33520   1.33995
 Alpha virt. eigenvalues --    1.34555   1.35130   1.35247   1.35322   1.35392
 Alpha virt. eigenvalues --    1.35701   1.35992   1.36216   1.36469   1.36583
 Alpha virt. eigenvalues --    1.36634   1.36724   1.37411   1.37624   1.37956
 Alpha virt. eigenvalues --    1.38205   1.38375   1.38864   1.39000   1.39486
 Alpha virt. eigenvalues --    1.39639   1.39764   1.39878   1.40227   1.40399
 Alpha virt. eigenvalues --    1.40721   1.40796   1.41246   1.41451   1.41870
 Alpha virt. eigenvalues --    1.42137   1.42371   1.42894   1.43248   1.43398
 Alpha virt. eigenvalues --    1.43901   1.44091   1.44394   1.44783   1.44897
 Alpha virt. eigenvalues --    1.45190   1.45740   1.46235   1.46409   1.46782
 Alpha virt. eigenvalues --    1.46909   1.47162   1.47391   1.47592   1.47815
 Alpha virt. eigenvalues --    1.47973   1.48448   1.48706   1.49022   1.49359
 Alpha virt. eigenvalues --    1.49450   1.49719   1.49854   1.50267   1.50446
 Alpha virt. eigenvalues --    1.50895   1.51137   1.51250   1.51759   1.51897
 Alpha virt. eigenvalues --    1.51996   1.52547   1.52705   1.52854   1.53439
 Alpha virt. eigenvalues --    1.53874   1.54285   1.54502   1.54628   1.55047
 Alpha virt. eigenvalues --    1.55335   1.55626   1.56028   1.56616   1.56723
 Alpha virt. eigenvalues --    1.57143   1.57310   1.57482   1.57692   1.58157
 Alpha virt. eigenvalues --    1.58298   1.58976   1.59491   1.59634   1.59894
 Alpha virt. eigenvalues --    1.60109   1.60748   1.61488   1.61734   1.62210
 Alpha virt. eigenvalues --    1.62318   1.62724   1.63106   1.63158   1.63729
 Alpha virt. eigenvalues --    1.63915   1.64235   1.64563   1.64910   1.65129
 Alpha virt. eigenvalues --    1.65397   1.65486   1.66017   1.66440   1.66737
 Alpha virt. eigenvalues --    1.66913   1.67762   1.67920   1.68036   1.68445
 Alpha virt. eigenvalues --    1.68605   1.68959   1.69436   1.69447   1.69492
 Alpha virt. eigenvalues --    1.69594   1.69904   1.70031   1.70364   1.70672
 Alpha virt. eigenvalues --    1.70837   1.71114   1.71390   1.71602   1.71658
 Alpha virt. eigenvalues --    1.71858   1.72149   1.72541   1.72577   1.72649
 Alpha virt. eigenvalues --    1.72816   1.72963   1.73088   1.73420   1.73554
 Alpha virt. eigenvalues --    1.73926   1.74415   1.74541   1.74764   1.74984
 Alpha virt. eigenvalues --    1.75233   1.75295   1.75679   1.75803   1.75880
 Alpha virt. eigenvalues --    1.76207   1.76462   1.76561   1.76800   1.76921
 Alpha virt. eigenvalues --    1.76988   1.77074   1.77314   1.77434   1.77595
 Alpha virt. eigenvalues --    1.77815   1.77945   1.78007   1.78273   1.78419
 Alpha virt. eigenvalues --    1.78511   1.78642   1.78815   1.78930   1.79173
 Alpha virt. eigenvalues --    1.79278   1.79423   1.79525   1.79786   1.80046
 Alpha virt. eigenvalues --    1.80321   1.80401   1.80732   1.80841   1.80993
 Alpha virt. eigenvalues --    1.81051   1.81267   1.81587   1.81659   1.81722
 Alpha virt. eigenvalues --    1.81778   1.81839   1.82010   1.82299   1.82575
 Alpha virt. eigenvalues --    1.82721   1.82827   1.83049   1.83422   1.83517
 Alpha virt. eigenvalues --    1.83732   1.84005   1.84211   1.84569   1.84769
 Alpha virt. eigenvalues --    1.84937   1.85035   1.85366   1.85450   1.85735
 Alpha virt. eigenvalues --    1.85974   1.86103   1.86319   1.86493   1.86871
 Alpha virt. eigenvalues --    1.87119   1.87227   1.87322   1.87652   1.87802
 Alpha virt. eigenvalues --    1.87967   1.88220   1.88491   1.88541   1.88704
 Alpha virt. eigenvalues --    1.88937   1.89240   1.89700   1.89758   1.89939
 Alpha virt. eigenvalues --    1.90081   1.90364   1.90425   1.90545   1.90682
 Alpha virt. eigenvalues --    1.91004   1.91080   1.91199   1.91329   1.91453
 Alpha virt. eigenvalues --    1.91863   1.91919   1.92345   1.92437   1.92491
 Alpha virt. eigenvalues --    1.92755   1.92887   1.93046   1.93228   1.93538
 Alpha virt. eigenvalues --    1.93666   1.93691   1.94309   1.94456   1.94772
 Alpha virt. eigenvalues --    1.95137   1.95237   1.95525   1.95718   1.95930
 Alpha virt. eigenvalues --    1.96095   1.96307   1.96809   1.96881   1.96988
 Alpha virt. eigenvalues --    1.97215   1.97330   1.97755   1.97854   1.98232
 Alpha virt. eigenvalues --    1.98379   1.98609   1.98867   1.98913   1.99390
 Alpha virt. eigenvalues --    1.99605   1.99800   1.99970   2.00198   2.00440
 Alpha virt. eigenvalues --    2.00550   2.00784   2.01059   2.01653   2.01863
 Alpha virt. eigenvalues --    2.01883   2.02089   2.02500   2.02874   2.03020
 Alpha virt. eigenvalues --    2.03278   2.03635   2.03808   2.04107   2.04475
 Alpha virt. eigenvalues --    2.04660   2.04694   2.04932   2.05151   2.05352
 Alpha virt. eigenvalues --    2.05970   2.06321   2.06848   2.07013   2.07164
 Alpha virt. eigenvalues --    2.07482   2.07644   2.07860   2.08359   2.08699
 Alpha virt. eigenvalues --    2.08862   2.08937   2.09004   2.09395   2.09698
 Alpha virt. eigenvalues --    2.10047   2.10359   2.10410   2.10768   2.10875
 Alpha virt. eigenvalues --    2.11195   2.11592   2.11640   2.12093   2.12554
 Alpha virt. eigenvalues --    2.12859   2.13234   2.13306   2.13776   2.14031
 Alpha virt. eigenvalues --    2.14292   2.14451   2.14676   2.15022   2.15135
 Alpha virt. eigenvalues --    2.15429   2.15839   2.16116   2.16501   2.16600
 Alpha virt. eigenvalues --    2.16618   2.17058   2.17180   2.17317   2.17506
 Alpha virt. eigenvalues --    2.17563   2.17751   2.18120   2.18232   2.18712
 Alpha virt. eigenvalues --    2.18865   2.18891   2.19214   2.19247   2.20383
 Alpha virt. eigenvalues --    2.20639   2.20893   2.21283   2.21444   2.21817
 Alpha virt. eigenvalues --    2.21909   2.22208   2.22571   2.22694   2.23178
 Alpha virt. eigenvalues --    2.23514   2.24065   2.24370   2.24934   2.25043
 Alpha virt. eigenvalues --    2.25660   2.25783   2.26298   2.26415   2.26701
 Alpha virt. eigenvalues --    2.27207   2.27450   2.28224   2.28307   2.28623
 Alpha virt. eigenvalues --    2.28882   2.29083   2.29205   2.29418   2.29743
 Alpha virt. eigenvalues --    2.30922   2.31991   2.32243   2.32523   2.32671
 Alpha virt. eigenvalues --    2.32736   2.33010   2.33265   2.33567   2.33884
 Alpha virt. eigenvalues --    2.34098   2.34609   2.34714   2.35042   2.35164
 Alpha virt. eigenvalues --    2.35443   2.35910   2.36275   2.36741   2.36870
 Alpha virt. eigenvalues --    2.37353   2.37508   2.38021   2.38090   2.38463
 Alpha virt. eigenvalues --    2.39043   2.39497   2.40036   2.40193   2.40350
 Alpha virt. eigenvalues --    2.40699   2.40916   2.41083   2.41363   2.41786
 Alpha virt. eigenvalues --    2.41932   2.42616   2.42965   2.43186   2.43372
 Alpha virt. eigenvalues --    2.43665   2.43931   2.44193   2.44403   2.44587
 Alpha virt. eigenvalues --    2.45144   2.45769   2.46167   2.46220   2.46557
 Alpha virt. eigenvalues --    2.46885   2.47240   2.47669   2.48233   2.48579
 Alpha virt. eigenvalues --    2.48618   2.49150   2.49422   2.49728   2.50177
 Alpha virt. eigenvalues --    2.50527   2.50766   2.50941   2.51550   2.51591
 Alpha virt. eigenvalues --    2.51928   2.52252   2.52837   2.53085   2.53647
 Alpha virt. eigenvalues --    2.53740   2.54008   2.54248   2.54645   2.54845
 Alpha virt. eigenvalues --    2.55312   2.55332   2.55728   2.56113   2.56726
 Alpha virt. eigenvalues --    2.57341   2.57389   2.57831   2.57983   2.58281
 Alpha virt. eigenvalues --    2.58614   2.58721   2.59147   2.59647   2.59844
 Alpha virt. eigenvalues --    2.60002   2.60092   2.60653   2.60948   2.61181
 Alpha virt. eigenvalues --    2.61425   2.61753   2.62205   2.62586   2.62718
 Alpha virt. eigenvalues --    2.63079   2.63459   2.63744   2.64058   2.64162
 Alpha virt. eigenvalues --    2.64767   2.64948   2.65312   2.65549   2.66115
 Alpha virt. eigenvalues --    2.66355   2.66448   2.66781   2.66867   2.67162
 Alpha virt. eigenvalues --    2.67839   2.67908   2.68152   2.68302   2.68652
 Alpha virt. eigenvalues --    2.68874   2.69224   2.69685   2.70040   2.70473
 Alpha virt. eigenvalues --    2.70749   2.70922   2.71085   2.71360   2.71497
 Alpha virt. eigenvalues --    2.71594   2.71919   2.72198   2.72805   2.73112
 Alpha virt. eigenvalues --    2.73338   2.73599   2.74013   2.74372   2.74646
 Alpha virt. eigenvalues --    2.74855   2.75040   2.75106   2.75231   2.75330
 Alpha virt. eigenvalues --    2.75784   2.75955   2.76244   2.76559   2.76877
 Alpha virt. eigenvalues --    2.76900   2.77430   2.77629   2.77848   2.78719
 Alpha virt. eigenvalues --    2.78851   2.79078   2.79272   2.79324   2.79711
 Alpha virt. eigenvalues --    2.79825   2.79909   2.80388   2.80670   2.80816
 Alpha virt. eigenvalues --    2.81333   2.81557   2.81720   2.82058   2.82846
 Alpha virt. eigenvalues --    2.83151   2.83422   2.83534   2.83777   2.84080
 Alpha virt. eigenvalues --    2.84325   2.84449   2.84737   2.85178   2.85274
 Alpha virt. eigenvalues --    2.85691   2.85758   2.86085   2.86520   2.86744
 Alpha virt. eigenvalues --    2.87319   2.87663   2.87847   2.88054   2.88425
 Alpha virt. eigenvalues --    2.89018   2.89463   2.89709   2.90113   2.90213
 Alpha virt. eigenvalues --    2.90416   2.90683   2.91147   2.91293   2.91490
 Alpha virt. eigenvalues --    2.91693   2.91975   2.92093   2.92143   2.92559
 Alpha virt. eigenvalues --    2.92864   2.93184   2.93434   2.93856   2.94180
 Alpha virt. eigenvalues --    2.94430   2.95252   2.95632   2.96000   2.96378
 Alpha virt. eigenvalues --    2.96635   2.97172   2.97299   2.97926   2.98537
 Alpha virt. eigenvalues --    2.98873   2.98951   2.99269   2.99453   3.00051
 Alpha virt. eigenvalues --    3.00085   3.00269   3.00509   3.01502   3.01894
 Alpha virt. eigenvalues --    3.02010   3.02596   3.02775   3.02787   3.03013
 Alpha virt. eigenvalues --    3.03280   3.03819   3.03838   3.04168   3.04611
 Alpha virt. eigenvalues --    3.04776   3.04879   3.05930   3.06312   3.07005
 Alpha virt. eigenvalues --    3.07304   3.07473   3.07740   3.09098   3.09302
 Alpha virt. eigenvalues --    3.09437   3.09494   3.09672   3.09926   3.10009
 Alpha virt. eigenvalues --    3.10506   3.10559   3.11854   3.12181   3.13509
 Alpha virt. eigenvalues --    3.14194   3.14555   3.14773   3.15165   3.15803
 Alpha virt. eigenvalues --    3.16095   3.16367   3.16875   3.17716   3.18055
 Alpha virt. eigenvalues --    3.18143   3.18371   3.18810   3.19067   3.19315
 Alpha virt. eigenvalues --    3.20127   3.20153   3.20267   3.20841   3.21233
 Alpha virt. eigenvalues --    3.21528   3.21986   3.22128   3.22313   3.22701
 Alpha virt. eigenvalues --    3.22843   3.23102   3.23565   3.23812   3.24854
 Alpha virt. eigenvalues --    3.25144   3.25556   3.26206   3.26955   3.28225
 Alpha virt. eigenvalues --    3.28800   3.29243   3.29358   3.29450   3.29883
 Alpha virt. eigenvalues --    3.30226   3.31712   3.32695   3.33939   3.35894
 Alpha virt. eigenvalues --    3.37069   3.38125   3.39606   3.40809   3.41649
 Alpha virt. eigenvalues --    3.42474   3.43287   3.44432   3.46145   3.48110
 Alpha virt. eigenvalues --    3.49534   3.49776   3.51872   3.53991   3.56060
 Alpha virt. eigenvalues --    3.56738   3.57441   3.58386   3.59098   3.59543
 Alpha virt. eigenvalues --    3.60712   3.60848   3.60923   3.61918   3.62973
 Alpha virt. eigenvalues --    3.64345   3.65395   3.66588   3.67260   3.67385
 Alpha virt. eigenvalues --    3.67681   3.68724   3.69096   3.69189   3.69829
 Alpha virt. eigenvalues --    3.70291   3.70722   3.71096   3.71180   3.72040
 Alpha virt. eigenvalues --    3.72182   3.72820   3.73975   3.74301   3.74436
 Alpha virt. eigenvalues --    3.75697   3.81163   3.82150   3.86429
          Condensed to atoms (all electrons):
 Mulliken charges:
               1
     1  C    0.071633
     2  C    0.017917
     3  O   -0.312378
     4  H    0.035737
     5  H    0.023751
     6  H    0.005152
     7  N   -0.116250
     8  C    0.135753
     9  C    0.086605
    10  O   -0.294801
    11  C    0.022959
    12  C    0.189186
    13  O   -0.375640
    14  O   -0.465723
    15  H    0.112000
    16  H   -0.021515
    17  H    0.013218
    18  H    0.007013
    19  N   -0.161923
    20  C    0.117534
    21  C    0.111633
    22  O   -0.294526
    23  C    0.014106
    24  C    0.008105
    25  C   -0.033203
    26  C    0.013357
    27  N    0.088522
    28  H    0.164490
    29  H   -0.014554
    30  H   -0.020338
    31  H    0.001930
    32  H    0.067743
    33  H   -0.045965
    34  H    0.053389
    35  H    0.047613
    36  H    0.080769
    37  H    0.073833
    38  H    0.203023
    39  H    0.198665
    40  H    0.184300
    41  N   -0.135663
    42  C    0.124540
    43  C    0.058119
    44  O   -0.271798
    45  C    0.066274
    46  C    0.088654
    47  O   -0.352099
    48  O   -0.495254
    49  H    0.136539
    50  H    0.016673
    51  H   -0.006928
    52  H    0.033011
    53  N   -0.149297
    54  C    0.231666
    55  C    0.026268
    56  O   -0.287491
    57  H    0.135974
    58  H    0.008469
    59  H    0.028988
    60  N   -0.169804
    61  C    0.161683
    62  C    0.048282
    63  O   -0.286604
    64  C    0.057458
    65  C    0.037129
    66  N   -0.054440
    67  O   -0.311755
    68  H    0.145741
    69  H    0.021283
    70  H    0.062091
    71  H    0.013663
    72  H    0.140493
    73  H    0.091841
    74  N   -0.185660
    75  C    0.207027
    76  C    0.058042
    77  O   -0.303618
    78  H    0.147886
    79  H    0.032702
    80  H    0.024285
    81  N   -0.141373
    82  C    0.112636
    83  C    0.129877
    84  O   -0.324906
    85  C    0.126419
    86  C   -0.026929
    87  C    0.034522
    88  C    0.041171
    89  C    0.021020
    90  C   -0.040137
    91  C    0.134039
    92  O   -0.188060
    93  H    0.151796
    94  H   -0.001829
    95  H   -0.020378
    96  H   -0.075159
    97  H   -0.069496
    98  H   -0.030261
    99  H   -0.022803
   100  H   -0.043010
   101  H    0.177977
   102  N   -0.104403
   103  C    0.144866
   104  C    0.046181
   105  O   -0.307558
   106  C   -0.094404
   107  C    0.074331
   108  C    0.016351
   109  C   -0.032911
   110  H    0.134338
   111  H    0.005136
   112  H   -0.018586
   113  H   -0.004813
   114  H   -0.015908
   115  H   -0.005389
   116  H    0.017347
   117  H    0.035440
   118  H    0.052304
   119  H    0.016780
   120  H    0.025577
   121  N   -0.106601
   122  C    0.043783
   123  C    0.120481
   124  O   -0.277325
   125  C    0.280684
   126  O   -0.348132
   127  H    0.150218
   128  H    0.019290
   129  H   -0.024223
   130  H   -0.036937
   131  H    0.179507
   132  N   -0.130919
   133  C    0.076063
   134  C    0.076561
   135  O   -0.259268
   136  C    0.029470
   137  H    0.128115
   138  H    0.034208
   139  H    0.042635
   140  H    0.041100
   141  H    0.001306
   142  N   -0.138231
   143  C    0.117676
   144  C    0.032155
   145  O   -0.260949
   146  C    0.027711
   147  H    0.107688
   148  H    0.022299
   149  H    0.021636
   150  H    0.027649
   151  H    0.029953
   152  N   -0.155393
   153  C    0.151435
   154  C    0.095615
   155  O   -0.282120
   156  C   -0.058141
   157  C    0.079787
   158  C    0.169763
   159  O   -0.405623
   160  O   -0.439440
   161  H    0.123250
   162  H   -0.035095
   163  H    0.049938
   164  H    0.011147
   165  H   -0.003145
   166  H   -0.028961
   167  N   -0.166307
   168  C    0.128755
   169  H    0.013352
   170  H    0.030800
   171  H    0.030618
   172  H    0.122916
   173  Ca   1.309121
   174  O   -0.267957
   175  H    0.193468
   176  H    0.187331
 Sum of Mulliken charges =   0.00000
 Mulliken charges with hydrogens summed into heavy atoms:
               1
     1  C    0.136273
     2  C    0.017917
     3  O   -0.312378
     7  N   -0.004250
     8  C    0.114238
     9  C    0.086605
    10  O   -0.294801
    11  C    0.043190
    12  C    0.189186
    13  O   -0.375640
    14  O   -0.465723
    19  N    0.002567
    20  C    0.102980
    21  C    0.111633
    22  O   -0.294526
    23  C   -0.004302
    24  C    0.029883
    25  C    0.067799
    26  C    0.167959
    27  N    0.674510
    41  N    0.000876
    42  C    0.141213
    43  C    0.058119
    44  O   -0.271798
    45  C    0.092357
    46  C    0.088654
    47  O   -0.352099
    48  O   -0.495254
    53  N   -0.013323
    54  C    0.269123
    55  C    0.026268
    56  O   -0.287491
    60  N   -0.024063
    61  C    0.182966
    62  C    0.048282
    63  O   -0.286604
    64  C    0.133213
    65  C    0.037129
    66  N    0.177894
    67  O   -0.311755
    74  N   -0.037774
    75  C    0.264014
    76  C    0.058042
    77  O   -0.303618
    81  N    0.010422
    82  C    0.110807
    83  C    0.129877
    84  O   -0.324906
    85  C    0.030881
    86  C   -0.026929
    87  C   -0.034974
    88  C    0.010910
    89  C   -0.001783
    90  C   -0.083147
    91  C    0.134039
    92  O   -0.010083
   102  N    0.029934
   103  C    0.150002
   104  C    0.046181
   105  O   -0.307558
   106  C   -0.112990
   107  C    0.053610
   108  C    0.063750
   109  C    0.061750
   121  N    0.043617
   122  C    0.063073
   123  C    0.120481
   124  O   -0.277325
   125  C    0.219523
   126  O   -0.168625
   132  N   -0.002804
   133  C    0.110272
   134  C    0.076561
   135  O   -0.259268
   136  C    0.114511
   142  N   -0.030543
   143  C    0.139975
   144  C    0.032155
   145  O   -0.260949
   146  C    0.106949
   152  N   -0.032143
   153  C    0.116341
   154  C    0.095615
   155  O   -0.282120
   156  C    0.002944
   157  C    0.047681
   158  C    0.169763
   159  O   -0.405623
   160  O   -0.439440
   167  N   -0.043391
   168  C    0.203524
   173  Ca   1.309121
   174  O    0.112842
 DipInt: DoE/N= T F RetVal/Mat= T F Init=T NMatP=  1 IDeriv=0 Min/MaxMlt=  0  4
 Entering OneElI...
 OneElI was handed  4286741430 working-precision words.
 Multipole integrals L=0 to 4 MinM= 0 MaxM= 0.
 Requested accuracy = 0.1000D-12
 ShPair: Thresh= 1.00D-13 NBox=     0 BxSize= 0.00D+00 RnKept= 2.55D+01
         NSMCal=               327645 NSMKep=              163440
 PrsmSu:  NPrtUS=   1 ThrOK=F IAlg=1 NPAlg=1 LenDen=           0.
 Prism:   IPart=     0 DynPar=F LinDyn=F Incr=         512.
 PRISM was handed  4276549308 working-precision words and163440 shell-pairs
 IPart=  0 NShTot=      163440 NBatch=         458 AvBLen=       356.9
 PrSmSu:  NxtVal=            513.
 Electronic moments (au):
       -716.00000000         12.61742579         -1.61330988         -0.66613321
     -53547.92778531     -28047.02263579     -12490.10222122        110.75435680
        -10.84576451         63.96331487     -32178.11135105     -34740.64324220
     -16430.03926423       9093.67721892     107516.21328965      40305.42079043
     -12057.02370907      -7733.26158686       1798.06936771     -41258.47714140
   -8128565.76527274   -2292094.91147235    -624228.52378318    -266923.23331250
     397394.11939762    -292967.88292890      33695.33297700     -64254.73243035
     -22660.51023637   -2112549.72564613    -672011.75511380    -347465.11254372
    -104463.06287327      -7008.09516433      73654.67132651
 Electronic spatial extent (au):  <R**2>=          94085.0526
 DipInt: DoE/N= F T RetVal/Mat= T F Init=T NMatP=  1 IDeriv=0 Min/MaxMlt=  0  4
 Nuclear    moments (au):
        716.00000000          0.00000000          0.00000000          0.00000000
      53068.30972209      27707.35284456      12101.82138920          0.00000000
          0.00000000          0.00000000      33178.12540754      35378.55336849
      16477.14833588      -7146.98752582    -107319.69032362     -40237.93955580
      12353.89847399       7528.34561212      -1371.33594997      41490.06864464
    7918597.72166329    2208097.11360588     582281.79747359     280275.82099628
    -401082.33776347     313220.81188415     -26371.34763690      64172.97447339
      26086.03501949    2080940.39668363     635804.30025026     325337.71209216
     109041.25279248       7605.89366724     -72572.57464479
 Total      moments (au):
          0.00000000         12.61742579         -1.61330988         -0.66613321
       -479.61806323       -339.66979123       -388.28083201        110.75435680
        -10.84576451         63.96331487       1000.01405649        637.91012630
         47.10907165       1946.68969310        196.52296604         67.48123462
        296.87476492       -204.91597474        426.73341774        231.59150324
    -209968.04360945     -83997.79786647     -41946.72630959      13352.58768378
      -3688.21836585      20252.92895524       7323.98534010        -81.75795696
       3425.52478312     -31609.32896250     -36207.45486354     -22127.40045157
       4578.18991921        597.79850291       1082.09668172
 Traceless Quadrup. (au):
        -77.09516774         62.85310426         14.24206347        110.75435680
        -10.84576451         63.96331487
 Charge=              0.0000 electrons
 Dipole moment (field-independent basis, Debye):
    X=             32.0703    Y=             -4.1006    Z=             -1.6931  Tot=             32.3757
 Quadrupole moment (field-independent basis, Debye-Ang):
   XX=           -645.1027   YY=           -456.8675   ZZ=           -522.2510
   XY=            148.9684   XZ=            -14.5879   YZ=             86.0328
 Traceless Quadrupole moment (field-independent basis, Debye-Ang):
   XX=           -103.6956   YY=             84.5396   ZZ=             19.1561
   XY=            148.9684   XZ=            -14.5879   YZ=             86.0328
 Octapole moment (field-independent basis, Debye-Ang**2):
  XXX=            711.7714  YYY=            454.0398  ZZZ=             33.5304  XYY=           1385.5786
  XXY=            139.8775  XXZ=             48.0305  XZZ=            211.3040  YZZ=           -145.8513
  YYZ=            303.7324  XYZ=            164.8379
 Hexadecapole moment (field-independent basis, Debye-Ang**3):
 XXXX=         -79084.0283 YYYY=         -31637.5964 ZZZZ=         -15799.1475 XXXY=           5029.2245
 XXXZ=          -1389.1598 YYYX=           7628.2237 YYYZ=           2758.5639 ZZZX=            -30.7940
 ZZZY=           1290.2168 XXYY=         -11905.5882 XXZZ=         -13637.4628 YYZZ=          -8334.2395
 XXYZ=           1724.3657 YYXZ=            225.1596 ZZXY=            407.5695
 N-N= 2.180025812307D+04 E-N=-5.607868738393D+04  KE= 5.290388641447D+03
 Leave Link  601 at Mon Sep 16 22:54:51 2019, MaxMem=  4294967296 cpu:        21.9
 FitSet:  NAtFit=   176 NAtPot=   176 NAtFrz=     0 MDM=   180 TotChg=   0.00000
 Merz-Kollman atomic radii used.
 Read replacement radii for each type of atom:
 Rad(20) =   1.700000000000D+00
 Atom Element Radius
    1     6    1.50
    2     6    1.50
    3     8    1.40
    4     1    1.20
    5     1    1.20
    6     1    1.20
    7     7    1.50
    8     6    1.50
    9     6    1.50
   10     8    1.40
   11     6    1.50
   12     6    1.50
   13     8    1.40
   14     8    1.40
   15     1    1.20
   16     1    1.20
   17     1    1.20
   18     1    1.20
   19     7    1.50
   20     6    1.50
   21     6    1.50
   22     8    1.40
   23     6    1.50
   24     6    1.50
   25     6    1.50
   26     6    1.50
   27     7    1.50
   28     1    1.20
   29     1    1.20
   30     1    1.20
   31     1    1.20
   32     1    1.20
   33     1    1.20
   34     1    1.20
   35     1    1.20
   36     1    1.20
   37     1    1.20
   38     1    1.20
   39     1    1.20
   40     1    1.20
   41     7    1.50
   42     6    1.50
   43     6    1.50
   44     8    1.40
   45     6    1.50
   46     6    1.50
   47     8    1.40
   48     8    1.40
   49     1    1.20
   50     1    1.20
   51     1    1.20
   52     1    1.20
   53     7    1.50
   54     6    1.50
   55     6    1.50
   56     8    1.40
   57     1    1.20
   58     1    1.20
   59     1    1.20
   60     7    1.50
   61     6    1.50
   62     6    1.50
   63     8    1.40
   64     6    1.50
   65     6    1.50
   66     7    1.50
   67     8    1.40
   68     1    1.20
   69     1    1.20
   70     1    1.20
   71     1    1.20
   72     1    1.20
   73     1    1.20
   74     7    1.50
   75     6    1.50
   76     6    1.50
   77     8    1.40
   78     1    1.20
   79     1    1.20
   80     1    1.20
   81     7    1.50
   82     6    1.50
   83     6    1.50
   84     8    1.40
   85     6    1.50
   86     6    1.50
   87     6    1.50
   88     6    1.50
   89     6    1.50
   90     6    1.50
   91     6    1.50
   92     8    1.40
   93     1    1.20
   94     1    1.20
   95     1    1.20
   96     1    1.20
   97     1    1.20
   98     1    1.20
   99     1    1.20
  100     1    1.20
  101     1    1.20
  102     7    1.50
  103     6    1.50
  104     6    1.50
  105     8    1.40
  106     6    1.50
  107     6    1.50
  108     6    1.50
  109     6    1.50
  110     1    1.20
  111     1    1.20
  112     1    1.20
  113     1    1.20
  114     1    1.20
  115     1    1.20
  116     1    1.20
  117     1    1.20
  118     1    1.20
  119     1    1.20
  120     1    1.20
  121     7    1.50
  122     6    1.50
  123     6    1.50
  124     8    1.40
  125     6    1.50
  126     8    1.40
  127     1    1.20
  128     1    1.20
  129     1    1.20
  130     1    1.20
  131     1    1.20
  132     7    1.50
  133     6    1.50
  134     6    1.50
  135     8    1.40
  136     6    1.50
  137     1    1.20
  138     1    1.20
  139     1    1.20
  140     1    1.20
  141     1    1.20
  142     7    1.50
  143     6    1.50
  144     6    1.50
  145     8    1.40
  146     6    1.50
  147     1    1.20
  148     1    1.20
  149     1    1.20
  150     1    1.20
  151     1    1.20
  152     7    1.50
  153     6    1.50
  154     6    1.50
  155     8    1.40
  156     6    1.50
  157     6    1.50
  158     6    1.50
  159     8    1.40
  160     8    1.40
  161     1    1.20
  162     1    1.20
  163     1    1.20
  164     1    1.20
  165     1    1.20
  166     1    1.20
  167     7    1.50
  168     6    1.50
  169     1    1.20
  170     1    1.20
  171     1    1.20
  172     1    1.20
  173    20    1.70
  174     8    1.40
  175     1    1.20
  176     1    1.20
 Generate VDW surfaces: Layer= 4 Dens= 6 Start= 1.400 Inc= 0.200

 **********************************************************************

            Electrostatic Properties Using The SCF Density

[...]
 **** Fit       0.005435
 **** Fit       0.014159
 **** Fit      -0.024720
 **** Fit      -0.027607
 **** Fit      -0.026352
 **** Fit      -0.023939
 **** Fit      -0.020373
 **** Fit      -0.015640
 **** Fit      -0.009710
 **** Fit      -0.002560
 **** Fit       0.005778
 **** Fit      -0.027680
 **** Fit      -0.031353
 **** Fit      -0.029752
 **** Fit      -0.026877
 **** Fit      -0.022744
 **** Fit      -0.017359
 **** Fit      -0.010723
 **** Fit      -0.002852
 **** Fit       0.006148
 **** Fit      -0.031674
 **** Fit      -0.034696
 **** Fit      -0.031238
 **** Fit      -0.026401
 **** Fit      -0.020266
 **** Fit      -0.012905
 **** Fit      -0.004420
 **** Fit       0.004974
 **** Fit      -0.023125
 **** Fit      -0.014210
 **** Fit      -0.004400
 **** Fit      -0.003078
 **** Fit       0.026464
 **** Fit       0.026085
 **** Fit       0.015957
 **** Fit       0.024821
 **** Fit       0.019119
 **** Fit       0.018233
 **** Fit       0.023046
 **** Fit       0.021816
 **** Fit       0.020483
 **** Fit       0.019730
 **** Fit       0.020375
 **** Fit       0.021102
 **** Fit       0.020485
 **** Fit       0.020933
 **** Fit       0.017482
 **** Fit       0.016513
 **** Fit       0.019968
 **** Fit       0.021037
 **** Fit       0.025818
 **** Fit       0.022120
 **** Fit       0.023428
 **** Fit       0.028079
 **** Fit       0.022462
 **** Fit       0.024307
 **** Fit       0.028659
 **** Fit       0.034521
 **** Fit       0.027254
 **** Fit       0.013580
 **** Fit       0.010514
 **** Fit       0.007995
 **** Fit       0.012383
 **** Fit       0.010705
 **** Fit       0.016194
 **** Fit       0.016074
 **** Fit       0.022390
 **** Fit       0.026262
 **** Fit       0.024509
 **** Fit       0.023895
 **** Fit       0.022519
 **** Fit       0.021368
 **** Fit       0.020665
 **** Fit       0.020611
 **** Fit       0.020532
 **** Fit       0.021348
 **** Fit       0.020176
 **** Fit       0.019073
 **** Fit       0.019382
 **** Fit       0.029730
 **** Fit       0.033328
 **** Fit       0.027064
 **** Fit       0.029105
 **** Fit       0.031102
 **** Fit       0.032120
 **** Fit       0.031583
 **** Fit       0.026943
 **** Fit       0.027934
 **** Fit       0.028606
 **** Fit       0.028268
 **** Fit       0.026653
 **** Fit       0.024009
 **** Fit       0.014982
 **** Fit       0.026090
 **** Fit       0.026261
 **** Fit       0.025772
 **** Fit       0.024247
 **** Fit       0.021892
 **** Fit       0.019357
 **** Fit       0.017522
 **** Fit       0.024672
 **** Fit       0.023939
 **** Fit       0.022274
 **** Fit       0.020289
 **** Fit       0.022759
 **** Fit      -0.016494
 **** Fit      -0.033190
 **** Fit       0.002125
 **** Fit       0.003413
 **** Fit       0.003678
 **** Fit       0.001603
 **** Fit       0.003251
 **** Fit       0.004360
 **** Fit       0.004736
 **** Fit       0.004532
 **** Fit       0.003990
 **** Fit      -0.000950
 **** Fit       0.001088
 **** Fit       0.005681
 **** Fit       0.005255
 **** Fit       0.004667
 **** Fit       0.003999
 **** Fit      -0.003209
 **** Fit      -0.000673
 **** Fit       0.006556
 **** Fit       0.005986
 **** Fit       0.005314
 **** Fit       0.004579
 **** Fit       0.003827
 **** Fit      -0.007326
 **** Fit      -0.004300
 **** Fit      -0.001375
 **** Fit       0.007219
 **** Fit       0.006537
 **** Fit       0.005803
 **** Fit       0.005024
 **** Fit       0.004219
 **** Fit       0.003413
 **** Fit      -0.013421
 **** Fit      -0.009439
 **** Fit      -0.005687
 **** Fit      -0.002290
 **** Fit       0.007287
 **** Fit       0.006462
 **** Fit       0.005603
 **** Fit       0.004708
 **** Fit       0.003787
 **** Fit       0.002863
 **** Fit       0.001103
 **** Fit      -0.016225
 **** Fit      -0.011325
 **** Fit      -0.007071
 **** Fit       0.008036
 **** Fit       0.007122
 **** Fit       0.006188
 **** Fit       0.005222
 **** Fit       0.004220
 **** Fit       0.003188
 **** Fit       0.002144
 **** Fit       0.000095
 **** Fit      -0.001135
 **** Fit       0.009000
 **** Fit       0.007973
 **** Fit       0.006933
 **** Fit       0.005877
 **** Fit       0.004791
 **** Fit       0.003665
 **** Fit       0.002498
 **** Fit       0.001303
 **** Fit      -0.001063
 **** Fit      -0.002470
 **** Fit      -0.003966
 **** Fit       0.010076
 **** Fit       0.008925
 **** Fit       0.007755
 **** Fit       0.006584
 **** Fit      -0.004014
 **** Fit      -0.005704
 **** Fit      -0.007615
 **** Fit       0.010308
 **** Fit       0.008934
 **** Fit      -0.007848
 **** Fit      -0.010016
 **** Fit      -0.012678
 **** Fit      -0.016255
 **** Fit       0.012757
 **** Fit       0.011107
 **** Fit      -0.012758
 **** Fit      -0.015617
 **** Fit      -0.019393
 **** Fit       0.016005
 **** Fit       0.014256
 **** Fit       0.012036
 **** Fit      -0.016023
 **** Fit      -0.018967
 **** Fit      -0.022761
 **** Fit      -0.020411
 **** Fit      -0.023564
 **** Fit      -0.027601
 **** Fit      -0.025998
 **** Fit      -0.029392
 **** Fit      -0.032629
 **** Fit       0.004618
 **** Fit       0.004531
 **** Fit       0.005688
 **** Fit       0.005684
 **** Fit       0.002787
 **** Fit       0.004505
 **** Fit       0.005934
 **** Fit       0.006743
 **** Fit       0.006922
 **** Fit       0.006574
 **** Fit       0.002556
 **** Fit       0.004513
 **** Fit       0.006074
 **** Fit       0.007131
 **** Fit       0.007742
 **** Fit       0.007950
 **** Fit       0.007794
 **** Fit       0.007345
 **** Fit       0.001030
 **** Fit       0.006871
 **** Fit       0.007851
 **** Fit       0.008506
 **** Fit       0.008851
 **** Fit       0.008885
 **** Fit       0.008629
 **** Fit       0.008138
 **** Fit       0.007500
 **** Fit       0.008875
 **** Fit       0.009479
 **** Fit       0.009791
 **** Fit       0.009803
 **** Fit       0.009529
 **** Fit       0.009016
 **** Fit       0.008343
 **** Fit       0.009776
 **** Fit       0.010406
 **** Fit       0.010729
 **** Fit       0.010746
 **** Fit       0.010469
 **** Fit       0.009935
 **** Fit       0.009218
 **** Fit       0.009993
 **** Fit       0.010958
 **** Fit       0.011552
 **** Fit       0.011792
 **** Fit       0.011674
 **** Fit       0.011218
 **** Fit       0.010481
 **** Fit       0.011363
 **** Fit       0.012293
 **** Fit       0.012836
 **** Fit       0.012968
 **** Fit       0.012676
 **** Fit       0.011992
 **** Fit       0.011005
 **** Fit       0.012514
 **** Fit       0.013614
 **** Fit       0.014261
 **** Fit       0.014388
 **** Fit       0.013968
 **** Fit       0.013047
 **** Fit       0.012621
 **** Fit       0.014419
 **** Fit       0.015660
 **** Fit       0.016193
 **** Fit       0.015929
 **** Fit       0.014885
 **** Fit       0.013757
 **** Fit       0.016373
 **** Fit       0.018020
 **** Fit       0.018491
 **** Fit       0.017664
 **** Fit       0.004476
 **** Fit       0.003209
 **** Fit       0.001949
 **** Fit      -0.000513
 **** Fit      -0.001865
 **** Fit       0.006138
 **** Fit       0.004768
 **** Fit       0.003422
 **** Fit       0.002103
 **** Fit       0.000799
 **** Fit      -0.001963
 **** Fit      -0.003433
 **** Fit      -0.005023
 **** Fit       0.008682
 **** Fit       0.007040
 **** Fit       0.005405
 **** Fit       0.003823
 **** Fit       0.002311
 **** Fit       0.000864
 **** Fit      -0.000548
 **** Fit      -0.003826
 **** Fit      -0.005362
 **** Fit      -0.007031
 **** Fit      -0.008934
 **** Fit       0.010195
 **** Fit       0.008161
 **** Fit       0.006126
 **** Fit       0.004184
 **** Fit       0.002376
 **** Fit       0.000705
 **** Fit      -0.000855
 **** Fit      -0.002347
 **** Fit      -0.006319
 **** Fit      -0.007910
 **** Fit      -0.009646
 **** Fit      -0.011636
 **** Fit       0.012839
 **** Fit       0.010182
 **** Fit       0.007458
 **** Fit       0.004863
 **** Fit       0.002496
 **** Fit       0.000381
 **** Fit      -0.001500
 **** Fit      -0.003197
 **** Fit      -0.004777
 **** Fit      -0.009734
 **** Fit      -0.011402
 **** Fit      -0.013243
 **** Fit      -0.015393
 **** Fit      -0.017991
 **** Fit       0.011126
 **** Fit       0.007180
 **** Fit       0.003577
 **** Fit       0.000437
 **** Fit      -0.002230
 **** Fit      -0.004477
 **** Fit      -0.006398
 **** Fit      -0.008109
 **** Fit      -0.014505
 **** Fit      -0.016172
 **** Fit      -0.018067
 **** Fit      -0.020365
 **** Fit      -0.023206
 **** Fit       0.001873
 **** Fit      -0.002578
 **** Fit      -0.006126
 **** Fit      -0.008897
 **** Fit      -0.011076
 **** Fit      -0.012874
 **** Fit      -0.024420
 **** Fit      -0.026649
 **** Fit      -0.029515
 **** Fit       0.000820
 **** Fit       0.001282
 **** Fit      -0.000186
 **** Fit      -0.000939
 **** Fit       0.000119
 **** Fit       0.001670
 **** Fit       0.002110
 **** Fit       0.001500
 **** Fit       0.000147
 **** Fit      -0.001451
 **** Fit      -0.002871
 **** Fit      -0.003386
 **** Fit      -0.002571
 **** Fit      -0.000818
 **** Fit       0.001066
 **** Fit       0.002466
 **** Fit       0.003130
 **** Fit       0.003087
 **** Fit       0.002498
 **** Fit       0.001466
 **** Fit       0.000233
 **** Fit      -0.001290
 **** Fit      -0.003086
 **** Fit      -0.004939
 **** Fit      -0.006374
 **** Fit      -0.006833
 **** Fit      -0.006046
 **** Fit      -0.004249
 **** Fit      -0.001992
 **** Fit       0.003871
 **** Fit       0.003279
 **** Fit       0.002468
 **** Fit       0.001172
 **** Fit      -0.000043
 **** Fit      -0.001533
 **** Fit      -0.003387
 **** Fit      -0.005613
 **** Fit      -0.008038
 **** Fit      -0.010231
 **** Fit      -0.011578
 **** Fit      -0.011578
 **** Fit      -0.010163
 **** Fit      -0.007723
 **** Fit      -0.004846
 **** Fit       0.003139
 **** Fit       0.002211
 **** Fit       0.000609
 **** Fit      -0.000652
 **** Fit      -0.002179
 **** Fit      -0.004109
 **** Fit      -0.006561
 **** Fit      -0.009561
 **** Fit      -0.012917
 **** Fit      -0.016107
 **** Fit      -0.018324
 **** Fit      -0.017389
 **** Fit      -0.014435
 **** Fit      -0.010700
 **** Fit       0.002772
 **** Fit       0.001723
 **** Fit      -0.000234
 **** Fit      -0.001548
 **** Fit      -0.003111
 **** Fit      -0.005080
 **** Fit      -0.007636
 **** Fit      -0.010944
 **** Fit      -0.015071
 **** Fit       0.000960
 **** Fit      -0.001368
 **** Fit      -0.002840
 **** Fit      -0.004578
 **** Fit      -0.006782
 **** Fit      -0.009706
 **** Fit      -0.013649
 **** Fit      -0.004453
 **** Fit      -0.006369
 **** Fit      -0.008794
 **** Fit      -0.012043
 **** Fit      -0.016538
 **** Fit      -0.008628
 **** Fit      -0.011374
 **** Fit      -0.015091
 **** Fit      -0.014880
 **** Fit      -0.019510
 **** Fit       0.033481
 **** Fit       0.029389
 **** Fit       0.024730
 **** Fit       0.019726
 **** Fit       0.043320
 **** Fit       0.039319
 **** Fit       0.034936
 **** Fit       0.029813
 **** Fit       0.023881
 **** Fit       0.046637
 **** Fit       0.040582
 **** Fit       0.034439
 **** Fit       0.027430
 **** Fit       0.047877
 **** Fit       0.039885
 **** Fit       0.031639
 **** Fit       0.021936
 **** Fit       0.046631
 **** Fit       0.036372
 **** Fit       0.024921
 **** Fit       0.042803
 **** Fit       0.029805
 **** Fit       0.036606
 **** Fit       0.038376
 **** Fit       0.028546
 **** Fit       0.026712
 **** Fit       0.022818
 **** Fit       0.032554
 **** Fit       0.030020
 **** Fit       0.027046
 **** Fit       0.039450
 **** Fit       0.037989
 **** Fit       0.036331
 **** Fit       0.034501
 **** Fit       0.032835
 **** Fit       0.047332
 **** Fit       0.045043
 **** Fit       0.043437
 **** Fit       0.042094
 **** Fit       0.040849
 **** Fit       0.039766
 **** Fit       0.039112
 **** Fit       0.050193
 **** Fit       0.048134
 **** Fit       0.046698
 **** Fit       0.045635
 **** Fit       0.044910
 **** Fit       0.044655
 **** Fit       0.053436
 **** Fit       0.051439
 **** Fit       0.050172
 **** Fit       0.049444
 **** Fit       0.049241
 **** Fit       0.049668
 **** Fit       0.056261
 **** Fit       0.054505
 **** Fit       0.053544
 **** Fit       0.053240
 **** Fit       0.053577
 **** Fit       0.054603
 **** Fit       0.060350
 **** Fit       0.058212
 **** Fit       0.057164
 **** Fit       0.057009
 **** Fit       0.057698
 **** Fit       0.064362
 **** Fit       0.061858
 **** Fit       0.060740
 **** Fit       0.060810
 **** Fit       0.062048
 **** Fit       0.066242
 **** Fit       0.064579
 **** Fit       0.064636
 **** Fit       0.069277
 **** Fit       0.045816
 **** Fit       0.039486
 **** Fit       0.045998
 **** Fit       0.060653
 **** Fit       0.037467
 **** Fit       0.041886
 **** Fit       0.045579
 **** Fit       0.048204
 **** Fit       0.049380
 **** Fit       0.064951
 **** Fit       0.061225
 **** Fit       0.058030
 **** Fit       0.055316
 **** Fit       0.038642
 **** Fit       0.037987
 **** Fit       0.039382
 **** Fit       0.041730
 **** Fit       0.043971
 **** Fit       0.045440
 **** Fit       0.045769
 **** Fit       0.044992
 **** Fit       0.043934
 **** Fit       0.044284
 **** Fit       0.068810
 **** Fit       0.065847
 **** Fit       0.062740
 **** Fit       0.059746
 **** Fit       0.057021
 **** Fit       0.054508
 **** Fit       0.051929
 **** Fit       0.048917
 **** Fit       0.045286
 **** Fit       0.041456
 **** Fit       0.043509
 **** Fit       0.042732
 **** Fit       0.043185
 **** Fit       0.044144
 **** Fit       0.044856
 **** Fit       0.044919
 **** Fit       0.044497
 **** Fit       0.044519
 **** Fit       0.046370
 **** Fit       0.050798
 **** Fit       0.065736
 **** Fit       0.064740
 **** Fit       0.062907
 **** Fit       0.060652
 **** Fit       0.058270
 **** Fit       0.055929
 **** Fit       0.053605
 **** Fit       0.051129
 **** Fit       0.048382
 **** Fit       0.045609
 **** Fit       0.046534
 **** Fit       0.045625
 **** Fit       0.045516
 **** Fit       0.045635
 **** Fit       0.045614
 **** Fit       0.045796
 **** Fit       0.047198
 **** Fit       0.050536
 **** Fit       0.055008
 **** Fit       0.058677
 **** Fit       0.060365
 **** Fit       0.060280
 **** Fit       0.059073
 **** Fit       0.057272
 **** Fit       0.055215
 **** Fit       0.053022
 **** Fit       0.050693
 **** Fit       0.048372
 **** Fit       0.048514
 **** Fit       0.047460
 **** Fit       0.047137
 **** Fit       0.047376
 **** Fit       0.048840
 **** Fit       0.051938
 **** Fit       0.055158
 **** Fit       0.056662
 **** Fit       0.056286
 **** Fit       0.054750
 **** Fit       0.052662
 **** Fit       0.050412
 **** Fit       0.049966
 **** Fit       0.049073
 **** Fit       0.050214
 **** Fit       0.052878
 **** Fit       0.053706
 **** Fit       0.052097
 **** Fit       0.051293
 -----------------------------------------------------------------
 Leave Link  602 at Mon Sep 16 22:55:04 2019, MaxMem=  4294967296 cpu:       155.4

 Test job not archived.
 1\1\GINC-N004\SP\RB3LYP\SVP\C54H83Ca1N15O23\PCIEPLAK\16-Sep-2019\0\\#m
 axdisk=50GB #B3LYP/SVP Density=Current scf=(tight) #IOP(5/87=12)Pop=(M
 K,readradii) iop(6/33=2) iop(6/42=6)\\SOL molecule\\0,1\C,0,93.28,58.6
 ,103.533\C,0,94.57,59.03,102.843\O,0,95.28,58.18,102.313\H,0,92.476,58
 .549,102.799\H,0,93.42,57.619,103.987\H,0,93.021,59.325,104.305\N,0,94
 .91,60.32,102.833\C,0,96.12,60.85,102.233\C,0,97.35,60.54,103.073\O,0,
 97.32,60.85,104.263\C,0,95.93,62.33,101.923\C,0,96.97,62.93,100.983\O,
 0,96.87,64.17,100.823\O,0,97.85,62.18,100.523\H,0,94.34,60.97,103.343\
 H,0,96.18,60.31,101.283\H,0,95.75,62.91,102.833\H,0,94.99,62.45,101.38
 3\N,0,98.42,60.06,102.433\C,0,99.57,59.52,103.123\C,0,100.75,60.48,103
 .103\O,0,101.52,60.38,104.053\C,0,99.84,58.08,102.693\C,0,98.66,57.15,
 102.943\C,0,98.92,55.66,102.803\C,0,99.87,55.1,103.863\N,0,99.28,55.15
 ,105.203\H,0,98.39,59.9,101.433\H,0,99.22,59.41,104.153\H,0,100.73,57.
 78,103.263\H,0,100.12,58.06,101.643\H,0,97.89,57.4,102.213\H,0,98.3,57
 .28,103.963\H,0,99.3,55.47,101.793\H,0,97.94,55.19,102.863\H,0,100.81,
 55.64,103.773\H,0,100.05,54.07,103.563\H,0,99.47,56.03,105.653\H,0,98.
 31,54.87,105.223\H,0,99.77,54.49,105.793\N,0,100.81,61.39,102.123\C,0,
 101.84,62.41,102.093\C,0,101.35,63.83,102.333\O,0,102.17,64.68,102.673
 \C,0,102.66,62.44,100.803\C,0,101.96,63.08,99.613\O,0,102.7,63.48,98.6
 93\O,0,100.71,63.12,99.533\H,0,100.21,61.3,101.313\H,0,102.6,62.18,102
 .843\H,0,102.94,61.44,100.473\H,0,103.56,63.01,101.023\N,0,100.04,64.0
 6,102.223\C,0,99.38,65.33,102.443\C,0,99.45,66.33,101.293\O,0,99.64,67
 .53,101.523\H,0,99.45,63.36,101.813\H,0,99.79,65.89,103.283\H,0,98.34,
 65.16,102.733\N,0,99.5,65.85,100.053\C,0,99.39,66.71,98.893\C,0,97.96,
 67.16,98.643\O,0,97.77,68.13,97.913\C,0,100.04,65.98,97.723\C,0,99.22,
 64.92,96.993\N,0,99.61,64.41,95.823\O,0,98.2,64.48,97.503\H,0,99.79,64
 .9,99.883\H,0,99.92,67.63,99.123\H,0,101.04,65.64,97.983\H,0,100.37,66
 .75,97.023\H,0,100.56,64.55,95.503\H,0,99.01,63.89,95.203\N,0,96.98,66
 .51,99.283\C,0,95.57,66.85,99.233\C,0,94.66,65.96,98.413\O,0,93.48,66.
 27,98.293\H,0,97.18,65.66,99.793\H,0,95.56,67.88,98.873\H,0,95.23,66.9
 7,100.263\N,0,95.21,64.95,97.733\C,0,94.63,64.,96.813\C,0,95.1,62.57,9
 7.073\O,0,96.21,62.35,97.553\C,0,95.09,64.45,95.433\C,0,95.1,65.91,95.
 043\C,0,96.3,66.64,95.063\C,0,93.84,66.5,94.923\C,0,96.19,68.03,95.003
 \C,0,93.81,67.89,94.723\C,0,94.96,68.7,94.793\O,0,94.92,70.05,94.683\H
 ,0,96.21,64.86,97.813\H,0,93.54,64.03,96.853\H,0,94.52,63.87,94.703\H,
 0,96.12,64.09,95.343\H,0,97.24,66.12,95.153\H,0,92.96,65.89,94.773\H,0
 ,97.08,68.64,94.943\H,0,92.9,68.47,94.793\H,0,94.03,70.42,94.643\N,0,9
 4.19,61.67,96.703\C,0,94.31,60.24,96.873\C,0,94.87,59.52,95.653\O,0,94
 .45,59.86,94.543\C,0,93.03,59.56,97.343\C,0,92.28,60.3,98.443\C,0,93.3
 7,58.15,97.843\C,0,93.1,60.68,99.683\H,0,93.53,62.02,96.023\H,0,95.03,
 60.09,97.683\H,0,92.45,59.36,96.453\H,0,91.41,59.68,98.663\H,0,91.88,6
 1.22,98.013\H,0,92.43,57.75,98.223\H,0,93.67,57.53,97.003\H,0,94.07,58
 .07,98.683\H,0,94.,61.25,99.473\H,0,92.46,61.26,100.343\H,0,93.38,59.7
 4,100.153\N,0,95.83,58.6,95.753\C,0,96.34,57.76,94.693\C,0,96.11,56.29
 ,95.013\O,0,95.77,55.98,96.153\C,0,97.82,58.05,94.423\O,0,98.66,57.94,
 95.543\H,0,96.22,58.48,96.673\H,0,95.83,57.93,93.743\H,0,97.85,59.07,9
 4.053\H,0,98.03,57.41,93.553\H,0,98.34,58.52,96.243\N,0,96.41,55.43,94
 .033\C,0,96.13,54.02,94.123\C,0,97.12,53.26,94.993\O,0,96.73,52.27,95.
 613\C,0,96.08,53.45,92.713\H,0,96.79,55.78,93.163\H,0,95.1,53.87,94.46
 3\H,0,96.23,52.38,92.833\H,0,95.15,53.7,92.203\H,0,96.9,53.8,92.083\N,
 0,98.37,53.72,95.153\C,0,99.24,53.2,96.193\C,0,98.68,53.54,97.573\O,0,
 98.7,52.71,98.473\C,0,100.62,53.81,95.993\H,0,98.72,54.45,94.553\H,0,9
 9.36,52.12,96.223\H,0,100.53,54.9,96.003\H,0,101.27,53.56,96.823\H,0,1
 00.99,53.38,95.063\N,0,98.03,54.68,97.763\C,0,97.43,55.09,99.023\C,0,9
 6.11,54.42,99.393\O,0,95.85,54.05,100.533\C,0,97.27,56.61,99.063\C,0,9
 8.59,57.35,98.853\C,0,98.4,58.85,98.693\O,0,98.8,59.67,99.543\O,0,97.9
 5,59.33,97.633\H,0,97.85,55.29,96.973\H,0,98.18,54.94,99.793\H,0,96.83
 ,56.93,100.003\H,0,96.64,56.94,98.233\H,0,99.07,57.,97.933\H,0,99.35,5
 7.11,99.593\N,0,95.28,54.22,98.363\C,0,94.04,53.48,98.263\H,0,93.274,5
 4.115,97.818\H,0,94.191,52.601,97.637\H,0,93.721,53.168,99.258\H,0,95.
 62,54.58,97.483\Ca,0,98.9,61.91,98.18\O,0,98.74,61.5,95.56\H,0,98.37,6
 2.08,94.89\H,0,99.54,61.15,95.17\\Version=ES64L-G09RevD.01\State=1-A\H
 F=-5333.5974779\RMSD=3.283e-09\Dipole=-0.459531,-12.557148,-2.0863368\
 Quadrupole=-31.3815414,-69.4852381,100.8667795,-65.3166853,-14.2714285
 ,-95.1865243\PG=C01 [X(C54H83Ca1N15O23)]\\@


 AN OPTIMIST IS A GUY
 THAT HAS NEVER HAD
 MUCH EXPERIENCE
   (CERTAIN MAXIMS OF ARCHY  -- DON MARQUIS)
 Job cpu time:       0 days 15 hours 50 minutes 53.6 seconds.
 File lengths (MBytes):  RWF=   1513 Int=      0 D2E=      0 Chk=    103 Scr=      1
 Normal termination of Gaussian 09 at Mon Sep 16 22:55:04 2019.
