 Entering Gaussian System, Link 0=g09
 Initial command:
 /home/pcieplak/g09/g09/l1.exe "/scratch1/pcieplak/holo_21.0/Gau-2537.inp" -scrdir="/scratch1/pcieplak/holo_21.0/"
 Entering Link 1 = /home/pcieplak/g09/g09/l1.exe PID=      2538.
  
 Copyright (c) 1988,1990,1992,1993,1995,1998,2003,2009,2013,
            Gaussian, Inc.  All Rights Reserved.
  
 This is part of the Gaussian(R) 09 program.  It is based on
 the Gaussian(R) 03 system (copyright 2003, Gaussian, Inc.),
 the Gaussian(R) 98 system (copyright 1998, Gaussian, Inc.),
 the Gaussian(R) 94 system (copyright 1995, Gaussian, Inc.),
 the Gaussian 92(TM) system (copyright 1992, Gaussian, Inc.),
 the Gaussian 90(TM) system (copyright 1990, Gaussian, Inc.),
 the Gaussian 88(TM) system (copyright 1988, Gaussian, Inc.),
 the Gaussian 86(TM) system (copyright 1986, Carnegie Mellon
 University), and the Gaussian 82(TM) system (copyright 1983,
 Carnegie Mellon University). Gaussian is a federally registered
 trademark of Gaussian, Inc.
  
 This software contains proprietary and confidential information,
 including trade secrets, belonging to Gaussian, Inc.
  
 This software is provided under written license and may be
 used, copied, transmitted, or stored only in accord with that
 written license.
  
 The following legend is applicable only to US Government
 contracts under FAR:
  
                    RESTRICTED RIGHTS LEGEND
  
 Use, reproduction and disclosure by the US Government is
 subject to restrictions as set forth in subparagraphs (a)
 and (c) of the Commercial Computer Software - Restricted
 Rights clause in FAR 52.227-19.
  
 Gaussian, Inc.
 340 Quinnipiac St., Bldg. 40, Wallingford CT 06492
  
  
 ---------------------------------------------------------------
 Warning -- This program may not be used in any manner that
 competes with the business of Gaussian, Inc. or will provide
 assistance to any competitor of Gaussian, Inc.  The licensee
 of this program is prohibited from giving any competitor of
 Gaussian, Inc. access to this program.  By using this program,
 the user acknowledges that Gaussian, Inc. is engaged in the
 business of creating and licensing software in the field of
 computational chemistry and represents and warrants to the
 licensee that it is not a competitor of Gaussian, Inc. and that
 it will not use this program in any manner prohibited above.
 ---------------------------------------------------------------
  

 Cite this work as:
 Gaussian 09, Revision D.01,
 M. J. Frisch, G. W. Trucks, H. B. Schlegel, G. E. Scuseria, 
 M. A. Robb, J. R. Cheeseman, G. Scalmani, V. Barone, B. Mennucci, 
 G. A. Petersson, H. Nakatsuji, M. Caricato, X. Li, H. P. Hratchian, 
 A. F. Izmaylov, J. Bloino, G. Zheng, J. L. Sonnenberg, M. Hada, 
 M. Ehara, K. Toyota, R. Fukuda, J. Hasegawa, M. Ishida, T. Nakajima, 
 Y. Honda, O. Kitao, H. Nakai, T. Vreven, J. A. Montgomery, Jr., 
 J. E. Peralta, F. Ogliaro, M. Bearpark, J. J. Heyd, E. Brothers, 
 K. N. Kudin, V. N. Staroverov, T. Keith, R. Kobayashi, J. Normand, 
 K. Raghavachari, A. Rendell, J. C. Burant, S. S. Iyengar, J. Tomasi, 
 M. Cossi, N. Rega, J. M. Millam, M. Klene, J. E. Knox, J. B. Cross, 
 V. Bakken, C. Adamo, J. Jaramillo, R. Gomperts, R. E. Stratmann, 
 O. Yazyev, A. J. Austin, R. Cammi, C. Pomelli, J. W. Ochterski, 
 R. L. Martin, K. Morokuma, V. G. Zakrzewski, G. A. Voth, 
 P. Salvador, J. J. Dannenberg, S. Dapprich, A. D. Daniels, 
 O. Farkas, J. B. Foresman, J. V. Ortiz, J. Cioslowski, 
 and D. J. Fox, Gaussian, Inc., Wallingford CT, 2013.
 
 ******************************************
 Gaussian 09:  ES64L-G09RevD.01 24-Apr-2013
                16-Sep-2019 
 ******************************************
 %Nproc=12
 Will use up to   12 processors via shared memory.
 %chk=chk1mol
 %mem=32GB
 ----------------------------------------------------------------------
 #maxdisk=50GB #B3LYP/SVP Density=Current scf=(tight) #IOP(5/87=12)Pop=
 (MK,readradii) iop(6/33=2) iop(6/42=6)
 ----------------------------------------------------------------------
 1/30=1,38=1/1;
 2/12=2,17=6,18=5,40=1/2;
 3/5=18,7=101,11=2,16=1,25=1,30=1,74=-5/1,2,3;
 4//1;
 5/5=2,32=2,38=5,87=12/2;
 6/7=2,8=2,9=2,10=2,15=8,20=101,22=-1,28=1,33=2,42=6/1,2;
 99/5=1,9=1/99;
 ------------
 SOL molecule
 ------------
 Symbolic Z-matrix:
 Charge =  0 Multiplicity = 1
 C                    -4.915     55.81     4.765 
 C                    -3.755     56.68     4.305 
 O                    -2.695     56.14     3.975 
 H                    -5.782     55.996    4.131 
 H                    -4.633     54.76     4.694 
 H                    -5.163     56.051    5.799 
 N                    -3.925     58.       4.235 
 C                    -2.805     58.9      4.015 
 C                    -1.845     58.9      5.195 
 O                    -2.245     59.33     6.275 
 C                    -3.245     60.3      3.595 
 C                    -2.015     61.09     3.175 
 O                    -2.215     62.28     2.845 
 O                    -0.875     60.61     3.005 
 H                    -4.845     58.38     4.435 
 H                    -2.265     58.61     3.115 
 H                    -3.715     60.82     4.425 
 H                    -3.985     60.3      2.795 
 N                    -0.615     58.41     5.055 
 C                     0.245     58.05     6.165 
 C                     1.215     59.15     6.565 
 O                     1.745     59.2      7.675 
 C                     0.915     56.68     6.035 
 C                     1.385     56.02     7.325 
 C                     1.435     54.52     7.025 
 C                     2.175     53.8      8.155 
 N                     1.585     54.07     9.475 
 H                    -0.395     58.19     4.095 
 H                    -0.375     58.07     7.055 
 H                     1.655     56.66     5.235 
 H                     0.185     55.95     5.705 
 H                     0.655     56.29     8.085 
 H                     2.405     56.35     7.515 
 H                     1.905     54.38     6.055 
 H                     0.405     54.19     6.925 
 H                     3.215     54.12     8.255 
 H                     2.135     52.74     7.915 
 H                     0.625     53.8      9.615 
 H                     2.075     53.46     10.115 
 H                     1.775     55.03     9.705 
 N                     1.305     60.15     5.685 
 C                     2.035     61.39     5.885 
 C                     1.125     62.6      5.775 
 O                     1.465     63.73     6.105 
 C                     3.285     61.41     5.005 
 C                     3.065     61.36     3.495 
 O                     4.065     61.45     2.755 
 O                     1.945     61.54     2.975 
 H                     0.785     60.05     4.825 
 H                     2.505     61.36     6.865 
 H                     3.905     60.53     5.115 
 H                     3.935     62.22     5.315 
 N                    -0.155     62.36     5.485 
 C                    -1.145     63.42     5.365 
 C                    -0.975     64.41     4.225 
 O                    -1.255     65.6      4.355 
 H                    -0.435     61.41     5.285 
 H                    -1.195     64.04     6.255 
 H                    -2.165     63.02     5.365 
 N                    -0.235     64.1      3.165 
 C                     0.205     65.03     2.145 
 C                    -0.895     65.33     1.145 
 O                    -0.775     66.08     0.175 
 C                     1.605     64.79     1.575 
 C                     1.515     63.69     0.525 
 N                     2.405     63.62    -0.465 
 O                     0.595     62.88     0.465 
 H                     0.005     63.12     3.135 
 H                     0.335     66.03     2.585 
 H                     2.405     64.44     2.215 
 H                     1.905     65.65     0.965 
 H                     3.225     64.21    -0.455 
 H                     2.215     63.13    -1.325 
 N                    -2.035     64.66     1.305 
 C                    -3.265     64.83     0.565 
 C                    -3.605     63.7     -0.385 
 O                    -4.665     63.69    -1.005 
 H                    -2.065     63.89     1.955 
 H                    -3.235     65.78     0.025 
 H                    -4.025     64.82     1.355 
 N                    -2.645     62.81    -0.655 
 C                    -2.685     61.72    -1.605 
 C                    -2.275     60.36    -1.055 
 O                    -1.515     60.23    -0.095 
 C                    -1.805     62.07    -2.805 
 C                    -2.085     63.43    -3.395 
 C                    -1.095     64.42    -3.485 
 C                    -3.305     63.61    -4.065 
 C                    -1.415     65.68    -4.015 
 C                    -3.565     64.83    -4.695 
 C                    -2.645     65.9     -4.655 
 O                    -2.925     67.14    -5.155 
 H                    -1.775     63.05    -0.195 
 H                    -3.675     61.6     -2.055 
 H                    -1.755     61.28    -3.565 
 H                    -0.765     62.      -2.505 
 H                    -0.115     64.26    -3.085 
 H                    -3.985     62.78    -4.025 
 H                    -0.745     66.53    -4.015 
 H                    -4.455     64.94    -5.305 
 H                    -3.845     67.07    -5.385 
 N                    -2.805     59.32    -1.705 
 C                    -2.445     57.93    -1.515 
 C                    -1.465     57.41    -2.555 
 O                    -1.415     57.86    -3.695 
 C                    -3.705     57.08    -1.415 
 C                    -4.825     57.71    -0.585 
 C                    -3.415     55.62    -1.105 
 C                    -4.315     58.02     0.815 
 H                    -3.255     59.61    -2.565 
 H                    -1.945     57.93    -0.555 
 H                    -4.205     57.01    -2.385 
 H                    -5.745     57.16    -0.405 
 H                    -5.235     58.61    -1.045 
 H                    -4.345     55.07    -0.945 
 H                    -2.835     55.1     -1.865 
 H                    -2.845     55.64    -0.175 
 H                    -5.165     58.25     1.455 
 H                    -3.755     57.22     1.295 
 H                    -3.625     58.87     0.805 
 N                    -0.525     56.58    -2.105 
 C                     0.575     55.98    -2.845 
 C                     0.605     54.47    -2.635 
 O                     0.005     53.95    -1.695 
 C                     1.915     56.44    -2.295 
 O                     2.065     56.09    -0.935 
 H                    -0.405     56.55    -1.105 
 H                     0.555     56.12    -3.925 
 H                     1.955     57.53    -2.355 
 H                     2.665     56.      -2.955 
 H                     1.665     56.81    -0.445 
 N                     1.215     53.66    -3.495 
 C                     1.235     52.21    -3.425 
 C                     1.755     51.66    -2.115 
 O                     1.185     50.67    -1.675 
 C                     2.015     51.79    -4.665 
 H                     1.685     54.04    -4.305 
 H                     0.185     51.91    -3.535 
 H                     1.705     52.37    -5.535 
 H                     3.075     52.02    -4.495 
 H                     1.855     50.73    -4.825 
 N                     2.695     52.3     -1.405 
 C                     3.245     51.83    -0.145 
 C                     2.265     51.99     1.015 
 O                     2.075     51.15     1.885 
 C                     4.515     52.64     0.055 
 H                     3.115     53.12    -1.815 
 H                     3.545     50.79    -0.265 
 H                     5.315     52.33    -0.615 
 H                     4.295     53.7     -0.095 
 H                     4.935     52.61     1.065 
 N                     1.725     53.21     0.915 
 C                     0.665     53.62     1.815 
 C                    -0.495     52.65     1.665 
 O                    -0.935     52.1      2.675 
 C                     0.255     55.06     1.535 
 C                     1.285     55.99     2.165 
 C                     0.955     57.45     1.845 
 O                     1.075     58.39     2.665 
 O                     0.645     57.79     0.685 
 H                     2.085     53.76     0.155 
 H                     1.035     53.5      2.835 
 H                    -0.735     55.08     2.005 
 H                     0.115     55.35     0.495 
 H                     2.235     55.78     1.665 
 H                     1.355     55.81     3.235 
 N                    -1.055     52.54     0.455 
 C                    -2.035     51.52     0.115 
 H                    -2.926     51.995   -0.295 
 H                    -1.612     50.841   -0.626 
 H                    -2.303     50.96     1.011 
 H                    -0.595     53.07    -0.255 
 Ca                    0.81      60.42     1.05 
 O                     3.19      59.67     0.12 
 H                     3.68      58.85     0.17 
 H                     3.84      60.32    -0.12 
 
 Stoichiometry    C54H83CaN15O23
 Framework group  C1[X(C54H83CaN15O23)]
 Deg. of freedom   522
 Full point group                 C1      NOp   1
 Largest Abelian subgroup         C1      NOp   1
 Largest concise Abelian subgroup C1      NOp   1
                         Standard orientation:                         
 ---------------------------------------------------------------------
 Center     Atomic      Atomic             Coordinates (Angstroms)
 Number     Number       Type             X           Y           Z
 ---------------------------------------------------------------------
      1          6           0        2.257937    2.283605    5.645508
      2          6           0        1.612086    2.122890    4.277609
      3          8           0        2.331789    1.920741    3.295131
      4          1           0        1.853715    1.535856    6.327943
      5          1           0        3.335476    2.148651    5.557402
      6          1           0        2.046604    3.280606    6.032896
      7          7           0        0.283633    2.167738    4.180654
      8          6           0       -0.382363    2.238612    2.890605
      9          6           0       -0.101384    3.557036    2.185757
     10          8           0       -0.524937    4.593747    2.692839
     11          6           0       -1.869252    1.903513    2.973479
     12          6           0       -2.419831    1.785210    1.560586
     13          8           0       -3.646235    1.556262    1.468305
     14          8           0       -1.730845    1.759806    0.519647
     15          1           0       -0.260668    2.248977    5.033846
     16          1           0       -0.053945    1.417007    2.255935
     17          1           0       -2.412983    2.693157    3.484381
     18          1           0       -2.077938    0.994586    3.537306
     19          7           0        0.617892    3.575170    1.065529
     20          6           0        1.224886    4.769322    0.511580
     21          6           0        0.377730    5.443769   -0.555353
     22          8           0        0.517103    6.626261   -0.868065
     23          6           0        2.689759    4.607733    0.098378
     24          6           0        3.523042    5.879941    0.010477
     25          6           0        4.976063    5.432922    0.187689
     26          6           0        5.911481    6.587591   -0.179234
     27          7           0        5.622673    7.810052    0.585998
     28          1           0        0.808346    2.648191    0.715046
     29          1           0        1.143024    5.538515    1.272199
     30          1           0        2.802597    3.947011   -0.761107
     31          1           0        3.229705    4.082317    0.877542
     32          1           0        3.165285    6.530095    0.805907
     33          1           0        3.422697    6.274172   -0.999430
     34          1           0        5.138705    4.547054   -0.420741
     35          1           0        5.080858    5.125170    1.224080
     36          1           0        5.818490    6.895957   -1.223390
     37          1           0        6.920892    6.231523    0.013395
     38          1           0        5.700479    7.755729    1.588542
     39          1           0        6.364351    8.454234    0.347791
     40          1           0        4.740779    8.170926    0.265634
     41          7           0       -0.643662    4.704586   -0.994520
     42          6           0       -1.690894    5.157577   -1.893743
     43          6           0       -3.065838    5.026209   -1.264003
     44          8           0       -4.075884    5.528737   -1.742200
     45          6           0       -1.518810    4.509062   -3.267466
     46          6           0       -1.623771    2.987137   -3.328520
     47          8           0       -1.560946    2.441027   -4.448126
     48          8           0       -2.065540    2.307628   -2.379675
     49          1           0       -0.714152    3.763321   -0.635282
     50          1           0       -1.495034    6.193943   -2.157912
     51          1           0       -0.525221    4.626920   -3.679523
     52          1           0       -2.154626    5.009969   -3.988251
     53          7           0       -3.113624    4.499721   -0.039002
     54          6           0       -4.359168    4.328865    0.694162
     55          6           0       -5.373220    3.347420    0.131079
     56          8           0       -6.582779    3.555593    0.202018
     57          1           0       -2.257695    4.154090    0.371880
     58          1           0       -4.910500    5.259109    0.792542
     59          1           0       -4.176781    4.113234    1.752764
     60          7           0       -4.996004    2.400743   -0.722625
     61          6           0       -5.887731    1.576071   -1.512333
     62          6           0       -6.477187    0.442622   -0.695121
     63          8           0       -7.254872   -0.406587   -1.133130
     64          6           0       -5.408847    1.228626   -2.923875
     65          6           0       -4.428995    0.066247   -2.827104
     66          7           0       -4.250435   -0.760626   -3.857394
     67          8           0       -3.830246   -0.235412   -1.799193
     68          1           0       -3.992420    2.306391   -0.775700
     69          1           0       -6.805777    2.136837   -1.743054
     70          1           0       -4.857751    1.953254   -3.509799
     71          1           0       -6.231236    0.774402   -3.488726
     72          1           0       -4.658408   -0.548564   -4.756942
     73          1           0       -3.872831   -1.688075   -3.743146
     74          7           0       -6.044148    0.334357    0.559812
     75          6           0       -6.514464   -0.580367    1.575430
     76          6           0       -5.549126   -1.690300    1.937605
     77          8           0       -5.800365   -2.478094    2.845547
     78          1           0       -5.251648    0.883137    0.854911
     79          1           0       -7.474767   -1.001994    1.267128
     80          1           0       -6.602815    0.063943    2.457960
     81          7           0       -4.503797   -1.888285    1.128475
     82          6           0       -3.516294   -2.943160    1.193871
     83          6           0       -2.065204   -2.481469    1.156743
     84          8           0       -1.713981   -1.426411    0.627975
     85          6           0       -3.764964   -3.932219    0.055088
     86          6           0       -5.192412   -4.411107   -0.040619
     87          6           0       -5.963427   -4.225170   -1.197884
     88          6           0       -5.665402   -5.254485    0.976580
     89          6           0       -7.297080   -4.662815   -1.225023
     90          6           0       -6.954971   -5.784257    0.880382
     91          6           0       -7.809000   -5.474185   -0.200076
     92          8           0       -9.112802   -5.877827   -0.256416
     93          1           0       -4.527414   -1.264607    0.330623
     94          1           0       -3.633599   -3.564415    2.086778
     95          1           0       -3.038286   -4.753415    0.012946
     96          1           0       -3.462776   -3.469925   -0.878435
     97          1           0       -5.578404   -3.684751   -2.037947
     98          1           0       -4.990944   -5.419731    1.795542
     99          1           0       -7.990221   -4.457918   -2.030612
    100          1           0       -7.287957   -6.520570    1.603751
    101          1           0       -9.248774   -6.266324    0.600778
    102          7           0       -1.204870   -3.319943    1.741368
    103          6           0        0.239347   -3.222628    1.690714
    104          6           0        0.872002   -4.131732    0.648756
    105          8           0        0.360666   -5.191642    0.302743
    106          6           0        0.819308   -3.429361    3.083914
    107          6           0        0.035550   -2.737825    4.200920
    108          6           0        2.326236   -3.233865    3.136353
    109          6           0       -0.062085   -1.246602    3.912957
    110          1           0       -1.641834   -4.207358    1.959903
    111          1           0        0.410598   -2.197549    1.388245
    112          1           0        0.715677   -4.471776    3.397652
    113          1           0        0.397766   -2.776354    5.224939
    114          1           0       -0.959952   -3.160893    4.341236
    115          1           0        2.684969   -3.293679    4.166271
    116          1           0        2.897460   -3.936322    2.532485
    117          1           0        2.490080   -2.224181    2.757019
    118          1           0       -0.413929   -0.738618    4.809147
    119          1           0        0.867837   -0.767794    3.612977
    120          1           0       -0.751865   -1.048120    3.086212
    121          7           0        1.906590   -3.621264   -0.017616
    122          6           0        2.663468   -4.224781   -1.104126
    123          6           0        4.158946   -4.176621   -0.810315
    124          8           0        4.611973   -3.413226    0.041739
    125          6           0        2.527459   -3.409728   -2.379622
    126          8           0        2.997840   -2.089683   -2.204059
    127          1           0        2.032474   -2.624512    0.059440
    128          1           0        2.444827   -5.271143   -1.313224
    129          1           0        1.467127   -3.344334   -2.634022
    130          1           0        3.062479   -3.976842   -3.143713
    131          1           0        2.248616   -1.599748   -1.861820
    132          7           0        5.012208   -5.003209   -1.407387
    133          6           0        6.436973   -5.087434   -1.141395
    134          6           0        7.174507   -3.775326   -1.294412
    135          8           0        8.056463   -3.547324   -0.476629
    136          6           0        6.916765   -6.215536   -2.046704
    137          1           0        4.678710   -5.676316   -2.083484
    138          1           0        6.507676   -5.405134   -0.093221
    139          1           0        6.224520   -7.057827   -2.019468
    140          1           0        6.920770   -5.844903   -3.080152
    141          1           0        7.907458   -6.513529   -1.723396
    142          7           0        6.792681   -2.851800   -2.188061
    143          6           0        7.454628   -1.574984   -2.394379
    144          6           0        7.182095   -0.587095   -1.262390
    145          8           0        8.026152    0.142610   -0.758704
    146          6           0        6.937393   -1.076962   -3.733574
    147          1           0        6.048252   -3.094096   -2.823685
    148          1           0        8.522544   -1.753820   -2.510888
    149          1           0        7.354976   -1.631412   -4.572150
    150          1           0        5.846807   -1.146953   -3.748484
    151          1           0        7.125214   -0.019664   -3.943917
    152          7           0        5.873609   -0.644999   -0.989422
    153          6           0        5.321928    0.101568    0.124125
    154          6           0        6.021422   -0.346096    1.396644
    155          8           0        6.541434    0.509710    2.113151
    156          6           0        3.812203   -0.086992    0.196763
    157          6           0        3.159846    0.804621   -0.853074
    158          6           0        1.644035    0.592562   -0.868814
    159          8           0        0.809928    1.517454   -1.007520
    160          8           0        1.165190   -0.559690   -0.850797
    161          1           0        5.355300   -1.269418   -1.582007
    162          1           0        5.588134    1.150510   -0.019241
    163          1           0        3.624556    0.208143    1.235552
    164          1           0        3.425516   -1.098309    0.082702
    165          1           0        3.522664    0.452863   -1.823243
    166          1           0        3.427020    1.845336   -0.686550
    167          7           0        5.927295   -1.638094    1.730832
    168          6           0        6.698633   -2.246835    2.803619
    169          1           0        6.023515   -2.748065    3.496865
    170          1           0        7.394423   -2.974363    2.384537
    171          1           0        7.255285   -1.474693    3.334822
    172          1           0        5.452522   -2.198767    1.054934
    173         20           0       -1.342492    0.109096   -1.435266
    174          8           0       -0.191683   -0.480190   -3.763394
    175          1           0        0.712475   -0.436642   -4.072591
    176          1           0       -0.710950   -0.535344   -4.557069
 ---------------------------------------------------------------------
 Rotational constants (GHZ):      0.0231052      0.0154491      0.0117090
 Standard basis: SVP (5D, 7F)
 There are  1809 symmetry adapted cartesian basis functions of A   symmetry.
 There are  1717 symmetry adapted basis functions of A   symmetry.
  1717 basis functions,  2922 primitive gaussians,  1809 cartesian basis functions
   358 alpha electrons      358 beta electrons
       nuclear repulsion energy     21769.4124773985 Hartrees.
 NAtoms=  176 NActive=  176 NUniq=  176 SFac= 1.00D+00 NAtFMM=   60 NAOKFM=T Big=T
 Integral buffers will be    131072 words long.
 Raffenetti 2 integral format.
 Two-electron integral symmetry is turned on.
 One-electron integrals computed using PRISM.
 NBasis=  1717 RedAO= T EigKep=  2.90D-04  NBF=  1717
 NBsUse=  1717 1.00D-06 EigRej= -1.00D+00 NBFU=  1717
 ExpMin= 1.98D-02 ExpMax= 3.51D+04 ExpMxC= 5.28D+03 IAcc=3 IRadAn=         5 AccDes= 0.00D+00
 Harris functional with IExCor=  402 and IRadAn=       5 diagonalized for initial guess.
 HarFok:  IExCor=  402 AccDes= 0.00D+00 IRadAn=         5 IDoV= 1 UseB2=F ITyADJ=14
 ICtDFT=  3500011 ScaDFX=  1.000000  1.000000  1.000000  1.000000
 FoFCou: FMM=F IPFlag=           0 FMFlag=      100000 FMFlg1=        2001
         NFxFlg=           0 DoJE=T BraDBF=F KetDBF=T FulRan=T
         wScrn=  0.000000 ICntrl=     500 IOpCl=  0 I1Cent=   200000004 NGrid=           0
         NMat0=    1 NMatS0=      1 NMatT0=    0 NMatD0=    1 NMtDS0=    0 NMtDT0=    0
 Petite list used in FoFCou.
 Requested convergence on RMS density matrix=1.00D-08 within 128 cycles.
 Requested convergence on MAX density matrix=1.00D-06.
 Requested convergence on             energy=1.00D-06.
 No special actions if energy rises.
 EnCoef did     4 forward-backward iterations
 EnCoef did     6 forward-backward iterations
 SCF Done:  E(RB3LYP) =  -5333.55764822     A.U. after   20 cycles
            NFock= 20  Conv=0.32D-08     -V/T= 2.0081

 **********************************************************************

            Population analysis using the SCF density.

 **********************************************************************

 Orbital symmetries:
 BldTbl:  Degeneracy threshold= 1.00D-02
       Occupied  (A) (A) (A) (A) (A) (A) (A) (A) (A) (A) (A) (A)
                 (A) (A) (A) (A) (A) (A) (A) (A) (A) (A) (A) (A)
                 (A) (A) (A) (A) (A) (A) (A) (A) (A) (A) (A) (A)
                 (A) (A) (A) (A) (A) (A) (A) (A) (A) (A) (A) (A)
                 (A) (A) (A) (A) (A) (A) (A) (A) (A) (A) (A) (A)
                 (A) (A) (A) (A) (A) (A) (A) (A) (A) (A) (A) (A)
                 (A) (A) (A) (A) (A) (A) (A) (A) (A) (A) (A) (A)
                 (A) (A) (A) (A) (A) (A) (A) (A) (A) (A) (A) (A)
                 (A) (A) (A) (A) (A) (A) (A) (A) (A) (A) (A) (A)
                 (A) (A) (A) (A) (A) (A) (A) (A) (A) (A) (A) (A)
                 (A) (A) (A) (A) (A) (A) (A) (A) (A) (A) (A) (A)
                 (A) (A) (A) (A) (A) (A) (A) (A) (A) (A) (A) (A)
                 (A) (A) (A) (A) (A) (A) (A) (A) (A) (A) (A) (A)
                 (A) (A) (A) (A) (A) (A) (A) (A) (A) (A) (A) (A)
                 (A) (A) (A) (A) (A) (A) (A) (A) (A) (A) (A) (A)
                 (A) (A) (A) (A) (A) (A) (A) (A) (A) (A) (A) (A)
                 (A) (A) (A) (A) (A) (A) (A) (A) (A) (A) (A) (A)
                 (A) (A) (A) (A) (A) (A) (A) (A) (A) (A) (A) (A)
                 (A) (A) (A) (A) (A) (A) (A) (A) (A) (A) (A) (A)
                 (A) (A) (A) (A) (A) (A) (A) (A) (A) (A) (A) (A)
                 (A) (A) (A) (A) (A) (A) (A) (A) (A) (A) (A) (A)
                 (A) (A) (A) (A) (A) (A) (A) (A) (A) (A) (A) (A)
                 (A) (A) (A) (A) (A) (A) (A) (A) (A) (A) (A) (A)
                 (A) (A) (A) (A) (A) (A) (A) (A) (A) (A) (A) (A)
                 (A) (A) (A) (A) (A) (A) (A) (A) (A) (A) (A) (A)
                 (A) (A) (A) (A) (A) (A) (A) (A) (A) (A) (A) (A)
                 (A) (A) (A) (A) (A) (A) (A) (A) (A) (A) (A) (A)
                 (A) (A) (A) (A) (A) (A) (A) (A) (A) (A) (A) (A)
                 (A) (A) (A) (A) (A) (A) (A) (A) (A) (A) (A) (A)
                 (A) (A) (A) (A) (A) (A) (A) (A) (A) (A)
       Virtual   (A) (A) (A) (A) (A) (A) (A) (A) (A) (A) (A) (A)
                 (A) (A) (A) (A) (A) (A) (A) (A) (A) (A) (A) (A)
                 (A) (A) (A) (A) (A) (A) (A) (A) (A) (A) (A) (A)
                 (A) (A) (A) (A) (A) (A) (A) (A) (A) (A) (A) (A)
                 (A) (A) (A) (A) (A) (A) (A) (A) (A) (A) (A) (A)
                 (A) (A) (A) (A) (A) (A) (A) (A) (A) (A) (A) (A)
                 (A) (A) (A) (A) (A) (A) (A) (A) (A) (A) (A) (A)
                 (A) (A) (A) (A) (A) (A) (A) (A) (A) (A) (A) (A)
                 (A) (A) (A) (A) (A) (A) (A) (A) (A) (A) (A) (A)
                 (A) (A) (A) (A) (A) (A) (A) (A) (A) (A) (A) (A)
                 (A) (A) (A) (A) (A) (A) (A) (A) (A) (A) (A) (A)
                 (A) (A) (A) (A) (A) (A) (A) (A) (A) (A) (A) (A)
                 (A) (A) (A) (A) (A) (A) (A) (A) (A) (A) (A) (A)
                 (A) (A) (A) (A) (A) (A) (A) (A) (A) (A) (A) (A)
                 (A) (A) (A) (A) (A) (A) (A) (A) (A) (A) (A) (A)
                 (A) (A) (A) (A) (A) (A) (A) (A) (A) (A) (A) (A)
                 (A) (A) (A) (A) (A) (A) (A) (A) (A) (A) (A) (A)
                 (A) (A) (A) (A) (A) (A) (A) (A) (A) (A) (A) (A)
                 (A) (A) (A) (A) (A) (A) (A) (A) (A) (A) (A) (A)
                 (A) (A) (A) (A) (A) (A) (A) (A) (A) (A) (A) (A)
                 (A) (A) (A) (A) (A) (A) (A) (A) (A) (A) (A) (A)
                 (A) (A) (A) (A) (A) (A) (A) (A) (A) (A) (A) (A)
                 (A) (A) (A) (A) (A) (A) (A) (A) (A) (A) (A) (A)
                 (A) (A) (A) (A) (A) (A) (A) (A) (A) (A) (A) (A)
                 (A) (A) (A) (A) (A) (A) (A) (A) (A) (A) (A) (A)
                 (A) (A) (A) (A) (A) (A) (A) (A) (A) (A) (A) (A)
                 (A) (A) (A) (A) (A) (A) (A) (A) (A) (A) (A) (A)
                 (A) (A) (A) (A) (A) (A) (A) (A) (A) (A) (A) (A)
                 (A) (A) (A) (A) (A) (A) (A) (A) (A) (A) (A) (A)
                 (A) (A) (A) (A) (A) (A) (A) (A) (A) (A) (A) (A)
                 (A) (A) (A) (A) (A) (A) (A) (A) (A) (A) (A) (A)
                 (A) (A) (A) (A) (A) (A) (A) (A) (A) (A) (A) (A)
                 (A) (A) (A) (A) (A) (A) (A) (A) (A) (A) (A) (A)
                 (A) (A) (A) (A) (A) (A) (A) (A) (A) (A) (A) (A)
                 (A) (A) (A) (A) (A) (A) (A) (A) (A) (A) (A) (A)
                 (A) (A) (A) (A) (A) (A) (A) (A) (A) (A) (A) (A)
                 (A) (A) (A) (A) (A) (A) (A) (A) (A) (A) (A) (A)
                 (A) (A) (A) (A) (A) (A) (A) (A) (A) (A) (A) (A)
                 (A) (A) (A) (A) (A) (A) (A) (A) (A) (A) (A) (A)
                 (A) (A) (A) (A) (A) (A) (A) (A) (A) (A) (A) (A)
                 (A) (A) (A) (A) (A) (A) (A) (A) (A) (A) (A) (A)
                 (A) (A) (A) (A) (A) (A) (A) (A) (A) (A) (A) (A)
                 (A) (A) (A) (A) (A) (A) (A) (A) (A) (A) (A) (A)
                 (A) (A) (A) (A) (A) (A) (A) (A) (A) (A) (A) (A)
                 (A) (A) (A) (A) (A) (A) (A) (A) (A) (A) (A) (A)
                 (A) (A) (A) (A) (A) (A) (A) (A) (A) (A) (A) (A)
                 (A) (A) (A) (A) (A) (A) (A) (A) (A) (A) (A) (A)
                 (A) (A) (A) (A) (A) (A) (A) (A) (A) (A) (A) (A)
                 (A) (A) (A) (A) (A) (A) (A) (A) (A) (A) (A) (A)
                 (A) (A) (A) (A) (A) (A) (A) (A) (A) (A) (A) (A)
                 (A) (A) (A) (A) (A) (A) (A) (A) (A) (A) (A) (A)
                 (A) (A) (A) (A) (A) (A) (A) (A) (A) (A) (A) (A)
                 (A) (A) (A) (A) (A) (A) (A) (A) (A) (A) (A) (A)
                 (A) (A) (A) (A) (A) (A) (A) (A) (A) (A) (A) (A)
                 (A) (A) (A) (A) (A) (A) (A) (A) (A) (A) (A) (A)
                 (A) (A) (A) (A) (A) (A) (A) (A) (A) (A) (A) (A)
                 (A) (A) (A) (A) (A) (A) (A) (A) (A) (A) (A) (A)
                 (A) (A) (A) (A) (A) (A) (A) (A) (A) (A) (A) (A)
                 (A) (A) (A) (A) (A) (A) (A) (A) (A) (A) (A) (A)
                 (A) (A) (A) (A) (A) (A) (A) (A) (A) (A) (A) (A)
                 (A) (A) (A) (A) (A) (A) (A) (A) (A) (A) (A) (A)
                 (A) (A) (A) (A) (A) (A) (A) (A) (A) (A) (A) (A)
                 (A) (A) (A) (A) (A) (A) (A) (A) (A) (A) (A) (A)
                 (A) (A) (A) (A) (A) (A) (A) (A) (A) (A) (A) (A)
                 (A) (A) (A) (A) (A) (A) (A) (A) (A) (A) (A) (A)
                 (A) (A) (A) (A) (A) (A) (A) (A) (A) (A) (A) (A)
                 (A) (A) (A) (A) (A) (A) (A) (A) (A) (A) (A) (A)
                 (A) (A) (A) (A) (A) (A) (A) (A) (A) (A) (A) (A)
                 (A) (A) (A) (A) (A) (A) (A) (A) (A) (A) (A) (A)
                 (A) (A) (A) (A) (A) (A) (A) (A) (A) (A) (A) (A)
                 (A) (A) (A) (A) (A) (A) (A) (A) (A) (A) (A) (A)
                 (A) (A) (A) (A) (A) (A) (A) (A) (A) (A) (A) (A)
                 (A) (A) (A) (A) (A) (A) (A) (A) (A) (A) (A) (A)
                 (A) (A) (A) (A) (A) (A) (A) (A) (A) (A) (A) (A)
                 (A) (A) (A) (A) (A) (A) (A) (A) (A) (A) (A) (A)
                 (A) (A) (A) (A) (A) (A) (A) (A) (A) (A) (A) (A)
                 (A) (A) (A) (A) (A) (A) (A) (A) (A) (A) (A) (A)
                 (A) (A) (A) (A) (A) (A) (A) (A) (A) (A) (A) (A)
                 (A) (A) (A) (A) (A) (A) (A) (A) (A) (A) (A) (A)
                 (A) (A) (A) (A) (A) (A) (A) (A) (A) (A) (A) (A)
                 (A) (A) (A) (A) (A) (A) (A) (A) (A) (A) (A) (A)
                 (A) (A) (A) (A) (A) (A) (A) (A) (A) (A) (A) (A)
                 (A) (A) (A) (A) (A) (A) (A) (A) (A) (A) (A) (A)
                 (A) (A) (A) (A) (A) (A) (A) (A) (A) (A) (A) (A)
                 (A) (A) (A) (A) (A) (A) (A) (A) (A) (A) (A) (A)
                 (A) (A) (A) (A) (A) (A) (A) (A) (A) (A) (A) (A)
                 (A) (A) (A) (A) (A) (A) (A) (A) (A) (A) (A) (A)
                 (A) (A) (A) (A) (A) (A) (A) (A) (A) (A) (A) (A)
                 (A) (A) (A) (A) (A) (A) (A) (A) (A) (A) (A) (A)
                 (A) (A) (A) (A) (A) (A) (A) (A) (A) (A) (A) (A)
                 (A) (A) (A) (A) (A) (A) (A) (A) (A) (A) (A) (A)
                 (A) (A) (A) (A) (A) (A) (A) (A) (A) (A) (A) (A)
                 (A) (A) (A) (A) (A) (A) (A) (A) (A) (A) (A) (A)
                 (A) (A) (A) (A) (A) (A) (A) (A) (A) (A) (A) (A)
                 (A) (A) (A) (A) (A) (A) (A) (A) (A) (A) (A) (A)
                 (A) (A) (A) (A) (A) (A) (A) (A) (A) (A) (A) (A)
                 (A) (A) (A) (A) (A) (A) (A) (A) (A) (A) (A) (A)
                 (A) (A) (A) (A) (A) (A) (A) (A) (A) (A) (A) (A)
                 (A) (A) (A) (A) (A) (A) (A) (A) (A) (A) (A) (A)
                 (A) (A) (A) (A) (A) (A) (A) (A) (A) (A) (A) (A)
                 (A) (A) (A) (A) (A) (A) (A) (A) (A) (A) (A) (A)
                 (A) (A) (A) (A) (A) (A) (A) (A) (A) (A) (A) (A)
                 (A) (A) (A) (A) (A) (A) (A) (A) (A) (A) (A) (A)
                 (A) (A) (A) (A) (A) (A) (A) (A) (A) (A) (A) (A)
                 (A) (A) (A) (A) (A) (A) (A) (A) (A) (A) (A) (A)
                 (A) (A) (A) (A) (A) (A) (A) (A) (A) (A) (A) (A)
                 (A) (A) (A) (A) (A) (A) (A) (A) (A) (A) (A) (A)
                 (A) (A) (A) (A) (A) (A) (A) (A) (A) (A) (A) (A)
                 (A) (A) (A) (A) (A) (A) (A) (A) (A) (A) (A) (A)
                 (A) (A) (A) (A) (A) (A) (A) (A) (A) (A) (A) (A)
                 (A) (A) (A) (A) (A) (A) (A) (A) (A) (A) (A) (A)
                 (A) (A) (A) (A) (A) (A) (A) (A) (A) (A) (A) (A)
                 (A) (A) (A) (A) (A) (A) (A) (A) (A) (A) (A) (A)
                 (A) (A) (A)
 The electronic state is 1-A.
 Alpha  occ. eigenvalues -- -145.35906 -19.17640 -19.15303 -19.15256 -19.12825
 Alpha  occ. eigenvalues --  -19.12731 -19.11688 -19.10924 -19.10467 -19.09748
 Alpha  occ. eigenvalues --  -19.09016 -19.08178 -19.07752 -19.07117 -19.07061
 Alpha  occ. eigenvalues --  -19.05754 -19.05548 -19.04722 -19.04150 -19.03866
 Alpha  occ. eigenvalues --  -19.02482 -19.02305 -19.02040 -18.99970 -15.41683
 Alpha  occ. eigenvalues --  -14.58188 -14.39197 -14.37328 -14.37100 -14.36808
 Alpha  occ. eigenvalues --  -14.36625 -14.34494 -14.34021 -14.32519 -14.32494
 Alpha  occ. eigenvalues --  -14.31536 -14.31066 -14.30005 -14.29278 -14.28390
 Alpha  occ. eigenvalues --  -12.55286 -12.55258 -12.55243 -10.34664 -10.31544
 Alpha  occ. eigenvalues --  -10.30600 -10.30107 -10.29728 -10.29519 -10.27788
 Alpha  occ. eigenvalues --  -10.27184 -10.27133 -10.26908 -10.26388 -10.26350
 Alpha  occ. eigenvalues --  -10.25966 -10.25568 -10.25450 -10.24842 -10.24282
 Alpha  occ. eigenvalues --  -10.24186 -10.23830 -10.23609 -10.23609 -10.23566
 Alpha  occ. eigenvalues --  -10.23448 -10.23109 -10.22928 -10.22308 -10.22240
 Alpha  occ. eigenvalues --  -10.21723 -10.21263 -10.20815 -10.20744 -10.20743
 Alpha  occ. eigenvalues --  -10.20618 -10.20037 -10.19655 -10.19198 -10.19131
 Alpha  occ. eigenvalues --  -10.19070 -10.18875 -10.18758 -10.18628 -10.18570
 Alpha  occ. eigenvalues --  -10.17980 -10.17940 -10.17910 -10.17892 -10.17841
 Alpha  occ. eigenvalues --  -10.17795 -10.17560 -10.17341 -10.17038 -10.16311
 Alpha  occ. eigenvalues --  -10.16093 -10.13813  -1.78666  -1.13723  -1.06914
 Alpha  occ. eigenvalues --   -1.06758  -1.06342  -1.06120  -1.05102  -1.04912
 Alpha  occ. eigenvalues --   -1.04393  -1.04306  -1.03947  -1.03800  -1.03604
 Alpha  occ. eigenvalues --   -1.03443  -1.01543  -1.01309  -1.00338  -0.99528
 Alpha  occ. eigenvalues --   -0.99189  -0.98533  -0.98293  -0.97880  -0.97385
 Alpha  occ. eigenvalues --   -0.96485  -0.96065  -0.95905  -0.94432  -0.94218
 Alpha  occ. eigenvalues --   -0.93529  -0.92744  -0.91348  -0.91181  -0.90631
 Alpha  occ. eigenvalues --   -0.90375  -0.89788  -0.88694  -0.88200  -0.87853
 Alpha  occ. eigenvalues --   -0.87711  -0.86916  -0.85828  -0.85332  -0.84894
 Alpha  occ. eigenvalues --   -0.83464  -0.82835  -0.81820  -0.81734  -0.79865
 Alpha  occ. eigenvalues --   -0.78616  -0.78121  -0.77518  -0.76944  -0.76173
 Alpha  occ. eigenvalues --   -0.75235  -0.74515  -0.74012  -0.73427  -0.72738
 Alpha  occ. eigenvalues --   -0.72499  -0.71941  -0.71686  -0.70913  -0.70819
 Alpha  occ. eigenvalues --   -0.69658  -0.69211  -0.68084  -0.67767  -0.67617
 Alpha  occ. eigenvalues --   -0.67096  -0.65833  -0.65327  -0.64505  -0.64049
 Alpha  occ. eigenvalues --   -0.63984  -0.63170  -0.63041  -0.61475  -0.61234
 Alpha  occ. eigenvalues --   -0.61206  -0.61093  -0.61052  -0.60495  -0.59825
 Alpha  occ. eigenvalues --   -0.59589  -0.58558  -0.58138  -0.57922  -0.57339
 Alpha  occ. eigenvalues --   -0.57034  -0.56979  -0.56100  -0.55963  -0.55787
 Alpha  occ. eigenvalues --   -0.55433  -0.55375  -0.55157  -0.54798  -0.54551
 Alpha  occ. eigenvalues --   -0.54427  -0.53544  -0.53451  -0.53260  -0.52999
 Alpha  occ. eigenvalues --   -0.52642  -0.52595  -0.52458  -0.51993  -0.51672
 Alpha  occ. eigenvalues --   -0.51129  -0.51041  -0.50504  -0.49871  -0.49793
 Alpha  occ. eigenvalues --   -0.49328  -0.49190  -0.48875  -0.48768  -0.48610
 Alpha  occ. eigenvalues --   -0.48385  -0.48339  -0.48233  -0.48002  -0.47557
 Alpha  occ. eigenvalues --   -0.47451  -0.47202  -0.46920  -0.46754  -0.46020
 Alpha  occ. eigenvalues --   -0.45817  -0.45760  -0.45556  -0.45395  -0.45236
 Alpha  occ. eigenvalues --   -0.45178  -0.44940  -0.44849  -0.44607  -0.44516
 Alpha  occ. eigenvalues --   -0.44414  -0.44029  -0.43964  -0.43915  -0.43691
 Alpha  occ. eigenvalues --   -0.43568  -0.43391  -0.43301  -0.42851  -0.42673
 Alpha  occ. eigenvalues --   -0.42258  -0.42183  -0.42146  -0.42104  -0.41950
 Alpha  occ. eigenvalues --   -0.41523  -0.41483  -0.41304  -0.41270  -0.41154
 Alpha  occ. eigenvalues --   -0.41039  -0.41005  -0.40821  -0.40643  -0.40551
 Alpha  occ. eigenvalues --   -0.40331  -0.40261  -0.40162  -0.40015  -0.39872
 Alpha  occ. eigenvalues --   -0.39802  -0.39655  -0.39252  -0.39217  -0.38957
 Alpha  occ. eigenvalues --   -0.38871  -0.38745  -0.38500  -0.38466  -0.38407
 Alpha  occ. eigenvalues --   -0.38375  -0.38247  -0.38141  -0.38036  -0.37959
 Alpha  occ. eigenvalues --   -0.37811  -0.37714  -0.37523  -0.37428  -0.37196
 Alpha  occ. eigenvalues --   -0.37142  -0.36957  -0.36821  -0.36780  -0.36331
 Alpha  occ. eigenvalues --   -0.36090  -0.35662  -0.35384  -0.35193  -0.35185
 Alpha  occ. eigenvalues --   -0.35086  -0.34971  -0.34937  -0.34825  -0.34713
 Alpha  occ. eigenvalues --   -0.34542  -0.34270  -0.34131  -0.34043  -0.33763
 Alpha  occ. eigenvalues --   -0.33467  -0.33332  -0.33033  -0.32827  -0.32572
 Alpha  occ. eigenvalues --   -0.31970  -0.31697  -0.31670  -0.31531  -0.31237
 Alpha  occ. eigenvalues --   -0.31128  -0.30878  -0.30257  -0.30244  -0.29750
 Alpha  occ. eigenvalues --   -0.29240  -0.29186  -0.28921  -0.28609  -0.28429
 Alpha  occ. eigenvalues --   -0.27715  -0.27298  -0.27162  -0.26740  -0.26310
 Alpha  occ. eigenvalues --   -0.26111  -0.25981  -0.25786  -0.25169  -0.24293
 Alpha  occ. eigenvalues --   -0.24062  -0.23906  -0.23846  -0.23721  -0.23660
 Alpha  occ. eigenvalues --   -0.23087  -0.22826  -0.22548  -0.21977  -0.21917
 Alpha  occ. eigenvalues --   -0.21893  -0.21246  -0.21135  -0.20983  -0.20809
 Alpha  occ. eigenvalues --   -0.20183  -0.19820  -0.19491  -0.19031  -0.18736
 Alpha  occ. eigenvalues --   -0.18234  -0.17474  -0.15789
 Alpha virt. eigenvalues --   -0.09955  -0.04344  -0.03091  -0.02434  -0.01281
 Alpha virt. eigenvalues --   -0.00735  -0.00370  -0.00241  -0.00012   0.00266
 Alpha virt. eigenvalues --    0.00502   0.00548   0.01731   0.02196   0.02526
 Alpha virt. eigenvalues --    0.02622   0.02648   0.03068   0.03372   0.03671
 Alpha virt. eigenvalues --    0.03883   0.04034   0.04257   0.04848   0.05156
 Alpha virt. eigenvalues --    0.05471   0.05610   0.05709   0.06039   0.06301
 Alpha virt. eigenvalues --    0.06596   0.06658   0.06854   0.07011   0.07123
 Alpha virt. eigenvalues --    0.07286   0.07544   0.07747   0.07751   0.07816
 Alpha virt. eigenvalues --    0.08037   0.08716   0.08800   0.09031   0.09176
 Alpha virt. eigenvalues --    0.09447   0.09735   0.09845   0.09896   0.10123
 Alpha virt. eigenvalues --    0.10453   0.10667   0.10716   0.10906   0.11031
 Alpha virt. eigenvalues --    0.11066   0.11199   0.11469   0.11941   0.11965
 Alpha virt. eigenvalues --    0.12067   0.12371   0.12585   0.12647   0.12746
 Alpha virt. eigenvalues --    0.13005   0.13138   0.13216   0.13341   0.13441
 Alpha virt. eigenvalues --    0.13597   0.13661   0.14025   0.14176   0.14530
 Alpha virt. eigenvalues --    0.14646   0.14820   0.14907   0.15160   0.15319
 Alpha virt. eigenvalues --    0.15410   0.15638   0.15869   0.15967   0.16122
 Alpha virt. eigenvalues --    0.16415   0.16554   0.16611   0.16837   0.17033
 Alpha virt. eigenvalues --    0.17420   0.17634   0.17772   0.17844   0.18043
 Alpha virt. eigenvalues --    0.18069   0.18389   0.18495   0.18617   0.18949
 Alpha virt. eigenvalues --    0.19149   0.19242   0.19327   0.19680   0.20009
 Alpha virt. eigenvalues --    0.20115   0.20307   0.20421   0.20586   0.20757
 Alpha virt. eigenvalues --    0.21102   0.21295   0.21495   0.21590   0.21760
 Alpha virt. eigenvalues --    0.22098   0.22146   0.22291   0.22366   0.22651
 Alpha virt. eigenvalues --    0.22851   0.23079   0.23282   0.23484   0.23678
 Alpha virt. eigenvalues --    0.23821   0.24136   0.24229   0.24516   0.24659
 Alpha virt. eigenvalues --    0.24858   0.25059   0.25324   0.25739   0.25861
 Alpha virt. eigenvalues --    0.26201   0.26480   0.26699   0.26871   0.27178
 Alpha virt. eigenvalues --    0.27391   0.27696   0.27833   0.27992   0.28174
 Alpha virt. eigenvalues --    0.28538   0.28772   0.28811   0.29028   0.29393
 Alpha virt. eigenvalues --    0.29586   0.29720   0.30055   0.30375   0.30589
 Alpha virt. eigenvalues --    0.30920   0.31177   0.31224   0.31677   0.31735
 Alpha virt. eigenvalues --    0.32058   0.32143   0.32498   0.32631   0.32912
 Alpha virt. eigenvalues --    0.33069   0.33354   0.33411   0.33843   0.34041
 Alpha virt. eigenvalues --    0.34154   0.34401   0.34732   0.34821   0.34998
 Alpha virt. eigenvalues --    0.35964   0.36640   0.36987   0.37351   0.37399
 Alpha virt. eigenvalues --    0.37706   0.37982   0.38216   0.38501   0.38648
 Alpha virt. eigenvalues --    0.38769   0.38927   0.39334   0.39392   0.39604
 Alpha virt. eigenvalues --    0.39699   0.39989   0.40102   0.40732   0.41060
 Alpha virt. eigenvalues --    0.41091   0.41449   0.41498   0.41796   0.42232
 Alpha virt. eigenvalues --    0.42341   0.42797   0.42959   0.43079   0.43190
 Alpha virt. eigenvalues --    0.43728   0.44013   0.44184   0.44402   0.44758
 Alpha virt. eigenvalues --    0.44864   0.45055   0.45241   0.45269   0.45441
 Alpha virt. eigenvalues --    0.45802   0.46040   0.46213   0.46331   0.46462
 Alpha virt. eigenvalues --    0.46653   0.46841   0.46936   0.47165   0.47266
 Alpha virt. eigenvalues --    0.47586   0.47601   0.47891   0.48392   0.48707
 Alpha virt. eigenvalues --    0.48907   0.48961   0.49077   0.49315   0.49660
 Alpha virt. eigenvalues --    0.49924   0.50128   0.50199   0.50356   0.50514
 Alpha virt. eigenvalues --    0.50751   0.50852   0.51283   0.51521   0.51613
 Alpha virt. eigenvalues --    0.51831   0.51989   0.52289   0.52541   0.52648
 Alpha virt. eigenvalues --    0.52724   0.52915   0.53256   0.53334   0.53621
 Alpha virt. eigenvalues --    0.53689   0.53919   0.53974   0.54149   0.54259
 Alpha virt. eigenvalues --    0.54540   0.54894   0.55098   0.55268   0.55408
 Alpha virt. eigenvalues --    0.55500   0.55837   0.55842   0.56214   0.56261
 Alpha virt. eigenvalues --    0.56419   0.56589   0.56701   0.56989   0.57113
 Alpha virt. eigenvalues --    0.57380   0.57741   0.57966   0.58070   0.58382
 Alpha virt. eigenvalues --    0.58443   0.58610   0.58725   0.58948   0.59043
 Alpha virt. eigenvalues --    0.59218   0.59399   0.59539   0.59798   0.59949
 Alpha virt. eigenvalues --    0.60097   0.60125   0.60351   0.60473   0.60640
 Alpha virt. eigenvalues --    0.60704   0.60842   0.60903   0.61136   0.61225
 Alpha virt. eigenvalues --    0.61392   0.61493   0.61675   0.61719   0.61961
 Alpha virt. eigenvalues --    0.62046   0.62297   0.62344   0.62478   0.62702
 Alpha virt. eigenvalues --    0.62804   0.62874   0.63059   0.63271   0.63421
 Alpha virt. eigenvalues --    0.63512   0.63619   0.63744   0.63976   0.63990
 Alpha virt. eigenvalues --    0.64116   0.64337   0.64496   0.64532   0.64691
 Alpha virt. eigenvalues --    0.64860   0.64918   0.65095   0.65236   0.65285
 Alpha virt. eigenvalues --    0.65352   0.65573   0.65586   0.65627   0.65796
 Alpha virt. eigenvalues --    0.65885   0.65900   0.65943   0.66125   0.66224
 Alpha virt. eigenvalues --    0.66346   0.66479   0.66528   0.66622   0.66759
 Alpha virt. eigenvalues --    0.66919   0.67015   0.67099   0.67230   0.67396
 Alpha virt. eigenvalues --    0.67554   0.67703   0.67832   0.67875   0.67974
 Alpha virt. eigenvalues --    0.68017   0.68177   0.68220   0.68361   0.68508
 Alpha virt. eigenvalues --    0.68632   0.68723   0.68831   0.68873   0.68985
 Alpha virt. eigenvalues --    0.69205   0.69267   0.69428   0.69674   0.69855
 Alpha virt. eigenvalues --    0.70038   0.70363   0.70393   0.70506   0.70522
 Alpha virt. eigenvalues --    0.70688   0.70827   0.71006   0.71099   0.71158
 Alpha virt. eigenvalues --    0.71414   0.71687   0.71796   0.71883   0.71993
 Alpha virt. eigenvalues --    0.72189   0.72245   0.72285   0.72559   0.72785
 Alpha virt. eigenvalues --    0.72822   0.73093   0.73266   0.73335   0.73572
 Alpha virt. eigenvalues --    0.73620   0.73690   0.73860   0.74129   0.74275
 Alpha virt. eigenvalues --    0.74535   0.74697   0.74816   0.75142   0.75196
 Alpha virt. eigenvalues --    0.75284   0.75405   0.75827   0.75955   0.76185
 Alpha virt. eigenvalues --    0.76295   0.76459   0.76813   0.77002   0.77123
 Alpha virt. eigenvalues --    0.77410   0.77673   0.78000   0.78212   0.78373
 Alpha virt. eigenvalues --    0.78520   0.78736   0.79106   0.79410   0.79502
 Alpha virt. eigenvalues --    0.79917   0.80348   0.80629   0.80849   0.81030
 Alpha virt. eigenvalues --    0.81340   0.81384   0.81673   0.81981   0.82077
 Alpha virt. eigenvalues --    0.82363   0.82411   0.82606   0.83012   0.83151
 Alpha virt. eigenvalues --    0.83528   0.83682   0.84030   0.84129   0.84276
 Alpha virt. eigenvalues --    0.84520   0.84765   0.85026   0.85537   0.85820
 Alpha virt. eigenvalues --    0.86011   0.86100   0.86506   0.86590   0.87269
 Alpha virt. eigenvalues --    0.87320   0.87648   0.88150   0.88960   0.89080
 Alpha virt. eigenvalues --    0.89264   0.89501   0.89709   0.89798   0.90196
 Alpha virt. eigenvalues --    0.90628   0.90870   0.91222   0.91293   0.92006
 Alpha virt. eigenvalues --    0.92135   0.92347   0.92449   0.92569   0.92848
 Alpha virt. eigenvalues --    0.93066   0.93442   0.93867   0.94162   0.94526
 Alpha virt. eigenvalues --    0.94882   0.95350   0.95608   0.95949   0.96116
 Alpha virt. eigenvalues --    0.96333   0.96874   0.97229   0.97318   0.97844
 Alpha virt. eigenvalues --    0.98101   0.98503   0.98543   0.98725   0.99064
 Alpha virt. eigenvalues --    0.99113   0.99390   0.99694   1.00031   1.00139
 Alpha virt. eigenvalues --    1.00458   1.00859   1.01050   1.01521   1.01896
 Alpha virt. eigenvalues --    1.02031   1.02171   1.02962   1.03041   1.03500
 Alpha virt. eigenvalues --    1.03692   1.03886   1.04316   1.04358   1.04740
 Alpha virt. eigenvalues --    1.05112   1.05393   1.05507   1.06157   1.06467
 Alpha virt. eigenvalues --    1.06915   1.07099   1.07515   1.07922   1.08153
 Alpha virt. eigenvalues --    1.08563   1.08787   1.09235   1.09349   1.09557
 Alpha virt. eigenvalues --    1.09769   1.09882   1.09950   1.10582   1.10830
 Alpha virt. eigenvalues --    1.11022   1.11410   1.11874   1.12136   1.12526
 Alpha virt. eigenvalues --    1.12614   1.13060   1.13335   1.13685   1.14018
 Alpha virt. eigenvalues --    1.14133   1.14511   1.14948   1.15137   1.15226
 Alpha virt. eigenvalues --    1.15503   1.15587   1.15851   1.15962   1.16136
 Alpha virt. eigenvalues --    1.16308   1.16424   1.16643   1.16971   1.17570
 Alpha virt. eigenvalues --    1.17778   1.17859   1.18387   1.18633   1.18813
 Alpha virt. eigenvalues --    1.19231   1.19442   1.19658   1.20019   1.20210
 Alpha virt. eigenvalues --    1.20536   1.20674   1.21045   1.21121   1.21363
 Alpha virt. eigenvalues --    1.21620   1.21843   1.22189   1.22466   1.22683
 Alpha virt. eigenvalues --    1.22980   1.23223   1.23588   1.23914   1.23987
 Alpha virt. eigenvalues --    1.24208   1.24440   1.24639   1.24811   1.24933
 Alpha virt. eigenvalues --    1.25015   1.25296   1.25619   1.26101   1.26413
 Alpha virt. eigenvalues --    1.26580   1.26750   1.26819   1.27110   1.27364
 Alpha virt. eigenvalues --    1.27611   1.28010   1.28112   1.28261   1.28788
 Alpha virt. eigenvalues --    1.28854   1.29232   1.29408   1.29630   1.30077
 Alpha virt. eigenvalues --    1.30468   1.30603   1.31029   1.31286   1.31529
 Alpha virt. eigenvalues --    1.31592   1.32163   1.32407   1.33143   1.33231
 Alpha virt. eigenvalues --    1.33467   1.33602   1.34440   1.34553   1.34728
 Alpha virt. eigenvalues --    1.35105   1.35342   1.35617   1.36022   1.36459
 Alpha virt. eigenvalues --    1.36576   1.36866   1.36952   1.37313   1.37614
 Alpha virt. eigenvalues --    1.37748   1.37961   1.38149   1.38346   1.38849
 Alpha virt. eigenvalues --    1.39070   1.39266   1.39520   1.40375   1.40407
 Alpha virt. eigenvalues --    1.40574   1.41163   1.41367   1.41848   1.42084
 Alpha virt. eigenvalues --    1.42246   1.42540   1.42776   1.43240   1.43452
 Alpha virt. eigenvalues --    1.43465   1.43851   1.44092   1.44337   1.44472
 Alpha virt. eigenvalues --    1.44523   1.45101   1.45707   1.45957   1.46074
 Alpha virt. eigenvalues --    1.46240   1.46473   1.46711   1.47130   1.47188
 Alpha virt. eigenvalues --    1.47431   1.47667   1.48316   1.48495   1.48569
 Alpha virt. eigenvalues --    1.49302   1.49322   1.49541   1.49821   1.50066
 Alpha virt. eigenvalues --    1.50490   1.50648   1.51050   1.51431   1.51647
 Alpha virt. eigenvalues --    1.51893   1.52123   1.52256   1.52721   1.53047
 Alpha virt. eigenvalues --    1.53568   1.53643   1.54148   1.54529   1.54619
 Alpha virt. eigenvalues --    1.54796   1.55081   1.55330   1.55930   1.55995
 Alpha virt. eigenvalues --    1.56407   1.56707   1.57171   1.57766   1.57899
 Alpha virt. eigenvalues --    1.58349   1.58867   1.59074   1.59315   1.59706
 Alpha virt. eigenvalues --    1.59928   1.60485   1.61159   1.61235   1.61518
 Alpha virt. eigenvalues --    1.61829   1.62125   1.62349   1.62547   1.62623
 Alpha virt. eigenvalues --    1.63062   1.63375   1.63473   1.63709   1.63888
 Alpha virt. eigenvalues --    1.64205   1.64634   1.64695   1.64974   1.65359
 Alpha virt. eigenvalues --    1.65590   1.65767   1.66237   1.66351   1.66722
 Alpha virt. eigenvalues --    1.67271   1.67732   1.67789   1.68045   1.68660
 Alpha virt. eigenvalues --    1.68740   1.69097   1.69585   1.69869   1.70070
 Alpha virt. eigenvalues --    1.70251   1.70503   1.70954   1.71042   1.71153
 Alpha virt. eigenvalues --    1.71734   1.71819   1.72069   1.72258   1.72326
 Alpha virt. eigenvalues --    1.72488   1.72842   1.73493   1.73496   1.73609
 Alpha virt. eigenvalues --    1.73731   1.74034   1.74187   1.74565   1.74631
 Alpha virt. eigenvalues --    1.75000   1.75456   1.75573   1.75703   1.75854
 Alpha virt. eigenvalues --    1.75970   1.75990   1.76112   1.76207   1.76590
 Alpha virt. eigenvalues --    1.76687   1.76883   1.77074   1.77239   1.77441
 Alpha virt. eigenvalues --    1.77620   1.77852   1.77933   1.78103   1.78225
 Alpha virt. eigenvalues --    1.78392   1.78622   1.78719   1.78864   1.79048
 Alpha virt. eigenvalues --    1.79144   1.79232   1.79392   1.79512   1.79742
 Alpha virt. eigenvalues --    1.79960   1.80085   1.80327   1.80481   1.80620
 Alpha virt. eigenvalues --    1.80773   1.80884   1.81058   1.81213   1.81562
 Alpha virt. eigenvalues --    1.81688   1.81785   1.82020   1.82069   1.82432
 Alpha virt. eigenvalues --    1.82544   1.82785   1.82966   1.83186   1.83323
 Alpha virt. eigenvalues --    1.83526   1.83559   1.83845   1.84026   1.84226
 Alpha virt. eigenvalues --    1.84366   1.84591   1.84812   1.85015   1.85210
 Alpha virt. eigenvalues --    1.85470   1.85929   1.86116   1.86325   1.86410
 Alpha virt. eigenvalues --    1.86693   1.86930   1.86980   1.87245   1.87401
 Alpha virt. eigenvalues --    1.87603   1.87790   1.88040   1.88319   1.88389
 Alpha virt. eigenvalues --    1.88664   1.88746   1.89073   1.89277   1.89516
 Alpha virt. eigenvalues --    1.89710   1.89766   1.90026   1.90134   1.90197
 Alpha virt. eigenvalues --    1.90498   1.90717   1.90826   1.90993   1.91213
 Alpha virt. eigenvalues --    1.91398   1.91593   1.91765   1.92004   1.92166
 Alpha virt. eigenvalues --    1.92351   1.92512   1.92826   1.93019   1.93159
 Alpha virt. eigenvalues --    1.93413   1.93454   1.93663   1.93923   1.94046
 Alpha virt. eigenvalues --    1.94796   1.94883   1.95133   1.95354   1.95709
 Alpha virt. eigenvalues --    1.95867   1.95891   1.96079   1.96528   1.96679
 Alpha virt. eigenvalues --    1.96869   1.97050   1.97128   1.97196   1.97664
 Alpha virt. eigenvalues --    1.97950   1.98057   1.98246   1.98417   1.98706
 Alpha virt. eigenvalues --    1.98946   1.99178   1.99338   1.99929   1.99943
 Alpha virt. eigenvalues --    2.00337   2.00703   2.00782   2.00946   2.01258
 Alpha virt. eigenvalues --    2.01479   2.01566   2.02113   2.02229   2.02538
 Alpha virt. eigenvalues --    2.02645   2.02842   2.03147   2.03459   2.03775
 Alpha virt. eigenvalues --    2.04291   2.04605   2.05111   2.05253   2.05442
 Alpha virt. eigenvalues --    2.05696   2.05978   2.06192   2.06318   2.06483
 Alpha virt. eigenvalues --    2.06702   2.06918   2.07064   2.07309   2.07483
 Alpha virt. eigenvalues --    2.07709   2.08043   2.08183   2.08784   2.08966
 Alpha virt. eigenvalues --    2.09027   2.09193   2.09413   2.09568   2.09792
 Alpha virt. eigenvalues --    2.09906   2.10142   2.10273   2.10871   2.11078
 Alpha virt. eigenvalues --    2.11381   2.11842   2.12068   2.12265   2.12654
 Alpha virt. eigenvalues --    2.12892   2.13576   2.13651   2.13848   2.14599
 Alpha virt. eigenvalues --    2.14824   2.14960   2.15512   2.15696   2.16033
 Alpha virt. eigenvalues --    2.16236   2.16627   2.16918   2.17409   2.17837
 Alpha virt. eigenvalues --    2.18068   2.18226   2.18373   2.18602   2.18999
 Alpha virt. eigenvalues --    2.19080   2.19300   2.19757   2.19977   2.20237
 Alpha virt. eigenvalues --    2.20552   2.20558   2.20985   2.21427   2.21545
 Alpha virt. eigenvalues --    2.22136   2.22291   2.22456   2.23035   2.23523
 Alpha virt. eigenvalues --    2.24006   2.24194   2.24526   2.24701   2.24818
 Alpha virt. eigenvalues --    2.25305   2.25828   2.26061   2.26249   2.26706
 Alpha virt. eigenvalues --    2.27039   2.27137   2.27917   2.28699   2.28884
 Alpha virt. eigenvalues --    2.29061   2.29375   2.29516   2.29653   2.29779
 Alpha virt. eigenvalues --    2.30466   2.30544   2.31038   2.31581   2.31824
 Alpha virt. eigenvalues --    2.32251   2.32913   2.33062   2.33221   2.33322
 Alpha virt. eigenvalues --    2.34200   2.34553   2.34711   2.35154   2.35370
 Alpha virt. eigenvalues --    2.35572   2.35904   2.36095   2.36272   2.36423
 Alpha virt. eigenvalues --    2.36879   2.37221   2.37439   2.37541   2.37971
 Alpha virt. eigenvalues --    2.38324   2.38380   2.38466   2.38897   2.39056
 Alpha virt. eigenvalues --    2.39285   2.39531   2.39741   2.39927   2.40334
 Alpha virt. eigenvalues --    2.40823   2.41513   2.41956   2.42006   2.42320
 Alpha virt. eigenvalues --    2.42499   2.43098   2.43846   2.44052   2.44409
 Alpha virt. eigenvalues --    2.44448   2.45130   2.45251   2.45591   2.45832
 Alpha virt. eigenvalues --    2.46246   2.46338   2.46837   2.46925   2.47405
 Alpha virt. eigenvalues --    2.47574   2.47909   2.48141   2.48309   2.48757
 Alpha virt. eigenvalues --    2.49697   2.49996   2.50292   2.50771   2.51167
 Alpha virt. eigenvalues --    2.51304   2.51681   2.51868   2.52094   2.52612
 Alpha virt. eigenvalues --    2.52802   2.52933   2.53197   2.53408   2.53571
 Alpha virt. eigenvalues --    2.54060   2.54389   2.54970   2.55022   2.56060
 Alpha virt. eigenvalues --    2.56413   2.56525   2.56920   2.57128   2.57806
 Alpha virt. eigenvalues --    2.58016   2.58591   2.58649   2.58888   2.59077
 Alpha virt. eigenvalues --    2.59348   2.59575   2.59772   2.59999   2.60372
 Alpha virt. eigenvalues --    2.60864   2.61367   2.61574   2.61786   2.62299
 Alpha virt. eigenvalues --    2.62518   2.63050   2.63331   2.63589   2.63870
 Alpha virt. eigenvalues --    2.64080   2.64154   2.64420   2.64770   2.64916
 Alpha virt. eigenvalues --    2.64974   2.65129   2.65604   2.65767   2.66917
 Alpha virt. eigenvalues --    2.67023   2.67700   2.67834   2.68303   2.68525
 Alpha virt. eigenvalues --    2.68682   2.68799   2.69020   2.69397   2.69489
 Alpha virt. eigenvalues --    2.69734   2.70401   2.71145   2.71268   2.71514
 Alpha virt. eigenvalues --    2.71715   2.72124   2.72317   2.72646   2.73130
 Alpha virt. eigenvalues --    2.73267   2.73428   2.73676   2.73880   2.74110
 Alpha virt. eigenvalues --    2.74260   2.74902   2.75158   2.75209   2.75519
 Alpha virt. eigenvalues --    2.75685   2.75833   2.75896   2.76075   2.76477
 Alpha virt. eigenvalues --    2.77106   2.77292   2.77637   2.77685   2.77896
 Alpha virt. eigenvalues --    2.78235   2.78353   2.78516   2.78571   2.78800
 Alpha virt. eigenvalues --    2.78848   2.79085   2.80107   2.80230   2.80549
 Alpha virt. eigenvalues --    2.80631   2.80909   2.81014   2.81307   2.81387
 Alpha virt. eigenvalues --    2.82056   2.82115   2.82629   2.83092   2.83259
 Alpha virt. eigenvalues --    2.83447   2.83535   2.84247   2.84450   2.84546
 Alpha virt. eigenvalues --    2.84677   2.84978   2.85255   2.85519   2.85645
 Alpha virt. eigenvalues --    2.85963   2.86337   2.87087   2.87613   2.87650
 Alpha virt. eigenvalues --    2.87979   2.88223   2.88725   2.88841   2.88867
 Alpha virt. eigenvalues --    2.89382   2.89655   2.89765   2.90410   2.90934
 Alpha virt. eigenvalues --    2.91054   2.91603   2.91723   2.92179   2.92558
 Alpha virt. eigenvalues --    2.92692   2.93228   2.93864   2.93960   2.94409
 Alpha virt. eigenvalues --    2.94470   2.94550   2.94721   2.95097   2.95622
 Alpha virt. eigenvalues --    2.95846   2.95932   2.96071   2.96249   2.96512
 Alpha virt. eigenvalues --    2.96749   2.96864   2.97348   2.97632   2.98247
 Alpha virt. eigenvalues --    2.98563   2.98882   2.99275   2.99390   3.00056
 Alpha virt. eigenvalues --    3.00202   3.00846   3.01023   3.01382   3.01747
 Alpha virt. eigenvalues --    3.01858   3.02081   3.02361   3.02830   3.03439
 Alpha virt. eigenvalues --    3.03659   3.04132   3.04761   3.05517   3.05851
 Alpha virt. eigenvalues --    3.06144   3.06437   3.06547   3.07108   3.07406
 Alpha virt. eigenvalues --    3.07666   3.08081   3.08891   3.09459   3.10517
 Alpha virt. eigenvalues --    3.10691   3.11131   3.11678   3.12071   3.12936
 Alpha virt. eigenvalues --    3.13204   3.13354   3.13402   3.13478   3.13730
 Alpha virt. eigenvalues --    3.14724   3.15020   3.15518   3.15534   3.15986
 Alpha virt. eigenvalues --    3.16462   3.16810   3.17775   3.18037   3.18582
 Alpha virt. eigenvalues --    3.18870   3.19296   3.19743   3.20285   3.20568
 Alpha virt. eigenvalues --    3.20861   3.21032   3.21135   3.21645   3.22101
 Alpha virt. eigenvalues --    3.22191   3.22535   3.23034   3.23602   3.23688
 Alpha virt. eigenvalues --    3.24156   3.25091   3.25213   3.26129   3.26581
 Alpha virt. eigenvalues --    3.27031   3.27496   3.27570   3.27935   3.28190
 Alpha virt. eigenvalues --    3.28857   3.28931   3.29588   3.30445   3.30804
 Alpha virt. eigenvalues --    3.31037   3.31290   3.32698   3.32835   3.33105
 Alpha virt. eigenvalues --    3.33960   3.35074   3.35264   3.37092   3.40494
 Alpha virt. eigenvalues --    3.41579   3.42422   3.48687   3.49284   3.53056
 Alpha virt. eigenvalues --    3.54016   3.55004   3.55285   3.56691   3.56757
 Alpha virt. eigenvalues --    3.57294   3.57466   3.58558   3.59532   3.59804
 Alpha virt. eigenvalues --    3.61302   3.61955   3.62390   3.64246   3.66158
 Alpha virt. eigenvalues --    3.66576   3.67306   3.67545   3.68115   3.68993
 Alpha virt. eigenvalues --    3.69116   3.69576   3.70249   3.70462   3.70946
 Alpha virt. eigenvalues --    3.71648   3.71993   3.72619   3.72672   3.73126
 Alpha virt. eigenvalues --    3.73470   3.73929   3.73977   3.74729   3.76159
 Alpha virt. eigenvalues --    3.78875   3.80015   3.84631   3.86640
          Condensed to atoms (all electrons):
 Mulliken charges:
               1
     1  C    0.055669
     2  C    0.032955
     3  O   -0.301415
     4  H    0.020541
     5  H    0.031919
     6  H    0.025892
     7  N   -0.116831
     8  C    0.127254
     9  C    0.034371
    10  O   -0.301383
    11  C    0.071784
    12  C    0.116059
    13  O   -0.384018
    14  O   -0.447195
    15  H    0.117084
    16  H   -0.002304
    17  H    0.004134
    18  H    0.016035
    19  N   -0.130738
    20  C    0.167710
    21  C    0.045416
    22  O   -0.311200
    23  C    0.003884
    24  C   -0.019812
    25  C   -0.045167
    26  C    0.034178
    27  N    0.075497
    28  H    0.157691
    29  H    0.003284
    30  H    0.044966
    31  H    0.018606
    32  H   -0.001822
    33  H    0.023906
    34  H    0.067809
    35  H    0.046266
    36  H    0.070027
    37  H    0.078199
    38  H    0.190811
    39  H    0.186017
    40  H    0.204496
    41  N   -0.173091
    42  C    0.155464
    43  C    0.081053
    44  O   -0.276579
    45  C    0.065997
    46  C    0.102358
    47  O   -0.396707
    48  O   -0.478886
    49  H    0.169204
    50  H    0.008226
    51  H   -0.015170
    52  H    0.019299
    53  N   -0.164476
    54  C    0.251255
    55  C    0.026137
    56  O   -0.301571
    57  H    0.139030
    58  H    0.005251
    59  H    0.015987
    60  N   -0.153846
    61  C    0.175245
    62  C    0.017769
    63  O   -0.302094
    64  C    0.118204
    65  C    0.054094
    66  N   -0.043876
    67  O   -0.387743
    68  H    0.152582
    69  H    0.031004
    70  H    0.079604
    71  H    0.019093
    72  H    0.126428
    73  H    0.123121
    74  N   -0.183601
    75  C    0.238905
    76  C    0.018641
    77  O   -0.301236
    78  H    0.145156
    79  H    0.050171
    80  H    0.029672
    81  N   -0.119532
    82  C    0.098302
    83  C    0.140423
    84  O   -0.351488
    85  C    0.106748
    86  C    0.002000
    87  C    0.028196
    88  C    0.039104
    89  C   -0.006664
    90  C   -0.041925
    91  C    0.140697
    92  O   -0.175722
    93  H    0.143862
    94  H    0.009337
    95  H    0.006565
    96  H   -0.061841
    97  H   -0.054955
    98  H   -0.037695
    99  H   -0.023149
   100  H   -0.042924
   101  H    0.164691
   102  N   -0.113935
   103  C    0.118250
   104  C    0.079840
   105  O   -0.275593
   106  C   -0.092027
   107  C    0.073501
   108  C    0.058979
   109  C   -0.065796
   110  H    0.128390
   111  H    0.030424
   112  H   -0.018420
   113  H   -0.011135
   114  H   -0.013617
   115  H    0.009444
   116  H    0.019635
   117  H    0.014717
   118  H   -0.005780
   119  H    0.032610
   120  H    0.045417
   121  N   -0.128960
   122  C    0.087661
   123  C    0.074069
   124  O   -0.282360
   125  C    0.255431
   126  O   -0.345412
   127  H    0.151137
   128  H    0.016720
   129  H    0.012163
   130  H   -0.017286
   131  H    0.167580
   132  N   -0.118764
   133  C    0.076503
   134  C    0.086587
   135  O   -0.253926
   136  C    0.034600
   137  H    0.108885
   138  H    0.030996
   139  H    0.023499
   140  H    0.009700
   141  H    0.048943
   142  N   -0.141549
   143  C    0.075067
   144  C    0.100605
   145  O   -0.242398
   146  C    0.025124
   147  H    0.106438
   148  H    0.013864
   149  H    0.021702
   150  H    0.000166
   151  H    0.023730
   152  N   -0.178029
   153  C    0.151072
   154  C    0.030760
   155  O   -0.279372
   156  C   -0.010435
   157  C    0.095644
   158  C    0.163576
   159  O   -0.393210
   160  O   -0.465062
   161  H    0.122669
   162  H   -0.029402
   163  H    0.045058
   164  H   -0.002944
   165  H    0.002015
   166  H   -0.029634
   167  N   -0.155050
   168  C    0.135695
   169  H    0.003486
   170  H    0.025155
   171  H    0.031979
   172  H    0.118101
   173  Ca   1.290460
   174  O   -0.286947
   175  H    0.185988
   176  H    0.178332
 Sum of Mulliken charges =   0.00000
 Mulliken charges with hydrogens summed into heavy atoms:
               1
     1  C    0.134021
     2  C    0.032955
     3  O   -0.301415
     7  N    0.000253
     8  C    0.124950
     9  C    0.034371
    10  O   -0.301383
    11  C    0.091953
    12  C    0.116059
    13  O   -0.384018
    14  O   -0.447195
    19  N    0.026953
    20  C    0.170993
    21  C    0.045416
    22  O   -0.311200
    23  C    0.067455
    24  C    0.002272
    25  C    0.068908
    26  C    0.182403
    27  N    0.656821
    41  N   -0.003887
    42  C    0.163690
    43  C    0.081053
    44  O   -0.276579
    45  C    0.070126
    46  C    0.102358
    47  O   -0.396707
    48  O   -0.478886
    53  N   -0.025446
    54  C    0.272493
    55  C    0.026137
    56  O   -0.301571
    60  N   -0.001264
    61  C    0.206250
    62  C    0.017769
    63  O   -0.302094
    64  C    0.216900
    65  C    0.054094
    66  N    0.205672
    67  O   -0.387743
    74  N   -0.038445
    75  C    0.318748
    76  C    0.018641
    77  O   -0.301236
    81  N    0.024330
    82  C    0.107640
    83  C    0.140423
    84  O   -0.351488
    85  C    0.051473
    86  C    0.002000
    87  C   -0.026759
    88  C    0.001408
    89  C   -0.029813
    90  C   -0.084848
    91  C    0.140697
    92  O   -0.011031
   102  N    0.014454
   103  C    0.148674
   104  C    0.079840
   105  O   -0.275593
   106  C   -0.110447
   107  C    0.048749
   108  C    0.102775
   109  C    0.006451
   121  N    0.022177
   122  C    0.104381
   123  C    0.074069
   124  O   -0.282360
   125  C    0.250308
   126  O   -0.177832
   132  N   -0.009880
   133  C    0.107499
   134  C    0.086587
   135  O   -0.253926
   136  C    0.116741
   142  N   -0.035111
   143  C    0.088930
   144  C    0.100605
   145  O   -0.242398
   146  C    0.070722
   152  N   -0.055359
   153  C    0.121670
   154  C    0.030760
   155  O   -0.279372
   156  C    0.031679
   157  C    0.068024
   158  C    0.163576
   159  O   -0.393210
   160  O   -0.465062
   167  N   -0.036948
   168  C    0.196315
   173  Ca   1.290460
   174  O    0.077373
 DipInt: DoE/N= T F RetVal/Mat= T F Init=T NMatP=  1 IDeriv=0 Min/MaxMlt=  0  4
 Entering OneElI...
 OneElI was handed  4286741430 working-precision words.
 Multipole integrals L=0 to 4 MinM= 0 MaxM= 0.
 Requested accuracy = 0.1000D-12
 ShPair: Thresh= 1.00D-13 NBox=     0 BxSize= 0.00D+00 RnKept= 2.55D+01
         NSMCal=               327645 NSMKep=              161692
 PrsmSu:  NPrtUS=   1 ThrOK=F IAlg=1 NPAlg=1 LenDen=           0.
 Prism:   IPart=     0 DynPar=F LinDyn=F Incr=         512.
 PRISM was handed  4276622798 working-precision words and161692 shell-pairs
 IPart=  0 NShTot=      161692 NBatch=         453 AvBLen=       356.9
 PrSmSu:  NxtVal=            513.
 Electronic moments (au):
       -716.00000000         11.62126501          1.40729985         -1.67780006
     -51791.92461890     -31417.27297711     -11695.47246904        141.81759192
        -18.93477314         44.45656269     -21532.79353134     -37350.34142234
     -13337.44757893     -12107.45075973     114872.33486354      33998.16560314
      -7248.57905033      -4722.54349367       6456.76415058     -28985.95005830
   -7609009.65451728   -3008506.21564074    -561345.23033450    -363692.90276828
     255934.50528750    -591047.46795563      -1187.97017544     -85694.28367511
     -14991.30684041   -2538617.44526839    -568410.90512830    -314183.44084285
    -158022.24714026      59097.99221985      78056.39935084
 Electronic spatial extent (au):  <R**2>=          94904.6701
 DipInt: DoE/N= F T RetVal/Mat= T F Init=T NMatP=  1 IDeriv=0 Min/MaxMlt=  0  4
 Nuclear    moments (au):
        716.00000000          0.00000000          0.00000000          0.00000000
      51329.69905202      31134.41856721      11313.04364827          0.00000000
          0.00000000          0.00000000      22477.78164841      39017.12457534
      13297.76983492      14668.48196523    -113968.92696923     -34335.72753271
       7367.36439193       4527.78037270      -6207.12894587      29222.48837255
    7406257.50770929    2933380.86396119     523930.59402204     382621.84259868
    -260272.30313556     621919.11330613       5667.15077749      86711.31439368
      17600.59980397    2513241.37680166     534112.58232729     290057.64448537
     160011.58150380     -60271.97798453     -78156.15758005
 Total      moments (au):
          0.00000000         11.62126501          1.40729985         -1.67780006
       -462.22556687       -282.85440991       -382.42882077        141.81759192
        -18.93477314         44.45656269        944.98811708       1666.78315300
        -39.67774401       2561.03120550        903.40789431       -337.56192957
        118.78534161       -194.76312097        249.63520471        236.53831425
    -202752.14680799     -75125.35167955     -37414.63631246      18928.93983040
      -4337.79784806      30871.64535050       4479.18060204       1017.03071857
       2609.29296355     -25376.06846672     -34298.32280101     -24125.79635748
       1989.33436354      -1173.98576468        -99.75822922
 Traceless Quadrup. (au):
        -86.38930102         92.98185594         -6.59255492        141.81759192
        -18.93477314         44.45656269
 Charge=              0.0000 electrons
 Dipole moment (field-independent basis, Debye):
    X=             29.5383    Y=              3.5770    Z=             -4.2645  Tot=             30.0582
 Quadrupole moment (field-independent basis, Debye-Ang):
   XX=           -621.7092   YY=           -380.4488   ZZ=           -514.3798
   XY=            190.7495   XZ=            -25.4679   YZ=             59.7956
 Traceless Quadrupole moment (field-independent basis, Debye-Ang):
   XX=           -116.1966   YY=            125.0638   ZZ=             -8.8672
   XY=            190.7495   XZ=            -25.4679   YZ=             59.7956
 Octapole moment (field-independent basis, Debye-Ang**2):
  XXX=            672.6061  YYY=           1186.3520  ZZZ=            -28.2411  XYY=           1822.8432
  XXY=            643.0109  XXZ=           -240.2636  XZZ=             84.5468  YZZ=           -138.6249
  YYZ=            177.6807  XYZ=            168.3588
 Hexadecapole moment (field-independent basis, Debye-Ang**3):
 XXXX=         -76366.1757 YYYY=         -28295.8079 ZZZZ=         -14092.1452 XXXY=           7129.5459
 XXXZ=          -1633.8226 YYYX=          11627.7412 YYYZ=           1687.0741 ZZZX=            383.0625
 ZZZY=            982.7848 XXYY=          -9557.8436 XXZZ=         -12918.3922 YYZZ=          -9086.9312
 XXYZ=            749.2787 YYXZ=           -442.1793 ZZXY=            -37.5737
 N-N= 2.176941247740D+04 E-N=-5.602319139478D+04  KE= 5.290707789420D+03
 Leave Link  601 at Mon Sep 16 20:10:55 2019, MaxMem=  4294967296 cpu:        21.9
 FitSet:  NAtFit=   176 NAtPot=   176 NAtFrz=     0 MDM=   180 TotChg=   0.00000
 Merz-Kollman atomic radii used.
 Read replacement radii for each type of atom:
 Rad(20) =   1.700000000000D+00
 Atom Element Radius
    1     6    1.50
    2     6    1.50
    3     8    1.40
    4     1    1.20
    5     1    1.20
    6     1    1.20
    7     7    1.50
    8     6    1.50
    9     6    1.50
   10     8    1.40
   11     6    1.50
   12     6    1.50
   13     8    1.40
   14     8    1.40
   15     1    1.20
   16     1    1.20
   17     1    1.20
   18     1    1.20
   19     7    1.50
   20     6    1.50
   21     6    1.50
   22     8    1.40
   23     6    1.50
   24     6    1.50
   25     6    1.50
   26     6    1.50
   27     7    1.50
   28     1    1.20
   29     1    1.20
   30     1    1.20
   31     1    1.20
   32     1    1.20
   33     1    1.20
   34     1    1.20
   35     1    1.20
   36     1    1.20
   37     1    1.20
   38     1    1.20
   39     1    1.20
   40     1    1.20
   41     7    1.50
   42     6    1.50
   43     6    1.50
   44     8    1.40
   45     6    1.50
   46     6    1.50
   47     8    1.40
   48     8    1.40
   49     1    1.20
   50     1    1.20
   51     1    1.20
   52     1    1.20
   53     7    1.50
   54     6    1.50
   55     6    1.50
   56     8    1.40
   57     1    1.20
   58     1    1.20
   59     1    1.20
   60     7    1.50
   61     6    1.50
   62     6    1.50
   63     8    1.40
   64     6    1.50
   65     6    1.50
   66     7    1.50
   67     8    1.40
   68     1    1.20
   69     1    1.20
   70     1    1.20
   71     1    1.20
   72     1    1.20
   73     1    1.20
   74     7    1.50
   75     6    1.50
   76     6    1.50
   77     8    1.40
   78     1    1.20
   79     1    1.20
   80     1    1.20
   81     7    1.50
   82     6    1.50
   83     6    1.50
   84     8    1.40
   85     6    1.50
   86     6    1.50
   87     6    1.50
   88     6    1.50
   89     6    1.50
   90     6    1.50
   91     6    1.50
   92     8    1.40
   93     1    1.20
   94     1    1.20
   95     1    1.20
   96     1    1.20
   97     1    1.20
   98     1    1.20
   99     1    1.20
  100     1    1.20
  101     1    1.20
  102     7    1.50
  103     6    1.50
  104     6    1.50
  105     8    1.40
  106     6    1.50
  107     6    1.50
  108     6    1.50
  109     6    1.50
  110     1    1.20
  111     1    1.20
  112     1    1.20
  113     1    1.20
  114     1    1.20
  115     1    1.20
  116     1    1.20
  117     1    1.20
  118     1    1.20
  119     1    1.20
  120     1    1.20
  121     7    1.50
  122     6    1.50
  123     6    1.50
  124     8    1.40
  125     6    1.50
  126     8    1.40
  127     1    1.20
  128     1    1.20
  129     1    1.20
  130     1    1.20
  131     1    1.20
  132     7    1.50
  133     6    1.50
  134     6    1.50
  135     8    1.40
  136     6    1.50
  137     1    1.20
  138     1    1.20
  139     1    1.20
  140     1    1.20
  141     1    1.20
  142     7    1.50
  143     6    1.50
  144     6    1.50
  145     8    1.40
  146     6    1.50
  147     1    1.20
  148     1    1.20
  149     1    1.20
  150     1    1.20
  151     1    1.20
  152     7    1.50
  153     6    1.50
  154     6    1.50
  155     8    1.40
  156     6    1.50
  157     6    1.50
  158     6    1.50
  159     8    1.40
  160     8    1.40
  161     1    1.20
  162     1    1.20
  163     1    1.20
  164     1    1.20
  165     1    1.20
  166     1    1.20
  167     7    1.50
  168     6    1.50
  169     1    1.20
  170     1    1.20
  171     1    1.20
  172     1    1.20
  173    20    1.70
  174     8    1.40
  175     1    1.20
  176     1    1.20
 Generate VDW surfaces: Layer= 4 Dens= 6 Start= 1.400 Inc= 0.200

 **********************************************************************

            Electrostatic Properties Using The SCF Density

 **********************************************************************

       Atomic Center    1 is at   2.257937  2.283605  5.645508
       Atomic Center    2 is at   1.612086  2.122890  4.277609
[...]
 **** Fit      -0.042067
 **** Fit      -0.038920
 **** Fit      -0.035066
 **** Fit      -0.030636
 **** Fit      -0.025800
 **** Fit      -0.020792
 **** Fit      -0.015941
 **** Fit      -0.011677
 **** Fit      -0.008490
 **** Fit      -0.006887
 **** Fit      -0.016785
 **** Fit      -0.045450
 **** Fit      -0.046155
 **** Fit      -0.050436
 **** Fit      -0.048565
 **** Fit      -0.045641
 **** Fit      -0.041800
 **** Fit      -0.037185
 **** Fit      -0.031951
 **** Fit      -0.026276
 **** Fit      -0.020404
 **** Fit      -0.014681
 **** Fit      -0.009561
 **** Fit      -0.005546
 **** Fit      -0.050701
 **** Fit      -0.051158
 **** Fit      -0.045702
 **** Fit      -0.039956
 **** Fit      -0.033597
 **** Fit      -0.026843
 **** Fit      -0.019971
 **** Fit      -0.013367
 **** Fit      -0.007533
 **** Fit      -0.002981
 **** Fit      -0.036433
 **** Fit      -0.028459
 **** Fit      -0.020560
 **** Fit      -0.013119
 **** Fit      -0.006608
 **** Fit      -0.028359
 **** Fit      -0.019057
 **** Fit       0.020461
 **** Fit       0.017086
 **** Fit       0.019720
 **** Fit       0.021750
 **** Fit       0.018385
 **** Fit       0.018583
 **** Fit       0.017348
 **** Fit       0.014276
 **** Fit      -0.007226
 **** Fit       0.016244
 **** Fit       0.014786
 **** Fit       0.011843
 **** Fit       0.007196
 **** Fit       0.000923
 **** Fit      -0.006510
 **** Fit       0.009330
 **** Fit       0.004394
 **** Fit      -0.001384
 **** Fit      -0.006577
 **** Fit       0.005199
 **** Fit       0.001785
 **** Fit       0.000658
 **** Fit      -0.008235
 **** Fit      -0.009973
 **** Fit      -0.015488
 **** Fit      -0.021677
 **** Fit      -0.010752
 **** Fit      -0.017292
 **** Fit      -0.024262
 **** Fit      -0.018392
 **** Fit      -0.027230
 **** Fit      -0.017513
 **** Fit      -0.005892
 **** Fit      -0.016742
 **** Fit      -0.001262
 **** Fit       0.002557
 **** Fit       0.008095
 **** Fit       0.011717
 **** Fit       0.016185
 **** Fit       0.022430
 **** Fit       0.013384
 **** Fit       0.018242
 **** Fit       0.016529
 **** Fit       0.017262
 **** Fit       0.017081
 **** Fit       0.016562
 **** Fit       0.015205
 **** Fit       0.017715
 **** Fit       0.016647
 **** Fit       0.015143
 **** Fit       0.012819
 **** Fit       0.009701
 **** Fit       0.006415
 **** Fit       0.017207
 **** Fit       0.015524
 **** Fit       0.013395
 **** Fit       0.011152
 **** Fit       0.010041
 **** Fit       0.012159
 **** Fit       0.018039
 **** Fit       0.016275
 **** Fit       0.014639
 **** Fit       0.014555
 **** Fit       0.018304
 **** Fit       0.019169
 **** Fit       0.017675
 **** Fit       0.017814
 **** Fit       0.021387
 **** Fit       0.021523
 **** Fit       0.019936
 **** Fit       0.019573
 **** Fit       0.024213
 **** Fit       0.023938
 **** Fit      -0.033454
 **** Fit      -0.028348
 **** Fit      -0.029211
 **** Fit      -0.008326
 **** Fit      -0.008490
 **** Fit      -0.009752
 **** Fit      -0.009750
 **** Fit      -0.007263
 **** Fit      -0.008666
 **** Fit      -0.012048
 **** Fit      -0.011626
 **** Fit      -0.006497
 **** Fit      -0.007503
 **** Fit      -0.008928
 **** Fit      -0.014084
 **** Fit      -0.012380
 **** Fit      -0.005983
 **** Fit      -0.006898
 **** Fit      -0.007880
 **** Fit      -0.018158
 **** Fit      -0.016718
 **** Fit      -0.014472
 **** Fit      -0.005536
 **** Fit      -0.006438
 **** Fit      -0.007381
 **** Fit      -0.008355
 **** Fit      -0.022741
 **** Fit      -0.020804
 **** Fit      -0.018236
 **** Fit      -0.004579
 **** Fit      -0.005425
 **** Fit      -0.006298
 **** Fit      -0.007208
 **** Fit      -0.008145
 **** Fit      -0.009089
 **** Fit      -0.027079
 **** Fit      -0.023877
 **** Fit      -0.020444
 **** Fit      -0.004289
 **** Fit      -0.005162
 **** Fit      -0.006068
 **** Fit      -0.007020
 **** Fit      -0.008014
 **** Fit      -0.009026
 **** Fit      -0.010032
 **** Fit      -0.031316
 **** Fit      -0.027006
 **** Fit      -0.022844
 **** Fit      -0.018842
 **** Fit      -0.004106
 **** Fit      -0.005001
 **** Fit      -0.005944
 **** Fit      -0.006948
 **** Fit      -0.008008
 **** Fit      -0.009105
 **** Fit      -0.010210
 **** Fit      -0.011297
 **** Fit      -0.003786
 **** Fit      -0.004719
 **** Fit      -0.005725
 **** Fit      -0.006808
 **** Fit      -0.007965
 **** Fit      -0.009182
 **** Fit      -0.010427
 **** Fit      -0.011668
 **** Fit      -0.012885
 **** Fit      -0.016213
 **** Fit      -0.002611
 **** Fit      -0.003466
 **** Fit      -0.004443
 **** Fit      -0.013512
 **** Fit      -0.014864
 **** Fit      -0.018777
 **** Fit      -0.002076
 **** Fit      -0.002875
 **** Fit      -0.003899
 **** Fit      -0.017265
 **** Fit      -0.021859
 **** Fit      -0.023726
 **** Fit      -0.001326
 **** Fit      -0.001779
 **** Fit      -0.002670
 **** Fit      -0.025604
 **** Fit      -0.027616
 **** Fit      -0.030152
 **** Fit      -0.002265
 **** Fit      -0.001430
 **** Fit      -0.001038
 **** Fit      -0.001330
 **** Fit      -0.032222
 **** Fit      -0.034881
 **** Fit      -0.038582
 **** Fit      -0.001897
 **** Fit      -0.037835
 **** Fit      -0.040597
 **** Fit      -0.044739
 **** Fit      -0.050697
 **** Fit      -0.044556
 **** Fit      -0.047248
 **** Fit      -0.005644
 **** Fit      -0.006216
 **** Fit      -0.007298
 **** Fit      -0.006796
 **** Fit      -0.005084
 **** Fit      -0.004206
 **** Fit      -0.004821
 **** Fit      -0.009392
 **** Fit      -0.008370
 **** Fit      -0.006486
 **** Fit      -0.004541
 **** Fit      -0.003293
 **** Fit      -0.002969
 **** Fit      -0.003368
 **** Fit      -0.004260
 **** Fit      -0.005449
 **** Fit      -0.010489
 **** Fit      -0.008448
 **** Fit      -0.006123
 **** Fit      -0.003994
 **** Fit      -0.002556
 **** Fit      -0.001944
 **** Fit      -0.001930
 **** Fit      -0.002315
 **** Fit      -0.003001
 **** Fit      -0.003911
 **** Fit      -0.004969
 **** Fit      -0.012580
 **** Fit      -0.010099
 **** Fit      -0.007348
 **** Fit      -0.000902
 **** Fit      -0.001016
 **** Fit      -0.001363
 **** Fit      -0.001920
 **** Fit      -0.002673
 **** Fit      -0.003580
 **** Fit      -0.004587
 **** Fit      -0.014208
 **** Fit      -0.011123
 **** Fit      -0.000530
 **** Fit      -0.000957
 **** Fit      -0.001551
 **** Fit      -0.002321
 **** Fit      -0.003235
 **** Fit      -0.004240
 **** Fit      -0.016064
 **** Fit      -0.000319
 **** Fit      -0.000734
 **** Fit      -0.001324
 **** Fit      -0.002094
 **** Fit      -0.003013
 **** Fit      -0.000126
 **** Fit      -0.000389
 **** Fit      -0.000870
 **** Fit      -0.001574
 **** Fit      -0.002482
 **** Fit      -0.000255
 **** Fit      -0.000576
 **** Fit      -0.001155
 **** Fit      -0.001993
 **** Fit      -0.000443
 **** Fit      -0.000770
 **** Fit      -0.001397
 **** Fit      -0.000860
 **** Fit      -0.000972
 **** Fit      -0.006398
 **** Fit      -0.007600
 **** Fit      -0.008915
 **** Fit      -0.010291
 **** Fit      -0.005135
 **** Fit      -0.006295
 **** Fit      -0.007629
 **** Fit      -0.009061
 **** Fit      -0.010536
 **** Fit      -0.012025
 **** Fit      -0.013525
 **** Fit      -0.017425
 **** Fit      -0.003451
 **** Fit      -0.004419
 **** Fit      -0.005759
 **** Fit      -0.007341
 **** Fit      -0.009040
 **** Fit      -0.010762
 **** Fit      -0.012456
 **** Fit      -0.014112
 **** Fit      -0.015754
 **** Fit      -0.020430
 **** Fit      -0.022291
 **** Fit      -0.002540
 **** Fit      -0.003560
 **** Fit      -0.005148
 **** Fit      -0.007095
 **** Fit      -0.009200
 **** Fit      -0.011306
 **** Fit      -0.013319
 **** Fit      -0.015203
 **** Fit      -0.016974
 **** Fit      -0.018690
 **** Fit      -0.024339
 **** Fit      -0.026227
 **** Fit      -0.001315
 **** Fit      -0.002046
 **** Fit      -0.003819
 **** Fit      -0.006281
 **** Fit      -0.009064
 **** Fit      -0.011875
 **** Fit      -0.014519
 **** Fit      -0.016896
 **** Fit      -0.018992
 **** Fit      -0.020858
 **** Fit      -0.022597
 **** Fit      -0.029574
 **** Fit      -0.031395
 **** Fit      -0.033612
 **** Fit      -0.011089
 **** Fit      -0.015146
 **** Fit      -0.018764
 **** Fit      -0.021794
 **** Fit      -0.024239
 **** Fit      -0.026219
 **** Fit      -0.027924
 **** Fit      -0.040217
 **** Fit      -0.011262
 **** Fit      -0.011013
 **** Fit      -0.012614
 **** Fit      -0.013147
 **** Fit      -0.009934
 **** Fit      -0.011046
 **** Fit      -0.012628
 **** Fit      -0.014365
 **** Fit      -0.015660
 **** Fit      -0.015783
 **** Fit      -0.014544
 **** Fit      -0.009834
 **** Fit      -0.011391
 **** Fit      -0.012876
 **** Fit      -0.014680
 **** Fit      -0.016673
 **** Fit      -0.018484
 **** Fit      -0.019561
 **** Fit      -0.019457
 **** Fit      -0.018138
 **** Fit      -0.010203
 **** Fit      -0.012086
 **** Fit      -0.013565
 **** Fit      -0.015410
 **** Fit      -0.017642
 **** Fit      -0.020137
 **** Fit      -0.022559
 **** Fit      -0.024362
 **** Fit      -0.024986
 **** Fit      -0.024177
 **** Fit      -0.022142
 **** Fit      -0.009855
 **** Fit      -0.010884
 **** Fit      -0.013171
 **** Fit      -0.014705
 **** Fit      -0.016645
 **** Fit      -0.019089
 **** Fit      -0.022055
 **** Fit      -0.025401
 **** Fit      -0.028730
 **** Fit      -0.031368
 **** Fit      -0.029494
 **** Fit      -0.010824
 **** Fit      -0.011919
 **** Fit      -0.014694
 **** Fit      -0.016277
 **** Fit      -0.018289
 **** Fit      -0.020871
 **** Fit      -0.024139
 **** Fit      -0.028131
 **** Fit      -0.032706
 **** Fit      -0.012251
 **** Fit      -0.013397
 **** Fit      -0.016709
 **** Fit      -0.018457
 **** Fit      -0.020714
 **** Fit      -0.023673
 **** Fit      -0.027545
 **** Fit      -0.032519
 **** Fit      -0.015290
 **** Fit      -0.019284
 **** Fit      -0.021198
 **** Fit      -0.023694
 **** Fit      -0.027014
 **** Fit      -0.031450
 **** Fit      -0.017745
 **** Fit      -0.022495
 **** Fit      -0.024637
 **** Fit      -0.027475
 **** Fit      -0.031304
 **** Fit      -0.036521
 **** Fit      -0.026420
 **** Fit      -0.028941
 **** Fit      -0.032380
 **** Fit      -0.037145
 **** Fit      -0.034130
 **** Fit      -0.038402
 **** Fit      -0.045224
 **** Fit       0.029967
 **** Fit       0.033391
 **** Fit       0.038807
 **** Fit       0.036500
 **** Fit       0.034611
 **** Fit       0.039673
 **** Fit       0.036389
 **** Fit       0.032670
 **** Fit       0.038706
 **** Fit       0.033997
 **** Fit       0.031359
 **** Fit      -0.023710
 **** Fit       0.038276
 **** Fit       0.033938
 **** Fit       0.031456
 **** Fit       0.039878
 **** Fit       0.035509
 **** Fit       0.032697
 **** Fit       0.031408
 **** Fit       0.034454
 **** Fit       0.032798
 **** Fit       0.032299
 **** Fit       0.032765
 **** Fit       0.034119
 **** Fit       0.033655
 **** Fit       0.034064
 **** Fit       0.035100
 **** Fit       0.036493
 **** Fit       0.035159
 **** Fit       0.035375
 **** Fit       0.036284
 **** Fit       0.036555
 **** Fit       0.037243
 **** Fit       0.001095
 **** Fit       0.014728
 **** Fit       0.007740
 **** Fit      -0.001162
 **** Fit      -0.012059
 **** Fit       0.025532
 **** Fit       0.025487
 **** Fit       0.023815
 **** Fit       0.020407
 **** Fit       0.015255
 **** Fit       0.008294
 **** Fit      -0.000652
 **** Fit      -0.011948
 **** Fit       0.028227
 **** Fit       0.026890
 **** Fit       0.024359
 **** Fit       0.020398
 **** Fit       0.014836
 **** Fit       0.007466
 **** Fit      -0.002041
 **** Fit      -0.014262
 **** Fit       0.029420
 **** Fit       0.028826
 **** Fit       0.029615
 **** Fit       0.027527
 **** Fit       0.024442
 **** Fit       0.020098
 **** Fit       0.014271
 **** Fit       0.006707
 **** Fit      -0.002928
 **** Fit      -0.015089
 **** Fit       0.036559
 **** Fit       0.036008
 **** Fit       0.034941
 **** Fit       0.033592
 **** Fit       0.032284
 **** Fit       0.031059
 **** Fit       0.030053
 **** Fit       0.027352
 **** Fit       0.023603
 **** Fit       0.018536
 **** Fit       0.011916
 **** Fit       0.003543
 **** Fit      -0.006666
 **** Fit       0.037168
 **** Fit       0.036640
 **** Fit       0.035929
 **** Fit       0.034888
 **** Fit       0.033579
 **** Fit       0.032025
 **** Fit       0.029866
 **** Fit       0.026713
 **** Fit       0.022454
 **** Fit       0.016889
 **** Fit       0.009960
 **** Fit       0.001942
 **** Fit       0.037126
 **** Fit       0.036221
 **** Fit       0.035225
 **** Fit       0.033914
 **** Fit       0.032182
 **** Fit       0.029331
 **** Fit       0.025681
 **** Fit       0.020860
 **** Fit       0.014981
 **** Fit       0.008798
 **** Fit       0.036681
 **** Fit       0.035341
 **** Fit       0.033899
 **** Fit       0.031985
 **** Fit       0.028716
 **** Fit       0.024374
 **** Fit       0.019215
 **** Fit       0.015167
 **** Fit       0.034020
 **** Fit       0.031835
 **** Fit       0.028325
 **** Fit       0.023793
 **** Fit       0.031882
 **** Fit       0.038723
 **** Fit       0.036174
 **** Fit       0.038728
 **** Fit       0.036806
 **** Fit       0.035442
 **** Fit       0.034819
 **** Fit       0.037055
 **** Fit       0.036232
 **** Fit       0.035400
 **** Fit       0.034927
 **** Fit       0.034997
 **** Fit       0.035696
 **** Fit       0.000195
 **** Fit       0.032366
 **** Fit       0.033914
 **** Fit       0.034295
 **** Fit       0.034236
 **** Fit       0.034226
 **** Fit       0.034532
 **** Fit       0.035267
 **** Fit       0.036415
 **** Fit       0.016710
 **** Fit       0.005899
 **** Fit      -0.006080
 **** Fit      -0.010598
 **** Fit       0.001397
 **** Fit       0.012274
 **** Fit       0.020742
 **** Fit       0.026481
 **** Fit       0.029858
 **** Fit       0.031578
 **** Fit       0.032387
 **** Fit       0.032863
 **** Fit       0.033350
 **** Fit       0.033964
 **** Fit       0.034588
 **** Fit       0.034830
 **** Fit       0.026762
 **** Fit       0.020774
 **** Fit       0.012414
 **** Fit       0.002931
 **** Fit      -0.005452
 **** Fit      -0.009827
 **** Fit      -0.008193
 **** Fit      -0.001348
 **** Fit       0.007771
 **** Fit       0.016340
 **** Fit       0.022821
 **** Fit       0.026962
 **** Fit       0.029290
 **** Fit       0.030538
 **** Fit       0.031252
 **** Fit       0.031631
 **** Fit       0.031464
 **** Fit       0.030128
 **** Fit       0.023497
 **** Fit       0.016968
 **** Fit       0.009068
 **** Fit       0.003361
 **** Fit       0.003396
 **** Fit       0.009050
 **** Fit       0.016596
 **** Fit       0.022678
 **** Fit       0.026320
 **** Fit       0.028046
 **** Fit       0.028403
 **** Fit       0.027174
 **** Fit       0.020946
 **** Fit       0.014384
 **** Fit       0.012183
 **** Fit       0.017503
 **** Fit       0.022909
 **** Fit       0.024256
 **** Fit       0.018964
 -----------------------------------------------------------------
 Leave Link  602 at Mon Sep 16 20:11:08 2019, MaxMem=  4294967296 cpu:       157.7

 Test job not archived.
 1\1\GINC-N004\SP\RB3LYP\SVP\C54H83Ca1N15O23\PCIEPLAK\16-Sep-2019\0\\#m
 axdisk=50GB #B3LYP/SVP Density=Current scf=(tight) #IOP(5/87=12)Pop=(M
 K,readradii) iop(6/33=2) iop(6/42=6)\\SOL molecule\\0,1\C,0,-4.915,55.
 81,4.765\C,0,-3.755,56.68,4.305\O,0,-2.695,56.14,3.975\H,0,-5.782,55.9
 96,4.131\H,0,-4.633,54.76,4.694\H,0,-5.163,56.051,5.799\N,0,-3.925,58.
 ,4.235\C,0,-2.805,58.9,4.015\C,0,-1.845,58.9,5.195\O,0,-2.245,59.33,6.
 275\C,0,-3.245,60.3,3.595\C,0,-2.015,61.09,3.175\O,0,-2.215,62.28,2.84
 5\O,0,-0.875,60.61,3.005\H,0,-4.845,58.38,4.435\H,0,-2.265,58.61,3.115
 \H,0,-3.715,60.82,4.425\H,0,-3.985,60.3,2.795\N,0,-0.615,58.41,5.055\C
 ,0,0.245,58.05,6.165\C,0,1.215,59.15,6.565\O,0,1.745,59.2,7.675\C,0,0.
 915,56.68,6.035\C,0,1.385,56.02,7.325\C,0,1.435,54.52,7.025\C,0,2.175,
 53.8,8.155\N,0,1.585,54.07,9.475\H,0,-0.395,58.19,4.095\H,0,-0.375,58.
 07,7.055\H,0,1.655,56.66,5.235\H,0,0.185,55.95,5.705\H,0,0.655,56.29,8
 .085\H,0,2.405,56.35,7.515\H,0,1.905,54.38,6.055\H,0,0.405,54.19,6.925
 \H,0,3.215,54.12,8.255\H,0,2.135,52.74,7.915\H,0,0.625,53.8,9.615\H,0,
 2.075,53.46,10.115\H,0,1.775,55.03,9.705\N,0,1.305,60.15,5.685\C,0,2.0
 35,61.39,5.885\C,0,1.125,62.6,5.775\O,0,1.465,63.73,6.105\C,0,3.285,61
 .41,5.005\C,0,3.065,61.36,3.495\O,0,4.065,61.45,2.755\O,0,1.945,61.54,
 2.975\H,0,0.785,60.05,4.825\H,0,2.505,61.36,6.865\H,0,3.905,60.53,5.11
 5\H,0,3.935,62.22,5.315\N,0,-0.155,62.36,5.485\C,0,-1.145,63.42,5.365\
 C,0,-0.975,64.41,4.225\O,0,-1.255,65.6,4.355\H,0,-0.435,61.41,5.285\H,
 0,-1.195,64.04,6.255\H,0,-2.165,63.02,5.365\N,0,-0.235,64.1,3.165\C,0,
 0.205,65.03,2.145\C,0,-0.895,65.33,1.145\O,0,-0.775,66.08,0.175\C,0,1.
 605,64.79,1.575\C,0,1.515,63.69,0.525\N,0,2.405,63.62,-0.465\O,0,0.595
 ,62.88,0.465\H,0,0.005,63.12,3.135\H,0,0.335,66.03,2.585\H,0,2.405,64.
 44,2.215\H,0,1.905,65.65,0.965\H,0,3.225,64.21,-0.455\H,0,2.215,63.13,
 -1.325\N,0,-2.035,64.66,1.305\C,0,-3.265,64.83,0.565\C,0,-3.605,63.7,-
 0.385\O,0,-4.665,63.69,-1.005\H,0,-2.065,63.89,1.955\H,0,-3.235,65.78,
 0.025\H,0,-4.025,64.82,1.355\N,0,-2.645,62.81,-0.655\C,0,-2.685,61.72,
 -1.605\C,0,-2.275,60.36,-1.055\O,0,-1.515,60.23,-0.095\C,0,-1.805,62.0
 7,-2.805\C,0,-2.085,63.43,-3.395\C,0,-1.095,64.42,-3.485\C,0,-3.305,63
 .61,-4.065\C,0,-1.415,65.68,-4.015\C,0,-3.565,64.83,-4.695\C,0,-2.645,
 65.9,-4.655\O,0,-2.925,67.14,-5.155\H,0,-1.775,63.05,-0.195\H,0,-3.675
 ,61.6,-2.055\H,0,-1.755,61.28,-3.565\H,0,-0.765,62.,-2.505\H,0,-0.115,
 64.26,-3.085\H,0,-3.985,62.78,-4.025\H,0,-0.745,66.53,-4.015\H,0,-4.45
 5,64.94,-5.305\H,0,-3.845,67.07,-5.385\N,0,-2.805,59.32,-1.705\C,0,-2.
 445,57.93,-1.515\C,0,-1.465,57.41,-2.555\O,0,-1.415,57.86,-3.695\C,0,-
 3.705,57.08,-1.415\C,0,-4.825,57.71,-0.585\C,0,-3.415,55.62,-1.105\C,0
 ,-4.315,58.02,0.815\H,0,-3.255,59.61,-2.565\H,0,-1.945,57.93,-0.555\H,
 0,-4.205,57.01,-2.385\H,0,-5.745,57.16,-0.405\H,0,-5.235,58.61,-1.045\
 H,0,-4.345,55.07,-0.945\H,0,-2.835,55.1,-1.865\H,0,-2.845,55.64,-0.175
 \H,0,-5.165,58.25,1.455\H,0,-3.755,57.22,1.295\H,0,-3.625,58.87,0.805\
 N,0,-0.525,56.58,-2.105\C,0,0.575,55.98,-2.845\C,0,0.605,54.47,-2.635\
 O,0,0.005,53.95,-1.695\C,0,1.915,56.44,-2.295\O,0,2.065,56.09,-0.935\H
 ,0,-0.405,56.55,-1.105\H,0,0.555,56.12,-3.925\H,0,1.955,57.53,-2.355\H
 ,0,2.665,56.,-2.955\H,0,1.665,56.81,-0.445\N,0,1.215,53.66,-3.495\C,0,
 1.235,52.21,-3.425\C,0,1.755,51.66,-2.115\O,0,1.185,50.67,-1.675\C,0,2
 .015,51.79,-4.665\H,0,1.685,54.04,-4.305\H,0,0.185,51.91,-3.535\H,0,1.
 705,52.37,-5.535\H,0,3.075,52.02,-4.495\H,0,1.855,50.73,-4.825\N,0,2.6
 95,52.3,-1.405\C,0,3.245,51.83,-0.145\C,0,2.265,51.99,1.015\O,0,2.075,
 51.15,1.885\C,0,4.515,52.64,0.055\H,0,3.115,53.12,-1.815\H,0,3.545,50.
 79,-0.265\H,0,5.315,52.33,-0.615\H,0,4.295,53.7,-0.095\H,0,4.935,52.61
 ,1.065\N,0,1.725,53.21,0.915\C,0,0.665,53.62,1.815\C,0,-0.495,52.65,1.
 665\O,0,-0.935,52.1,2.675\C,0,0.255,55.06,1.535\C,0,1.285,55.99,2.165\
 C,0,0.955,57.45,1.845\O,0,1.075,58.39,2.665\O,0,0.645,57.79,0.685\H,0,
 2.085,53.76,0.155\H,0,1.035,53.5,2.835\H,0,-0.735,55.08,2.005\H,0,0.11
 5,55.35,0.495\H,0,2.235,55.78,1.665\H,0,1.355,55.81,3.235\N,0,-1.055,5
 2.54,0.455\C,0,-2.035,51.52,0.115\H,0,-2.926,51.995,-0.295\H,0,-1.612,
 50.841,-0.626\H,0,-2.303,50.96,1.011\H,0,-0.595,53.07,-0.255\Ca,0,0.81
 ,60.42,1.05\O,0,3.19,59.67,0.12\H,0,3.68,58.85,0.17\H,0,3.84,60.32,-0.
 12\\Version=ES64L-G09RevD.01\State=1-A\HF=-5333.5576482\RMSD=3.165e-09
 \Dipole=4.227201,-10.879324,1.9027314\Quadrupole=-4.3269635,-120.06182
 4,124.3887875,-25.7219875,5.413309,-121.9805247\PG=C01 [X(C54H83Ca1N15
 O23)]\\@


 YOU CAN WIPE THE SLATE CLEAN, BUT YOU'LL STILL
 HAVE TO EAT A LITTLE CHALK DUST.
 Job cpu time:       0 days 17 hours 34 minutes 41.8 seconds.
 File lengths (MBytes):  RWF=   1513 Int=      0 D2E=      0 Chk=    103 Scr=      1
 Normal termination of Gaussian 09 at Mon Sep 16 20:11:09 2019.
