 Entering Gaussian System, Link 0=g09
 Initial command:
 /home/pcieplak/g09/g09/l1.exe "/scratch1/pcieplak/holo_5.0/Gau-5716.inp" -scrdir="/scratch1/pcieplak/holo_5.0/"
 Entering Link 1 = /home/pcieplak/g09/g09/l1.exe PID=      5717.
  
 Copyright (c) 1988,1990,1992,1993,1995,1998,2003,2009,2013,
            Gaussian, Inc.  All Rights Reserved.
  
 This is part of the Gaussian(R) 09 program.  It is based on
 the Gaussian(R) 03 system (copyright 2003, Gaussian, Inc.),
 the Gaussian(R) 98 system (copyright 1998, Gaussian, Inc.),
 the Gaussian(R) 94 system (copyright 1995, Gaussian, Inc.),
 the Gaussian 92(TM) system (copyright 1992, Gaussian, Inc.),
 the Gaussian 90(TM) system (copyright 1990, Gaussian, Inc.),
 the Gaussian 88(TM) system (copyright 1988, Gaussian, Inc.),
 the Gaussian 86(TM) system (copyright 1986, Carnegie Mellon
 University), and the Gaussian 82(TM) system (copyright 1983,
 Carnegie Mellon University). Gaussian is a federally registered
 trademark of Gaussian, Inc.
  
 This software contains proprietary and confidential information,
 including trade secrets, belonging to Gaussian, Inc.
  
 This software is provided under written license and may be
 used, copied, transmitted, or stored only in accord with that
 written license.
  
 The following legend is applicable only to US Government
 contracts under FAR:
  
                    RESTRICTED RIGHTS LEGEND
  
 Use, reproduction and disclosure by the US Government is
 subject to restrictions as set forth in subparagraphs (a)
 and (c) of the Commercial Computer Software - Restricted
 Rights clause in FAR 52.227-19.
  
 Gaussian, Inc.
 340 Quinnipiac St., Bldg. 40, Wallingford CT 06492
  
  
 ---------------------------------------------------------------
 Warning -- This program may not be used in any manner that
 competes with the business of Gaussian, Inc. or will provide
 assistance to any competitor of Gaussian, Inc.  The licensee
 of this program is prohibited from giving any competitor of
 Gaussian, Inc. access to this program.  By using this program,
 the user acknowledges that Gaussian, Inc. is engaged in the
 business of creating and licensing software in the field of
 computational chemistry and represents and warrants to the
 licensee that it is not a competitor of Gaussian, Inc. and that
 it will not use this program in any manner prohibited above.
 ---------------------------------------------------------------
  

 Cite this work as:
 Gaussian 09, Revision D.01,
 M. J. Frisch, G. W. Trucks, H. B. Schlegel, G. E. Scuseria, 
 M. A. Robb, J. R. Cheeseman, G. Scalmani, V. Barone, B. Mennucci, 
 G. A. Petersson, H. Nakatsuji, M. Caricato, X. Li, H. P. Hratchian, 
 A. F. Izmaylov, J. Bloino, G. Zheng, J. L. Sonnenberg, M. Hada, 
 M. Ehara, K. Toyota, R. Fukuda, J. Hasegawa, M. Ishida, T. Nakajima, 
 Y. Honda, O. Kitao, H. Nakai, T. Vreven, J. A. Montgomery, Jr., 
 J. E. Peralta, F. Ogliaro, M. Bearpark, J. J. Heyd, E. Brothers, 
 K. N. Kudin, V. N. Staroverov, T. Keith, R. Kobayashi, J. Normand, 
 K. Raghavachari, A. Rendell, J. C. Burant, S. S. Iyengar, J. Tomasi, 
 M. Cossi, N. Rega, J. M. Millam, M. Klene, J. E. Knox, J. B. Cross, 
 V. Bakken, C. Adamo, J. Jaramillo, R. Gomperts, R. E. Stratmann, 
 O. Yazyev, A. J. Austin, R. Cammi, C. Pomelli, J. W. Ochterski, 
 R. L. Martin, K. Morokuma, V. G. Zakrzewski, G. A. Voth, 
 P. Salvador, J. J. Dannenberg, S. Dapprich, A. D. Daniels, 
 O. Farkas, J. B. Foresman, J. V. Ortiz, J. Cioslowski, 
 and D. J. Fox, Gaussian, Inc., Wallingford CT, 2013.
 
 ******************************************
 Gaussian 09:  ES64L-G09RevD.01 24-Apr-2013
                16-Sep-2019 
 ******************************************
 %Nproc=12
 Will use up to   12 processors via shared memory.
 %chk=chk1mol
 %mem=32GB
 ----------------------------------------------------------------------
 #maxdisk=50GB #B3LYP/SVP Density=Current scf=(tight) #IOP(5/87=12)Pop=
 (MK,readradii) iop(6/33=2) iop(6/42=6)
 ----------------------------------------------------------------------
 1/30=1,38=1/1;
 2/12=2,17=6,18=5,40=1/2;
 3/5=18,7=101,11=2,16=1,25=1,30=1,74=-5/1,2,3;
 4//1;
 5/5=2,32=2,38=5,87=12/2;
 6/7=2,8=2,9=2,10=2,15=8,20=101,22=-1,28=1,33=2,42=6/1,2;
 99/5=1,9=1/99;
 ------------
 SOL molecule
 ------------
 Symbolic Z-matrix:
 Charge =  0 Multiplicity = 1
 C                     47.75     40.53     23.53 
 C                     48.4      39.67     24.6 
 O                     48.39     39.95     25.8 
 H                     46.842    40.982    23.93 
 H                     48.442    41.315    23.224 
 H                     47.498    39.911    22.669 
 N                     49.07     38.63     24.09 
 C                     49.93     37.8      24.91 
 C                     51.11     38.71     25.24 
 O                     51.83     39.11     24.33 
 C                     50.27     36.44     24.31 
 C                     51.22     35.59     25.14 
 O                     51.44     35.93     26.32 
 O                     51.43     34.43     24.71 
 H                     49.09     38.48     23.09 
 H                     49.43     37.57     25.85 
 H                     50.81     36.69     23.4 
 H                     49.33     35.91     24.15 
 N                     51.3      39.11     26.5 
 C                     52.29     40.13     26.76 
 C                     53.72     39.63     26.9 
 O                     54.65     40.42     26.99 
 C                     51.76     40.89     27.97 
 C                     50.57     41.79     27.67 
 C                     50.98     42.9      26.7 
 C                     50.01     44.08     26.69 
 N                     50.18     44.83     25.44 
 H                     50.62     38.84     27.19 
 H                     52.23     40.72     25.85 
 H                     52.47     41.65     28.31 
 H                     51.5      40.25     28.82 
 H                     50.37     42.28     28.62 
 H                     49.73     41.14     27.41 
 H                     51.09     42.42     25.73 
 H                     51.99     43.24     26.89 
 H                     50.14     44.68     27.59 
 H                     49.02     43.62     26.71 
 H                     49.26     45.2      25.22 
 H                     50.75     45.66     25.51 
 H                     50.46     44.31     24.63 
 N                     53.79     38.29     26.89 
 C                     54.97     37.55     27.28 
 C                     55.29     36.32     26.46 
 O                     56.34     35.7      26.63 
 C                     54.99     37.08     28.73 
 C                     53.72     36.32     29.1 
 O                     53.75     35.07     28.99 
 O                     52.72     36.97     29.46 
 H                     52.94     37.75     26.79 
 H                     55.86     38.16     27.16 
 H                     54.96     37.95     29.39 
 H                     55.84     36.46     29.02 
 N                     54.38     35.84     25.6 
 C                     54.73     34.85     24.61 
 C                     54.59     33.4      25.06 
 O                     55.02     32.5      24.35 
 H                     53.5      36.33     25.52 
 H                     55.8      35.02     24.5 
 H                     54.2      35.05     23.68 
 N                     53.99     33.19     26.24 
 C                     53.85     31.83     26.72 
 C                     52.85     31.       25.93 
 O                     52.77     29.79     26.17 
 C                     53.67     31.64     28.23 
 C                     52.26     31.81     28.76 
 N                     51.7      31.       29.67 
 O                     51.55     32.68     28.26 
 H                     53.72     33.99     26.78 
 H                     54.85     31.41     26.58 
 H                     54.34     32.25     28.84 
 H                     53.91     30.58     28.35 
 H                     52.2      30.23     30.07 
 H                     50.7      31.07     29.8 
 N                     52.1      31.59     25. 
 C                     51.06     30.91     24.25 
 C                     49.64     31.28     24.63 
 O                     48.69     30.84     23.98 
 H                     52.12     32.59     24.94 
 H                     51.23     29.83     24.21 
 H                     51.1      31.28     23.23 
 N                     49.51     32.07     25.7 
 C                     48.3      32.1      26.49 
 C                     48.03     33.49     27.06 
 O                     48.91     34.22     27.5 
 C                     48.14     31.       27.54 
 C                     48.44     29.6      27.06 
 C                     49.77     29.17     26.99 
 C                     47.4      28.73     26.71 
 C                     50.06     27.84     26.66 
 C                     47.68     27.39     26.41 
 C                     49.02     26.96     26.3 
 O                     49.29     25.66     25.96 
 H                     50.37     32.42     26.1 
 H                     47.42     31.86     25.88 
 H                     47.11     31.14     27.87 
 H                     48.86     31.18     28.33 
 H                     50.55     29.81     27.35 
 H                     46.38     29.07     26.61 
 H                     51.08     27.52     26.52 
 H                     46.88     26.71     26.16 
 H                     48.55     25.06     26.05 
 N                     46.75     33.77     27.33 
 C                     46.4      35.02     27.99 
 C                     45.98     34.69     29.41 
 O                     45.14     33.82     29.65 
 C                     45.35     35.8      27.2 
 C                     46.17     36.48     26.12 
 C                     44.65     36.86     28.04 
 C                     45.45     36.91     24.84 
 H                     45.99     33.24     26.94 
 H                     47.23     35.71     28.1 
 H                     44.59     35.09     26.86 
 H                     46.8      35.69     25.7 
 H                     46.82     37.24     26.55 
 H                     43.89     37.36     27.43 
 H                     44.01     36.37     28.78 
 H                     45.3      37.66     28.39 
 H                     44.72     37.69     25.06 
 H                     46.34     37.15     24.26 
 H                     44.95     36.09     24.32 
 N                     46.47     35.4      30.43 
 C                     46.01     35.41     31.8 
 C                     45.01     36.54     32.05 
 O                     44.81     37.39     31.19 
 C                     47.19     35.6      32.74 
 O                     47.92     36.78     32.49 
 H                     47.11     36.13     30.14 
 H                     45.46     34.48     31.88 
 H                     47.93     34.8      32.6 
 H                     46.97     35.69     33.81 
 H                     48.46     36.63     31.71 
 N                     44.4      36.57     33.23 
 C                     43.49     37.62     33.65 
 C                     43.99     39.06     33.65 
 O                     43.34     40.04     33.28 
 C                     42.98     37.23     35.04 
 H                     44.5      35.83     33.91 
 H                     42.61     37.58     33.01 
 H                     42.56     36.22     35.03 
 H                     43.84     37.15     35.7 
 H                     42.31     38.01     35.4 
 N                     45.25     39.19     34.06 
 C                     45.82     40.52     34.02 
 C                     46.22     40.96     32.62 
 O                     46.39     42.15     32.37 
 C                     46.92     40.53     35.07 
 H                     45.73     38.39     34.44 
 H                     45.11     41.29     34.29 
 H                     47.11     41.6      35.16 
 H                     46.59     40.07     36.01 
 H                     47.88     40.15     34.72 
 N                     46.46     40.01     31.71 
 C                     46.59     40.35     30.3 
 C                     45.3      40.59     29.54 
 O                     45.26     41.43     28.65 
 C                     47.35     39.2      29.66 
 C                     48.87     39.1      29.82 
 C                     49.22     37.68     29.42 
 O                     49.71     37.44     28.29 
 O                     49.29     36.79     30.3 
 H                     46.21     39.06     31.94 
 H                     47.19     41.25     30.18 
 H                     47.27     39.43     28.59 
 H                     46.9      38.26     29.97 
 H                     49.08     39.27     30.87 
 H                     49.38     39.85     29.21 
 N                     44.15     39.98     29.86 
 C                     42.79     40.37     29.56 
 H                     42.166    40.218    30.441 
 H                     42.767    41.422    29.276 
 H                     42.41     39.763    28.738 
 H                     44.34     39.08     30.29 
 Ca                    50.97     35.23     28.88 
 O                     51.62     35.03     31.49 
 H                     51.71     35.98     31.62 
 H                     51.4      34.69     32.35 
 
 Stoichiometry    C54H83CaN15O23
 Framework group  C1[X(C54H83CaN15O23)]
 Deg. of freedom   522
 Full point group                 C1      NOp   1
 Largest Abelian subgroup         C1      NOp   1
 Largest concise Abelian subgroup C1      NOp   1
                         Standard orientation:                         
 ---------------------------------------------------------------------
 Center     Atomic      Atomic             Coordinates (Angstroms)
 Number     Number       Type             X           Y           Z
 ---------------------------------------------------------------------
      1          6           0        2.080183    3.627695    5.046485
      2          6           0        1.572762    3.071511    3.727325
      3          8           0        2.305082    2.800375    2.774071
      4          1           0        3.054309    3.193266    5.272576
      5          1           0        2.174239    4.711387    4.972393
      6          1           0        1.377927    3.376807    5.841392
      7          7           0        0.237416    3.002367    3.675655
      8          6           0       -0.463812    2.695462    2.444806
      9          6           0       -0.252111    3.937717    1.583770
     10          8           0       -0.719298    5.010143    1.955442
     11          6           0       -1.905915    2.234422    2.626419
     12          6           0       -2.663817    1.968428    1.334625
     13          8           0       -2.013726    1.892964    0.272511
     14          8           0       -3.817381    1.492900    1.467910
     15          1           0       -0.317088    3.291326    4.470595
     16          1           0        0.029442    1.866721    1.938458
     17          1           0       -2.391883    3.090975    3.087234
     18          1           0       -1.885567    1.335952    3.244836
     19          7           0        0.492483    3.852804    0.478297
     20          6           0        0.852881    5.072209   -0.208190
     21          6           0       -0.190819    5.607991   -1.176760
     22          8           0       -0.043689    6.699482   -1.709771
     23          6           0        2.212063    4.781918   -0.833454
     24          6           0        3.359713    4.727309    0.164553
     25          6           0        3.551739    6.095374    0.822294
     26          6           0        4.919570    6.259953    1.482106
     27          7           0        4.846728    7.338908    2.474301
     28          1           0        0.940195    2.975437    0.275365
     29          1           0        0.926755    5.768587    0.622111
     30          1           0        2.558132    5.617686   -1.449106
     31          1           0        2.239366    3.868614   -1.437466
     32          1           0        4.236875    4.567591   -0.458084
     33          1           0        3.196513    3.850955    0.797854
     34          1           0        2.719510    6.211280    1.513208
     35          1           0        3.367671    6.901137    0.123249
     36          1           0        5.687244    6.404918    0.722789
     37          1           0        5.095402    5.308210    1.987445
     38          1           0        5.497735    7.075237    3.208037
     39          1           0        5.199577    8.232597    2.165242
     40          1           0        3.966915    7.477558    2.934307
     41          7           0       -1.224024    4.764482   -1.323659
     42          6           0       -2.209002    4.885363   -2.375945
     43          6           0       -3.639790    4.580722   -1.991573
     44          8           0       -4.564415    4.780466   -2.779590
     45          6           0       -1.939562    4.040104   -3.615598
     46          6           0       -1.690765    2.576576   -3.264051
     47          8           0       -2.680061    1.804825   -3.298599
     48          8           0       -0.540031    2.229765   -2.935976
     49          1           0       -1.231287    3.894785   -0.806287
     50          1           0       -2.265675    5.910162   -2.729746
     51          1           0       -0.993650    4.352013   -4.064334
     52          1           0       -2.709583    4.065866   -4.388517
     53          7           0       -3.900949    3.998055   -0.812423
     54          6           0       -5.242914    3.936486   -0.285129
     55          6           0       -6.050644    2.711469   -0.699260
     56          8           0       -7.245707    2.656111   -0.438951
     57          1           0       -3.120915    3.787437   -0.205721
     58          1           0       -5.713670    4.780487   -0.787076
     59          1           0       -5.225507    4.077828    0.794464
     60          7           0       -5.387312    1.741383   -1.343793
     61          6           0       -6.115359    0.565022   -1.774749
     62          6           0       -6.559370   -0.335034   -0.632054
     63          8           0       -7.310997   -1.282611   -0.887506
     64          6           0       -5.509817   -0.245195   -2.926039
     65          6           0       -4.430744   -1.239751   -2.546091
     66          7           0       -4.349477   -2.482123   -3.043793
     67          8           0       -3.638262   -0.929867   -1.658992
     68          1           0       -4.422082    1.897152   -1.564172
     69          1           0       -7.000381    0.982289   -2.263241
     70          1           0       -5.137438    0.363397   -3.753112
     71          1           0       -6.366476   -0.841578   -3.251712
     72          1           0       -5.003402   -2.823125   -3.721289
     73          1           0       -3.728139   -3.128712   -2.577252
     74          7           0       -6.140072   -0.075725    0.605867
     75          6           0       -6.435082   -0.916700    1.751392
     76          6           0       -5.267639   -1.728115    2.277114
     77          8           0       -5.387683   -2.388869    3.310358
     78          1           0       -5.435312    0.625669    0.729798
     79          1           0       -7.339934   -1.511351    1.594760
     80          1           0       -6.623186   -0.261042    2.596158
     81          7           0       -4.152125   -1.688060    1.542318
     82          6           0       -3.166824   -2.744734    1.583816
     83          6           0       -1.751406   -2.207333    1.389672
     84          8           0       -1.471496   -1.319604    0.593125
     85          6           0       -3.445084   -3.975134    0.719648
     86          6           0       -4.844330   -4.533701    0.822193
     87          6           0       -5.875791   -3.936782    0.088384
     88          6           0       -5.106896   -5.651593    1.623677
     89          6           0       -7.153071   -4.511571    0.079747
     90          6           0       -6.373461   -6.250763    1.595273
     91          6           0       -7.427378   -5.632363    0.888562
     92          8           0       -8.676495   -6.196300    0.902041
     93          1           0       -4.160860   -1.051240    0.757154
     94          1           0       -3.157264   -3.242234    2.561825
     95          1           0       -2.669863   -4.669630    1.045389
     96          1           0       -3.339042   -3.688357   -0.320262
     97          1           0       -5.645903   -3.143344   -0.593677
     98          1           0       -4.374832   -6.044791    2.313226
     99          1           0       -7.974256   -4.014823   -0.411472
    100          1           0       -6.575087   -7.125082    2.195118
    101          1           0       -8.702379   -7.106511    1.196228
    102          7           0       -0.770136   -2.947121    1.918373
    103          6           0        0.621572   -2.588336    1.683806
    104          6           0        1.207554   -3.612588    0.730269
    105          8           0        1.097877   -4.823434    0.935025
    106          6           0        1.396243   -2.448430    2.993504
    107          6           0        1.011598   -1.061192    3.471852
    108          6           0        2.904724   -2.509366    2.793571
    109          6           0        1.145358   -0.757516    4.965702
    110          1           0       -0.941770   -3.643139    2.623143
    111          1           0        0.754580   -1.635393    1.182499
    112          1           0        1.112883   -3.283117    3.641813
    113          1           0       -0.078992   -1.023458    3.390665
    114          1           0        1.427435   -0.297920    2.816492
    115          1           0        3.401051   -2.436743    3.767268
    116          1           0        3.190541   -3.526266    2.508052
    117          1           0        3.315554   -1.689379    2.207192
    118          1           0        2.193236   -0.791149    5.266568
    119          1           0        0.615291    0.193825    4.956868
    120          1           0        0.569107   -1.430258    5.604571
    121          7           0        1.923970   -3.207526   -0.322002
    122          6           0        2.760768   -4.012331   -1.182617
    123          6           0        4.219547   -3.998130   -0.723093
    124          8           0        4.579582   -3.237609    0.168021
    125          6           0        2.703127   -3.478898   -2.605370
    126          8           0        3.094634   -2.128725   -2.712866
    127          1           0        2.010885   -2.199982   -0.384452
    128          1           0        2.388518   -5.016123   -1.016390
    129          1           0        1.669944   -3.482218   -2.979165
    130          1           0        3.346119   -3.962997   -3.349419
    131          1           0        2.368564   -1.587426   -2.392994
    132          7           0        5.065853   -4.814831   -1.341287
    133          6           0        6.492791   -4.859830   -1.078946
    134          6           0        7.303261   -3.578698   -1.238438
    135          8           0        8.202766   -3.205775   -0.482382
    136          6           0        7.067505   -5.970750   -1.962043
    137          1           0        4.760690   -5.498857   -2.018771
    138          1           0        6.637560   -5.212861   -0.059137
    139          1           0        6.530285   -6.910218   -1.802689
    140          1           0        6.852740   -5.718039   -2.997231
    141          1           0        8.145226   -6.018358   -1.809885
    142          7           0        6.930569   -2.834413   -2.277545
    143          6           0        7.606283   -1.566394   -2.453432
    144          6           0        7.120737   -0.489293   -1.495467
    145          8           0        7.807027    0.506714   -1.284576
    146          6           0        7.503954   -1.245734   -3.936438
    147          1           0        6.256016   -3.200761   -2.929900
    148          1           0        8.658142   -1.612598   -2.205728
    149          1           0        8.238310   -0.444582   -4.025749
    150          1           0        7.739538   -2.118107   -4.558986
    151          1           0        6.578149   -0.748650   -4.226773
    152          7           0        5.899507   -0.625178   -0.967893
    153          6           0        5.474084    0.215119    0.142746
    154          6           0        5.984763   -0.170506    1.517445
    155          8           0        6.242289    0.697727    2.341552
    156          6           0        3.954740    0.179585    0.137068
    157          6           0        3.169921    1.032218   -0.864469
    158          6           0        1.764844    0.462472   -0.857533
    159          8           0        0.846160    1.043206   -0.230342
    160          8           0        1.450542   -0.415969   -1.694764
    161          1           0        5.423451   -1.505384   -1.096370
    162          1           0        5.781122    1.246187   -0.021648
    163          1           0        3.702821    0.683490    1.078777
    164          1           0        3.623374   -0.852905    0.057318
    165          1           0        3.642871    0.885976   -1.829058
    166          1           0        3.199779    2.089627   -0.589343
    167          7           0        6.261477   -1.438024    1.854829
    168          6           0        7.118450   -1.941804    2.905307
    169          1           0        7.707584   -2.776315    2.524317
    170          1           0        7.786798   -1.149271    3.241598
    171          1           0        6.507662   -2.281838    3.741876
    172          1           0        5.683295   -2.076621    1.317335
    173         20           0       -1.182537    0.161494   -1.618424
    174          8           0       -0.533936   -0.534149   -4.142310
    175          1           0        0.180140    0.107617   -4.218022
    176          1           0       -0.300526   -1.225654   -4.751358
 ---------------------------------------------------------------------
 Rotational constants (GHZ):      0.0236982      0.0153241      0.0118872
 Standard basis: SVP (5D, 7F)
 There are  1809 symmetry adapted cartesian basis functions of A   symmetry.
 There are  1717 symmetry adapted basis functions of A   symmetry.
  1717 basis functions,  2922 primitive gaussians,  1809 cartesian basis functions
   358 alpha electrons      358 beta electrons
       nuclear repulsion energy     21875.2548030852 Hartrees.
 NAtoms=  176 NActive=  176 NUniq=  176 SFac= 1.00D+00 NAtFMM=   60 NAOKFM=T Big=T
 Integral buffers will be    131072 words long.
 Raffenetti 2 integral format.
 Two-electron integral symmetry is turned on.
 One-electron integrals computed using PRISM.
 NBasis=  1717 RedAO= T EigKep=  3.22D-04  NBF=  1717
 NBsUse=  1717 1.00D-06 EigRej= -1.00D+00 NBFU=  1717
 ExpMin= 1.98D-02 ExpMax= 3.51D+04 ExpMxC= 5.28D+03 IAcc=3 IRadAn=         5 AccDes= 0.00D+00
 Harris functional with IExCor=  402 and IRadAn=       5 diagonalized for initial guess.
 HarFok:  IExCor=  402 AccDes= 0.00D+00 IRadAn=         5 IDoV= 1 UseB2=F ITyADJ=14
 ICtDFT=  3500011 ScaDFX=  1.000000  1.000000  1.000000  1.000000
 FoFCou: FMM=F IPFlag=           0 FMFlag=      100000 FMFlg1=        2001
         NFxFlg=           0 DoJE=T BraDBF=F KetDBF=T FulRan=T
         wScrn=  0.000000 ICntrl=     500 IOpCl=  0 I1Cent=   200000004 NGrid=           0
         NMat0=    1 NMatS0=      1 NMatT0=    0 NMatD0=    1 NMtDS0=    0 NMtDT0=    0
 Petite list used in FoFCou.
 Requested convergence on RMS density matrix=1.00D-08 within 128 cycles.
 Requested convergence on MAX density matrix=1.00D-06.
 Requested convergence on             energy=1.00D-06.
 No special actions if energy rises.
 EnCoef did     5 forward-backward iterations
 SCF Done:  E(RB3LYP) =  -5333.59998058     A.U. after   17 cycles
            NFock= 17  Conv=0.57D-08     -V/T= 2.0081

 **********************************************************************

            Population analysis using the SCF density.

 **********************************************************************

 Orbital symmetries:
 BldTbl:  Degeneracy threshold= 1.00D-02
       Occupied  (A) (A) (A) (A) (A) (A) (A) (A) (A) (A) (A) (A)
                 (A) (A) (A) (A) (A) (A) (A) (A) (A) (A) (A) (A)
                 (A) (A) (A) (A) (A) (A) (A) (A) (A) (A) (A) (A)
                 (A) (A) (A) (A) (A) (A) (A) (A) (A) (A) (A) (A)
                 (A) (A) (A) (A) (A) (A) (A) (A) (A) (A) (A) (A)
                 (A) (A) (A) (A) (A) (A) (A) (A) (A) (A) (A) (A)
                 (A) (A) (A) (A) (A) (A) (A) (A) (A) (A) (A) (A)
                 (A) (A) (A) (A) (A) (A) (A) (A) (A) (A) (A) (A)
                 (A) (A) (A) (A) (A) (A) (A) (A) (A) (A) (A) (A)
                 (A) (A) (A) (A) (A) (A) (A) (A) (A) (A) (A) (A)
                 (A) (A) (A) (A) (A) (A) (A) (A) (A) (A) (A) (A)
                 (A) (A) (A) (A) (A) (A) (A) (A) (A) (A) (A) (A)
                 (A) (A) (A) (A) (A) (A) (A) (A) (A) (A) (A) (A)
                 (A) (A) (A) (A) (A) (A) (A) (A) (A) (A) (A) (A)
                 (A) (A) (A) (A) (A) (A) (A) (A) (A) (A) (A) (A)
                 (A) (A) (A) (A) (A) (A) (A) (A) (A) (A) (A) (A)
                 (A) (A) (A) (A) (A) (A) (A) (A) (A) (A) (A) (A)
                 (A) (A) (A) (A) (A) (A) (A) (A) (A) (A) (A) (A)
                 (A) (A) (A) (A) (A) (A) (A) (A) (A) (A) (A) (A)
                 (A) (A) (A) (A) (A) (A) (A) (A) (A) (A) (A) (A)
                 (A) (A) (A) (A) (A) (A) (A) (A) (A) (A) (A) (A)
                 (A) (A) (A) (A) (A) (A) (A) (A) (A) (A) (A) (A)
                 (A) (A) (A) (A) (A) (A) (A) (A) (A) (A) (A) (A)
                 (A) (A) (A) (A) (A) (A) (A) (A) (A) (A) (A) (A)
                 (A) (A) (A) (A) (A) (A) (A) (A) (A) (A) (A) (A)
                 (A) (A) (A) (A) (A) (A) (A) (A) (A) (A) (A) (A)
                 (A) (A) (A) (A) (A) (A) (A) (A) (A) (A) (A) (A)
                 (A) (A) (A) (A) (A) (A) (A) (A) (A) (A) (A) (A)
                 (A) (A) (A) (A) (A) (A) (A) (A) (A) (A) (A) (A)
                 (A) (A) (A) (A) (A) (A) (A) (A) (A) (A)
       Virtual   (A) (A) (A) (A) (A) (A) (A) (A) (A) (A) (A) (A)
                 (A) (A) (A) (A) (A) (A) (A) (A) (A) (A) (A) (A)
                 (A) (A) (A) (A) (A) (A) (A) (A) (A) (A) (A) (A)
                 (A) (A) (A) (A) (A) (A) (A) (A) (A) (A) (A) (A)
                 (A) (A) (A) (A) (A) (A) (A) (A) (A) (A) (A) (A)
                 (A) (A) (A) (A) (A) (A) (A) (A) (A) (A) (A) (A)
                 (A) (A) (A) (A) (A) (A) (A) (A) (A) (A) (A) (A)
                 (A) (A) (A) (A) (A) (A) (A) (A) (A) (A) (A) (A)
                 (A) (A) (A) (A) (A) (A) (A) (A) (A) (A) (A) (A)
                 (A) (A) (A) (A) (A) (A) (A) (A) (A) (A) (A) (A)
                 (A) (A) (A) (A) (A) (A) (A) (A) (A) (A) (A) (A)
                 (A) (A) (A) (A) (A) (A) (A) (A) (A) (A) (A) (A)
                 (A) (A) (A) (A) (A) (A) (A) (A) (A) (A) (A) (A)
                 (A) (A) (A) (A) (A) (A) (A) (A) (A) (A) (A) (A)
                 (A) (A) (A) (A) (A) (A) (A) (A) (A) (A) (A) (A)
                 (A) (A) (A) (A) (A) (A) (A) (A) (A) (A) (A) (A)
                 (A) (A) (A) (A) (A) (A) (A) (A) (A) (A) (A) (A)
                 (A) (A) (A) (A) (A) (A) (A) (A) (A) (A) (A) (A)
                 (A) (A) (A) (A) (A) (A) (A) (A) (A) (A) (A) (A)
                 (A) (A) (A) (A) (A) (A) (A) (A) (A) (A) (A) (A)
                 (A) (A) (A) (A) (A) (A) (A) (A) (A) (A) (A) (A)
                 (A) (A) (A) (A) (A) (A) (A) (A) (A) (A) (A) (A)
                 (A) (A) (A) (A) (A) (A) (A) (A) (A) (A) (A) (A)
                 (A) (A) (A) (A) (A) (A) (A) (A) (A) (A) (A) (A)
                 (A) (A) (A) (A) (A) (A) (A) (A) (A) (A) (A) (A)
                 (A) (A) (A) (A) (A) (A) (A) (A) (A) (A) (A) (A)
                 (A) (A) (A) (A) (A) (A) (A) (A) (A) (A) (A) (A)
                 (A) (A) (A) (A) (A) (A) (A) (A) (A) (A) (A) (A)
                 (A) (A) (A) (A) (A) (A) (A) (A) (A) (A) (A) (A)
                 (A) (A) (A) (A) (A) (A) (A) (A) (A) (A) (A) (A)
                 (A) (A) (A) (A) (A) (A) (A) (A) (A) (A) (A) (A)
                 (A) (A) (A) (A) (A) (A) (A) (A) (A) (A) (A) (A)
                 (A) (A) (A) (A) (A) (A) (A) (A) (A) (A) (A) (A)
                 (A) (A) (A) (A) (A) (A) (A) (A) (A) (A) (A) (A)
                 (A) (A) (A) (A) (A) (A) (A) (A) (A) (A) (A) (A)
                 (A) (A) (A) (A) (A) (A) (A) (A) (A) (A) (A) (A)
                 (A) (A) (A) (A) (A) (A) (A) (A) (A) (A) (A) (A)
                 (A) (A) (A) (A) (A) (A) (A) (A) (A) (A) (A) (A)
                 (A) (A) (A) (A) (A) (A) (A) (A) (A) (A) (A) (A)
                 (A) (A) (A) (A) (A) (A) (A) (A) (A) (A) (A) (A)
                 (A) (A) (A) (A) (A) (A) (A) (A) (A) (A) (A) (A)
                 (A) (A) (A) (A) (A) (A) (A) (A) (A) (A) (A) (A)
                 (A) (A) (A) (A) (A) (A) (A) (A) (A) (A) (A) (A)
                 (A) (A) (A) (A) (A) (A) (A) (A) (A) (A) (A) (A)
                 (A) (A) (A) (A) (A) (A) (A) (A) (A) (A) (A) (A)
                 (A) (A) (A) (A) (A) (A) (A) (A) (A) (A) (A) (A)
                 (A) (A) (A) (A) (A) (A) (A) (A) (A) (A) (A) (A)
                 (A) (A) (A) (A) (A) (A) (A) (A) (A) (A) (A) (A)
                 (A) (A) (A) (A) (A) (A) (A) (A) (A) (A) (A) (A)
                 (A) (A) (A) (A) (A) (A) (A) (A) (A) (A) (A) (A)
                 (A) (A) (A) (A) (A) (A) (A) (A) (A) (A) (A) (A)
                 (A) (A) (A) (A) (A) (A) (A) (A) (A) (A) (A) (A)
                 (A) (A) (A) (A) (A) (A) (A) (A) (A) (A) (A) (A)
                 (A) (A) (A) (A) (A) (A) (A) (A) (A) (A) (A) (A)
                 (A) (A) (A) (A) (A) (A) (A) (A) (A) (A) (A) (A)
                 (A) (A) (A) (A) (A) (A) (A) (A) (A) (A) (A) (A)
                 (A) (A) (A) (A) (A) (A) (A) (A) (A) (A) (A) (A)
                 (A) (A) (A) (A) (A) (A) (A) (A) (A) (A) (A) (A)
                 (A) (A) (A) (A) (A) (A) (A) (A) (A) (A) (A) (A)
                 (A) (A) (A) (A) (A) (A) (A) (A) (A) (A) (A) (A)
                 (A) (A) (A) (A) (A) (A) (A) (A) (A) (A) (A) (A)
                 (A) (A) (A) (A) (A) (A) (A) (A) (A) (A) (A) (A)
                 (A) (A) (A) (A) (A) (A) (A) (A) (A) (A) (A) (A)
                 (A) (A) (A) (A) (A) (A) (A) (A) (A) (A) (A) (A)
                 (A) (A) (A) (A) (A) (A) (A) (A) (A) (A) (A) (A)
                 (A) (A) (A) (A) (A) (A) (A) (A) (A) (A) (A) (A)
                 (A) (A) (A) (A) (A) (A) (A) (A) (A) (A) (A) (A)
                 (A) (A) (A) (A) (A) (A) (A) (A) (A) (A) (A) (A)
                 (A) (A) (A) (A) (A) (A) (A) (A) (A) (A) (A) (A)
                 (A) (A) (A) (A) (A) (A) (A) (A) (A) (A) (A) (A)
                 (A) (A) (A) (A) (A) (A) (A) (A) (A) (A) (A) (A)
                 (A) (A) (A) (A) (A) (A) (A) (A) (A) (A) (A) (A)
                 (A) (A) (A) (A) (A) (A) (A) (A) (A) (A) (A) (A)
                 (A) (A) (A) (A) (A) (A) (A) (A) (A) (A) (A) (A)
                 (A) (A) (A) (A) (A) (A) (A) (A) (A) (A) (A) (A)
                 (A) (A) (A) (A) (A) (A) (A) (A) (A) (A) (A) (A)
                 (A) (A) (A) (A) (A) (A) (A) (A) (A) (A) (A) (A)
                 (A) (A) (A) (A) (A) (A) (A) (A) (A) (A) (A) (A)
                 (A) (A) (A) (A) (A) (A) (A) (A) (A) (A) (A) (A)
                 (A) (A) (A) (A) (A) (A) (A) (A) (A) (A) (A) (A)
                 (A) (A) (A) (A) (A) (A) (A) (A) (A) (A) (A) (A)
                 (A) (A) (A) (A) (A) (A) (A) (A) (A) (A) (A) (A)
                 (A) (A) (A) (A) (A) (A) (A) (A) (A) (A) (A) (A)
                 (A) (A) (A) (A) (A) (A) (A) (A) (A) (A) (A) (A)
                 (A) (A) (A) (A) (A) (A) (A) (A) (A) (A) (A) (A)
                 (A) (A) (A) (A) (A) (A) (A) (A) (A) (A) (A) (A)
                 (A) (A) (A) (A) (A) (A) (A) (A) (A) (A) (A) (A)
                 (A) (A) (A) (A) (A) (A) (A) (A) (A) (A) (A) (A)
                 (A) (A) (A) (A) (A) (A) (A) (A) (A) (A) (A) (A)
                 (A) (A) (A) (A) (A) (A) (A) (A) (A) (A) (A) (A)
                 (A) (A) (A) (A) (A) (A) (A) (A) (A) (A) (A) (A)
                 (A) (A) (A) (A) (A) (A) (A) (A) (A) (A) (A) (A)
                 (A) (A) (A) (A) (A) (A) (A) (A) (A) (A) (A) (A)
                 (A) (A) (A) (A) (A) (A) (A) (A) (A) (A) (A) (A)
                 (A) (A) (A) (A) (A) (A) (A) (A) (A) (A) (A) (A)
                 (A) (A) (A) (A) (A) (A) (A) (A) (A) (A) (A) (A)
                 (A) (A) (A) (A) (A) (A) (A) (A) (A) (A) (A) (A)
                 (A) (A) (A) (A) (A) (A) (A) (A) (A) (A) (A) (A)
                 (A) (A) (A) (A) (A) (A) (A) (A) (A) (A) (A) (A)
                 (A) (A) (A) (A) (A) (A) (A) (A) (A) (A) (A) (A)
                 (A) (A) (A) (A) (A) (A) (A) (A) (A) (A) (A) (A)
                 (A) (A) (A) (A) (A) (A) (A) (A) (A) (A) (A) (A)
                 (A) (A) (A) (A) (A) (A) (A) (A) (A) (A) (A) (A)
                 (A) (A) (A) (A) (A) (A) (A) (A) (A) (A) (A) (A)
                 (A) (A) (A) (A) (A) (A) (A) (A) (A) (A) (A) (A)
                 (A) (A) (A) (A) (A) (A) (A) (A) (A) (A) (A) (A)
                 (A) (A) (A) (A) (A) (A) (A) (A) (A) (A) (A) (A)
                 (A) (A) (A) (A) (A) (A) (A) (A) (A) (A) (A) (A)
                 (A) (A) (A) (A) (A) (A) (A) (A) (A) (A) (A) (A)
                 (A) (A) (A) (A) (A) (A) (A) (A) (A) (A) (A) (A)
                 (A) (A) (A) (A) (A) (A) (A) (A) (A) (A) (A) (A)
                 (A) (A) (A) (A) (A) (A) (A) (A) (A) (A) (A) (A)
                 (A) (A) (A) (A) (A) (A) (A) (A) (A) (A) (A) (A)
                 (A) (A) (A)
 The electronic state is 1-A.
 Alpha  occ. eigenvalues -- -145.36323 -19.15766 -19.14082 -19.13618 -19.11959
 Alpha  occ. eigenvalues --  -19.11801 -19.11497 -19.11160 -19.10334 -19.09915
 Alpha  occ. eigenvalues --  -19.09486 -19.08574 -19.08448 -19.07722 -19.07529
 Alpha  occ. eigenvalues --  -19.06650 -19.06011 -19.05968 -19.05142 -19.05118
 Alpha  occ. eigenvalues --  -19.04873 -19.04485 -19.04327 -19.03518 -15.42038
 Alpha  occ. eigenvalues --  -14.58133 -14.39599 -14.36982 -14.36913 -14.36858
 Alpha  occ. eigenvalues --  -14.35949 -14.35623 -14.34036 -14.32424 -14.32411
 Alpha  occ. eigenvalues --  -14.32186 -14.31938 -14.31130 -14.30897 -14.30276
 Alpha  occ. eigenvalues --  -12.55654 -12.55616 -12.55608 -10.33859 -10.31733
 Alpha  occ. eigenvalues --  -10.30265 -10.29874 -10.29690 -10.29038 -10.28250
 Alpha  occ. eigenvalues --  -10.28064 -10.27073 -10.25986 -10.25854 -10.25640
 Alpha  occ. eigenvalues --  -10.25515 -10.25479 -10.25380 -10.25239 -10.24887
 Alpha  occ. eigenvalues --  -10.24752 -10.23976 -10.23765 -10.23346 -10.23201
 Alpha  occ. eigenvalues --  -10.23134 -10.23125 -10.23123 -10.22624 -10.22322
 Alpha  occ. eigenvalues --  -10.21822 -10.21398 -10.21184 -10.20761 -10.20705
 Alpha  occ. eigenvalues --  -10.20400 -10.20302 -10.19790 -10.19500 -10.19453
 Alpha  occ. eigenvalues --  -10.19370 -10.19129 -10.18864 -10.18819 -10.18336
 Alpha  occ. eigenvalues --  -10.18055 -10.17907 -10.17505 -10.17462 -10.17388
 Alpha  occ. eigenvalues --  -10.17354 -10.17138 -10.17037 -10.16795 -10.16404
 Alpha  occ. eigenvalues --  -10.16370 -10.14103  -1.78891  -1.13503  -1.06965
 Alpha  occ. eigenvalues --   -1.06670  -1.06564  -1.06335  -1.04871  -1.04566
 Alpha  occ. eigenvalues --   -1.04156  -1.04011  -1.02969  -1.02810  -1.02495
 Alpha  occ. eigenvalues --   -1.01789  -1.01541  -1.01208  -1.01172  -1.00025
 Alpha  occ. eigenvalues --   -0.99913  -0.99337  -0.99259  -0.98882  -0.98621
 Alpha  occ. eigenvalues --   -0.98306  -0.97357  -0.96488  -0.93697  -0.93521
 Alpha  occ. eigenvalues --   -0.93388  -0.92336  -0.92158  -0.91297  -0.91073
 Alpha  occ. eigenvalues --   -0.90988  -0.89905  -0.89496  -0.89160  -0.88971
 Alpha  occ. eigenvalues --   -0.88336  -0.88093  -0.87511  -0.87401  -0.86482
 Alpha  occ. eigenvalues --   -0.83020  -0.82351  -0.81696  -0.80586  -0.79318
 Alpha  occ. eigenvalues --   -0.77966  -0.77723  -0.77583  -0.76963  -0.76519
 Alpha  occ. eigenvalues --   -0.75222  -0.74124  -0.74039  -0.72825  -0.72360
 Alpha  occ. eigenvalues --   -0.72323  -0.72277  -0.72196  -0.71059  -0.70582
 Alpha  occ. eigenvalues --   -0.69417  -0.68682  -0.68556  -0.68365  -0.67468
 Alpha  occ. eigenvalues --   -0.66631  -0.65574  -0.65298  -0.64595  -0.64133
 Alpha  occ. eigenvalues --   -0.64051  -0.62933  -0.62483  -0.62110  -0.61211
 Alpha  occ. eigenvalues --   -0.60869  -0.60682  -0.60115  -0.60076  -0.59756
 Alpha  occ. eigenvalues --   -0.59307  -0.59081  -0.58411  -0.57597  -0.57045
 Alpha  occ. eigenvalues --   -0.56973  -0.56712  -0.56571  -0.56186  -0.55597
 Alpha  occ. eigenvalues --   -0.55352  -0.55236  -0.55160  -0.54823  -0.54593
 Alpha  occ. eigenvalues --   -0.54385  -0.54300  -0.53991  -0.53600  -0.53429
 Alpha  occ. eigenvalues --   -0.53141  -0.53029  -0.52166  -0.51638  -0.51498
 Alpha  occ. eigenvalues --   -0.50896  -0.50457  -0.49883  -0.49822  -0.49701
 Alpha  occ. eigenvalues --   -0.49566  -0.49118  -0.48955  -0.48611  -0.48532
 Alpha  occ. eigenvalues --   -0.48452  -0.48147  -0.47757  -0.47625  -0.47380
 Alpha  occ. eigenvalues --   -0.47314  -0.47127  -0.46832  -0.46760  -0.46187
 Alpha  occ. eigenvalues --   -0.46028  -0.45921  -0.45663  -0.45451  -0.45220
 Alpha  occ. eigenvalues --   -0.45083  -0.44839  -0.44790  -0.44464  -0.44312
 Alpha  occ. eigenvalues --   -0.44230  -0.44131  -0.43976  -0.43808  -0.43675
 Alpha  occ. eigenvalues --   -0.43376  -0.43258  -0.43164  -0.42812  -0.42769
 Alpha  occ. eigenvalues --   -0.42669  -0.42437  -0.42362  -0.42099  -0.41995
 Alpha  occ. eigenvalues --   -0.41955  -0.41889  -0.41835  -0.41527  -0.41467
 Alpha  occ. eigenvalues --   -0.41153  -0.41025  -0.40980  -0.40891  -0.40840
 Alpha  occ. eigenvalues --   -0.40611  -0.40472  -0.40324  -0.40066  -0.39955
 Alpha  occ. eigenvalues --   -0.39863  -0.39711  -0.39426  -0.39355  -0.39291
 Alpha  occ. eigenvalues --   -0.39180  -0.39020  -0.38827  -0.38773  -0.38631
 Alpha  occ. eigenvalues --   -0.38480  -0.38349  -0.38269  -0.38123  -0.38022
 Alpha  occ. eigenvalues --   -0.37662  -0.37563  -0.37503  -0.37285  -0.37169
 Alpha  occ. eigenvalues --   -0.36855  -0.36753  -0.36563  -0.36440  -0.36200
 Alpha  occ. eigenvalues --   -0.36179  -0.36023  -0.35868  -0.35645  -0.35594
 Alpha  occ. eigenvalues --   -0.35523  -0.35132  -0.35048  -0.34819  -0.34662
 Alpha  occ. eigenvalues --   -0.34365  -0.34186  -0.34120  -0.34038  -0.33714
 Alpha  occ. eigenvalues --   -0.33235  -0.33180  -0.33102  -0.32823  -0.32264
 Alpha  occ. eigenvalues --   -0.32230  -0.31951  -0.31758  -0.31662  -0.31516
 Alpha  occ. eigenvalues --   -0.31351  -0.31079  -0.30688  -0.30450  -0.29717
 Alpha  occ. eigenvalues --   -0.29483  -0.28781  -0.28552  -0.28029  -0.27749
 Alpha  occ. eigenvalues --   -0.27495  -0.27378  -0.27134  -0.26902  -0.26682
 Alpha  occ. eigenvalues --   -0.26461  -0.26374  -0.26058  -0.25630  -0.24976
 Alpha  occ. eigenvalues --   -0.24801  -0.24663  -0.24588  -0.24009  -0.23898
 Alpha  occ. eigenvalues --   -0.23855  -0.23259  -0.23196  -0.23085  -0.23042
 Alpha  occ. eigenvalues --   -0.22621  -0.22407  -0.21917  -0.21776  -0.21626
 Alpha  occ. eigenvalues --   -0.21553  -0.20799  -0.20667  -0.20504  -0.20230
 Alpha  occ. eigenvalues --   -0.20133  -0.19507  -0.19390
 Alpha virt. eigenvalues --   -0.10114  -0.04813  -0.04062  -0.01718  -0.00973
 Alpha virt. eigenvalues --   -0.00222  -0.00109  -0.00040   0.00092   0.00470
 Alpha virt. eigenvalues --    0.00744   0.01273   0.01395   0.01699   0.02314
 Alpha virt. eigenvalues --    0.02585   0.03014   0.03646   0.03879   0.04148
 Alpha virt. eigenvalues --    0.04409   0.04529   0.04839   0.04983   0.05121
 Alpha virt. eigenvalues --    0.05354   0.05632   0.05912   0.06072   0.06202
 Alpha virt. eigenvalues --    0.06248   0.06419   0.06599   0.06921   0.07042
 Alpha virt. eigenvalues --    0.07330   0.07563   0.07672   0.07835   0.07873
 Alpha virt. eigenvalues --    0.08217   0.08585   0.08717   0.09156   0.09449
 Alpha virt. eigenvalues --    0.09667   0.09954   0.10112   0.10240   0.10439
 Alpha virt. eigenvalues --    0.10597   0.10765   0.11020   0.11169   0.11333
 Alpha virt. eigenvalues --    0.11717   0.11892   0.11937   0.12270   0.12310
 Alpha virt. eigenvalues --    0.12520   0.12670   0.12897   0.12961   0.13092
 Alpha virt. eigenvalues --    0.13169   0.13395   0.13529   0.13789   0.14069
 Alpha virt. eigenvalues --    0.14117   0.14279   0.14362   0.14594   0.14777
 Alpha virt. eigenvalues --    0.14842   0.14998   0.15208   0.15369   0.15493
 Alpha virt. eigenvalues --    0.15773   0.15854   0.16209   0.16380   0.16661
 Alpha virt. eigenvalues --    0.16814   0.16935   0.17031   0.17399   0.17674
 Alpha virt. eigenvalues --    0.17749   0.17780   0.18020   0.18257   0.18369
 Alpha virt. eigenvalues --    0.18588   0.18699   0.18764   0.18879   0.19080
 Alpha virt. eigenvalues --    0.19375   0.19503   0.19683   0.19810   0.20004
 Alpha virt. eigenvalues --    0.20281   0.20419   0.20568   0.20736   0.21092
 Alpha virt. eigenvalues --    0.21321   0.21422   0.21735   0.21888   0.22094
 Alpha virt. eigenvalues --    0.22178   0.22429   0.22531   0.22788   0.22975
 Alpha virt. eigenvalues --    0.23279   0.23369   0.23472   0.23702   0.23862
 Alpha virt. eigenvalues --    0.24013   0.24304   0.24692   0.24703   0.24902
 Alpha virt. eigenvalues --    0.25147   0.25564   0.25621   0.25808   0.25980
 Alpha virt. eigenvalues --    0.26097   0.26329   0.26501   0.26647   0.26885
 Alpha virt. eigenvalues --    0.27076   0.27280   0.27667   0.27684   0.28206
 Alpha virt. eigenvalues --    0.28534   0.28812   0.29207   0.29550   0.29613
 Alpha virt. eigenvalues --    0.29644   0.29881   0.30194   0.30252   0.30391
 Alpha virt. eigenvalues --    0.30724   0.31046   0.31319   0.31377   0.31517
 Alpha virt. eigenvalues --    0.31876   0.32262   0.32547   0.32673   0.32847
 Alpha virt. eigenvalues --    0.33207   0.33718   0.33766   0.33919   0.33979
 Alpha virt. eigenvalues --    0.34260   0.34452   0.34704   0.35048   0.35620
 Alpha virt. eigenvalues --    0.35951   0.36247   0.36701   0.36979   0.37255
 Alpha virt. eigenvalues --    0.37451   0.37580   0.37808   0.38203   0.38644
 Alpha virt. eigenvalues --    0.38746   0.39153   0.39330   0.39525   0.40170
 Alpha virt. eigenvalues --    0.40220   0.40544   0.40645   0.41364   0.41558
 Alpha virt. eigenvalues --    0.41649   0.41773   0.42046   0.42232   0.42384
 Alpha virt. eigenvalues --    0.42580   0.42697   0.43162   0.43363   0.43721
 Alpha virt. eigenvalues --    0.43961   0.44125   0.44299   0.44467   0.44597
 Alpha virt. eigenvalues --    0.44924   0.44990   0.45196   0.45347   0.45500
 Alpha virt. eigenvalues --    0.45829   0.46038   0.46294   0.46441   0.46854
 Alpha virt. eigenvalues --    0.46990   0.47165   0.47306   0.47499   0.47611
 Alpha virt. eigenvalues --    0.47866   0.48051   0.48148   0.48259   0.48487
 Alpha virt. eigenvalues --    0.48735   0.48857   0.48933   0.49246   0.49314
 Alpha virt. eigenvalues --    0.49492   0.49592   0.49852   0.50236   0.50391
 Alpha virt. eigenvalues --    0.50749   0.50945   0.50969   0.51209   0.51579
 Alpha virt. eigenvalues --    0.51791   0.51873   0.52121   0.52246   0.52451
 Alpha virt. eigenvalues --    0.52840   0.53017   0.53337   0.53411   0.53522
 Alpha virt. eigenvalues --    0.53761   0.54115   0.54209   0.54524   0.54684
 Alpha virt. eigenvalues --    0.54892   0.55032   0.55140   0.55301   0.55461
 Alpha virt. eigenvalues --    0.55637   0.55737   0.55916   0.56045   0.56441
 Alpha virt. eigenvalues --    0.56687   0.56806   0.56933   0.57107   0.57155
 Alpha virt. eigenvalues --    0.57352   0.57457   0.57783   0.57934   0.57994
 Alpha virt. eigenvalues --    0.58405   0.58502   0.58702   0.58843   0.58980
 Alpha virt. eigenvalues --    0.59276   0.59454   0.59673   0.59836   0.59880
 Alpha virt. eigenvalues --    0.60001   0.60069   0.60339   0.60471   0.60664
 Alpha virt. eigenvalues --    0.60959   0.61066   0.61188   0.61479   0.61551
 Alpha virt. eigenvalues --    0.61632   0.61814   0.61852   0.62030   0.62092
 Alpha virt. eigenvalues --    0.62198   0.62431   0.62558   0.62727   0.62823
 Alpha virt. eigenvalues --    0.63010   0.63138   0.63300   0.63432   0.63607
 Alpha virt. eigenvalues --    0.63713   0.63826   0.63901   0.63950   0.64042
 Alpha virt. eigenvalues --    0.64301   0.64419   0.64556   0.64601   0.64658
 Alpha virt. eigenvalues --    0.64832   0.64906   0.65063   0.65148   0.65326
 Alpha virt. eigenvalues --    0.65376   0.65432   0.65583   0.65737   0.65836
 Alpha virt. eigenvalues --    0.65913   0.66081   0.66119   0.66227   0.66255
 Alpha virt. eigenvalues --    0.66442   0.66533   0.66570   0.66824   0.66932
 Alpha virt. eigenvalues --    0.66995   0.67049   0.67193   0.67311   0.67498
 Alpha virt. eigenvalues --    0.67617   0.67640   0.67755   0.67895   0.68135
 Alpha virt. eigenvalues --    0.68223   0.68367   0.68403   0.68517   0.68612
 Alpha virt. eigenvalues --    0.68628   0.68783   0.69016   0.69089   0.69315
 Alpha virt. eigenvalues --    0.69345   0.69388   0.69595   0.69731   0.69927
 Alpha virt. eigenvalues --    0.70070   0.70314   0.70360   0.70472   0.70645
 Alpha virt. eigenvalues --    0.70700   0.70794   0.70949   0.71108   0.71233
 Alpha virt. eigenvalues --    0.71484   0.71536   0.71748   0.71871   0.72173
 Alpha virt. eigenvalues --    0.72195   0.72356   0.72467   0.72567   0.72691
 Alpha virt. eigenvalues --    0.72775   0.72837   0.73112   0.73210   0.73285
 Alpha virt. eigenvalues --    0.73604   0.73731   0.73954   0.74060   0.74335
 Alpha virt. eigenvalues --    0.74400   0.74676   0.74873   0.75262   0.75505
 Alpha virt. eigenvalues --    0.75668   0.75849   0.76061   0.76137   0.76214
 Alpha virt. eigenvalues --    0.76508   0.76845   0.76978   0.77209   0.77495
 Alpha virt. eigenvalues --    0.77606   0.77985   0.78098   0.78311   0.78342
 Alpha virt. eigenvalues --    0.78786   0.78964   0.79335   0.79666   0.79865
 Alpha virt. eigenvalues --    0.79924   0.80290   0.80582   0.80637   0.80783
 Alpha virt. eigenvalues --    0.80894   0.81411   0.82086   0.82224   0.82319
 Alpha virt. eigenvalues --    0.82459   0.82986   0.83250   0.83450   0.83679
 Alpha virt. eigenvalues --    0.83871   0.84102   0.84588   0.84849   0.85328
 Alpha virt. eigenvalues --    0.85521   0.85882   0.86043   0.86363   0.86599
 Alpha virt. eigenvalues --    0.86901   0.87196   0.87458   0.87546   0.87752
 Alpha virt. eigenvalues --    0.88112   0.88366   0.88532   0.89274   0.89387
 Alpha virt. eigenvalues --    0.89641   0.89929   0.90634   0.90656   0.90877
 Alpha virt. eigenvalues --    0.91283   0.91584   0.91886   0.92171   0.92459
 Alpha virt. eigenvalues --    0.92630   0.92909   0.93254   0.93347   0.93815
 Alpha virt. eigenvalues --    0.93899   0.94213   0.94590   0.94695   0.95044
 Alpha virt. eigenvalues --    0.95131   0.95711   0.95848   0.96212   0.96525
 Alpha virt. eigenvalues --    0.96838   0.97000   0.97271   0.97690   0.97987
 Alpha virt. eigenvalues --    0.98340   0.98505   0.98671   0.99376   0.99629
 Alpha virt. eigenvalues --    0.99952   1.00018   1.00245   1.00352   1.00716
 Alpha virt. eigenvalues --    1.00922   1.01209   1.01452   1.01835   1.02474
 Alpha virt. eigenvalues --    1.02642   1.02991   1.03040   1.03491   1.03767
 Alpha virt. eigenvalues --    1.04183   1.04482   1.04561   1.04674   1.04921
 Alpha virt. eigenvalues --    1.05459   1.05678   1.06447   1.06624   1.06673
 Alpha virt. eigenvalues --    1.06975   1.07072   1.07569   1.07777   1.08137
 Alpha virt. eigenvalues --    1.08511   1.08943   1.09143   1.09294   1.09714
 Alpha virt. eigenvalues --    1.09943   1.10013   1.10183   1.10446   1.10717
 Alpha virt. eigenvalues --    1.10826   1.11163   1.11500   1.11666   1.11992
 Alpha virt. eigenvalues --    1.12262   1.12333   1.13119   1.13350   1.13667
 Alpha virt. eigenvalues --    1.13792   1.13979   1.14354   1.14587   1.14768
 Alpha virt. eigenvalues --    1.14979   1.15333   1.15658   1.15811   1.16204
 Alpha virt. eigenvalues --    1.16338   1.16796   1.17327   1.17510   1.17670
 Alpha virt. eigenvalues --    1.17875   1.18408   1.18678   1.19029   1.19082
 Alpha virt. eigenvalues --    1.19219   1.19407   1.19613   1.20165   1.20567
 Alpha virt. eigenvalues --    1.20725   1.20965   1.21358   1.21707   1.21911
 Alpha virt. eigenvalues --    1.22351   1.22701   1.22827   1.22888   1.23374
 Alpha virt. eigenvalues --    1.23468   1.23554   1.23863   1.24354   1.24473
 Alpha virt. eigenvalues --    1.24764   1.24897   1.25081   1.25536   1.25667
 Alpha virt. eigenvalues --    1.25872   1.26210   1.26547   1.26789   1.26873
 Alpha virt. eigenvalues --    1.27016   1.27333   1.27463   1.27975   1.28307
 Alpha virt. eigenvalues --    1.28446   1.28532   1.28741   1.28808   1.29210
 Alpha virt. eigenvalues --    1.29423   1.29710   1.30236   1.30294   1.30455
 Alpha virt. eigenvalues --    1.30761   1.30981   1.31296   1.31425   1.31884
 Alpha virt. eigenvalues --    1.32031   1.32439   1.32718   1.32873   1.33295
 Alpha virt. eigenvalues --    1.33538   1.33825   1.33984   1.34142   1.34557
 Alpha virt. eigenvalues --    1.34969   1.35444   1.35827   1.35839   1.36258
 Alpha virt. eigenvalues --    1.36614   1.36882   1.36901   1.37257   1.37411
 Alpha virt. eigenvalues --    1.38077   1.38414   1.38549   1.38864   1.39382
 Alpha virt. eigenvalues --    1.39527   1.40052   1.40539   1.40698   1.40759
 Alpha virt. eigenvalues --    1.40853   1.41066   1.41270   1.41335   1.41612
 Alpha virt. eigenvalues --    1.41736   1.41856   1.42167   1.43044   1.43239
 Alpha virt. eigenvalues --    1.43369   1.43612   1.44457   1.44489   1.44912
 Alpha virt. eigenvalues --    1.45174   1.45656   1.46051   1.46391   1.46485
 Alpha virt. eigenvalues --    1.46596   1.46935   1.47306   1.47478   1.47844
 Alpha virt. eigenvalues --    1.48213   1.48692   1.49119   1.49274   1.49494
 Alpha virt. eigenvalues --    1.49571   1.49889   1.50036   1.50374   1.50681
 Alpha virt. eigenvalues --    1.50890   1.51003   1.51311   1.51867   1.52167
 Alpha virt. eigenvalues --    1.52363   1.52478   1.52812   1.53203   1.53775
 Alpha virt. eigenvalues --    1.53900   1.54175   1.54355   1.54629   1.55025
 Alpha virt. eigenvalues --    1.55227   1.55719   1.55830   1.56193   1.56323
 Alpha virt. eigenvalues --    1.56799   1.56894   1.57396   1.57828   1.57967
 Alpha virt. eigenvalues --    1.58169   1.58621   1.58846   1.58974   1.59213
 Alpha virt. eigenvalues --    1.59599   1.60083   1.60366   1.60741   1.60996
 Alpha virt. eigenvalues --    1.61453   1.61626   1.61735   1.62003   1.62513
 Alpha virt. eigenvalues --    1.62626   1.62871   1.62972   1.63183   1.63647
 Alpha virt. eigenvalues --    1.64293   1.64772   1.65048   1.65351   1.65836
 Alpha virt. eigenvalues --    1.66131   1.66515   1.66700   1.66875   1.67311
 Alpha virt. eigenvalues --    1.67947   1.68306   1.68606   1.68867   1.68909
 Alpha virt. eigenvalues --    1.69432   1.69636   1.69786   1.70263   1.70378
 Alpha virt. eigenvalues --    1.70551   1.70668   1.70945   1.71110   1.71300
 Alpha virt. eigenvalues --    1.71418   1.72045   1.72107   1.72364   1.72624
 Alpha virt. eigenvalues --    1.72657   1.72897   1.73109   1.73392   1.73692
 Alpha virt. eigenvalues --    1.73874   1.74129   1.74254   1.74481   1.74817
 Alpha virt. eigenvalues --    1.75023   1.75226   1.75388   1.75472   1.75693
 Alpha virt. eigenvalues --    1.76039   1.76207   1.76446   1.76584   1.76691
 Alpha virt. eigenvalues --    1.76980   1.77155   1.77300   1.77525   1.77624
 Alpha virt. eigenvalues --    1.77844   1.77891   1.78041   1.78211   1.78472
 Alpha virt. eigenvalues --    1.78630   1.78692   1.78941   1.79102   1.79154
 Alpha virt. eigenvalues --    1.79491   1.79664   1.79852   1.80000   1.80091
 Alpha virt. eigenvalues --    1.80280   1.80487   1.80625   1.80654   1.80789
 Alpha virt. eigenvalues --    1.81126   1.81290   1.81532   1.81725   1.81841
 Alpha virt. eigenvalues --    1.81907   1.82230   1.82450   1.82684   1.82906
 Alpha virt. eigenvalues --    1.83140   1.83261   1.83655   1.83835   1.83901
 Alpha virt. eigenvalues --    1.84042   1.84511   1.84534   1.84711   1.84797
 Alpha virt. eigenvalues --    1.84928   1.85129   1.85226   1.85392   1.85421
 Alpha virt. eigenvalues --    1.85594   1.85794   1.86228   1.86307   1.86532
 Alpha virt. eigenvalues --    1.86698   1.86847   1.87107   1.87324   1.87427
 Alpha virt. eigenvalues --    1.87579   1.87737   1.87902   1.88172   1.88332
 Alpha virt. eigenvalues --    1.88515   1.88731   1.89024   1.89228   1.89556
 Alpha virt. eigenvalues --    1.89803   1.90156   1.90206   1.90403   1.90612
 Alpha virt. eigenvalues --    1.90682   1.90875   1.91055   1.91151   1.91330
 Alpha virt. eigenvalues --    1.91649   1.91754   1.92064   1.92100   1.92492
 Alpha virt. eigenvalues --    1.92716   1.92840   1.93326   1.93411   1.93744
 Alpha virt. eigenvalues --    1.93997   1.94121   1.94207   1.94349   1.94565
 Alpha virt. eigenvalues --    1.94839   1.94956   1.95514   1.95599   1.95658
 Alpha virt. eigenvalues --    1.95938   1.96253   1.96394   1.96475   1.96865
 Alpha virt. eigenvalues --    1.97195   1.97358   1.97419   1.97668   1.98121
 Alpha virt. eigenvalues --    1.98166   1.98389   1.98472   1.98677   1.99059
 Alpha virt. eigenvalues --    1.99098   1.99421   1.99471   1.99820   2.00049
 Alpha virt. eigenvalues --    2.00307   2.00489   2.00673   2.00766   2.01027
 Alpha virt. eigenvalues --    2.01150   2.01597   2.01666   2.01986   2.02701
 Alpha virt. eigenvalues --    2.02733   2.02902   2.03185   2.03357   2.03622
 Alpha virt. eigenvalues --    2.03795   2.03957   2.04534   2.04604   2.04734
 Alpha virt. eigenvalues --    2.05118   2.05463   2.05715   2.06026   2.06158
 Alpha virt. eigenvalues --    2.06623   2.06838   2.07102   2.07405   2.07565
 Alpha virt. eigenvalues --    2.07742   2.08020   2.08119   2.08354   2.08719
 Alpha virt. eigenvalues --    2.09268   2.09409   2.09709   2.09891   2.10339
 Alpha virt. eigenvalues --    2.10630   2.10819   2.10974   2.11011   2.11184
 Alpha virt. eigenvalues --    2.11730   2.12032   2.12132   2.12334   2.13105
 Alpha virt. eigenvalues --    2.13567   2.13683   2.14113   2.14162   2.14330
 Alpha virt. eigenvalues --    2.14629   2.14800   2.15339   2.15477   2.15754
 Alpha virt. eigenvalues --    2.16171   2.16499   2.16543   2.16626   2.17054
 Alpha virt. eigenvalues --    2.17277   2.18071   2.18223   2.18491   2.18525
 Alpha virt. eigenvalues --    2.18719   2.19188   2.19757   2.20135   2.20314
 Alpha virt. eigenvalues --    2.20690   2.21129   2.21156   2.21523   2.22081
 Alpha virt. eigenvalues --    2.22170   2.22610   2.22659   2.23007   2.23220
 Alpha virt. eigenvalues --    2.23586   2.23728   2.23783   2.24294   2.25248
 Alpha virt. eigenvalues --    2.25507   2.25560   2.25620   2.26145   2.26549
 Alpha virt. eigenvalues --    2.27274   2.27620   2.27790   2.28126   2.28301
 Alpha virt. eigenvalues --    2.28829   2.29210   2.29430   2.29564   2.30002
 Alpha virt. eigenvalues --    2.30130   2.30394   2.30442   2.30927   2.31042
 Alpha virt. eigenvalues --    2.31504   2.31773   2.32107   2.32358   2.32753
 Alpha virt. eigenvalues --    2.33035   2.33268   2.33415   2.33824   2.34114
 Alpha virt. eigenvalues --    2.34177   2.34404   2.34848   2.34966   2.35597
 Alpha virt. eigenvalues --    2.36022   2.36426   2.36763   2.36930   2.37286
 Alpha virt. eigenvalues --    2.37881   2.38322   2.38468   2.38773   2.39073
 Alpha virt. eigenvalues --    2.39242   2.39763   2.40410   2.40479   2.40806
 Alpha virt. eigenvalues --    2.40850   2.41340   2.41507   2.41972   2.42423
 Alpha virt. eigenvalues --    2.43030   2.43130   2.43775   2.43871   2.44264
 Alpha virt. eigenvalues --    2.44388   2.44765   2.44928   2.45041   2.45345
 Alpha virt. eigenvalues --    2.45898   2.45974   2.46665   2.46993   2.47206
 Alpha virt. eigenvalues --    2.47777   2.48364   2.48582   2.48925   2.49294
 Alpha virt. eigenvalues --    2.49497   2.49817   2.49981   2.50120   2.50706
 Alpha virt. eigenvalues --    2.50948   2.51143   2.51566   2.51799   2.52137
 Alpha virt. eigenvalues --    2.52198   2.52296   2.52809   2.53241   2.53462
 Alpha virt. eigenvalues --    2.53959   2.54244   2.54559   2.54968   2.55339
 Alpha virt. eigenvalues --    2.56126   2.56860   2.56946   2.57028   2.57354
 Alpha virt. eigenvalues --    2.58388   2.58552   2.58924   2.59165   2.59497
 Alpha virt. eigenvalues --    2.59580   2.60003   2.60172   2.60821   2.61140
 Alpha virt. eigenvalues --    2.61173   2.61498   2.61566   2.61818   2.62266
 Alpha virt. eigenvalues --    2.62327   2.62558   2.63534   2.64038   2.64262
 Alpha virt. eigenvalues --    2.64479   2.64878   2.64962   2.65176   2.65425
 Alpha virt. eigenvalues --    2.65831   2.66600   2.66689   2.67090   2.67268
 Alpha virt. eigenvalues --    2.67432   2.67948   2.68161   2.68390   2.68481
 Alpha virt. eigenvalues --    2.68795   2.69178   2.69413   2.69619   2.69806
 Alpha virt. eigenvalues --    2.70299   2.70760   2.70940   2.70988   2.71216
 Alpha virt. eigenvalues --    2.71511   2.71826   2.72271   2.72307   2.72476
 Alpha virt. eigenvalues --    2.72562   2.73118   2.73374   2.73516   2.73724
 Alpha virt. eigenvalues --    2.74231   2.74448   2.74685   2.74772   2.75152
 Alpha virt. eigenvalues --    2.75367   2.75619   2.75681   2.76195   2.76544
 Alpha virt. eigenvalues --    2.76553   2.76833   2.77143   2.77353   2.77877
 Alpha virt. eigenvalues --    2.78217   2.78598   2.78949   2.79006   2.79280
 Alpha virt. eigenvalues --    2.79557   2.79806   2.80005   2.80740   2.80806
 Alpha virt. eigenvalues --    2.81133   2.81215   2.81580   2.81816   2.82138
 Alpha virt. eigenvalues --    2.82326   2.82559   2.83023   2.83227   2.83513
 Alpha virt. eigenvalues --    2.84026   2.84232   2.84331   2.84920   2.85150
 Alpha virt. eigenvalues --    2.85188   2.85493   2.85661   2.85905   2.86136
 Alpha virt. eigenvalues --    2.86274   2.86602   2.87058   2.87379   2.87708
 Alpha virt. eigenvalues --    2.87992   2.88521   2.88876   2.89112   2.89360
 Alpha virt. eigenvalues --    2.89588   2.90199   2.90537   2.90811   2.91000
 Alpha virt. eigenvalues --    2.91055   2.91244   2.91553   2.91977   2.92292
 Alpha virt. eigenvalues --    2.92500   2.92609   2.92718   2.93103   2.93368
 Alpha virt. eigenvalues --    2.93476   2.94007   2.94412   2.94482   2.95335
 Alpha virt. eigenvalues --    2.95981   2.96329   2.96458   2.96552   2.97175
 Alpha virt. eigenvalues --    2.97376   2.97562   2.97655   2.98025   2.98162
 Alpha virt. eigenvalues --    2.98483   2.98698   2.99012   2.99857   2.99957
 Alpha virt. eigenvalues --    3.00254   3.00989   3.01232   3.01273   3.01613
 Alpha virt. eigenvalues --    3.02387   3.02486   3.02720   3.03436   3.03760
 Alpha virt. eigenvalues --    3.03792   3.04067   3.04266   3.04652   3.04916
 Alpha virt. eigenvalues --    3.05356   3.05485   3.06165   3.06268   3.07541
 Alpha virt. eigenvalues --    3.08082   3.08200   3.08444   3.08955   3.09430
 Alpha virt. eigenvalues --    3.09766   3.10328   3.10934   3.11680   3.11968
 Alpha virt. eigenvalues --    3.12426   3.13109   3.13551   3.14393   3.15738
 Alpha virt. eigenvalues --    3.16241   3.16447   3.16693   3.16843   3.17206
 Alpha virt. eigenvalues --    3.17252   3.17713   3.17786   3.18003   3.18103
 Alpha virt. eigenvalues --    3.18457   3.18704   3.18878   3.18990   3.19517
 Alpha virt. eigenvalues --    3.19738   3.20417   3.20588   3.20908   3.21073
 Alpha virt. eigenvalues --    3.21166   3.22166   3.22404   3.22791   3.23107
 Alpha virt. eigenvalues --    3.23468   3.24244   3.24759   3.24992   3.25252
 Alpha virt. eigenvalues --    3.25986   3.26240   3.26650   3.26968   3.28422
 Alpha virt. eigenvalues --    3.28964   3.29174   3.30330   3.30505   3.30627
 Alpha virt. eigenvalues --    3.31506   3.31900   3.33300   3.33888   3.35174
 Alpha virt. eigenvalues --    3.35247   3.36669   3.37974   3.38013   3.40751
 Alpha virt. eigenvalues --    3.41018   3.43910   3.47695   3.48330   3.50065
 Alpha virt. eigenvalues --    3.50452   3.54434   3.54869   3.55202   3.55494
 Alpha virt. eigenvalues --    3.56392   3.58040   3.59011   3.60517   3.61203
 Alpha virt. eigenvalues --    3.61434   3.61536   3.62780   3.62985   3.63773
 Alpha virt. eigenvalues --    3.64311   3.66386   3.67208   3.67852   3.68574
 Alpha virt. eigenvalues --    3.68799   3.69504   3.69818   3.70151   3.70555
 Alpha virt. eigenvalues --    3.70725   3.71144   3.71258   3.71805   3.71957
 Alpha virt. eigenvalues --    3.72339   3.72708   3.72973   3.73519   3.78138
 Alpha virt. eigenvalues --    3.79166   3.81021   3.82066   3.90447
          Condensed to atoms (all electrons):
 Mulliken charges:
               1
     1  C    0.049065
     2  C    0.057265
     3  O   -0.290573
     4  H    0.034273
     5  H    0.005960
     6  H    0.017071
     7  N   -0.133860
     8  C    0.104554
     9  C    0.023325
    10  O   -0.307839
    11  C    0.088677
    12  C    0.131332
    13  O   -0.443618
    14  O   -0.371751
    15  H    0.118449
    16  H    0.024604
    17  H   -0.002479
    18  H    0.026263
    19  N   -0.157588
    20  C    0.128088
    21  C    0.100821
    22  O   -0.279279
    23  C    0.011104
    24  C   -0.022197
    25  C   -0.068479
    26  C    0.040901
    27  N    0.094221
    28  H    0.146935
    29  H   -0.009543
    30  H   -0.007973
    31  H    0.040273
    32  H    0.003331
    33  H    0.083633
    34  H    0.028629
    35  H    0.023255
    36  H    0.087459
    37  H    0.095731
    38  H    0.187417
    39  H    0.188607
    40  H    0.186355
    41  N   -0.150998
    42  C    0.098985
    43  C    0.043927
    44  O   -0.285858
    45  C    0.167697
    46  C    0.049085
    47  O   -0.402726
    48  O   -0.446178
    49  H    0.178101
    50  H    0.021269
    51  H   -0.019365
    52  H    0.019144
    53  N   -0.183422
    54  C    0.249241
    55  C    0.028293
    56  O   -0.292685
    57  H    0.115662
    58  H    0.019006
    59  H    0.028458
    60  N   -0.151165
    61  C    0.154376
    62  C    0.044869
    63  O   -0.312494
    64  C    0.104008
    65  C    0.061175
    66  N   -0.038241
    67  O   -0.362461
    68  H    0.144763
    69  H    0.030039
    70  H    0.067541
    71  H    0.008784
    72  H    0.129029
    73  H    0.134739
    74  N   -0.152674
    75  C    0.232561
    76  C    0.022153
    77  O   -0.294156
    78  H    0.149670
    79  H    0.056966
    80  H    0.020064
    81  N   -0.126864
    82  C    0.089549
    83  C    0.172448
    84  O   -0.341278
    85  C    0.187440
    86  C   -0.013350
    87  C    0.005694
    88  C    0.006850
    89  C   -0.019532
    90  C   -0.043386
    91  C    0.170778
    92  O   -0.213213
    93  H    0.145541
    94  H   -0.012596
    95  H   -0.018915
    96  H   -0.053703
    97  H   -0.045989
    98  H   -0.040339
    99  H   -0.003943
   100  H   -0.049609
   101  H    0.171309
   102  N   -0.122090
   103  C    0.127803
   104  C    0.044280
   105  O   -0.300612
   106  C   -0.100270
   107  C   -0.035078
   108  C    0.088279
   109  C    0.054429
   110  H    0.133489
   111  H    0.010945
   112  H   -0.022915
   113  H   -0.005876
   114  H    0.042157
   115  H   -0.009209
   116  H    0.017841
   117  H    0.007914
   118  H    0.012730
   119  H    0.002557
   120  H    0.001139
   121  N   -0.140343
   122  C    0.123825
   123  C    0.096235
   124  O   -0.276092
   125  C    0.245695
   126  O   -0.360308
   127  H    0.123363
   128  H    0.021789
   129  H   -0.003519
   130  H   -0.015034
   131  H    0.161783
   132  N   -0.109080
   133  C    0.071179
   134  C    0.068809
   135  O   -0.253454
   136  C    0.026814
   137  H    0.120389
   138  H    0.021349
   139  H    0.031615
   140  H   -0.004989
   141  H    0.050142
   142  N   -0.167210
   143  C    0.115737
   144  C    0.054769
   145  O   -0.279344
   146  C    0.044894
   147  H    0.120192
   148  H    0.027506
   149  H    0.022848
   150  H    0.022066
   151  H    0.019399
   152  N   -0.131521
   153  C    0.165765
   154  C    0.043357
   155  O   -0.289637
   156  C   -0.126803
   157  C    0.187542
   158  C    0.161450
   159  O   -0.390385
   160  O   -0.459297
   161  H    0.122930
   162  H   -0.013128
   163  H    0.046579
   164  H    0.007019
   165  H   -0.006532
   166  H   -0.022850
   167  N   -0.175990
   168  C    0.148291
   169  H    0.025494
   170  H    0.027491
   171  H    0.006221
   172  H    0.128232
   173  Ca   1.258758
   174  O   -0.284125
   175  H    0.190119
   176  H    0.165985
 Sum of Mulliken charges =   0.00000
 Mulliken charges with hydrogens summed into heavy atoms:
               1
     1  C    0.106369
     2  C    0.057265
     3  O   -0.290573
     7  N   -0.015411
     8  C    0.129158
     9  C    0.023325
    10  O   -0.307839
    11  C    0.112461
    12  C    0.131332
    13  O   -0.443618
    14  O   -0.371751
    19  N   -0.010653
    20  C    0.118545
    21  C    0.100821
    22  O   -0.279279
    23  C    0.043405
    24  C    0.064768
    25  C   -0.016595
    26  C    0.224091
    27  N    0.656600
    41  N    0.027103
    42  C    0.120254
    43  C    0.043927
    44  O   -0.285858
    45  C    0.167477
    46  C    0.049085
    47  O   -0.402726
    48  O   -0.446178
    53  N   -0.067760
    54  C    0.296704
    55  C    0.028293
    56  O   -0.292685
    60  N   -0.006402
    61  C    0.184415
    62  C    0.044869
    63  O   -0.312494
    64  C    0.180332
    65  C    0.061175
    66  N    0.225527
    67  O   -0.362461
    74  N   -0.003005
    75  C    0.309591
    76  C    0.022153
    77  O   -0.294156
    81  N    0.018677
    82  C    0.076953
    83  C    0.172448
    84  O   -0.341278
    85  C    0.114822
    86  C   -0.013350
    87  C   -0.040295
    88  C   -0.033489
    89  C   -0.023475
    90  C   -0.092995
    91  C    0.170778
    92  O   -0.041904
   102  N    0.011399
   103  C    0.138749
   104  C    0.044280
   105  O   -0.300612
   106  C   -0.123185
   107  C    0.001203
   108  C    0.104825
   109  C    0.070856
   121  N   -0.016980
   122  C    0.145614
   123  C    0.096235
   124  O   -0.276092
   125  C    0.227143
   126  O   -0.198525
   132  N    0.011309
   133  C    0.092528
   134  C    0.068809
   135  O   -0.253454
   136  C    0.103581
   142  N   -0.047018
   143  C    0.143243
   144  C    0.054769
   145  O   -0.279344
   146  C    0.109208
   152  N   -0.008591
   153  C    0.152637
   154  C    0.043357
   155  O   -0.289637
   156  C   -0.073206
   157  C    0.158159
   158  C    0.161450
   159  O   -0.390385
   160  O   -0.459297
   167  N   -0.047758
   168  C    0.207497
   173  Ca   1.258758
   174  O    0.071979
 DipInt: DoE/N= T F RetVal/Mat= T F Init=T NMatP=  1 IDeriv=0 Min/MaxMlt=  0  4
 Entering OneElI...
 OneElI was handed  4286741430 working-precision words.
 Multipole integrals L=0 to 4 MinM= 0 MaxM= 0.
 Requested accuracy = 0.1000D-12
 ShPair: Thresh= 1.00D-13 NBox=     0 BxSize= 0.00D+00 RnKept= 2.55D+01
         NSMCal=               327645 NSMKep=              163040
 PrsmSu:  NPrtUS=   1 ThrOK=F IAlg=1 NPAlg=1 LenDen=           0.
 Prism:   IPart=     0 DynPar=F LinDyn=F Incr=         512.
 PRISM was handed  4276558616 working-precision words and163040 shell-pairs
 IPart=  0 NShTot=      163040 NBatch=         457 AvBLen=       356.8
 PrSmSu:  NxtVal=            513.
 Electronic moments (au):
       -716.00000000         10.64049655          1.44604118          1.55465210
     -51986.78433387     -30016.65200060     -12039.39934672        108.69303125
         17.23411082         97.55663151     -25730.42449376     -32743.61633499
      -8911.21862453       2364.58160575     126934.55061603      23691.50647301
     -11036.00961116      -9444.97876070      -8273.21881197     -50934.07683470
   -7587982.21014433   -2785640.56023521    -509476.46595831     -90988.45525538
     408685.96010425    -552297.00561238     -19832.67224009     -64116.03371447
     -47458.08568398   -2283092.79647255    -676857.12936126    -402081.56823733
     -45705.85182449      36910.57702795      31636.65105167
 Electronic spatial extent (au):  <R**2>=          94042.8357
 DipInt: DoE/N= F T RetVal/Mat= T F Init=T NMatP=  1 IDeriv=0 Min/MaxMlt=  0  4
 Nuclear    moments (au):
        716.00000000          0.00000000          0.00000000          0.00000000
      51506.18991769      29736.49213457      11661.15172142          0.00000000
          0.00000000          0.00000000      26712.00365498      33904.36860824
       8872.80140777       -555.87563613    -126583.31890637     -23698.70129656
      11361.15391172       9501.21236573       9101.59934771      51423.47395839
    7380699.77473555    2711480.99208120     470555.80552192     101552.33771071
    -408137.75321496     577202.26212074      33882.31166252      65762.30670887
      51630.95706977    2253955.47964475     642134.35364277     382250.65717124
      53085.34963171     -32685.77450632     -29174.29955316
 Total      moments (au):
          0.00000000         10.64049655          1.44604118          1.55465210
       -480.59441619       -280.15986603       -378.24762530        108.69303125
         17.23411082         97.55663151        981.57916122       1160.75227325
        -38.41721676       1808.70596962        351.23170967         -7.19482356
        325.14430056         56.23360503        828.38053575        489.39712369
    -207282.43540878     -74159.56815400     -38920.66043639      10563.88245533
        548.20688929      24905.25650836      14049.63942243       1646.27299439
       4172.87138580     -29137.31682780     -34722.77571848     -19830.91106609
       7379.49780722       4224.80252163       2462.35149850
 Traceless Quadrup. (au):
       -100.92711368         99.50743648          1.41967720        108.69303125
         17.23411082         97.55663151
 Charge=              0.0000 electrons
 Dipole moment (field-independent basis, Debye):
    X=             27.0454    Y=              3.6755    Z=              3.9515  Tot=             27.5786
 Quadrupole moment (field-independent basis, Debye-Ang):
   XX=           -646.4159   YY=           -376.8246   ZZ=           -508.7560
   XY=            146.1958   XZ=             23.1805   YZ=            131.2170
 Traceless Quadrupole moment (field-independent basis, Debye-Ang):
   XX=           -135.7504   YY=            133.8409   ZZ=              1.9095
   XY=            146.1958   XZ=             23.1805   YZ=            131.2170
 Octapole moment (field-independent basis, Debye-Ang**2):
  XXX=            698.6502  YYY=            826.1787  ZZZ=            -27.3439  XYY=           1287.3671
  XXY=            249.9932  XXZ=             -5.1210  XZZ=            231.4252  YZZ=             40.0249
  YYZ=            589.6093  XYZ=            348.3340
 Hexadecapole moment (field-independent basis, Debye-Ang**3):
 XXXX=         -78072.4995 YYYY=         -27932.0476 ZZZZ=         -14659.3861 XXXY=           3978.8644
 XXXZ=            206.4810 YYYX=           9380.5132 YYYZ=           5291.7676 ZZZX=            620.0653
 ZZZY=           1571.7034 XXYY=         -10974.5100 XXZZ=         -13078.2615 YYZZ=          -7469.2715
 XXYZ=           2779.4725 YYXZ=           1591.2631 ZZXY=            927.4396
 N-N= 2.187525480309D+04 E-N=-5.623368772604D+04  KE= 5.290591926206D+03
 Leave Link  601 at Mon Sep 16 21:37:46 2019, MaxMem=  4294967296 cpu:        22.0
 FitSet:  NAtFit=   176 NAtPot=   176 NAtFrz=     0 MDM=   180 TotChg=   0.00000
 Merz-Kollman atomic radii used.
 Read replacement radii for each type of atom:
 Rad(20) =   1.700000000000D+00
 Atom Element Radius
    1     6    1.50
    2     6    1.50
    3     8    1.40
    4     1    1.20
    5     1    1.20
    6     1    1.20
    7     7    1.50
    8     6    1.50
    9     6    1.50
   10     8    1.40
   11     6    1.50
   12     6    1.50
   13     8    1.40
   14     8    1.40
   15     1    1.20
   16     1    1.20
   17     1    1.20
   18     1    1.20
   19     7    1.50
   20     6    1.50
   21     6    1.50
   22     8    1.40
   23     6    1.50
   24     6    1.50
   25     6    1.50
   26     6    1.50
   27     7    1.50
   28     1    1.20
   29     1    1.20
   30     1    1.20
   31     1    1.20
   32     1    1.20
   33     1    1.20
   34     1    1.20
   35     1    1.20
   36     1    1.20
   37     1    1.20
   38     1    1.20
   39     1    1.20
   40     1    1.20
   41     7    1.50
   42     6    1.50
   43     6    1.50
   44     8    1.40
   45     6    1.50
   46     6    1.50
   47     8    1.40
   48     8    1.40
   49     1    1.20
   50     1    1.20
   51     1    1.20
   52     1    1.20
   53     7    1.50
   54     6    1.50
   55     6    1.50
   56     8    1.40
   57     1    1.20
   58     1    1.20
   59     1    1.20
   60     7    1.50
   61     6    1.50
   62     6    1.50
   63     8    1.40
   64     6    1.50
   65     6    1.50
   66     7    1.50
   67     8    1.40
   68     1    1.20
   69     1    1.20
   70     1    1.20
   71     1    1.20
   72     1    1.20
   73     1    1.20
   74     7    1.50
   75     6    1.50
   76     6    1.50
   77     8    1.40
   78     1    1.20
   79     1    1.20
   80     1    1.20
   81     7    1.50
   82     6    1.50
   83     6    1.50
   84     8    1.40
   85     6    1.50
   86     6    1.50
   87     6    1.50
   88     6    1.50
   89     6    1.50
   90     6    1.50
   91     6    1.50
   92     8    1.40
   93     1    1.20
   94     1    1.20
   95     1    1.20
   96     1    1.20
   97     1    1.20
   98     1    1.20
   99     1    1.20
  100     1    1.20
  101     1    1.20
  102     7    1.50
  103     6    1.50
  104     6    1.50
  105     8    1.40
  106     6    1.50
  107     6    1.50
  108     6    1.50
  109     6    1.50
  110     1    1.20
  111     1    1.20
  112     1    1.20
  113     1    1.20
  114     1    1.20
  115     1    1.20
  116     1    1.20
  117     1    1.20
  118     1    1.20
  119     1    1.20
  120     1    1.20
  121     7    1.50
  122     6    1.50
  123     6    1.50
  124     8    1.40
  125     6    1.50
  126     8    1.40
  127     1    1.20
  128     1    1.20
  129     1    1.20
  130     1    1.20
  131     1    1.20
  132     7    1.50
  133     6    1.50
  134     6    1.50
  135     8    1.40
  136     6    1.50
  137     1    1.20
  138     1    1.20
  139     1    1.20
  140     1    1.20
  141     1    1.20
  142     7    1.50
  143     6    1.50
  144     6    1.50
  145     8    1.40
  146     6    1.50
  147     1    1.20
  148     1    1.20
  149     1    1.20
  150     1    1.20
  151     1    1.20
  152     7    1.50
  153     6    1.50
  154     6    1.50
  155     8    1.40
  156     6    1.50
  157     6    1.50
  158     6    1.50
  159     8    1.40
  160     8    1.40
  161     1    1.20
  162     1    1.20
  163     1    1.20
  164     1    1.20
  165     1    1.20
  166     1    1.20
  167     7    1.50
  168     6    1.50
  169     1    1.20
  170     1    1.20
  171     1    1.20
  172     1    1.20
  173    20    1.70
  174     8    1.40
  175     1    1.20
  176     1    1.20
 Generate VDW surfaces: Layer= 4 Dens= 6 Start= 1.400 Inc= 0.200

 **********************************************************************

            Electrostatic Properties Using The SCF Density

 **********************************************************************

       Atomic Center    1 is at   2.080183  3.627695  5.046485
       Atomic Center    2 is at   1.572762  3.071511  3.727325
       Atomic Center    3 is at   2.305082  2.800375  2.774071
[...]
 **** Fit       0.010734
 **** Fit       0.000582
 **** Fit       0.009888
 **** Fit       0.000377
 **** Fit      -0.000637
 **** Fit       0.000945
 **** Fit      -0.004668
 **** Fit       0.001092
 **** Fit      -0.002273
 **** Fit      -0.004519
 **** Fit      -0.000675
 **** Fit       0.002365
 **** Fit      -0.005037
 **** Fit      -0.002774
 **** Fit      -0.000474
 **** Fit       0.001178
 **** Fit       0.001794
 **** Fit      -0.003159
 **** Fit      -0.002625
 **** Fit      -0.001460
 **** Fit      -0.000463
 **** Fit      -0.000243
 **** Fit      -0.001155
 **** Fit      -0.003371
 **** Fit      -0.001662
 **** Fit      -0.001579
 **** Fit      -0.001302
 **** Fit      -0.001458
 **** Fit      -0.002525
 **** Fit      -0.004722
 **** Fit      -0.007988
 **** Fit      -0.011804
 **** Fit      -0.014803
 **** Fit      -0.001332
 **** Fit      -0.001473
 **** Fit      -0.001685
 **** Fit      -0.002217
 **** Fit      -0.003515
 **** Fit      -0.005703
 **** Fit      -0.008308
 **** Fit      -0.010101
 **** Fit      -0.009760
 **** Fit      -0.002274
 **** Fit      -0.002189
 **** Fit      -0.002895
 **** Fit      -0.004417
 **** Fit      -0.006274
 **** Fit      -0.007097
 **** Fit      -0.006674
 **** Fit      -0.007372
 **** Fit      -0.007399
 **** Fit      -0.003856
 **** Fit      -0.003476
 **** Fit      -0.003613
 **** Fit      -0.004970
 **** Fit      -0.005689
 **** Fit      -0.006446
 **** Fit      -0.005431
 **** Fit      -0.004651
 **** Fit      -0.002136
 **** Fit      -0.003169
 **** Fit      -0.004457
 **** Fit      -0.005477
 **** Fit      -0.001375
 **** Fit      -0.002044
 **** Fit      -0.002863
 **** Fit      -0.004040
 **** Fit      -0.005604
 **** Fit      -0.007218
 **** Fit      -0.008198
 **** Fit      -0.000919
 **** Fit      -0.001431
 **** Fit      -0.002021
 **** Fit      -0.002664
 **** Fit      -0.011365
 **** Fit      -0.011978
 **** Fit      -0.000231
 **** Fit      -0.000642
 **** Fit      -0.001066
 **** Fit      -0.001518
 **** Fit      -0.002151
 **** Fit      -0.016792
 **** Fit      -0.017226
 **** Fit      -0.015924
 **** Fit      -0.000214
 **** Fit      -0.000582
 **** Fit      -0.000969
 **** Fit      -0.001368
 **** Fit      -0.001761
 **** Fit      -0.002512
 **** Fit      -0.020371
 **** Fit       0.000189
 **** Fit      -0.000154
 **** Fit      -0.000528
 **** Fit      -0.000941
 **** Fit      -0.001378
 **** Fit      -0.001805
 **** Fit      -0.002188
 **** Fit       0.000195
 **** Fit      -0.000136
 **** Fit      -0.000530
 **** Fit      -0.000993
 **** Fit      -0.001505
 **** Fit      -0.002025
 **** Fit      -0.002501
 **** Fit      -0.002891
 **** Fit       0.000520
 **** Fit       0.000277
 **** Fit      -0.000048
 **** Fit      -0.000472
 **** Fit      -0.001002
 **** Fit      -0.001620
 **** Fit      -0.002281
 **** Fit      -0.002924
 **** Fit      -0.003485
 **** Fit      -0.003916
 **** Fit       0.000667
 **** Fit       0.000593
 **** Fit       0.000395
 **** Fit      -0.004183
 **** Fit      -0.004838
 **** Fit      -0.005324
 **** Fit      -0.007531
 **** Fit       0.000349
 **** Fit       0.000644
 **** Fit       0.000738
 **** Fit      -0.006613
 **** Fit      -0.007170
 **** Fit      -0.009955
 **** Fit      -0.000724
 **** Fit       0.000147
 **** Fit       0.000727
 **** Fit      -0.009537
 **** Fit      -0.013007
 **** Fit      -0.001610
 **** Fit      -0.000087
 **** Fit       0.000883
 **** Fit      -0.012597
 **** Fit      -0.016848
 **** Fit      -0.017078
 **** Fit      -0.000494
 **** Fit       0.001059
 **** Fit      -0.021720
 **** Fit      -0.021683
 **** Fit      -0.021982
 **** Fit      -0.027954
 **** Fit      -0.027285
 **** Fit      -0.027293
 **** Fit      -0.028193
 **** Fit      -0.033356
 **** Fit      -0.034085
 **** Fit      -0.036167
 **** Fit      -0.000121
 **** Fit      -0.000638
 **** Fit      -0.001287
 **** Fit      -0.002002
 **** Fit      -0.002718
 **** Fit       0.000344
 **** Fit      -0.000090
 **** Fit      -0.000733
 **** Fit      -0.001520
 **** Fit      -0.002380
 **** Fit      -0.003253
 **** Fit      -0.004087
 **** Fit      -0.004840
 **** Fit       0.000789
 **** Fit       0.000678
 **** Fit       0.000202
 **** Fit      -0.000578
 **** Fit      -0.001562
 **** Fit      -0.002650
 **** Fit      -0.003761
 **** Fit      -0.004832
 **** Fit      -0.005824
 **** Fit      -0.006712
 **** Fit      -0.010039
 **** Fit       0.001088
 **** Fit       0.001112
 **** Fit       0.000591
 **** Fit      -0.000376
 **** Fit      -0.001635
 **** Fit      -0.003037
 **** Fit      -0.004463
 **** Fit      -0.005828
 **** Fit      -0.007084
 **** Fit      -0.008206
 **** Fit      -0.009190
 **** Fit      -0.013399
 **** Fit      -0.014173
 **** Fit       0.001136
 **** Fit       0.001707
 **** Fit       0.001373
 **** Fit       0.000264
 **** Fit      -0.001365
 **** Fit      -0.003252
 **** Fit      -0.005193
 **** Fit      -0.007045
 **** Fit      -0.008723
 **** Fit      -0.010188
 **** Fit      -0.011438
 **** Fit      -0.012497
 **** Fit      -0.017896
 **** Fit      -0.018662
 **** Fit      -0.002178
 **** Fit      -0.005049
 **** Fit      -0.007878
 **** Fit      -0.010452
 **** Fit      -0.012655
 **** Fit      -0.014454
 **** Fit      -0.015878
 **** Fit      -0.016996
 **** Fit      -0.024094
 **** Fit      -0.024650
 **** Fit      -0.003855
 **** Fit      -0.005338
 **** Fit      -0.003288
 **** Fit      -0.004358
 **** Fit      -0.006052
 **** Fit      -0.008088
 **** Fit      -0.009472
 **** Fit      -0.003034
 **** Fit      -0.003825
 **** Fit      -0.005087
 **** Fit      -0.006963
 **** Fit      -0.009392
 **** Fit      -0.011903
 **** Fit      -0.013586
 **** Fit      -0.002523
 **** Fit      -0.003116
 **** Fit      -0.003753
 **** Fit      -0.004761
 **** Fit      -0.006329
 **** Fit      -0.008613
 **** Fit      -0.011642
 **** Fit      -0.015128
 **** Fit      -0.018304
 **** Fit      -0.002673
 **** Fit      -0.003555
 **** Fit      -0.004098
 **** Fit      -0.004959
 **** Fit      -0.006327
 **** Fit      -0.008416
 **** Fit      -0.011434
 **** Fit      -0.015490
 **** Fit      -0.020387
 **** Fit      -0.003165
 **** Fit      -0.004379
 **** Fit      -0.004847
 **** Fit      -0.005588
 **** Fit      -0.006771
 **** Fit      -0.008604
 **** Fit      -0.011345
 **** Fit      -0.015286
 **** Fit      -0.020673
 **** Fit      -0.003692
 **** Fit      -0.004038
 **** Fit      -0.005625
 **** Fit      -0.006069
 **** Fit      -0.006790
 **** Fit      -0.007966
 **** Fit      -0.009822
 **** Fit      -0.012664
 **** Fit      -0.016910
 **** Fit      -0.005310
 **** Fit      -0.007341
 **** Fit      -0.007764
 **** Fit      -0.008475
 **** Fit      -0.009644
 **** Fit      -0.011494
 **** Fit      -0.014347
 **** Fit      -0.018680
 **** Fit      -0.007056
 **** Fit      -0.009588
 **** Fit      -0.010005
 **** Fit      -0.010747
 **** Fit      -0.011984
 **** Fit      -0.013944
 **** Fit      -0.016970
 **** Fit      -0.021602
 **** Fit      -0.009340
 **** Fit      -0.012442
 **** Fit      -0.012873
 **** Fit      -0.013726
 **** Fit      -0.015196
 **** Fit      -0.017547
 **** Fit      -0.021204
 **** Fit      -0.012256
 **** Fit      -0.015987
 **** Fit      -0.016424
 **** Fit      -0.017449
 **** Fit      -0.019280
 **** Fit      -0.022229
 **** Fit      -0.026835
 **** Fit      -0.020683
 **** Fit      -0.021879
 **** Fit      -0.024082
 **** Fit      -0.027597
 **** Fit      -0.027198
 **** Fit      -0.030103
 **** Fit      -0.000821
 **** Fit      -0.001048
 **** Fit      -0.001901
 **** Fit      -0.001731
 **** Fit      -0.000607
 **** Fit       0.000025
 **** Fit      -0.000226
 **** Fit      -0.001275
 **** Fit      -0.002277
 **** Fit      -0.003259
 **** Fit      -0.003671
 **** Fit      -0.003075
 **** Fit      -0.001733
 **** Fit      -0.000394
 **** Fit       0.000413
 **** Fit       0.000665
 **** Fit       0.000533
 **** Fit       0.000136
 **** Fit      -0.000468
 **** Fit      -0.005886
 **** Fit      -0.005964
 **** Fit      -0.005028
 **** Fit      -0.003383
 **** Fit      -0.001583
 **** Fit      -0.000135
 **** Fit       0.000720
 **** Fit       0.001071
 **** Fit       0.001117
 **** Fit       0.000980
 **** Fit       0.000709
 **** Fit       0.000325
 **** Fit      -0.000155
 **** Fit      -0.000740
 **** Fit      -0.009525
 **** Fit      -0.008893
 **** Fit      -0.007180
 **** Fit      -0.004856
 **** Fit      -0.002454
 **** Fit      -0.000452
 **** Fit       0.000817
 **** Fit       0.001358
 **** Fit       0.001475
 **** Fit       0.001421
 **** Fit       0.001288
 **** Fit       0.001083
 **** Fit       0.000801
 **** Fit       0.000449
 **** Fit       0.000043
 **** Fit      -0.011887
 **** Fit      -0.008861
 **** Fit      -0.005525
 **** Fit       0.001633
 **** Fit       0.001466
 **** Fit       0.001307
 **** Fit       0.001110
 **** Fit       0.000849
 **** Fit       0.000529
 **** Fit       0.000167
 **** Fit      -0.014854
 **** Fit      -0.010455
 **** Fit       0.001459
 **** Fit       0.001313
 **** Fit       0.001196
 **** Fit       0.001041
 **** Fit       0.000817
 **** Fit       0.000529
 **** Fit       0.001050
 **** Fit       0.001026
 **** Fit       0.000972
 **** Fit       0.000832
 **** Fit       0.000600
 **** Fit       0.000526
 **** Fit       0.000656
 **** Fit       0.000760
 **** Fit       0.000758
 **** Fit      -0.000095
 **** Fit       0.000262
 **** Fit       0.000517
 **** Fit       0.022966
 **** Fit       0.028077
 **** Fit       0.025774
 **** Fit       0.029347
 **** Fit       0.031584
 **** Fit       0.031462
 **** Fit       0.030308
 **** Fit       0.030496
 **** Fit       0.030660
 **** Fit       0.029400
 **** Fit      -0.017295
 **** Fit      -0.029203
 **** Fit      -0.020104
 **** Fit      -0.011688
 **** Fit      -0.004230
 **** Fit       0.002531
 **** Fit       0.009004
 **** Fit      -0.034183
 **** Fit      -0.030497
 **** Fit      -0.024318
 **** Fit      -0.016931
 **** Fit      -0.009328
 **** Fit      -0.001967
 **** Fit       0.005107
 **** Fit      -0.012034
 **** Fit      -0.017328
 **** Fit      -0.021640
 **** Fit      -0.024547
 **** Fit      -0.025302
 **** Fit      -0.023389
 **** Fit      -0.019031
 **** Fit      -0.013016
 **** Fit      -0.006180
 **** Fit       0.000936
 **** Fit      -0.002778
 **** Fit      -0.008467
 **** Fit      -0.013111
 **** Fit      -0.016184
 **** Fit      -0.017095
 **** Fit      -0.015450
 **** Fit      -0.011415
 **** Fit      -0.005648
 **** Fit       0.001122
 **** Fit       0.011172
 **** Fit       0.005091
 **** Fit      -0.000913
 **** Fit      -0.005904
 **** Fit      -0.008935
 **** Fit      -0.009233
 **** Fit      -0.006524
 **** Fit      -0.001278
 **** Fit       0.007075
 **** Fit       0.001383
 **** Fit      -0.001865
 **** Fit      -0.001264
 **** Fit       0.003269
 **** Fit       0.009426
 **** Fit       0.005137
 **** Fit      -0.012201
 **** Fit      -0.003658
 **** Fit      -0.004425
 **** Fit      -0.007167
 **** Fit      -0.012339
 **** Fit       0.001675
 **** Fit       0.001287
 **** Fit      -0.000266
 **** Fit      -0.003355
 **** Fit      -0.008297
 **** Fit       0.006770
 **** Fit       0.005294
 **** Fit       0.003011
 **** Fit      -0.000444
 **** Fit      -0.005300
 **** Fit      -0.011620
 **** Fit       0.010069
 **** Fit       0.008037
 **** Fit       0.010738
 **** Fit       0.008401
 **** Fit       0.005577
 **** Fit       0.001934
 **** Fit      -0.002677
 **** Fit      -0.008174
 **** Fit      -0.014163
 **** Fit       0.016380
 **** Fit       0.013135
 **** Fit       0.013581
 **** Fit       0.010448
 **** Fit       0.007004
 **** Fit       0.002943
 **** Fit      -0.001786
 **** Fit      -0.006941
 **** Fit      -0.012008
 **** Fit      -0.016422
 **** Fit       0.021308
 **** Fit       0.016953
 **** Fit       0.015378
 **** Fit       0.011626
 **** Fit       0.007712
 **** Fit       0.003394
 **** Fit      -0.001260
 **** Fit      -0.005919
 **** Fit      -0.010178
 **** Fit      -0.013857
 **** Fit       0.019472
 **** Fit       0.016190
 **** Fit       0.011814
 **** Fit       0.007378
 **** Fit       0.002776
 **** Fit      -0.001732
 **** Fit      -0.005727
 **** Fit       0.020942
 **** Fit       0.016021
 **** Fit       0.010820
 **** Fit       0.005743
 **** Fit       0.001227
 **** Fit       0.030861
 **** Fit       0.031543
 **** Fit       0.028606
 **** Fit       0.030283
 **** Fit       0.031320
 **** Fit       0.032249
 **** Fit       0.025934
 **** Fit       0.028599
 **** Fit       0.030268
 **** Fit       0.031445
 **** Fit       0.032395
 **** Fit       0.015671
 **** Fit       0.019604
 **** Fit       0.024000
 **** Fit       0.027098
 **** Fit       0.029217
 **** Fit       0.030714
 **** Fit       0.031817
 **** Fit       0.032578
 **** Fit       0.032879
 **** Fit       0.020118
 **** Fit       0.015486
 **** Fit       0.020471
 **** Fit       0.024304
 **** Fit       0.027118
 **** Fit       0.029151
 **** Fit       0.030620
 **** Fit       0.031634
 **** Fit       0.032168
 **** Fit       0.032085
 **** Fit       0.031193
 **** Fit       0.029353
 **** Fit       0.026667
 **** Fit       0.023678
 **** Fit       0.021268
 **** Fit       0.022692
 **** Fit       0.022112
 **** Fit       0.011119
 **** Fit       0.016573
 **** Fit       0.020987
 **** Fit       0.024420
 **** Fit       0.027009
 **** Fit       0.028916
 **** Fit       0.030263
 **** Fit       0.031088
 **** Fit       0.031343
 **** Fit       0.030935
 **** Fit       0.029799
 **** Fit       0.028017
 **** Fit       0.025912
 **** Fit       0.023994
 **** Fit       0.023850
 **** Fit       0.022656
 **** Fit       0.021507
 **** Fit       0.007439
 **** Fit       0.013264
 **** Fit       0.018197
 **** Fit       0.022162
 **** Fit       0.025213
 **** Fit       0.027466
 **** Fit       0.029027
 **** Fit       0.029940
 **** Fit       0.030187
 **** Fit       0.029733
 **** Fit       0.028616
 **** Fit       0.027035
 **** Fit       0.025337
 **** Fit       0.023984
 **** Fit       0.022295
 **** Fit       0.020291
 **** Fit       0.004792
 **** Fit       0.010176
 **** Fit       0.015268
 **** Fit       0.019631
 **** Fit       0.023107
 **** Fit       0.025704
 **** Fit       0.027481
 **** Fit       0.028479
 **** Fit       0.028710
 **** Fit       0.028204
 **** Fit       0.027086
 **** Fit       0.025599
 **** Fit       0.023368
 **** Fit       0.021202
 **** Fit       0.018402
 **** Fit       0.014721
 **** Fit       0.006354
 **** Fit       0.010568
 **** Fit       0.015216
 **** Fit       0.019439
 **** Fit       0.022803
 **** Fit       0.025168
 **** Fit       0.026521
 **** Fit       0.026887
 **** Fit       0.026352
 **** Fit       0.025105
 **** Fit       0.022181
 **** Fit       0.019393
 **** Fit       0.015732
 **** Fit       0.011891
 **** Fit       0.009565
 **** Fit       0.010197
 **** Fit       0.013471
 **** Fit       0.017726
 **** Fit       0.021433
 **** Fit       0.023812
 **** Fit       0.024636
 **** Fit       0.023998
 **** Fit       0.020533
 **** Fit       0.017046
 **** Fit       0.014443
 **** Fit       0.016130
 **** Fit       0.019984
 **** Fit       0.021865
 **** Fit       0.018499
 -----------------------------------------------------------------
 Leave Link  602 at Mon Sep 16 21:37:59 2019, MaxMem=  4294967296 cpu:       156.8

 Test job not archived.
 1\1\GINC-N009\SP\RB3LYP\SVP\C54H83Ca1N15O23\PCIEPLAK\16-Sep-2019\0\\#m
 axdisk=50GB #B3LYP/SVP Density=Current scf=(tight) #IOP(5/87=12)Pop=(M
 K,readradii) iop(6/33=2) iop(6/42=6)\\SOL molecule\\0,1\C,0,47.75,40.5
 3,23.53\C,0,48.4,39.67,24.6\O,0,48.39,39.95,25.8\H,0,46.842,40.982,23.
 93\H,0,48.442,41.315,23.224\H,0,47.498,39.911,22.669\N,0,49.07,38.63,2
 4.09\C,0,49.93,37.8,24.91\C,0,51.11,38.71,25.24\O,0,51.83,39.11,24.33\
 C,0,50.27,36.44,24.31\C,0,51.22,35.59,25.14\O,0,51.44,35.93,26.32\O,0,
 51.43,34.43,24.71\H,0,49.09,38.48,23.09\H,0,49.43,37.57,25.85\H,0,50.8
 1,36.69,23.4\H,0,49.33,35.91,24.15\N,0,51.3,39.11,26.5\C,0,52.29,40.13
 ,26.76\C,0,53.72,39.63,26.9\O,0,54.65,40.42,26.99\C,0,51.76,40.89,27.9
 7\C,0,50.57,41.79,27.67\C,0,50.98,42.9,26.7\C,0,50.01,44.08,26.69\N,0,
 50.18,44.83,25.44\H,0,50.62,38.84,27.19\H,0,52.23,40.72,25.85\H,0,52.4
 7,41.65,28.31\H,0,51.5,40.25,28.82\H,0,50.37,42.28,28.62\H,0,49.73,41.
 14,27.41\H,0,51.09,42.42,25.73\H,0,51.99,43.24,26.89\H,0,50.14,44.68,2
 7.59\H,0,49.02,43.62,26.71\H,0,49.26,45.2,25.22\H,0,50.75,45.66,25.51\
 H,0,50.46,44.31,24.63\N,0,53.79,38.29,26.89\C,0,54.97,37.55,27.28\C,0,
 55.29,36.32,26.46\O,0,56.34,35.7,26.63\C,0,54.99,37.08,28.73\C,0,53.72
 ,36.32,29.1\O,0,53.75,35.07,28.99\O,0,52.72,36.97,29.46\H,0,52.94,37.7
 5,26.79\H,0,55.86,38.16,27.16\H,0,54.96,37.95,29.39\H,0,55.84,36.46,29
 .02\N,0,54.38,35.84,25.6\C,0,54.73,34.85,24.61\C,0,54.59,33.4,25.06\O,
 0,55.02,32.5,24.35\H,0,53.5,36.33,25.52\H,0,55.8,35.02,24.5\H,0,54.2,3
 5.05,23.68\N,0,53.99,33.19,26.24\C,0,53.85,31.83,26.72\C,0,52.85,31.,2
 5.93\O,0,52.77,29.79,26.17\C,0,53.67,31.64,28.23\C,0,52.26,31.81,28.76
 \N,0,51.7,31.,29.67\O,0,51.55,32.68,28.26\H,0,53.72,33.99,26.78\H,0,54
 .85,31.41,26.58\H,0,54.34,32.25,28.84\H,0,53.91,30.58,28.35\H,0,52.2,3
 0.23,30.07\H,0,50.7,31.07,29.8\N,0,52.1,31.59,25.\C,0,51.06,30.91,24.2
 5\C,0,49.64,31.28,24.63\O,0,48.69,30.84,23.98\H,0,52.12,32.59,24.94\H,
 0,51.23,29.83,24.21\H,0,51.1,31.28,23.23\N,0,49.51,32.07,25.7\C,0,48.3
 ,32.1,26.49\C,0,48.03,33.49,27.06\O,0,48.91,34.22,27.5\C,0,48.14,31.,2
 7.54\C,0,48.44,29.6,27.06\C,0,49.77,29.17,26.99\C,0,47.4,28.73,26.71\C
 ,0,50.06,27.84,26.66\C,0,47.68,27.39,26.41\C,0,49.02,26.96,26.3\O,0,49
 .29,25.66,25.96\H,0,50.37,32.42,26.1\H,0,47.42,31.86,25.88\H,0,47.11,3
 1.14,27.87\H,0,48.86,31.18,28.33\H,0,50.55,29.81,27.35\H,0,46.38,29.07
 ,26.61\H,0,51.08,27.52,26.52\H,0,46.88,26.71,26.16\H,0,48.55,25.06,26.
 05\N,0,46.75,33.77,27.33\C,0,46.4,35.02,27.99\C,0,45.98,34.69,29.41\O,
 0,45.14,33.82,29.65\C,0,45.35,35.8,27.2\C,0,46.17,36.48,26.12\C,0,44.6
 5,36.86,28.04\C,0,45.45,36.91,24.84\H,0,45.99,33.24,26.94\H,0,47.23,35
 .71,28.1\H,0,44.59,35.09,26.86\H,0,46.8,35.69,25.7\H,0,46.82,37.24,26.
 55\H,0,43.89,37.36,27.43\H,0,44.01,36.37,28.78\H,0,45.3,37.66,28.39\H,
 0,44.72,37.69,25.06\H,0,46.34,37.15,24.26\H,0,44.95,36.09,24.32\N,0,46
 .47,35.4,30.43\C,0,46.01,35.41,31.8\C,0,45.01,36.54,32.05\O,0,44.81,37
 .39,31.19\C,0,47.19,35.6,32.74\O,0,47.92,36.78,32.49\H,0,47.11,36.13,3
 0.14\H,0,45.46,34.48,31.88\H,0,47.93,34.8,32.6\H,0,46.97,35.69,33.81\H
 ,0,48.46,36.63,31.71\N,0,44.4,36.57,33.23\C,0,43.49,37.62,33.65\C,0,43
 .99,39.06,33.65\O,0,43.34,40.04,33.28\C,0,42.98,37.23,35.04\H,0,44.5,3
 5.83,33.91\H,0,42.61,37.58,33.01\H,0,42.56,36.22,35.03\H,0,43.84,37.15
 ,35.7\H,0,42.31,38.01,35.4\N,0,45.25,39.19,34.06\C,0,45.82,40.52,34.02
 \C,0,46.22,40.96,32.62\O,0,46.39,42.15,32.37\C,0,46.92,40.53,35.07\H,0
 ,45.73,38.39,34.44\H,0,45.11,41.29,34.29\H,0,47.11,41.6,35.16\H,0,46.5
 9,40.07,36.01\H,0,47.88,40.15,34.72\N,0,46.46,40.01,31.71\C,0,46.59,40
 .35,30.3\C,0,45.3,40.59,29.54\O,0,45.26,41.43,28.65\C,0,47.35,39.2,29.
 66\C,0,48.87,39.1,29.82\C,0,49.22,37.68,29.42\O,0,49.71,37.44,28.29\O,
 0,49.29,36.79,30.3\H,0,46.21,39.06,31.94\H,0,47.19,41.25,30.18\H,0,47.
 27,39.43,28.59\H,0,46.9,38.26,29.97\H,0,49.08,39.27,30.87\H,0,49.38,39
 .85,29.21\N,0,44.15,39.98,29.86\C,0,42.79,40.37,29.56\H,0,42.166,40.21
 8,30.441\H,0,42.767,41.422,29.276\H,0,42.41,39.763,28.738\H,0,44.34,39
 .08,30.29\Ca,0,50.97,35.23,28.88\O,0,51.62,35.03,31.49\H,0,51.71,35.98
 ,31.62\H,0,51.4,34.69,32.35\\Version=ES64L-G09RevD.01\State=1-A\HF=-53
 33.5999806\RMSD=5.683e-09\Dipole=-5.4101163,8.9815826,2.7910502\Quadru
 pole=-117.9420481,109.3865639,8.5554841,56.3314334,22.6021533,-122.535
 4659\PG=C01 [X(C54H83Ca1N15O23)]\\@


 REPARTEE - WHAT YOU THINK OF AFTER YOU BECOME A DEPARTEE.
 Job cpu time:       0 days 15 hours 12 minutes 32.5 seconds.
 File lengths (MBytes):  RWF=   1513 Int=      0 D2E=      0 Chk=    103 Scr=      1
 Normal termination of Gaussian 09 at Mon Sep 16 21:37:59 2019.
