 Entering Gaussian System, Link 0=g09
 Initial command:
 /home/pcieplak/g09/g09/l1.exe "/scratch1/pcieplak/holo_19.0/Gau-29800.inp" -scrdir="/scratch1/pcieplak/holo_19.0/"
 Entering Link 1 = /home/pcieplak/g09/g09/l1.exe PID=     29801.
  
 Copyright (c) 1988,1990,1992,1993,1995,1998,2003,2009,2013,
            Gaussian, Inc.  All Rights Reserved.
  
 This is part of the Gaussian(R) 09 program.  It is based on
 the Gaussian(R) 03 system (copyright 2003, Gaussian, Inc.),
 the Gaussian(R) 98 system (copyright 1998, Gaussian, Inc.),
 the Gaussian(R) 94 system (copyright 1995, Gaussian, Inc.),
 the Gaussian 92(TM) system (copyright 1992, Gaussian, Inc.),
 the Gaussian 90(TM) system (copyright 1990, Gaussian, Inc.),
 the Gaussian 88(TM) system (copyright 1988, Gaussian, Inc.),
 the Gaussian 86(TM) system (copyright 1986, Carnegie Mellon
 University), and the Gaussian 82(TM) system (copyright 1983,
 Carnegie Mellon University). Gaussian is a federally registered
 trademark of Gaussian, Inc.
  
 This software contains proprietary and confidential information,
 including trade secrets, belonging to Gaussian, Inc.
  
 This software is provided under written license and may be
 used, copied, transmitted, or stored only in accord with that
 written license.
  
 The following legend is applicable only to US Government
 contracts under FAR:
  
                    RESTRICTED RIGHTS LEGEND
  
 Use, reproduction and disclosure by the US Government is
 subject to restrictions as set forth in subparagraphs (a)
 and (c) of the Commercial Computer Software - Restricted
 Rights clause in FAR 52.227-19.
  
 Gaussian, Inc.
 340 Quinnipiac St., Bldg. 40, Wallingford CT 06492
  
  
 ---------------------------------------------------------------
 Warning -- This program may not be used in any manner that
 competes with the business of Gaussian, Inc. or will provide
 assistance to any competitor of Gaussian, Inc.  The licensee
 of this program is prohibited from giving any competitor of
 Gaussian, Inc. access to this program.  By using this program,
 the user acknowledges that Gaussian, Inc. is engaged in the
 business of creating and licensing software in the field of
 computational chemistry and represents and warrants to the
 licensee that it is not a competitor of Gaussian, Inc. and that
 it will not use this program in any manner prohibited above.
 ---------------------------------------------------------------
  

 Cite this work as:
 Gaussian 09, Revision D.01,
 M. J. Frisch, G. W. Trucks, H. B. Schlegel, G. E. Scuseria, 
 M. A. Robb, J. R. Cheeseman, G. Scalmani, V. Barone, B. Mennucci, 
 G. A. Petersson, H. Nakatsuji, M. Caricato, X. Li, H. P. Hratchian, 
 A. F. Izmaylov, J. Bloino, G. Zheng, J. L. Sonnenberg, M. Hada, 
 M. Ehara, K. Toyota, R. Fukuda, J. Hasegawa, M. Ishida, T. Nakajima, 
 Y. Honda, O. Kitao, H. Nakai, T. Vreven, J. A. Montgomery, Jr., 
 J. E. Peralta, F. Ogliaro, M. Bearpark, J. J. Heyd, E. Brothers, 
 K. N. Kudin, V. N. Staroverov, T. Keith, R. Kobayashi, J. Normand, 
 K. Raghavachari, A. Rendell, J. C. Burant, S. S. Iyengar, J. Tomasi, 
 M. Cossi, N. Rega, J. M. Millam, M. Klene, J. E. Knox, J. B. Cross, 
 V. Bakken, C. Adamo, J. Jaramillo, R. Gomperts, R. E. Stratmann, 
 O. Yazyev, A. J. Austin, R. Cammi, C. Pomelli, J. W. Ochterski, 
 R. L. Martin, K. Morokuma, V. G. Zakrzewski, G. A. Voth, 
 P. Salvador, J. J. Dannenberg, S. Dapprich, A. D. Daniels, 
 O. Farkas, J. B. Foresman, J. V. Ortiz, J. Cioslowski, 
 and D. J. Fox, Gaussian, Inc., Wallingford CT, 2013.
 
 ******************************************
 Gaussian 09:  ES64L-G09RevD.01 24-Apr-2013
                16-Sep-2019 
 ******************************************
 %Nproc=12
 Will use up to   12 processors via shared memory.
 %chk=chk1mol
 %mem=32GB
 ----------------------------------------------------------------------
 #maxdisk=50GB #B3LYP/SVP Density=Current scf=(tight) #IOP(5/87=12)Pop=
 (MK,readradii) iop(6/33=2) iop(6/42=6)
 ----------------------------------------------------------------------
 1/30=1,38=1/1;
 2/12=2,17=6,18=5,40=1/2;
 3/5=18,7=101,11=2,16=1,25=1,30=1,74=-5/1,2,3;
 4//1;
 5/5=2,32=2,38=5,87=12/2;
 6/7=2,8=2,9=2,10=2,15=8,20=101,22=-1,28=1,33=2,42=6/1,2;
 99/5=1,9=1/99;
 ------------
 SOL molecule
 ------------
 Symbolic Z-matrix:
 Charge =  0 Multiplicity = 1
 C                     36.9      47.79     42.83 
 C                     37.07     47.56     44.32 
 O                     36.04     47.43     44.97 
 H                     36.26     48.657    42.668 
 H                     37.875    47.968    42.376 
 H                     36.442    46.911    42.376 
 N                     38.35     47.5      44.72 
 C                     38.76     47.48     46.11 
 C                     38.18     48.6      46.96 
 O                     38.41     49.78     46.72 
 C                     40.28     47.61     46.1 
 C                     41.       47.28     47.4 
 O                     40.32     46.96     48.39 
 O                     42.25     47.33     47.45 
 H                     38.99     47.72     43.98 
 H                     38.55     46.54     46.63 
 H                     40.66     48.56     45.72 
 H                     40.59     46.83     45.4 
 N                     37.5      48.3      48.07 
 C                     36.69     49.23     48.82 
 C                     37.55     50.02     49.8 
 O                     37.44     51.24     49.89 
 C                     35.6      48.35     49.45 
 C                     34.5      49.21     50.07 
 C                     33.41     48.27     50.57 
 C                     32.35     49.08     51.32 
 N                     31.47     49.91     50.49 
 H                     37.37     47.31     48.23 
 H                     36.21     49.89     48.1 
 H                     36.1      47.64     50.1 
 H                     35.11     47.83     48.63 
 H                     34.17     49.87     49.27 
 H                     34.94     49.94     50.74 
 H                     33.82     47.55     51.28 
 H                     32.82     47.8      49.78 
 H                     32.89     49.69     52.05 
 H                     31.64     48.42     51.81 
 H                     31.97     50.56     49.91 
 H                     31.03     49.29     49.82 
 H                     30.86     50.41     51.12 
 N                     38.44     49.37     50.55 
 C                     39.33     49.97     51.52 
 C                     40.65     50.4      50.9 
 O                     41.4      51.16     51.5 
 C                     39.61     49.12     52.77 
 C                     40.06     47.69     52.51 
 O                     40.42     47.33     51.37 
 O                     39.92     46.92     53.49 
 H                     38.47     48.36     50.46 
 H                     38.87     50.88     51.91 
 H                     38.77     49.14     53.46 
 H                     40.36     49.69     53.31 
 N                     40.97     49.81     49.74 
 C                     42.23     50.01     49.04 
 C                     43.34     49.12     49.57 
 O                     44.49     49.54     49.49 
 H                     40.27     49.15     49.44 
 H                     42.52     51.06     49.13 
 H                     42.18     49.86     47.96 
 N                     42.94     48.03     50.24 
 C                     43.96     47.14     50.75 
 C                     44.82     46.28     49.84 
 O                     45.81     45.67     50.24 
 C                     43.39     46.28     51.88 
 C                     42.84     44.92     51.46 
 N                     43.13     43.86     52.2 
 O                     42.2      44.81     50.41 
 H                     41.97     47.79     50.35 
 H                     44.65     47.84     51.22 
 H                     42.62     46.78     52.46 
 H                     44.04     46.18     52.75 
 H                     43.75     43.97     52.99 
 H                     42.67     42.96     52.25 
 N                     44.5      46.14     48.55 
 C                     45.16     45.33     47.55 
 C                     44.4      44.08     47.1 
 O                     44.97     43.19     46.48 
 H                     43.75     46.74     48.25 
 H                     46.06     44.98     48.06 
 H                     45.22     45.91     46.63 
 N                     43.16     43.92     47.56 
 C                     42.31     42.76     47.34 
 C                     40.83     43.09     47.22 
 O                     40.39     44.1      47.77 
 C                     42.47     41.73     48.46 
 C                     43.87     41.21     48.69 
 C                     44.51     41.68     49.85 
 C                     44.46     40.25     47.87 
 C                     45.7      41.07     50.26 
 C                     45.72     39.75     48.22 
 C                     46.37     40.2      49.39 
 O                     47.62     39.74     49.68 
 H                     42.78     44.58     48.23 
 H                     42.63     42.27     46.42 
 H                     41.8      40.88     48.35 
 H                     42.22     42.09     49.45 
 H                     44.13     42.45     50.5 
 H                     44.01     40.       46.91 
 H                     46.14     41.45     51.18 
 H                     46.24     39.07     47.58 
 H                     48.08     39.44     48.89 
 N                     40.09     42.29     46.44 
 C                     38.66     42.51     46.3 
 C                     37.88     41.35     46.89 
 O                     38.11     40.24     46.41 
 C                     38.29     42.74     44.84 
 C                     39.08     43.85     44.14 
 C                     36.78     42.94     44.69 
 C                     38.97     43.74     42.62 
 H                     40.5      41.65     45.78 
 H                     38.33     43.38     46.87 
 H                     38.53     41.8      44.35 
 H                     40.14     43.8      44.39 
 H                     38.76     44.85     44.44 
 H                     36.52     43.99     44.77 
 H                     36.38     42.63     43.73 
 H                     36.13     42.39     45.38 
 H                     37.93     43.78     42.3 
 H                     39.58     44.49     42.11 
 H                     39.17     42.72     42.3 
 N                     36.93     41.65     47.76 
 C                     36.01     40.66     48.29 
 C                     34.59     40.89     47.8 
 O                     34.32     41.92     47.18 
 C                     36.07     40.57     49.81 
 O                     35.73     41.74     50.51 
 H                     36.94     42.59     48.13 
 H                     36.23     39.68     47.85 
 H                     37.08     40.4      50.19 
 H                     35.47     39.75     50.19 
 H                     36.34     42.45     50.28 
 N                     33.58     40.06     48.06 
 C                     32.27     40.1      47.44 
 C                     31.4      41.28     47.84 
 O                     30.71     41.83     46.98 
 C                     31.6      38.76     47.69 
 H                     33.73     39.24     48.64 
 H                     32.34     40.32     46.37 
 H                     32.13     37.96     47.16 
 H                     31.65     38.57     48.76 
 H                     30.55     38.84     47.42 
 N                     31.41     41.76     49.08 
 C                     30.65     42.95     49.45 
 C                     31.18     44.15     48.68 
 O                     30.48     45.15     48.53 
 C                     30.68     43.13     50.96 
 H                     32.01     41.35     49.78 
 H                     29.62     42.72     49.17 
 H                     30.34     42.18     51.37 
 H                     31.69     43.41     51.27 
 H                     30.01     43.96     51.18 
 N                     32.44     44.19     48.25 
 C                     33.07     45.26     47.49 
 C                     32.68     45.26     46.02 
 O                     32.5      46.31     45.41 
 C                     34.59     45.24     47.53 
 C                     35.08     44.93     48.95 
 C                     36.59     44.74     49.03 
 O                     37.18     43.8      49.59 
 O                     37.41     45.54     48.54 
 H                     33.03     43.4      48.46 
 H                     32.67     46.21     47.85 
 H                     34.97     46.24     47.35 
 H                     34.95     44.58     46.74 
 H                     34.65     43.99     49.3 
 H                     34.94     45.78     49.62 
 N                     32.55     44.11     45.36 
 C                     31.91     43.91     44.08 
 H                     31.013    44.527    44.022 
 H                     32.596    44.192    43.282 
 H                     31.636    42.861    43.97 
 H                     32.71     43.23     45.85 
 Ca                    39.47     45.17     50.1 
 O                     39.61     44.38     52.75 
 H                     39.58     43.76     53.47 
 H                     39.58     45.24     53.16 
 
 Stoichiometry    C54H83CaN15O23
 Framework group  C1[X(C54H83CaN15O23)]
 Deg. of freedom   522
 Full point group                 C1      NOp   1
 Largest Abelian subgroup         C1      NOp   1
 Largest concise Abelian subgroup C1      NOp   1
                         Standard orientation:                         
 ---------------------------------------------------------------------
 Center     Atomic      Atomic             Coordinates (Angstroms)
 Number     Number       Type             X           Y           Z
 ---------------------------------------------------------------------
      1          6           0        2.074733    1.249275    5.986354
      2          6           0        1.712627    1.405911    4.521348
      3          8           0        2.644938    1.590446    3.748662
      4          1           0        2.646781    2.117402    6.312925
      5          1           0        1.163599    1.170176    6.579653
      6          1           0        2.674682    0.348677    6.118667
      7          7           0        0.399542    1.288061    4.268527
      8          6           0       -0.204230    1.587017    2.985295
      9          6           0        0.137891    2.959447    2.426109
     10          8           0       -0.165123    3.991647    3.014026
     11          6           0       -1.712077    1.509495    3.203899
     12          6           0       -2.578845    1.447867    1.954013
     13          8           0       -2.022692    1.496130    0.843488
     14          8           0       -3.821936    1.345358    2.062254
     15          1           0       -0.144084    1.216423    5.108133
     16          1           0        0.015778    0.856193    2.200698
     17          1           0       -2.120791    2.265053    3.877238
     18          1           0       -1.842141    0.537099    3.685593
     19          7           0        0.674730    3.058894    1.206923
     20          6           0        1.275825    4.253304    0.663258
     21          6           0        0.211963    5.156983    0.050346
     22          8           0        0.192116    6.360120    0.296652
     23          6           0        2.340901    3.724358   -0.308971
     24          6           0        3.253097    4.855135   -0.781454
     25          6           0        4.342713    4.234145   -1.646791
     26          6           0        5.201353    5.346719   -2.252692
     27          7           0        6.110272    6.032302   -1.327466
     28          1           0        0.872944    2.173595    0.760205
     29          1           0        1.790854    4.753656    1.481055
     30          1           0        1.821057    3.154935   -1.071939
     31          1           0        2.991642    3.072792    0.269733
     32          1           0        3.632010    5.314461    0.129559
     33          1           0        2.653568    5.673609   -1.163640
     34          1           0        3.903739    3.683002   -2.479944
     35          1           0        5.082869    3.651423   -1.093886
     36          1           0        4.505945    6.053592   -2.714579
     37          1           0        5.891743    4.940619   -2.986344
     38          1           0        5.640722    6.432275   -0.534721
     39          1           0        6.699421    5.318840   -0.914218
     40          1           0        6.572388    6.757944   -1.855569
     41          7           0       -0.712172    4.620535   -0.746711
     42          6           0       -1.786200    5.336230   -1.400349
     43          6           0       -3.036793    5.408153   -0.538639
     44          8           0       -3.934303    6.195971   -0.810519
     45          6           0       -2.163290    4.822405   -2.799344
     46          6           0       -2.433803    3.328827   -2.904459
     47          8           0       -2.588846    2.633174   -1.879360
     48          8           0       -2.365578    2.874144   -4.071296
     49          1           0       -0.633348    3.628345   -0.942788
     50          1           0       -1.475651    6.369463   -1.567045
     51          1           0       -1.438070    5.135965   -3.546229
     52          1           0       -3.034159    5.412794   -3.067724
     53          7           0       -3.127833    4.492818    0.436027
     54          6           0       -4.286012    4.331632    1.302191
     55          6           0       -5.372229    3.478440    0.671876
     56          8           0       -6.532865    3.707476    0.997095
     57          1           0       -2.332569    3.874147    0.456044
     58          1           0       -4.683775    5.320123    1.545852
     59          1           0       -4.065778    3.906166    2.282943
     60          7           0       -4.972721    2.669401   -0.319511
     61          6           0       -5.967392    1.822640   -0.940981
     62          6           0       -6.601102    0.645724   -0.219467
     63          8           0       -7.576673    0.040776   -0.660487
     64          6           0       -5.488956    1.378434   -2.324881
     65          6           0       -4.757949    0.039785   -2.371216
     66          7           0       -5.051011   -0.812210   -3.342566
     67          8           0       -3.964760   -0.262248   -1.474652
     68          1           0       -4.010706    2.596664   -0.602065
     69          1           0       -6.781269    2.526268   -1.112773
     70          1           0       -4.861996    2.111648   -2.823498
     71          1           0       -6.246039    1.430547   -3.108149
     72          1           0       -5.786745   -0.577088   -3.993729
     73          1           0       -4.520301   -1.597813   -3.696507
     74          7           0       -6.085395    0.208986    0.933532
     75          6           0       -6.513774   -0.918087    1.732216
     76          6           0       -5.581963   -2.132261    1.721706
     77          8           0       -5.969337   -3.222306    2.125616
     78          1           0       -5.359775    0.799716    1.303686
     79          1           0       -7.441212   -1.233631    1.249628
     80          1           0       -6.493993   -0.618271    2.779173
     81          7           0       -4.412403   -1.999688    1.097724
     82          6           0       -3.433845   -3.054657    0.883331
     83          6           0       -1.989919   -2.577996    0.922995
     84          8           0       -1.731738   -1.409128    0.634395
     85          6           0       -3.656885   -3.759376   -0.456267
     86          6           0       -5.020066   -4.377533   -0.663441
     87          6           0       -5.863197   -3.702410   -1.563129
     88          6           0       -5.391489   -5.590505   -0.086515
     89          6           0       -7.037198   -4.330862   -1.990994
     90          6           0       -6.636098   -6.139154   -0.418226
     91          6           0       -7.488643   -5.481758   -1.331953
     92          8           0       -8.718465   -6.006957   -1.596348
     93          1           0       -4.197717   -1.140710    0.602783
     94          1           0       -3.569173   -3.810346    1.657617
     95          1           0       -2.900831   -4.512548   -0.667491
     96          1           0       -3.588397   -3.118234   -1.326006
     97          1           0       -5.655986   -2.743769   -2.007956
     98          1           0       -4.785289   -6.026991    0.706329
     99          1           0       -7.640007   -3.779660   -2.710159
    100          1           0       -6.991138   -7.027527    0.058366
    101          1           0       -9.028485   -6.564823   -0.876366
    102          7           0       -1.072344   -3.453444    1.356177
    103          6           0        0.335621   -3.093688    1.389501
    104          6           0        1.127610   -3.941208    0.411460
    105          8           0        1.075526   -5.159335    0.581328
    106          6           0        0.890348   -3.216123    2.803250
    107          6           0        0.109202   -2.447061    3.873088
    108          6           0        2.380443   -2.867663    2.831380
    109          6           0        0.448652   -2.944153    5.277465
    110          1           0       -1.319916   -4.294582    1.850643
    111          1           0        0.495769   -2.067520    1.054788
    112          1           0        0.813827   -4.275943    3.031784
    113          1           0       -0.966368   -2.566681    3.741030
    114          1           0        0.286444   -1.370301    3.833415
    115          1           0        2.525822   -1.809857    3.022196
    116          1           0        2.943060   -3.367972    3.612951
    117          1           0        2.972317   -3.123121    1.945080
    118          1           0        1.515633   -2.855416    5.475648
    119          1           0       -0.148837   -2.444394    6.044242
    120          1           0        0.394388   -4.029647    5.316933
    121          7           0        1.908608   -3.297813   -0.440293
    122          6           0        2.831153   -3.980763   -1.329049
    123          6           0        4.279152   -3.706367   -0.958367
    124          8           0        4.537921   -2.853539   -0.107530
    125          6           0        2.559819   -3.668056   -2.795573
    126          8           0        2.682631   -2.319420   -3.170538
    127          1           0        1.756332   -2.302806   -0.526168
    128          1           0        2.770844   -5.062780   -1.161708
    129          1           0        1.525938   -3.860926   -3.091023
    130          1           0        3.172943   -4.270715   -3.457149
    131          1           0        2.048255   -1.782969   -2.681777
    132          7           0        5.314451   -4.296997   -1.554952
    133          6           0        6.690918   -4.253146   -1.101615
    134          6           0        7.378344   -2.905818   -1.248085
    135          8           0        8.130910   -2.520429   -0.351805
    136          6           0        7.440927   -5.377824   -1.794135
    137          1           0        5.159863   -4.944339   -2.321993
    138          1           0        6.756601   -4.338425   -0.012297
    139          1           0        7.071387   -6.352647   -1.455079
    140          1           0        7.254227   -5.279612   -2.861373
    141          1           0        8.506723   -5.236221   -1.633419
    142          7           0        7.143132   -2.117294   -2.292598
    143          6           0        7.725633   -0.782841   -2.395193
    144          6           0        7.202231    0.087453   -1.262744
    145          8           0        7.819080    1.093611   -0.916851
    146          6           0        7.459821   -0.211126   -3.779349
    147          1           0        6.489231   -2.400040   -3.007138
    148          1           0        8.802433   -0.942471   -2.310224
    149          1           0        7.824783   -0.963897   -4.476728
    150          1           0        6.393644    0.006877   -3.881044
    151          1           0        8.009433    0.727761   -3.830512
    152          7           0        6.019940   -0.154274   -0.698957
    153          6           0        5.408864    0.581501    0.398596
    154          6           0        6.006443    0.239440    1.754654
    155          8           0        6.173232    1.102254    2.611819
    156          6           0        3.907910    0.374152    0.527213
    157          6           0        3.248353    0.393812   -0.857416
    158          6           0        1.767480    0.036178   -0.816042
    159          8           0        1.193767   -0.788661   -1.548021
    160          8           0        0.955542    0.561532   -0.030382
    161          1           0        5.482901   -0.929513   -1.055178
    162          1           0        5.660902    1.637044    0.278577
    163          1           0        3.465434    1.230927    1.024156
    164          1           0        3.730348   -0.514299    1.134195
    165          1           0        3.709725   -0.353678   -1.505024
    166          1           0        3.208738    1.402759   -1.271488
    167          7           0        6.338833   -1.017888    2.043865
    168          6           0        7.173915   -1.467347    3.134107
    169          1           0        8.007565   -0.776430    3.261869
    170          1           0        6.587556   -1.501328    4.051687
    171          1           0        7.558729   -2.462326    2.911594
    172          1           0        6.193128   -1.747885    1.346747
    173         20           0       -1.264961    0.355854   -1.387277
    174          8           0       -1.713134    0.292021   -4.118809
    175          1           0       -1.729644   -0.103392   -4.983145
    176          1           0       -1.824274    1.226588   -4.269913
 ---------------------------------------------------------------------
 Rotational constants (GHZ):      0.0247982      0.0149646      0.0120546
 Standard basis: SVP (5D, 7F)
 There are  1809 symmetry adapted cartesian basis functions of A   symmetry.
 There are  1717 symmetry adapted basis functions of A   symmetry.
  1717 basis functions,  2922 primitive gaussians,  1809 cartesian basis functions
   358 alpha electrons      358 beta electrons
       nuclear repulsion energy     21860.1708119172 Hartrees.
 NAtoms=  176 NActive=  176 NUniq=  176 SFac= 1.00D+00 NAtFMM=   60 NAOKFM=T Big=T
 Integral buffers will be    131072 words long.
 Raffenetti 2 integral format.
 Two-electron integral symmetry is turned on.
 One-electron integrals computed using PRISM.
 NBasis=  1717 RedAO= T EigKep=  3.20D-04  NBF=  1717
 NBsUse=  1717 1.00D-06 EigRej= -1.00D+00 NBFU=  1717
 ExpMin= 1.98D-02 ExpMax= 3.51D+04 ExpMxC= 5.28D+03 IAcc=3 IRadAn=         5 AccDes= 0.00D+00
 Harris functional with IExCor=  402 and IRadAn=       5 diagonalized for initial guess.
 HarFok:  IExCor=  402 AccDes= 0.00D+00 IRadAn=         5 IDoV= 1 UseB2=F ITyADJ=14
 ICtDFT=  3500011 ScaDFX=  1.000000  1.000000  1.000000  1.000000
 FoFCou: FMM=F IPFlag=           0 FMFlag=      100000 FMFlg1=        2001
         NFxFlg=           0 DoJE=T BraDBF=F KetDBF=T FulRan=T
         wScrn=  0.000000 ICntrl=     500 IOpCl=  0 I1Cent=   200000004 NGrid=           0
         NMat0=    1 NMatS0=      1 NMatT0=    0 NMatD0=    1 NMtDS0=    0 NMtDT0=    0
 Petite list used in FoFCou.
 Requested convergence on RMS density matrix=1.00D-08 within 128 cycles.
 Requested convergence on MAX density matrix=1.00D-06.
 Requested convergence on             energy=1.00D-06.
 No special actions if energy rises.
 EnCoef did     5 forward-backward iterations
 SCF Done:  E(RB3LYP) =  -5333.57410102     A.U. after   19 cycles
            NFock= 19  Conv=0.25D-08     -V/T= 2.0081

 **********************************************************************

            Population analysis using the SCF density.

 **********************************************************************

 Orbital symmetries:
 BldTbl:  Degeneracy threshold= 1.00D-02
       Occupied  (A) (A) (A) (A) (A) (A) (A) (A) (A) (A) (A) (A)
                 (A) (A) (A) (A) (A) (A) (A) (A) (A) (A) (A) (A)
                 (A) (A) (A) (A) (A) (A) (A) (A) (A) (A) (A) (A)
                 (A) (A) (A) (A) (A) (A) (A) (A) (A) (A) (A) (A)
                 (A) (A) (A) (A) (A) (A) (A) (A) (A) (A) (A) (A)
                 (A) (A) (A) (A) (A) (A) (A) (A) (A) (A) (A) (A)
                 (A) (A) (A) (A) (A) (A) (A) (A) (A) (A) (A) (A)
                 (A) (A) (A) (A) (A) (A) (A) (A) (A) (A) (A) (A)
                 (A) (A) (A) (A) (A) (A) (A) (A) (A) (A) (A) (A)
                 (A) (A) (A) (A) (A) (A) (A) (A) (A) (A) (A) (A)
                 (A) (A) (A) (A) (A) (A) (A) (A) (A) (A) (A) (A)
                 (A) (A) (A) (A) (A) (A) (A) (A) (A) (A) (A) (A)
                 (A) (A) (A) (A) (A) (A) (A) (A) (A) (A) (A) (A)
                 (A) (A) (A) (A) (A) (A) (A) (A) (A) (A) (A) (A)
                 (A) (A) (A) (A) (A) (A) (A) (A) (A) (A) (A) (A)
                 (A) (A) (A) (A) (A) (A) (A) (A) (A) (A) (A) (A)
                 (A) (A) (A) (A) (A) (A) (A) (A) (A) (A) (A) (A)
                 (A) (A) (A) (A) (A) (A) (A) (A) (A) (A) (A) (A)
                 (A) (A) (A) (A) (A) (A) (A) (A) (A) (A) (A) (A)
                 (A) (A) (A) (A) (A) (A) (A) (A) (A) (A) (A) (A)
                 (A) (A) (A) (A) (A) (A) (A) (A) (A) (A) (A) (A)
                 (A) (A) (A) (A) (A) (A) (A) (A) (A) (A) (A) (A)
                 (A) (A) (A) (A) (A) (A) (A) (A) (A) (A) (A) (A)
                 (A) (A) (A) (A) (A) (A) (A) (A) (A) (A) (A) (A)
                 (A) (A) (A) (A) (A) (A) (A) (A) (A) (A) (A) (A)
                 (A) (A) (A) (A) (A) (A) (A) (A) (A) (A) (A) (A)
                 (A) (A) (A) (A) (A) (A) (A) (A) (A) (A) (A) (A)
                 (A) (A) (A) (A) (A) (A) (A) (A) (A) (A) (A) (A)
                 (A) (A) (A) (A) (A) (A) (A) (A) (A) (A) (A) (A)
                 (A) (A) (A) (A) (A) (A) (A) (A) (A) (A)
       Virtual   (A) (A) (A) (A) (A) (A) (A) (A) (A) (A) (A) (A)
                 (A) (A) (A) (A) (A) (A) (A) (A) (A) (A) (A) (A)
                 (A) (A) (A) (A) (A) (A) (A) (A) (A) (A) (A) (A)
                 (A) (A) (A) (A) (A) (A) (A) (A) (A) (A) (A) (A)
                 (A) (A) (A) (A) (A) (A) (A) (A) (A) (A) (A) (A)
                 (A) (A) (A) (A) (A) (A) (A) (A) (A) (A) (A) (A)
                 (A) (A) (A) (A) (A) (A) (A) (A) (A) (A) (A) (A)
                 (A) (A) (A) (A) (A) (A) (A) (A) (A) (A) (A) (A)
                 (A) (A) (A) (A) (A) (A) (A) (A) (A) (A) (A) (A)
                 (A) (A) (A) (A) (A) (A) (A) (A) (A) (A) (A) (A)
                 (A) (A) (A) (A) (A) (A) (A) (A) (A) (A) (A) (A)
                 (A) (A) (A) (A) (A) (A) (A) (A) (A) (A) (A) (A)
                 (A) (A) (A) (A) (A) (A) (A) (A) (A) (A) (A) (A)
                 (A) (A) (A) (A) (A) (A) (A) (A) (A) (A) (A) (A)
                 (A) (A) (A) (A) (A) (A) (A) (A) (A) (A) (A) (A)
                 (A) (A) (A) (A) (A) (A) (A) (A) (A) (A) (A) (A)
                 (A) (A) (A) (A) (A) (A) (A) (A) (A) (A) (A) (A)
                 (A) (A) (A) (A) (A) (A) (A) (A) (A) (A) (A) (A)
                 (A) (A) (A) (A) (A) (A) (A) (A) (A) (A) (A) (A)
                 (A) (A) (A) (A) (A) (A) (A) (A) (A) (A) (A) (A)
                 (A) (A) (A) (A) (A) (A) (A) (A) (A) (A) (A) (A)
                 (A) (A) (A) (A) (A) (A) (A) (A) (A) (A) (A) (A)
                 (A) (A) (A) (A) (A) (A) (A) (A) (A) (A) (A) (A)
                 (A) (A) (A) (A) (A) (A) (A) (A) (A) (A) (A) (A)
                 (A) (A) (A) (A) (A) (A) (A) (A) (A) (A) (A) (A)
                 (A) (A) (A) (A) (A) (A) (A) (A) (A) (A) (A) (A)
                 (A) (A) (A) (A) (A) (A) (A) (A) (A) (A) (A) (A)
                 (A) (A) (A) (A) (A) (A) (A) (A) (A) (A) (A) (A)
                 (A) (A) (A) (A) (A) (A) (A) (A) (A) (A) (A) (A)
                 (A) (A) (A) (A) (A) (A) (A) (A) (A) (A) (A) (A)
                 (A) (A) (A) (A) (A) (A) (A) (A) (A) (A) (A) (A)
                 (A) (A) (A) (A) (A) (A) (A) (A) (A) (A) (A) (A)
                 (A) (A) (A) (A) (A) (A) (A) (A) (A) (A) (A) (A)
                 (A) (A) (A) (A) (A) (A) (A) (A) (A) (A) (A) (A)
                 (A) (A) (A) (A) (A) (A) (A) (A) (A) (A) (A) (A)
                 (A) (A) (A) (A) (A) (A) (A) (A) (A) (A) (A) (A)
                 (A) (A) (A) (A) (A) (A) (A) (A) (A) (A) (A) (A)
                 (A) (A) (A) (A) (A) (A) (A) (A) (A) (A) (A) (A)
                 (A) (A) (A) (A) (A) (A) (A) (A) (A) (A) (A) (A)
                 (A) (A) (A) (A) (A) (A) (A) (A) (A) (A) (A) (A)
                 (A) (A) (A) (A) (A) (A) (A) (A) (A) (A) (A) (A)
                 (A) (A) (A) (A) (A) (A) (A) (A) (A) (A) (A) (A)
                 (A) (A) (A) (A) (A) (A) (A) (A) (A) (A) (A) (A)
                 (A) (A) (A) (A) (A) (A) (A) (A) (A) (A) (A) (A)
                 (A) (A) (A) (A) (A) (A) (A) (A) (A) (A) (A) (A)
                 (A) (A) (A) (A) (A) (A) (A) (A) (A) (A) (A) (A)
                 (A) (A) (A) (A) (A) (A) (A) (A) (A) (A) (A) (A)
                 (A) (A) (A) (A) (A) (A) (A) (A) (A) (A) (A) (A)
                 (A) (A) (A) (A) (A) (A) (A) (A) (A) (A) (A) (A)
                 (A) (A) (A) (A) (A) (A) (A) (A) (A) (A) (A) (A)
                 (A) (A) (A) (A) (A) (A) (A) (A) (A) (A) (A) (A)
                 (A) (A) (A) (A) (A) (A) (A) (A) (A) (A) (A) (A)
                 (A) (A) (A) (A) (A) (A) (A) (A) (A) (A) (A) (A)
                 (A) (A) (A) (A) (A) (A) (A) (A) (A) (A) (A) (A)
                 (A) (A) (A) (A) (A) (A) (A) (A) (A) (A) (A) (A)
                 (A) (A) (A) (A) (A) (A) (A) (A) (A) (A) (A) (A)
                 (A) (A) (A) (A) (A) (A) (A) (A) (A) (A) (A) (A)
                 (A) (A) (A) (A) (A) (A) (A) (A) (A) (A) (A) (A)
                 (A) (A) (A) (A) (A) (A) (A) (A) (A) (A) (A) (A)
                 (A) (A) (A) (A) (A) (A) (A) (A) (A) (A) (A) (A)
                 (A) (A) (A) (A) (A) (A) (A) (A) (A) (A) (A) (A)
                 (A) (A) (A) (A) (A) (A) (A) (A) (A) (A) (A) (A)
                 (A) (A) (A) (A) (A) (A) (A) (A) (A) (A) (A) (A)
                 (A) (A) (A) (A) (A) (A) (A) (A) (A) (A) (A) (A)
                 (A) (A) (A) (A) (A) (A) (A) (A) (A) (A) (A) (A)
                 (A) (A) (A) (A) (A) (A) (A) (A) (A) (A) (A) (A)
                 (A) (A) (A) (A) (A) (A) (A) (A) (A) (A) (A) (A)
                 (A) (A) (A) (A) (A) (A) (A) (A) (A) (A) (A) (A)
                 (A) (A) (A) (A) (A) (A) (A) (A) (A) (A) (A) (A)
                 (A) (A) (A) (A) (A) (A) (A) (A) (A) (A) (A) (A)
                 (A) (A) (A) (A) (A) (A) (A) (A) (A) (A) (A) (A)
                 (A) (A) (A) (A) (A) (A) (A) (A) (A) (A) (A) (A)
                 (A) (A) (A) (A) (A) (A) (A) (A) (A) (A) (A) (A)
                 (A) (A) (A) (A) (A) (A) (A) (A) (A) (A) (A) (A)
                 (A) (A) (A) (A) (A) (A) (A) (A) (A) (A) (A) (A)
                 (A) (A) (A) (A) (A) (A) (A) (A) (A) (A) (A) (A)
                 (A) (A) (A) (A) (A) (A) (A) (A) (A) (A) (A) (A)
                 (A) (A) (A) (A) (A) (A) (A) (A) (A) (A) (A) (A)
                 (A) (A) (A) (A) (A) (A) (A) (A) (A) (A) (A) (A)
                 (A) (A) (A) (A) (A) (A) (A) (A) (A) (A) (A) (A)
                 (A) (A) (A) (A) (A) (A) (A) (A) (A) (A) (A) (A)
                 (A) (A) (A) (A) (A) (A) (A) (A) (A) (A) (A) (A)
                 (A) (A) (A) (A) (A) (A) (A) (A) (A) (A) (A) (A)
                 (A) (A) (A) (A) (A) (A) (A) (A) (A) (A) (A) (A)
                 (A) (A) (A) (A) (A) (A) (A) (A) (A) (A) (A) (A)
                 (A) (A) (A) (A) (A) (A) (A) (A) (A) (A) (A) (A)
                 (A) (A) (A) (A) (A) (A) (A) (A) (A) (A) (A) (A)
                 (A) (A) (A) (A) (A) (A) (A) (A) (A) (A) (A) (A)
                 (A) (A) (A) (A) (A) (A) (A) (A) (A) (A) (A) (A)
                 (A) (A) (A) (A) (A) (A) (A) (A) (A) (A) (A) (A)
                 (A) (A) (A) (A) (A) (A) (A) (A) (A) (A) (A) (A)
                 (A) (A) (A) (A) (A) (A) (A) (A) (A) (A) (A) (A)
                 (A) (A) (A) (A) (A) (A) (A) (A) (A) (A) (A) (A)
                 (A) (A) (A) (A) (A) (A) (A) (A) (A) (A) (A) (A)
                 (A) (A) (A) (A) (A) (A) (A) (A) (A) (A) (A) (A)
                 (A) (A) (A) (A) (A) (A) (A) (A) (A) (A) (A) (A)
                 (A) (A) (A) (A) (A) (A) (A) (A) (A) (A) (A) (A)
                 (A) (A) (A) (A) (A) (A) (A) (A) (A) (A) (A) (A)
                 (A) (A) (A) (A) (A) (A) (A) (A) (A) (A) (A) (A)
                 (A) (A) (A) (A) (A) (A) (A) (A) (A) (A) (A) (A)
                 (A) (A) (A) (A) (A) (A) (A) (A) (A) (A) (A) (A)
                 (A) (A) (A) (A) (A) (A) (A) (A) (A) (A) (A) (A)
                 (A) (A) (A) (A) (A) (A) (A) (A) (A) (A) (A) (A)
                 (A) (A) (A) (A) (A) (A) (A) (A) (A) (A) (A) (A)
                 (A) (A) (A) (A) (A) (A) (A) (A) (A) (A) (A) (A)
                 (A) (A) (A) (A) (A) (A) (A) (A) (A) (A) (A) (A)
                 (A) (A) (A) (A) (A) (A) (A) (A) (A) (A) (A) (A)
                 (A) (A) (A) (A) (A) (A) (A) (A) (A) (A) (A) (A)
                 (A) (A) (A) (A) (A) (A) (A) (A) (A) (A) (A) (A)
                 (A) (A) (A) (A) (A) (A) (A) (A) (A) (A) (A) (A)
                 (A) (A) (A) (A) (A) (A) (A) (A) (A) (A) (A) (A)
                 (A) (A) (A) (A) (A) (A) (A) (A) (A) (A) (A) (A)
                 (A) (A) (A) (A) (A) (A) (A) (A) (A) (A) (A) (A)
                 (A) (A) (A)
 The electronic state is 1-A.
 Alpha  occ. eigenvalues -- -145.41267 -19.14845 -19.13944 -19.13907 -19.13231
 Alpha  occ. eigenvalues --  -19.12951 -19.12413 -19.11682 -19.11423 -19.10920
 Alpha  occ. eigenvalues --  -19.10756 -19.10162 -19.08409 -19.07995 -19.07687
 Alpha  occ. eigenvalues --  -19.07537 -19.06780 -19.06178 -19.05110 -19.04659
 Alpha  occ. eigenvalues --  -19.04011 -19.03796 -19.03457 -19.02039 -15.46917
 Alpha  occ. eigenvalues --  -14.58926 -14.40307 -14.39005 -14.36864 -14.36841
 Alpha  occ. eigenvalues --  -14.36779 -14.36614 -14.34301 -14.34144 -14.33525
 Alpha  occ. eigenvalues --  -14.31631 -14.31332 -14.29975 -14.28891 -14.28410
 Alpha  occ. eigenvalues --  -12.60569 -12.60497 -12.60474 -10.35254 -10.32543
 Alpha  occ. eigenvalues --  -10.31396 -10.31105 -10.29973 -10.29872 -10.29777
 Alpha  occ. eigenvalues --  -10.28707 -10.28565 -10.27153 -10.26918 -10.26698
 Alpha  occ. eigenvalues --  -10.26530 -10.26470 -10.26440 -10.26290 -10.26173
 Alpha  occ. eigenvalues --  -10.25056 -10.24812 -10.24177 -10.23962 -10.23280
 Alpha  occ. eigenvalues --  -10.23251 -10.23077 -10.23065 -10.23010 -10.22838
 Alpha  occ. eigenvalues --  -10.22818 -10.22815 -10.22610 -10.22268 -10.22091
 Alpha  occ. eigenvalues --  -10.21940 -10.20877 -10.20668 -10.20460 -10.20377
 Alpha  occ. eigenvalues --  -10.19472 -10.19160 -10.18105 -10.17936 -10.17740
 Alpha  occ. eigenvalues --  -10.17583 -10.17191 -10.17109 -10.17063 -10.16995
 Alpha  occ. eigenvalues --  -10.16865 -10.16752 -10.16678 -10.16654 -10.16556
 Alpha  occ. eigenvalues --  -10.16345 -10.15302  -1.83541  -1.14449  -1.11354
 Alpha  occ. eigenvalues --   -1.10976  -1.10657  -1.08828  -1.07623  -1.05955
 Alpha  occ. eigenvalues --   -1.04414  -1.04049  -1.03382  -1.03247  -1.02573
 Alpha  occ. eigenvalues --   -1.02451  -1.02191  -1.01479  -1.01172  -1.00861
 Alpha  occ. eigenvalues --   -1.00465  -0.99423  -0.98498  -0.97944  -0.97710
 Alpha  occ. eigenvalues --   -0.97345  -0.96669  -0.96252  -0.96132  -0.95504
 Alpha  occ. eigenvalues --   -0.93796  -0.93378  -0.93204  -0.92590  -0.91445
 Alpha  occ. eigenvalues --   -0.91244  -0.90956  -0.90148  -0.89467  -0.89200
 Alpha  occ. eigenvalues --   -0.88565  -0.87774  -0.87249  -0.85957  -0.85149
 Alpha  occ. eigenvalues --   -0.83050  -0.82710  -0.82666  -0.81746  -0.81337
 Alpha  occ. eigenvalues --   -0.80276  -0.78458  -0.77508  -0.76963  -0.75938
 Alpha  occ. eigenvalues --   -0.75834  -0.75250  -0.75110  -0.74033  -0.73884
 Alpha  occ. eigenvalues --   -0.72184  -0.71908  -0.71598  -0.70504  -0.70268
 Alpha  occ. eigenvalues --   -0.69743  -0.69473  -0.69325  -0.68895  -0.68310
 Alpha  occ. eigenvalues --   -0.68008  -0.67129  -0.65752  -0.65137  -0.64785
 Alpha  occ. eigenvalues --   -0.63816  -0.63711  -0.63557  -0.62827  -0.62773
 Alpha  occ. eigenvalues --   -0.62391  -0.61771  -0.61147  -0.61092  -0.60475
 Alpha  occ. eigenvalues --   -0.60210  -0.59944  -0.58493  -0.58022  -0.57796
 Alpha  occ. eigenvalues --   -0.57219  -0.56824  -0.56775  -0.56446  -0.56389
 Alpha  occ. eigenvalues --   -0.55706  -0.55472  -0.55334  -0.55098  -0.54986
 Alpha  occ. eigenvalues --   -0.54753  -0.54240  -0.54111  -0.53834  -0.53324
 Alpha  occ. eigenvalues --   -0.52831  -0.52732  -0.52558  -0.52473  -0.52013
 Alpha  occ. eigenvalues --   -0.51765  -0.51523  -0.51080  -0.50679  -0.50366
 Alpha  occ. eigenvalues --   -0.50318  -0.50078  -0.49863  -0.49450  -0.49102
 Alpha  occ. eigenvalues --   -0.49080  -0.48862  -0.48623  -0.48283  -0.48163
 Alpha  occ. eigenvalues --   -0.47851  -0.47649  -0.47419  -0.47208  -0.46908
 Alpha  occ. eigenvalues --   -0.46810  -0.46713  -0.46387  -0.46275  -0.46100
 Alpha  occ. eigenvalues --   -0.45837  -0.45764  -0.45443  -0.44928  -0.44776
 Alpha  occ. eigenvalues --   -0.44492  -0.44388  -0.44301  -0.44236  -0.44140
 Alpha  occ. eigenvalues --   -0.44031  -0.43909  -0.43856  -0.43550  -0.43410
 Alpha  occ. eigenvalues --   -0.43136  -0.43111  -0.43009  -0.42898  -0.42847
 Alpha  occ. eigenvalues --   -0.42614  -0.42529  -0.42250  -0.42186  -0.42133
 Alpha  occ. eigenvalues --   -0.41886  -0.41823  -0.41732  -0.41467  -0.41344
 Alpha  occ. eigenvalues --   -0.41130  -0.41062  -0.40771  -0.40629  -0.40494
 Alpha  occ. eigenvalues --   -0.40285  -0.39989  -0.39831  -0.39788  -0.39665
 Alpha  occ. eigenvalues --   -0.39475  -0.39433  -0.39345  -0.39174  -0.38955
 Alpha  occ. eigenvalues --   -0.38749  -0.38676  -0.38576  -0.38418  -0.38215
 Alpha  occ. eigenvalues --   -0.38043  -0.37929  -0.37816  -0.37623  -0.37542
 Alpha  occ. eigenvalues --   -0.37286  -0.37228  -0.37069  -0.36798  -0.36654
 Alpha  occ. eigenvalues --   -0.36489  -0.36105  -0.36049  -0.35780  -0.35688
 Alpha  occ. eigenvalues --   -0.35545  -0.35445  -0.35260  -0.35172  -0.34510
 Alpha  occ. eigenvalues --   -0.34436  -0.34193  -0.34079  -0.33741  -0.33662
 Alpha  occ. eigenvalues --   -0.33421  -0.33286  -0.33047  -0.32583  -0.32361
 Alpha  occ. eigenvalues --   -0.32198  -0.32187  -0.32099  -0.31868  -0.31807
 Alpha  occ. eigenvalues --   -0.31524  -0.31485  -0.31349  -0.30587  -0.30526
 Alpha  occ. eigenvalues --   -0.30466  -0.29973  -0.29587  -0.28977  -0.28830
 Alpha  occ. eigenvalues --   -0.28385  -0.28249  -0.27884  -0.27306  -0.27146
 Alpha  occ. eigenvalues --   -0.26701  -0.26593  -0.26361  -0.26249  -0.25807
 Alpha  occ. eigenvalues --   -0.25583  -0.25258  -0.25031  -0.24805  -0.23876
 Alpha  occ. eigenvalues --   -0.23579  -0.23377  -0.23244  -0.23198  -0.23008
 Alpha  occ. eigenvalues --   -0.22545  -0.22344  -0.22226  -0.22079  -0.21779
 Alpha  occ. eigenvalues --   -0.20861  -0.20418  -0.20107  -0.19777  -0.19216
 Alpha  occ. eigenvalues --   -0.18867  -0.18196  -0.18029
 Alpha virt. eigenvalues --   -0.10630  -0.04468  -0.04433  -0.03287  -0.02600
 Alpha virt. eigenvalues --   -0.01720  -0.01250  -0.00534  -0.00239  -0.00045
 Alpha virt. eigenvalues --    0.00070   0.00659   0.00839   0.00863   0.01298
 Alpha virt. eigenvalues --    0.01585   0.01844   0.02505   0.02642   0.02837
 Alpha virt. eigenvalues --    0.03250   0.03747   0.04109   0.04167   0.04396
 Alpha virt. eigenvalues --    0.04567   0.04916   0.05337   0.05486   0.05686
 Alpha virt. eigenvalues --    0.05717   0.06131   0.06274   0.06450   0.06751
 Alpha virt. eigenvalues --    0.06860   0.06886   0.07054   0.07279   0.07439
 Alpha virt. eigenvalues --    0.07591   0.07947   0.08004   0.08206   0.08385
 Alpha virt. eigenvalues --    0.08504   0.08765   0.09023   0.09300   0.09487
 Alpha virt. eigenvalues --    0.09619   0.09731   0.10037   0.10144   0.10449
 Alpha virt. eigenvalues --    0.10465   0.10590   0.10962   0.11013   0.11176
 Alpha virt. eigenvalues --    0.11428   0.11703   0.11941   0.11994   0.12394
 Alpha virt. eigenvalues --    0.12685   0.12817   0.12912   0.12993   0.13320
 Alpha virt. eigenvalues --    0.13493   0.13771   0.13953   0.14217   0.14418
 Alpha virt. eigenvalues --    0.14514   0.14528   0.14861   0.14982   0.15150
 Alpha virt. eigenvalues --    0.15223   0.15363   0.15395   0.15759   0.15968
 Alpha virt. eigenvalues --    0.16228   0.16403   0.16641   0.16865   0.17009
 Alpha virt. eigenvalues --    0.17329   0.17503   0.17584   0.17835   0.18038
 Alpha virt. eigenvalues --    0.18184   0.18217   0.18370   0.18427   0.18773
 Alpha virt. eigenvalues --    0.18907   0.18994   0.19162   0.19512   0.19728
 Alpha virt. eigenvalues --    0.19809   0.20125   0.20349   0.20421   0.20552
 Alpha virt. eigenvalues --    0.20816   0.20953   0.20973   0.21496   0.21686
 Alpha virt. eigenvalues --    0.21756   0.21956   0.22126   0.22400   0.22489
 Alpha virt. eigenvalues --    0.22612   0.22894   0.23169   0.23425   0.23641
 Alpha virt. eigenvalues --    0.23674   0.23964   0.24178   0.24238   0.24513
 Alpha virt. eigenvalues --    0.24746   0.24939   0.25273   0.25372   0.25495
 Alpha virt. eigenvalues --    0.25725   0.25848   0.25891   0.26076   0.26259
 Alpha virt. eigenvalues --    0.26397   0.26575   0.26951   0.27128   0.27456
 Alpha virt. eigenvalues --    0.27647   0.27905   0.28093   0.28468   0.28676
 Alpha virt. eigenvalues --    0.29208   0.29273   0.29524   0.30003   0.30230
 Alpha virt. eigenvalues --    0.30405   0.30558   0.30974   0.31083   0.31193
 Alpha virt. eigenvalues --    0.31612   0.31831   0.32045   0.32279   0.32586
 Alpha virt. eigenvalues --    0.32723   0.33042   0.33308   0.33535   0.33638
 Alpha virt. eigenvalues --    0.34242   0.34377   0.34637   0.35034   0.35383
 Alpha virt. eigenvalues --    0.35630   0.35830   0.36106   0.36236   0.36469
 Alpha virt. eigenvalues --    0.36611   0.37074   0.37261   0.37717   0.37787
 Alpha virt. eigenvalues --    0.38084   0.38632   0.38817   0.39196   0.39731
 Alpha virt. eigenvalues --    0.39803   0.40087   0.40378   0.40481   0.40728
 Alpha virt. eigenvalues --    0.40936   0.41134   0.41412   0.42006   0.42184
 Alpha virt. eigenvalues --    0.42346   0.42453   0.42653   0.42903   0.43104
 Alpha virt. eigenvalues --    0.43230   0.43511   0.43790   0.44358   0.44552
 Alpha virt. eigenvalues --    0.44584   0.44918   0.45163   0.45319   0.45459
 Alpha virt. eigenvalues --    0.45707   0.45807   0.45987   0.46099   0.46436
 Alpha virt. eigenvalues --    0.46573   0.46659   0.46795   0.47037   0.47168
 Alpha virt. eigenvalues --    0.47687   0.47800   0.47889   0.47962   0.48304
 Alpha virt. eigenvalues --    0.48695   0.48804   0.48814   0.49019   0.49280
 Alpha virt. eigenvalues --    0.49465   0.49585   0.49958   0.50314   0.50382
 Alpha virt. eigenvalues --    0.50408   0.50830   0.50930   0.51182   0.51348
 Alpha virt. eigenvalues --    0.51445   0.51736   0.51801   0.52208   0.52352
 Alpha virt. eigenvalues --    0.52588   0.52669   0.52907   0.53125   0.53165
 Alpha virt. eigenvalues --    0.53472   0.53567   0.53914   0.53938   0.54016
 Alpha virt. eigenvalues --    0.54346   0.54476   0.54750   0.54789   0.55156
 Alpha virt. eigenvalues --    0.55296   0.55411   0.55424   0.55542   0.55698
 Alpha virt. eigenvalues --    0.55983   0.56103   0.56229   0.56452   0.56520
 Alpha virt. eigenvalues --    0.56586   0.56645   0.57032   0.57262   0.57434
 Alpha virt. eigenvalues --    0.57561   0.57728   0.57980   0.58178   0.58240
 Alpha virt. eigenvalues --    0.58558   0.58697   0.58874   0.59052   0.59219
 Alpha virt. eigenvalues --    0.59399   0.59550   0.59747   0.59796   0.59818
 Alpha virt. eigenvalues --    0.59932   0.60013   0.60293   0.60564   0.60667
 Alpha virt. eigenvalues --    0.60752   0.60819   0.61144   0.61279   0.61572
 Alpha virt. eigenvalues --    0.61742   0.61836   0.61985   0.62101   0.62209
 Alpha virt. eigenvalues --    0.62369   0.62405   0.62606   0.62681   0.62839
 Alpha virt. eigenvalues --    0.63002   0.63151   0.63300   0.63398   0.63494
 Alpha virt. eigenvalues --    0.63668   0.63700   0.63743   0.63952   0.64051
 Alpha virt. eigenvalues --    0.64141   0.64182   0.64262   0.64429   0.64605
 Alpha virt. eigenvalues --    0.64665   0.64716   0.64866   0.65010   0.65149
 Alpha virt. eigenvalues --    0.65420   0.65544   0.65592   0.65751   0.65929
 Alpha virt. eigenvalues --    0.65957   0.66123   0.66247   0.66257   0.66412
 Alpha virt. eigenvalues --    0.66446   0.66608   0.66667   0.66868   0.66919
 Alpha virt. eigenvalues --    0.67260   0.67450   0.67595   0.67678   0.67764
 Alpha virt. eigenvalues --    0.67830   0.67970   0.68108   0.68314   0.68353
 Alpha virt. eigenvalues --    0.68425   0.68609   0.68723   0.68791   0.68981
 Alpha virt. eigenvalues --    0.69108   0.69204   0.69309   0.69511   0.69518
 Alpha virt. eigenvalues --    0.69786   0.69859   0.69979   0.70016   0.70131
 Alpha virt. eigenvalues --    0.70210   0.70332   0.70464   0.70607   0.70726
 Alpha virt. eigenvalues --    0.70845   0.70935   0.71070   0.71080   0.71322
 Alpha virt. eigenvalues --    0.71505   0.71652   0.71901   0.72034   0.72075
 Alpha virt. eigenvalues --    0.72335   0.72600   0.72690   0.72894   0.73090
 Alpha virt. eigenvalues --    0.73220   0.73304   0.73692   0.74093   0.74226
 Alpha virt. eigenvalues --    0.74308   0.74431   0.74808   0.74980   0.75109
 Alpha virt. eigenvalues --    0.75175   0.75409   0.75461   0.75851   0.76016
 Alpha virt. eigenvalues --    0.76141   0.76400   0.76456   0.76896   0.77011
 Alpha virt. eigenvalues --    0.77457   0.77497   0.77753   0.77858   0.78379
 Alpha virt. eigenvalues --    0.78552   0.78697   0.79156   0.79380   0.79579
 Alpha virt. eigenvalues --    0.79795   0.80000   0.80194   0.80485   0.80742
 Alpha virt. eigenvalues --    0.80969   0.81011   0.81310   0.81735   0.81790
 Alpha virt. eigenvalues --    0.82106   0.82177   0.82793   0.82846   0.83207
 Alpha virt. eigenvalues --    0.83456   0.83569   0.83889   0.84158   0.84507
 Alpha virt. eigenvalues --    0.84695   0.84830   0.85107   0.85461   0.85560
 Alpha virt. eigenvalues --    0.86036   0.86245   0.86824   0.87084   0.87279
 Alpha virt. eigenvalues --    0.87695   0.87939   0.88273   0.88519   0.88731
 Alpha virt. eigenvalues --    0.88752   0.89165   0.89545   0.89752   0.89957
 Alpha virt. eigenvalues --    0.90232   0.90385   0.91319   0.91465   0.91605
 Alpha virt. eigenvalues --    0.91906   0.92379   0.92510   0.92606   0.93169
 Alpha virt. eigenvalues --    0.93416   0.93552   0.93853   0.94135   0.94495
 Alpha virt. eigenvalues --    0.94624   0.94798   0.95219   0.95396   0.95953
 Alpha virt. eigenvalues --    0.96123   0.96403   0.96553   0.96648   0.97081
 Alpha virt. eigenvalues --    0.97325   0.97970   0.98137   0.98267   0.98644
 Alpha virt. eigenvalues --    0.98757   0.99059   0.99149   0.99825   1.00179
 Alpha virt. eigenvalues --    1.00544   1.00794   1.00991   1.01403   1.01840
 Alpha virt. eigenvalues --    1.02084   1.02293   1.02393   1.02788   1.03033
 Alpha virt. eigenvalues --    1.03297   1.03944   1.04190   1.04415   1.04621
 Alpha virt. eigenvalues --    1.04997   1.05337   1.05416   1.05608   1.05756
 Alpha virt. eigenvalues --    1.06146   1.06431   1.06553   1.06939   1.07140
 Alpha virt. eigenvalues --    1.07437   1.07858   1.08091   1.08663   1.08830
 Alpha virt. eigenvalues --    1.09150   1.09710   1.09948   1.10319   1.10593
 Alpha virt. eigenvalues --    1.10996   1.11089   1.11218   1.11388   1.11627
 Alpha virt. eigenvalues --    1.12076   1.12202   1.12846   1.13029   1.13231
 Alpha virt. eigenvalues --    1.13561   1.13663   1.13955   1.14307   1.14535
 Alpha virt. eigenvalues --    1.14891   1.15188   1.15222   1.15497   1.15804
 Alpha virt. eigenvalues --    1.16006   1.16140   1.16446   1.16709   1.16818
 Alpha virt. eigenvalues --    1.16940   1.17359   1.17759   1.18155   1.18487
 Alpha virt. eigenvalues --    1.18898   1.19170   1.19210   1.19348   1.19514
 Alpha virt. eigenvalues --    1.19726   1.20068   1.20447   1.20597   1.21045
 Alpha virt. eigenvalues --    1.21468   1.21747   1.21833   1.22186   1.22326
 Alpha virt. eigenvalues --    1.22482   1.22856   1.23007   1.23555   1.23778
 Alpha virt. eigenvalues --    1.24074   1.24212   1.24459   1.24722   1.24974
 Alpha virt. eigenvalues --    1.25027   1.25570   1.25664   1.25985   1.26092
 Alpha virt. eigenvalues --    1.26439   1.26593   1.26875   1.27117   1.27619
 Alpha virt. eigenvalues --    1.27835   1.28023   1.28199   1.28337   1.28521
 Alpha virt. eigenvalues --    1.28638   1.28989   1.29386   1.29671   1.29901
 Alpha virt. eigenvalues --    1.30747   1.30791   1.30911   1.31141   1.31359
 Alpha virt. eigenvalues --    1.31605   1.31714   1.31789   1.32170   1.32705
 Alpha virt. eigenvalues --    1.32816   1.33075   1.33365   1.33650   1.34275
 Alpha virt. eigenvalues --    1.34441   1.35024   1.35260   1.35944   1.36292
 Alpha virt. eigenvalues --    1.36502   1.36675   1.36860   1.37231   1.37376
 Alpha virt. eigenvalues --    1.37518   1.37798   1.37920   1.38140   1.38455
 Alpha virt. eigenvalues --    1.38620   1.38865   1.39516   1.39724   1.40127
 Alpha virt. eigenvalues --    1.40271   1.40457   1.40872   1.41196   1.41317
 Alpha virt. eigenvalues --    1.41695   1.41981   1.42327   1.42485   1.42826
 Alpha virt. eigenvalues --    1.42886   1.43329   1.43737   1.44135   1.44293
 Alpha virt. eigenvalues --    1.44492   1.44904   1.45192   1.45410   1.45866
 Alpha virt. eigenvalues --    1.46124   1.46363   1.46670   1.46971   1.47051
 Alpha virt. eigenvalues --    1.47804   1.47906   1.48074   1.48401   1.48594
 Alpha virt. eigenvalues --    1.48845   1.49162   1.49531   1.49708   1.50070
 Alpha virt. eigenvalues --    1.50150   1.50285   1.50708   1.51029   1.51120
 Alpha virt. eigenvalues --    1.51528   1.51630   1.51773   1.52527   1.52571
 Alpha virt. eigenvalues --    1.52827   1.53241   1.53343   1.53512   1.53562
 Alpha virt. eigenvalues --    1.53767   1.54030   1.54384   1.54495   1.54945
 Alpha virt. eigenvalues --    1.55119   1.55450   1.55998   1.56623   1.56963
 Alpha virt. eigenvalues --    1.57291   1.57728   1.58499   1.58684   1.58960
 Alpha virt. eigenvalues --    1.59152   1.59331   1.59794   1.60319   1.60469
 Alpha virt. eigenvalues --    1.60992   1.61062   1.61202   1.61451   1.61661
 Alpha virt. eigenvalues --    1.61717   1.61752   1.62521   1.62997   1.63179
 Alpha virt. eigenvalues --    1.63801   1.64071   1.64323   1.64400   1.64995
 Alpha virt. eigenvalues --    1.65182   1.65333   1.65731   1.66123   1.66276
 Alpha virt. eigenvalues --    1.66515   1.66632   1.67060   1.67385   1.67747
 Alpha virt. eigenvalues --    1.67948   1.68503   1.68781   1.69151   1.69669
 Alpha virt. eigenvalues --    1.69861   1.69908   1.70244   1.70455   1.70850
 Alpha virt. eigenvalues --    1.70972   1.71182   1.71441   1.71531   1.71685
 Alpha virt. eigenvalues --    1.72014   1.72247   1.72481   1.72631   1.72726
 Alpha virt. eigenvalues --    1.72858   1.73012   1.73423   1.73609   1.73772
 Alpha virt. eigenvalues --    1.74007   1.74271   1.74413   1.74716   1.74914
 Alpha virt. eigenvalues --    1.75242   1.75307   1.75595   1.75672   1.75776
 Alpha virt. eigenvalues --    1.75892   1.76148   1.76200   1.76337   1.76563
 Alpha virt. eigenvalues --    1.76634   1.76947   1.77195   1.77553   1.77806
 Alpha virt. eigenvalues --    1.77950   1.78310   1.78628   1.78765   1.78873
 Alpha virt. eigenvalues --    1.78948   1.79236   1.79349   1.79456   1.79783
 Alpha virt. eigenvalues --    1.79850   1.80010   1.80402   1.80457   1.80528
 Alpha virt. eigenvalues --    1.80740   1.80820   1.80968   1.81101   1.81205
 Alpha virt. eigenvalues --    1.81387   1.81527   1.81713   1.81981   1.82124
 Alpha virt. eigenvalues --    1.82449   1.82601   1.82852   1.82898   1.83048
 Alpha virt. eigenvalues --    1.83142   1.83259   1.83534   1.83659   1.83773
 Alpha virt. eigenvalues --    1.83946   1.84038   1.84359   1.84462   1.84735
 Alpha virt. eigenvalues --    1.85166   1.85386   1.85530   1.85650   1.85693
 Alpha virt. eigenvalues --    1.85884   1.86038   1.86230   1.86357   1.86513
 Alpha virt. eigenvalues --    1.86852   1.87141   1.87687   1.87717   1.87888
 Alpha virt. eigenvalues --    1.88120   1.88322   1.88738   1.88904   1.89091
 Alpha virt. eigenvalues --    1.89289   1.89516   1.89588   1.89731   1.89998
 Alpha virt. eigenvalues --    1.90116   1.90293   1.90489   1.90845   1.90971
 Alpha virt. eigenvalues --    1.91108   1.91313   1.91601   1.91736   1.91934
 Alpha virt. eigenvalues --    1.92180   1.92389   1.92418   1.92777   1.92981
 Alpha virt. eigenvalues --    1.93191   1.93437   1.93699   1.93985   1.94128
 Alpha virt. eigenvalues --    1.94205   1.94368   1.94537   1.94957   1.95067
 Alpha virt. eigenvalues --    1.95259   1.95489   1.95707   1.95958   1.95960
 Alpha virt. eigenvalues --    1.96127   1.96405   1.96495   1.96883   1.96961
 Alpha virt. eigenvalues --    1.97218   1.97452   1.97727   1.97969   1.98090
 Alpha virt. eigenvalues --    1.98376   1.98512   1.98720   1.98860   1.99232
 Alpha virt. eigenvalues --    1.99327   1.99459   1.99790   2.00007   2.00375
 Alpha virt. eigenvalues --    2.00511   2.00599   2.01491   2.02025   2.02180
 Alpha virt. eigenvalues --    2.02432   2.02567   2.02880   2.02990   2.03214
 Alpha virt. eigenvalues --    2.03327   2.03743   2.03947   2.04205   2.04987
 Alpha virt. eigenvalues --    2.05028   2.05268   2.05370   2.05640   2.05922
 Alpha virt. eigenvalues --    2.06033   2.06188   2.06494   2.06658   2.07096
 Alpha virt. eigenvalues --    2.07553   2.07931   2.08061   2.08406   2.08578
 Alpha virt. eigenvalues --    2.08740   2.09100   2.09313   2.09350   2.09431
 Alpha virt. eigenvalues --    2.09854   2.10514   2.10614   2.10941   2.11311
 Alpha virt. eigenvalues --    2.11490   2.11765   2.12352   2.12471   2.12572
 Alpha virt. eigenvalues --    2.12683   2.13089   2.13654   2.13943   2.13984
 Alpha virt. eigenvalues --    2.14245   2.14525   2.14690   2.14725   2.15221
 Alpha virt. eigenvalues --    2.15415   2.15652   2.16031   2.16471   2.16778
 Alpha virt. eigenvalues --    2.17007   2.17452   2.17544   2.17802   2.18084
 Alpha virt. eigenvalues --    2.18490   2.18890   2.18986   2.19442   2.19566
 Alpha virt. eigenvalues --    2.19896   2.20032   2.20677   2.20939   2.21396
 Alpha virt. eigenvalues --    2.21593   2.21791   2.22139   2.22509   2.22768
 Alpha virt. eigenvalues --    2.22865   2.23299   2.23364   2.23571   2.23789
 Alpha virt. eigenvalues --    2.24217   2.24766   2.24983   2.25185   2.25321
 Alpha virt. eigenvalues --    2.25973   2.26516   2.26717   2.27588   2.27890
 Alpha virt. eigenvalues --    2.27973   2.28520   2.29057   2.29292   2.29472
 Alpha virt. eigenvalues --    2.29791   2.30245   2.30507   2.31053   2.31390
 Alpha virt. eigenvalues --    2.31614   2.32203   2.32708   2.33033   2.33299
 Alpha virt. eigenvalues --    2.33535   2.34023   2.34244   2.34764   2.34782
 Alpha virt. eigenvalues --    2.34933   2.35293   2.35562   2.36188   2.36428
 Alpha virt. eigenvalues --    2.36735   2.36981   2.37006   2.37255   2.37483
 Alpha virt. eigenvalues --    2.37671   2.37970   2.38074   2.38552   2.38969
 Alpha virt. eigenvalues --    2.39242   2.39419   2.39568   2.39738   2.39774
 Alpha virt. eigenvalues --    2.40309   2.40880   2.40884   2.41226   2.41549
 Alpha virt. eigenvalues --    2.41735   2.42057   2.42092   2.42724   2.42972
 Alpha virt. eigenvalues --    2.43317   2.43476   2.43504   2.44503   2.44700
 Alpha virt. eigenvalues --    2.45307   2.45721   2.45894   2.46041   2.46728
 Alpha virt. eigenvalues --    2.47037   2.47343   2.47767   2.47988   2.48331
 Alpha virt. eigenvalues --    2.48667   2.48902   2.49215   2.49513   2.49694
 Alpha virt. eigenvalues --    2.50315   2.50447   2.50860   2.51344   2.51392
 Alpha virt. eigenvalues --    2.51649   2.51903   2.52377   2.52580   2.52883
 Alpha virt. eigenvalues --    2.53169   2.53933   2.54838   2.55221   2.55543
 Alpha virt. eigenvalues --    2.56047   2.56324   2.56475   2.56852   2.57127
 Alpha virt. eigenvalues --    2.57264   2.57467   2.57705   2.57788   2.58508
 Alpha virt. eigenvalues --    2.58768   2.58958   2.59470   2.59680   2.59886
 Alpha virt. eigenvalues --    2.60326   2.60650   2.60900   2.61437   2.62111
 Alpha virt. eigenvalues --    2.62201   2.62521   2.62625   2.62769   2.62850
 Alpha virt. eigenvalues --    2.63223   2.63967   2.64025   2.64558   2.64972
 Alpha virt. eigenvalues --    2.65073   2.65337   2.65836   2.66054   2.66127
 Alpha virt. eigenvalues --    2.66498   2.66696   2.66768   2.67026   2.67077
 Alpha virt. eigenvalues --    2.67375   2.67706   2.67981   2.68168   2.68313
 Alpha virt. eigenvalues --    2.69077   2.69824   2.70367   2.70499   2.70795
 Alpha virt. eigenvalues --    2.71176   2.71382   2.71709   2.71862   2.71984
 Alpha virt. eigenvalues --    2.72064   2.72594   2.72678   2.72970   2.73350
 Alpha virt. eigenvalues --    2.73559   2.73946   2.74093   2.74269   2.74377
 Alpha virt. eigenvalues --    2.75650   2.76015   2.76277   2.76297   2.76476
 Alpha virt. eigenvalues --    2.76954   2.77169   2.77453   2.77491   2.77713
 Alpha virt. eigenvalues --    2.77931   2.78278   2.78422   2.78527   2.78613
 Alpha virt. eigenvalues --    2.79029   2.79814   2.79967   2.80339   2.80414
 Alpha virt. eigenvalues --    2.80499   2.80969   2.81177   2.81638   2.81767
 Alpha virt. eigenvalues --    2.82121   2.82505   2.82653   2.82950   2.83334
 Alpha virt. eigenvalues --    2.83654   2.83810   2.84051   2.84179   2.84729
 Alpha virt. eigenvalues --    2.85056   2.85328   2.85451   2.85527   2.86318
 Alpha virt. eigenvalues --    2.86625   2.87157   2.87305   2.87549   2.87640
 Alpha virt. eigenvalues --    2.88023   2.88437   2.88453   2.88539   2.89077
 Alpha virt. eigenvalues --    2.89361   2.89691   2.90140   2.90258   2.90423
 Alpha virt. eigenvalues --    2.90844   2.91184   2.91374   2.91684   2.92213
 Alpha virt. eigenvalues --    2.92603   2.92784   2.93025   2.93074   2.93355
 Alpha virt. eigenvalues --    2.93397   2.93709   2.94049   2.94284   2.94407
 Alpha virt. eigenvalues --    2.94965   2.95417   2.95584   2.95794   2.96111
 Alpha virt. eigenvalues --    2.96704   2.97192   2.97590   2.98166   2.98220
 Alpha virt. eigenvalues --    2.98507   2.98986   2.99437   2.99670   3.00199
 Alpha virt. eigenvalues --    3.00497   3.00728   3.01180   3.01323   3.01829
 Alpha virt. eigenvalues --    3.01926   3.02359   3.03164   3.03807   3.04093
 Alpha virt. eigenvalues --    3.04186   3.04340   3.04436   3.04838   3.05442
 Alpha virt. eigenvalues --    3.05501   3.05786   3.06046   3.06198   3.06405
 Alpha virt. eigenvalues --    3.06639   3.07217   3.07654   3.08716   3.08917
 Alpha virt. eigenvalues --    3.08972   3.09202   3.09879   3.10067   3.10219
 Alpha virt. eigenvalues --    3.10572   3.10917   3.12095   3.12410   3.12920
 Alpha virt. eigenvalues --    3.13131   3.14726   3.15062   3.15301   3.15918
 Alpha virt. eigenvalues --    3.16527   3.17000   3.17136   3.17764   3.17866
 Alpha virt. eigenvalues --    3.18173   3.18232   3.18460   3.19153   3.19311
 Alpha virt. eigenvalues --    3.19681   3.20094   3.20143   3.20412   3.21191
 Alpha virt. eigenvalues --    3.21427   3.22129   3.22294   3.22629   3.22871
 Alpha virt. eigenvalues --    3.23304   3.23564   3.23671   3.24704   3.24752
 Alpha virt. eigenvalues --    3.25248   3.25694   3.26814   3.28375   3.28642
 Alpha virt. eigenvalues --    3.29536   3.29766   3.30001   3.30245   3.30460
 Alpha virt. eigenvalues --    3.30561   3.31117   3.31378   3.32022   3.32703
 Alpha virt. eigenvalues --    3.35636   3.36879   3.37874   3.38846   3.40151
 Alpha virt. eigenvalues --    3.42026   3.45210   3.46872   3.48764   3.52111
 Alpha virt. eigenvalues --    3.53416   3.54044   3.54212   3.55281   3.56404
 Alpha virt. eigenvalues --    3.56437   3.58934   3.59195   3.59720   3.61169
 Alpha virt. eigenvalues --    3.61245   3.62949   3.63192   3.63467   3.63836
 Alpha virt. eigenvalues --    3.64662   3.66053   3.66227   3.66339   3.67186
 Alpha virt. eigenvalues --    3.67699   3.69289   3.69380   3.69496   3.69912
 Alpha virt. eigenvalues --    3.70826   3.72105   3.72293   3.72628   3.73131
 Alpha virt. eigenvalues --    3.73211   3.74038   3.74349   3.74791   3.75229
 Alpha virt. eigenvalues --    3.80820   3.81152   3.83312   3.84369
          Condensed to atoms (all electrons):
 Mulliken charges:
               1
     1  C    0.055484
     2  C    0.032215
     3  O   -0.283684
     4  H    0.040957
     5  H   -0.020715
     6  H    0.036949
     7  N   -0.121690
     8  C    0.138819
     9  C    0.063010
    10  O   -0.282965
    11  C    0.021348
    12  C    0.167152
    13  O   -0.466215
    14  O   -0.386777
    15  H    0.126123
    16  H    0.015504
    17  H    0.024689
    18  H   -0.001839
    19  N   -0.137143
    20  C    0.137133
    21  C    0.078936
    22  O   -0.267071
    23  C   -0.023353
    24  C   -0.016047
    25  C    0.008720
    26  C    0.018288
    27  N    0.075639
    28  H    0.125073
    29  H   -0.002899
    30  H   -0.000895
    31  H    0.034358
    32  H   -0.010686
    33  H    0.025675
    34  H    0.061463
    35  H    0.039331
    36  H    0.076106
    37  H    0.057825
    38  H    0.184951
    39  H    0.205077
    40  H    0.206335
    41  N   -0.140266
    42  C    0.127288
    43  C    0.046933
    44  O   -0.279268
    45  C    0.070344
    46  C    0.138458
    47  O   -0.439519
    48  O   -0.396783
    49  H    0.102207
    50  H    0.003499
    51  H   -0.009683
    52  H    0.033145
    53  N   -0.171390
    54  C    0.248024
    55  C    0.043773
    56  O   -0.290893
    57  H    0.143868
    58  H    0.014123
    59  H    0.032702
    60  N   -0.162336
    61  C    0.184627
    62  C    0.035210
    63  O   -0.305289
    64  C    0.075104
    65  C    0.096477
    66  N   -0.031429
    67  O   -0.351048
    68  H    0.164210
    69  H    0.018671
    70  H    0.033753
    71  H   -0.021480
    72  H    0.125831
    73  H    0.125489
    74  N   -0.174652
    75  C    0.267386
    76  C    0.003536
    77  O   -0.297809
    78  H    0.141831
    79  H    0.043447
    80  H    0.026002
    81  N   -0.140956
    82  C    0.134980
    83  C    0.134490
    84  O   -0.329977
    85  C    0.141253
    86  C   -0.010765
    87  C   -0.006837
    88  C    0.039775
    89  C   -0.031280
    90  C   -0.035187
    91  C    0.179692
    92  O   -0.213622
    93  H    0.162797
    94  H   -0.008104
    95  H   -0.016295
    96  H   -0.050641
    97  H   -0.061788
    98  H   -0.034179
    99  H   -0.028782
   100  H   -0.056899
   101  H    0.177416
   102  N   -0.122477
   103  C    0.144780
   104  C    0.054817
   105  O   -0.292253
   106  C   -0.087485
   107  C    0.026372
   108  C    0.015010
   109  C    0.035859
   110  H    0.136023
   111  H    0.002213
   112  H   -0.015394
   113  H   -0.006962
   114  H    0.014463
   115  H    0.032206
   116  H   -0.002904
   117  H    0.018975
   118  H   -0.007437
   119  H    0.019163
   120  H   -0.011075
   121  N   -0.114221
   122  C    0.109959
   123  C    0.085819
   124  O   -0.295937
   125  C    0.248108
   126  O   -0.353584
   127  H    0.131191
   128  H    0.029239
   129  H    0.005312
   130  H   -0.019953
   131  H    0.173167
   132  N   -0.115609
   133  C    0.092882
   134  C    0.036550
   135  O   -0.273987
   136  C    0.043068
   137  H    0.115490
   138  H    0.026045
   139  H    0.047032
   140  H    0.002483
   141  H    0.043454
   142  N   -0.152083
   143  C    0.095772
   144  C    0.065052
   145  O   -0.304039
   146  C    0.052946
   147  H    0.110782
   148  H    0.027750
   149  H    0.032020
   150  H    0.013025
   151  H    0.027554
   152  N   -0.142909
   153  C    0.141393
   154  C    0.044298
   155  O   -0.270791
   156  C    0.005572
   157  C    0.121443
   158  C    0.096832
   159  O   -0.440539
   160  O   -0.387250
   161  H    0.141396
   162  H   -0.027782
   163  H    0.053385
   164  H    0.031200
   165  H   -0.033981
   166  H   -0.015793
   167  N   -0.162816
   168  C    0.142164
   169  H    0.024297
   170  H    0.022033
   171  H    0.012892
   172  H    0.128608
   173  Ca   1.328121
   174  O   -0.327235
   175  H    0.171427
   176  H    0.150484
 Sum of Mulliken charges =   0.00000
 Mulliken charges with hydrogens summed into heavy atoms:
               1
     1  C    0.112674
     2  C    0.032215
     3  O   -0.283684
     7  N    0.004433
     8  C    0.154324
     9  C    0.063010
    10  O   -0.282965
    11  C    0.044197
    12  C    0.167152
    13  O   -0.466215
    14  O   -0.386777
    19  N   -0.012070
    20  C    0.134234
    21  C    0.078936
    22  O   -0.267071
    23  C    0.010109
    24  C   -0.001058
    25  C    0.109514
    26  C    0.152220
    27  N    0.672002
    41  N   -0.038059
    42  C    0.130788
    43  C    0.046933
    44  O   -0.279268
    45  C    0.093806
    46  C    0.138458
    47  O   -0.439519
    48  O   -0.396783
    53  N   -0.027522
    54  C    0.294850
    55  C    0.043773
    56  O   -0.290893
    60  N    0.001874
    61  C    0.203299
    62  C    0.035210
    63  O   -0.305289
    64  C    0.087377
    65  C    0.096477
    66  N    0.219891
    67  O   -0.351048
    74  N   -0.032821
    75  C    0.336835
    76  C    0.003536
    77  O   -0.297809
    81  N    0.021840
    82  C    0.126876
    83  C    0.134490
    84  O   -0.329977
    85  C    0.074317
    86  C   -0.010765
    87  C   -0.068625
    88  C    0.005596
    89  C   -0.060061
    90  C   -0.092086
    91  C    0.179692
    92  O   -0.036206
   102  N    0.013545
   103  C    0.146993
   104  C    0.054817
   105  O   -0.292253
   106  C   -0.102879
   107  C    0.033873
   108  C    0.063288
   109  C    0.036511
   121  N    0.016970
   122  C    0.139198
   123  C    0.085819
   124  O   -0.295937
   125  C    0.233467
   126  O   -0.180417
   132  N   -0.000119
   133  C    0.118927
   134  C    0.036550
   135  O   -0.273987
   136  C    0.136037
   142  N   -0.041301
   143  C    0.123523
   144  C    0.065052
   145  O   -0.304039
   146  C    0.125545
   152  N   -0.001512
   153  C    0.113611
   154  C    0.044298
   155  O   -0.270791
   156  C    0.090157
   157  C    0.071669
   158  C    0.096832
   159  O   -0.440539
   160  O   -0.387250
   167  N   -0.034208
   168  C    0.201386
   173  Ca   1.328121
   174  O   -0.005324
 DipInt: DoE/N= T F RetVal/Mat= T F Init=T NMatP=  1 IDeriv=0 Min/MaxMlt=  0  4
 Entering OneElI...
 OneElI was handed  4286741430 working-precision words.
 Multipole integrals L=0 to 4 MinM= 0 MaxM= 0.
 Requested accuracy = 0.1000D-12
 ShPair: Thresh= 1.00D-13 NBox=     0 BxSize= 0.00D+00 RnKept= 2.55D+01
         NSMCal=               327645 NSMKep=              163798
 PrsmSu:  NPrtUS=   1 ThrOK=F IAlg=1 NPAlg=1 LenDen=           0.
 Prism:   IPart=     0 DynPar=F LinDyn=F Incr=         512.
 PRISM was handed  4276533966 working-precision words and163798 shell-pairs
 IPart=  0 NShTot=      163798 NBatch=         459 AvBLen=       356.9
 PrSmSu:  NxtVal=            513.
 Electronic moments (au):
       -716.00000000         14.16057836         -0.22787454         -7.19125902
     -53099.34691720     -27707.66082890     -12524.46832242        105.10194172
        -43.87687256        -27.17908521     -45366.01311030     -14881.21198097
     -23999.17748462      31138.20397140      94749.35317670      53004.77455238
     -15134.84859811      -1043.97582454      19885.50996429       -704.08982078
   -7863219.23078851   -2300979.91499602    -660362.91269631    -360972.59984504
     204457.56829606    -354567.94040161      25490.14932231    -107424.02474914
      19962.16721039   -2153360.39705384    -685223.93864869    -310479.87662725
    -205807.27354560      37965.40594766      25200.89872262
 Electronic spatial extent (au):  <R**2>=          93331.4761
 DipInt: DoE/N= F T RetVal/Mat= T F Init=T NMatP=  1 IDeriv=0 Min/MaxMlt=  0  4
 Nuclear    moments (au):
        716.00000000          0.00000000          0.00000000          0.00000000
      52664.67990788      27338.57191579      12138.08498223          0.00000000
          0.00000000          0.00000000      47245.14711523      15147.01917788
      23889.26298840     -29288.92700518     -94327.51091443     -53864.29719609
      15242.29657680        984.92829512     -20347.31091598        506.57231860
    7666794.95575284    2211369.28728374     619923.22637518     374561.13093308
    -211653.91871520     373141.81555744     -29408.54107260     107507.17641244
     -19382.79414190    2122116.44630274     649934.28549350     287614.66495263
     202482.31740274     -43768.27340656     -25610.49320558
 Total      moments (au):
          0.00000000         14.16057836         -0.22787454         -7.19125902
       -434.66700932       -369.08891311       -386.38334019        105.10194172
        -43.87687256        -27.17908521       1879.13400493        265.80719691
       -109.91449622       1849.27696623        421.84226228       -859.52264370
        107.44797869        -59.04752942       -461.80095169       -197.51750218
    -196424.27503567     -89610.62771228     -40439.68632113      13588.53108805
      -7196.35041914      18573.87515583      -3918.39175029         83.15166330
        579.37306849     -31243.95075110     -35289.65315519     -22865.21167462
      -3324.95614286      -5802.86745890       -409.59448295
 Traceless Quadrup. (au):
        -37.95392178         27.62417443         10.32974735        105.10194172
        -43.87687256        -27.17908521
 Charge=              0.0000 electrons
 Dipole moment (field-independent basis, Debye):
    X=             35.9926    Y=             -0.5792    Z=            -18.2784  Tot=             40.3720
 Quadrupole moment (field-independent basis, Debye-Ang):
   XX=           -584.6420   YY=           -496.4372   ZZ=           -519.6988
   XY=            141.3657   XZ=            -59.0159   YZ=            -36.5568
 Traceless Quadrupole moment (field-independent basis, Debye-Ang):
   XX=            -51.0493   YY=             37.1555   ZZ=             13.8939
   XY=            141.3657   XZ=            -59.0159   YZ=            -36.5568
 Octapole moment (field-independent basis, Debye-Ang**2):
  XXX=           1337.4951  YYY=            189.1913  ZZZ=            -78.2329  XYY=           1316.2440
  XXY=            300.2511  XXZ=           -611.7751  XZZ=             76.4773  YZZ=            -42.0278
  YYZ=           -328.6921  XYZ=           -140.5853
 Hexadecapole moment (field-independent basis, Debye-Ang**3):
 XXXX=         -73982.7959 YYYY=         -33751.6571 ZZZZ=         -15231.5240 XXXY=           5118.0921
 XXXZ=          -2710.4905 YYYX=           6995.8116 YYYZ=          -1475.8541 ZZZX=             31.3189
 ZZZY=            218.2197 XXYY=         -11767.9693 XXZZ=         -13291.7747 YYZZ=          -8612.1346
 XXYZ=          -1252.3378 YYXZ=          -2185.6380 ZZXY=           -154.2729
 N-N= 2.186017081192D+04 E-N=-5.619973226878D+04  KE= 5.290665914442D+03
 Leave Link  601 at Mon Sep 16 19:07:13 2019, MaxMem=  4294967296 cpu:        22.1
 FitSet:  NAtFit=   176 NAtPot=   176 NAtFrz=     0 MDM=   180 TotChg=   0.00000
 Merz-Kollman atomic radii used.
 Read replacement radii for each type of atom:
 Rad(20) =   1.700000000000D+00
 Atom Element Radius
    1     6    1.50
    2     6    1.50
    3     8    1.40
    4     1    1.20
    5     1    1.20
    6     1    1.20
    7     7    1.50
    8     6    1.50
    9     6    1.50
   10     8    1.40
   11     6    1.50
   12     6    1.50
   13     8    1.40
   14     8    1.40
   15     1    1.20
   16     1    1.20
   17     1    1.20
   18     1    1.20
   19     7    1.50
   20     6    1.50
   21     6    1.50
   22     8    1.40
   23     6    1.50
   24     6    1.50
   25     6    1.50
   26     6    1.50
   27     7    1.50
   28     1    1.20
   29     1    1.20
   30     1    1.20
   31     1    1.20
   32     1    1.20
   33     1    1.20
   34     1    1.20
   35     1    1.20
   36     1    1.20
   37     1    1.20
   38     1    1.20
   39     1    1.20
   40     1    1.20
   41     7    1.50
   42     6    1.50
   43     6    1.50
   44     8    1.40
   45     6    1.50
   46     6    1.50
   47     8    1.40
   48     8    1.40
   49     1    1.20
   50     1    1.20
   51     1    1.20
   52     1    1.20
   53     7    1.50
   54     6    1.50
   55     6    1.50
   56     8    1.40
   57     1    1.20
   58     1    1.20
   59     1    1.20
   60     7    1.50
   61     6    1.50
   62     6    1.50
   63     8    1.40
   64     6    1.50
   65     6    1.50
   66     7    1.50
   67     8    1.40
   68     1    1.20
   69     1    1.20
   70     1    1.20
   71     1    1.20
   72     1    1.20
   73     1    1.20
   74     7    1.50
   75     6    1.50
   76     6    1.50
   77     8    1.40
   78     1    1.20
   79     1    1.20
   80     1    1.20
   81     7    1.50
   82     6    1.50
   83     6    1.50
   84     8    1.40
   85     6    1.50
   86     6    1.50
   87     6    1.50
   88     6    1.50
   89     6    1.50
   90     6    1.50
   91     6    1.50
   92     8    1.40
   93     1    1.20
   94     1    1.20
   95     1    1.20
   96     1    1.20
   97     1    1.20
   98     1    1.20
   99     1    1.20
  100     1    1.20
  101     1    1.20
  102     7    1.50
  103     6    1.50
  104     6    1.50
  105     8    1.40
  106     6    1.50
  107     6    1.50
  108     6    1.50
  109     6    1.50
  110     1    1.20
  111     1    1.20
  112     1    1.20
  113     1    1.20
  114     1    1.20
  115     1    1.20
  116     1    1.20
  117     1    1.20
  118     1    1.20
  119     1    1.20
  120     1    1.20
  121     7    1.50
  122     6    1.50
  123     6    1.50
  124     8    1.40
  125     6    1.50
  126     8    1.40
  127     1    1.20
  128     1    1.20
  129     1    1.20
  130     1    1.20
  131     1    1.20
  132     7    1.50
  133     6    1.50
  134     6    1.50
  135     8    1.40
  136     6    1.50
  137     1    1.20
  138     1    1.20
  139     1    1.20
  140     1    1.20
  141     1    1.20
  142     7    1.50
  143     6    1.50
  144     6    1.50
  145     8    1.40
  146     6    1.50
  147     1    1.20
  148     1    1.20
  149     1    1.20
  150     1    1.20
  151     1    1.20
  152     7    1.50
  153     6    1.50
  154     6    1.50
  155     8    1.40
  156     6    1.50
  157     6    1.50
  158     6    1.50
  159     8    1.40
  160     8    1.40
  161     1    1.20
  162     1    1.20
  163     1    1.20
  164     1    1.20
  165     1    1.20
  166     1    1.20
  167     7    1.50
  168     6    1.50
  169     1    1.20
  170     1    1.20
  171     1    1.20
  172     1    1.20
  173    20    1.70
  174     8    1.40
  175     1    1.20
  176     1    1.20
 Generate VDW surfaces: Layer= 4 Dens= 6 Start= 1.400 Inc= 0.200

 **********************************************************************

            Electrostatic Properties Using The SCF Density

 **********************************************************************

       Atomic Center    1 is at   2.074733  1.249275  5.986354
       Atomic Center    2 is at   1.712627  1.405911  4.521348
       Atomic Center    3 is at   2.644938  1.590446  3.748662
[...]
 **** Fit       0.049924
 **** Fit       0.044173
 **** Fit       0.044322
 **** Fit       0.037719
 **** Fit       0.037624
 **** Fit       0.029589
 **** Fit       0.036462
 **** Fit       0.025982
 **** Fit       0.025842
 **** Fit       0.028012
 **** Fit       0.028937
 **** Fit       0.020151
 **** Fit       0.022199
 **** Fit       0.017314
 **** Fit       0.027575
 **** Fit       0.029228
 **** Fit       0.027465
 **** Fit       0.012178
 **** Fit       0.027689
 **** Fit       0.040699
 **** Fit       0.049353
 **** Fit       0.039601
 **** Fit       0.047470
 **** Fit       0.047529
 **** Fit       0.048724
 **** Fit       0.007256
 **** Fit      -0.003506
 **** Fit      -0.002969
 **** Fit      -0.004772
 **** Fit      -0.007059
 **** Fit      -0.009675
 **** Fit      -0.000080
 **** Fit      -0.000664
 **** Fit      -0.001617
 **** Fit      -0.002372
 **** Fit      -0.004006
 **** Fit      -0.006141
 **** Fit      -0.008868
 **** Fit      -0.012081
 **** Fit      -0.015355
 **** Fit       0.001002
 **** Fit       0.000572
 **** Fit      -0.000134
 **** Fit      -0.001108
 **** Fit      -0.001785
 **** Fit      -0.003139
 **** Fit      -0.013987
 **** Fit      -0.018075
 **** Fit      -0.021983
 **** Fit       0.002086
 **** Fit       0.002144
 **** Fit       0.001989
 **** Fit       0.001605
 **** Fit       0.001011
 **** Fit       0.000240
 **** Fit      -0.000686
 **** Fit      -0.001279
 **** Fit      -0.022999
 **** Fit      -0.028430
 **** Fit       0.002749
 **** Fit       0.003065
 **** Fit       0.003190
 **** Fit       0.003079
 **** Fit       0.002722
 **** Fit       0.002151
 **** Fit       0.001425
 **** Fit       0.000599
 **** Fit      -0.000297
 **** Fit       0.003222
 **** Fit       0.003770
 **** Fit       0.004164
 **** Fit       0.004339
 **** Fit       0.003863
 **** Fit       0.003248
 **** Fit       0.002474
 **** Fit       0.001624
 **** Fit       0.000762
 **** Fit      -0.000082
 **** Fit       0.003297
 **** Fit       0.004105
 **** Fit       0.004807
 **** Fit       0.002610
 **** Fit       0.001626
 **** Fit       0.000720
 **** Fit      -0.000082
 **** Fit       0.003051
 **** Fit       0.004123
 **** Fit       0.005119
 **** Fit       0.001300
 **** Fit       0.000364
 **** Fit      -0.000389
 **** Fit       0.003223
 **** Fit       0.004615
 **** Fit       0.005910
 **** Fit       0.000630
 **** Fit      -0.000346
 **** Fit       0.003638
 **** Fit       0.005548
 **** Fit      -0.001490
 **** Fit      -0.002226
 **** Fit       0.004001
 **** Fit       0.006602
 **** Fit      -0.003310
 **** Fit      -0.004021
 **** Fit       0.007786
 **** Fit      -0.006069
 **** Fit      -0.006661
 **** Fit      -0.010128
 **** Fit      -0.010456
 **** Fit      -0.015437
 **** Fit      -0.006837
 **** Fit      -0.009813
 **** Fit      -0.003659
 **** Fit      -0.005335
 **** Fit      -0.007678
 **** Fit      -0.010818
 **** Fit      -0.014614
 **** Fit      -0.002861
 **** Fit      -0.004231
 **** Fit      -0.006133
 **** Fit      -0.008778
 **** Fit      -0.012339
 **** Fit      -0.016841
 **** Fit      -0.021948
 **** Fit      -0.001816
 **** Fit      -0.002309
 **** Fit      -0.003457
 **** Fit      -0.005050
 **** Fit      -0.007303
 **** Fit      -0.010453
 **** Fit      -0.014746
 **** Fit      -0.020349
 **** Fit      -0.001418
 **** Fit      -0.002042
 **** Fit      -0.002979
 **** Fit      -0.004281
 **** Fit      -0.006129
 **** Fit      -0.008749
 **** Fit      -0.012424
 **** Fit      -0.017493
 **** Fit      -0.024313
 **** Fit      -0.000628
 **** Fit      -0.001308
 **** Fit      -0.002109
 **** Fit      -0.002913
 **** Fit      -0.004059
 **** Fit      -0.005725
 **** Fit      -0.008142
 **** Fit      -0.011620
 **** Fit      -0.016596
 **** Fit      -0.023662
 **** Fit      -0.000907
 **** Fit      -0.001490
 **** Fit      -0.002572
 **** Fit      -0.003241
 **** Fit      -0.004228
 **** Fit      -0.005695
 **** Fit      -0.007853
 **** Fit      -0.010999
 **** Fit      -0.015577
 **** Fit      -0.022266
 **** Fit      -0.001617
 **** Fit      -0.002079
 **** Fit      -0.003517
 **** Fit      -0.004071
 **** Fit      -0.004947
 **** Fit      -0.006298
 **** Fit      -0.008319
 **** Fit      -0.011293
 **** Fit      -0.015668
 **** Fit      -0.002828
 **** Fit      -0.003151
 **** Fit      -0.005055
 **** Fit      -0.005519
 **** Fit      -0.006371
 **** Fit      -0.007767
 **** Fit      -0.009912
 **** Fit      -0.013118
 **** Fit      -0.017904
 **** Fit      -0.004694
 **** Fit      -0.004834
 **** Fit      -0.007327
 **** Fit      -0.007693
 **** Fit      -0.008577
 **** Fit      -0.010141
 **** Fit      -0.012597
 **** Fit      -0.016283
 **** Fit      -0.007497
 **** Fit      -0.007323
 **** Fit      -0.010499
 **** Fit      -0.010717
 **** Fit      -0.011651
 **** Fit      -0.013440
 **** Fit      -0.016255
 **** Fit      -0.020359
 **** Fit      -0.010849
 **** Fit      -0.014726
 **** Fit      -0.014740
 **** Fit      -0.015902
 **** Fit      -0.018295
 **** Fit      -0.021954
 **** Fit      -0.020026
 **** Fit      -0.019667
 **** Fit      -0.021077
 **** Fit      -0.004761
 **** Fit      -0.004408
 **** Fit      -0.006371
 **** Fit      -0.006827
 **** Fit      -0.005121
 **** Fit      -0.003404
 **** Fit      -0.003115
 **** Fit      -0.004039
 **** Fit      -0.006102
 **** Fit      -0.008269
 **** Fit      -0.009671
 **** Fit      -0.009490
 **** Fit      -0.007780
 **** Fit      -0.005507
 **** Fit      -0.003558
 **** Fit      -0.002266
 **** Fit      -0.001670
 **** Fit      -0.001759
 **** Fit      -0.002547
 **** Fit      -0.003621
 **** Fit      -0.005606
 **** Fit      -0.007997
 **** Fit      -0.010502
 **** Fit      -0.012569
 **** Fit      -0.013544
 **** Fit      -0.013009
 **** Fit      -0.011087
 **** Fit      -0.008472
 **** Fit      -0.005947
 **** Fit      -0.003891
 **** Fit      -0.002358
 **** Fit      -0.001310
 **** Fit      -0.000687
 **** Fit      -0.000449
 **** Fit      -0.000590
 **** Fit      -0.001138
 **** Fit      -0.002135
 **** Fit      -0.010527
 **** Fit      -0.013641
 **** Fit      -0.016414
 **** Fit      -0.018207
 **** Fit      -0.018498
 **** Fit      -0.017114
 **** Fit      -0.014358
 **** Fit      -0.010998
 **** Fit      -0.007867
 **** Fit      -0.005322
 **** Fit      -0.003339
 **** Fit      -0.001844
 **** Fit      -0.000772
 **** Fit      -0.000044
 **** Fit       0.000403
 **** Fit       0.000593
 **** Fit       0.000520
 **** Fit       0.000155
 **** Fit      -0.022003
 **** Fit      -0.024577
 **** Fit      -0.025395
 **** Fit      -0.024223
 **** Fit      -0.021234
 **** Fit      -0.017034
 **** Fit      -0.012647
 **** Fit      -0.008925
 **** Fit      -0.006017
 **** Fit      -0.003739
 **** Fit      -0.001982
 **** Fit      -0.000694
 **** Fit       0.000220
 **** Fit       0.000868
 **** Fit       0.001311
 **** Fit       0.001563
 **** Fit       0.001607
 **** Fit      -0.030719
 **** Fit      -0.025945
 **** Fit      -0.020282
 **** Fit      -0.014888
 **** Fit      -0.010520
 **** Fit      -0.007152
 **** Fit      -0.004478
 **** Fit      -0.002358
 **** Fit      -0.000789
 **** Fit       0.000313
 **** Fit       0.001114
 **** Fit       0.001733
 **** Fit       0.002212
 **** Fit      -0.032688
 **** Fit      -0.025216
 **** Fit      -0.018305
 **** Fit      -0.012818
 **** Fit      -0.008682
 **** Fit       0.000556
 **** Fit       0.001477
 **** Fit       0.002236
 **** Fit      -0.030101
 **** Fit      -0.021770
 **** Fit       0.001708
 **** Fit       0.004687
 **** Fit       0.004759
 **** Fit       0.004526
 **** Fit       0.004032
 **** Fit       0.005408
 **** Fit       0.005738
 **** Fit       0.005752
 **** Fit       0.005460
 **** Fit       0.004909
 **** Fit       0.004166
 **** Fit       0.003308
 **** Fit       0.006058
 **** Fit       0.006619
 **** Fit       0.006866
 **** Fit       0.006785
 **** Fit       0.006401
 **** Fit       0.005761
 **** Fit       0.004932
 **** Fit       0.003980
 **** Fit       0.002975
 **** Fit       0.006987
 **** Fit       0.007705
 **** Fit       0.008050
 **** Fit       0.008003
 **** Fit       0.007590
 **** Fit       0.006871
 **** Fit       0.005918
 **** Fit       0.004810
 **** Fit       0.003621
 **** Fit       0.002420
 **** Fit       0.001274
 **** Fit       0.008032
 **** Fit       0.008947
 **** Fit       0.009405
 **** Fit       0.009382
 **** Fit       0.008914
 **** Fit       0.008073
 **** Fit       0.006951
 **** Fit       0.005641
 **** Fit       0.004230
 **** Fit       0.002793
 **** Fit       0.001396
 **** Fit       0.000097
 **** Fit       0.008703
 **** Fit       0.010105
 **** Fit       0.010921
 **** Fit       0.011092
 **** Fit       0.010650
 **** Fit       0.009692
 **** Fit       0.008343
 **** Fit       0.006735
 **** Fit       0.004984
 **** Fit       0.003191
 **** Fit       0.001436
 **** Fit      -0.000213
 **** Fit      -0.001705
 **** Fit       0.009756
 **** Fit       0.011819
 **** Fit       0.012998
 **** Fit       0.013174
 **** Fit       0.012411
 **** Fit       0.010904
 **** Fit       0.008887
 **** Fit       0.006577
 **** Fit       0.004150
 **** Fit       0.001746
 **** Fit      -0.000528
 **** Fit      -0.002594
 **** Fit      -0.004398
 **** Fit      -0.010309
 **** Fit       0.009893
 **** Fit       0.006436
 **** Fit       0.002901
 **** Fit      -0.000496
 **** Fit      -0.003597
 **** Fit      -0.006296
 **** Fit      -0.008537
 **** Fit       0.028595
 **** Fit       0.028076
 **** Fit       0.030450
 **** Fit       0.030301
 **** Fit       0.031384
 **** Fit       0.031720
 **** Fit       0.031606
 **** Fit       0.030771
 **** Fit       0.047294
 **** Fit       0.045664
 **** Fit       0.040986
 **** Fit       0.032237
 **** Fit       0.031710
 **** Fit       0.030412
 **** Fit       0.037040
 **** Fit       0.040085
 **** Fit       0.039951
 **** Fit       0.036380
 **** Fit       0.031464
 **** Fit       0.031240
 **** Fit       0.031152
 **** Fit       0.030433
 **** Fit       0.031949
 **** Fit       0.034166
 **** Fit       0.033389
 **** Fit       0.030671
 **** Fit       0.029685
 **** Fit       0.028894
 **** Fit       0.027640
 **** Fit       0.025432
 **** Fit       0.019669
 **** Fit       0.023571
 **** Fit       0.026484
 **** Fit       0.027577
 **** Fit       0.026169
 **** Fit       0.033783
 **** Fit       0.031323
 **** Fit       0.029901
 **** Fit       0.028680
 **** Fit       0.027073
 **** Fit       0.024651
 **** Fit       0.021246
 **** Fit       0.015817
 **** Fit       0.019102
 **** Fit       0.021560
 **** Fit       0.023174
 **** Fit       0.023244
 **** Fit       0.021101
 **** Fit       0.026043
 **** Fit       0.022854
 **** Fit       0.019250
 **** Fit       0.016139
 **** Fit       0.014530
 **** Fit       0.014802
 **** Fit       0.016575
 **** Fit       0.019684
 **** Fit       0.020878
 **** Fit       0.021383
 **** Fit       0.020607
 **** Fit       0.017940
 **** Fit       0.019927
 **** Fit       0.018155
 **** Fit       0.017729
 **** Fit       0.018422
 **** Fit       0.021168
 **** Fit       0.021254
 **** Fit       0.020730
 **** Fit       0.019020
 **** Fit       0.015527
 **** Fit       0.021413
 **** Fit       0.021041
 **** Fit       0.023290
 **** Fit       0.022337
 **** Fit       0.020817
 **** Fit       0.018162
 **** Fit       0.006403
 **** Fit       0.014099
 **** Fit       0.021500
 **** Fit       0.018079
 **** Fit       0.002430
 **** Fit       0.036194
 **** Fit       0.033582
 **** Fit       0.031899
 **** Fit       0.030610
 **** Fit       0.029240
 **** Fit       0.027409
 **** Fit       0.024941
 **** Fit       0.036180
 **** Fit       0.034139
 **** Fit       0.032670
 **** Fit       0.031497
 **** Fit       0.030289
 **** Fit       0.028758
 **** Fit       0.026768
 **** Fit       0.024479
 **** Fit       0.022378
 **** Fit       0.021002
 **** Fit       0.023246
 **** Fit       0.037124
 **** Fit       0.035970
 **** Fit       0.034630
 **** Fit       0.033466
 **** Fit       0.032477
 **** Fit       0.031493
 **** Fit       0.030310
 **** Fit       0.028808
 **** Fit       0.027064
 **** Fit       0.025381
 **** Fit       0.024134
 **** Fit       0.023483
 **** Fit       0.025366
 **** Fit       0.024708
 **** Fit       0.023602
 **** Fit       0.009534
 **** Fit       0.015545
 **** Fit       0.021151
 **** Fit       0.026138
 **** Fit       0.030206
 **** Fit       0.033021
 **** Fit       0.034449
 **** Fit       0.034734
 **** Fit       0.034360
 **** Fit       0.033746
 **** Fit       0.033082
 **** Fit       0.032364
 **** Fit       0.031500
 **** Fit       0.030412
 **** Fit       0.029129
 **** Fit       0.027822
 **** Fit       0.026720
 **** Fit       0.025939
 **** Fit       0.026939
 **** Fit       0.025887
 **** Fit       0.024323
 **** Fit       0.021941
 **** Fit       0.018551
 **** Fit       0.014225
 **** Fit       0.004846
 **** Fit       0.008014
 **** Fit       0.012431
 **** Fit       0.017274
 **** Fit       0.021995
 **** Fit       0.026197
 **** Fit       0.029543
 **** Fit       0.031812
 **** Fit       0.033017
 **** Fit       0.033416
 **** Fit       0.033340
 **** Fit       0.033010
 **** Fit       0.032495
 **** Fit       0.031772
 **** Fit       0.030838
 **** Fit       0.029772
 **** Fit       0.028726
 **** Fit       0.027805
 **** Fit       0.027973
 **** Fit       0.026620
 **** Fit       0.024734
 **** Fit       0.022139
 **** Fit       0.018903
 **** Fit       0.015503
 **** Fit       0.012838
 **** Fit       0.011846
 **** Fit       0.012889
 **** Fit       0.015579
 **** Fit       0.019184
 **** Fit       0.023010
 **** Fit       0.026515
 **** Fit       0.029311
 **** Fit       0.031212
 **** Fit       0.032268
 **** Fit       0.032689
 **** Fit       0.032685
 **** Fit       0.032368
 **** Fit       0.031782
 **** Fit       0.030973
 **** Fit       0.030036
 **** Fit       0.029049
 **** Fit       0.028527
 **** Fit       0.026899
 **** Fit       0.024737
 **** Fit       0.022117
 **** Fit       0.019551
 **** Fit       0.017923
 **** Fit       0.017962
 **** Fit       0.019698
 **** Fit       0.022521
 **** Fit       0.025637
 **** Fit       0.028383
 **** Fit       0.030375
 **** Fit       0.031543
 **** Fit       0.032025
 **** Fit       0.031988
 **** Fit       0.031541
 **** Fit       0.030776
 **** Fit       0.029773
 **** Fit       0.028669
 **** Fit       0.026721
 **** Fit       0.024403
 **** Fit       0.022537
 **** Fit       0.022261
 **** Fit       0.023873
 **** Fit       0.026499
 **** Fit       0.028956
 **** Fit       0.030539
 **** Fit       0.031141
 **** Fit       0.030924
 **** Fit       0.030067
 **** Fit       0.028471
 **** Fit       0.026352
 **** Fit       0.025539
 **** Fit       0.027315
 **** Fit       0.029376
 **** Fit       0.029763
 **** Fit       0.027997
 **** Fit       0.019202
 **** Fit       0.015281
 **** Fit       0.012632
 **** Fit       0.010125
 **** Fit       0.008240
 **** Fit       0.006255
 **** Fit       0.012726
 -----------------------------------------------------------------
 Leave Link  602 at Mon Sep 16 19:07:26 2019, MaxMem=  4294967296 cpu:       158.1

 Test job not archived.
 1\1\GINC-N009\SP\RB3LYP\SVP\C54H83Ca1N15O23\PCIEPLAK\16-Sep-2019\0\\#m
 axdisk=50GB #B3LYP/SVP Density=Current scf=(tight) #IOP(5/87=12)Pop=(M
 K,readradii) iop(6/33=2) iop(6/42=6)\\SOL molecule\\0,1\C,0,36.9,47.79
 ,42.83\C,0,37.07,47.56,44.32\O,0,36.04,47.43,44.97\H,0,36.26,48.657,42
 .668\H,0,37.875,47.968,42.376\H,0,36.442,46.911,42.376\N,0,38.35,47.5,
 44.72\C,0,38.76,47.48,46.11\C,0,38.18,48.6,46.96\O,0,38.41,49.78,46.72
 \C,0,40.28,47.61,46.1\C,0,41.,47.28,47.4\O,0,40.32,46.96,48.39\O,0,42.
 25,47.33,47.45\H,0,38.99,47.72,43.98\H,0,38.55,46.54,46.63\H,0,40.66,4
 8.56,45.72\H,0,40.59,46.83,45.4\N,0,37.5,48.3,48.07\C,0,36.69,49.23,48
 .82\C,0,37.55,50.02,49.8\O,0,37.44,51.24,49.89\C,0,35.6,48.35,49.45\C,
 0,34.5,49.21,50.07\C,0,33.41,48.27,50.57\C,0,32.35,49.08,51.32\N,0,31.
 47,49.91,50.49\H,0,37.37,47.31,48.23\H,0,36.21,49.89,48.1\H,0,36.1,47.
 64,50.1\H,0,35.11,47.83,48.63\H,0,34.17,49.87,49.27\H,0,34.94,49.94,50
 .74\H,0,33.82,47.55,51.28\H,0,32.82,47.8,49.78\H,0,32.89,49.69,52.05\H
 ,0,31.64,48.42,51.81\H,0,31.97,50.56,49.91\H,0,31.03,49.29,49.82\H,0,3
 0.86,50.41,51.12\N,0,38.44,49.37,50.55\C,0,39.33,49.97,51.52\C,0,40.65
 ,50.4,50.9\O,0,41.4,51.16,51.5\C,0,39.61,49.12,52.77\C,0,40.06,47.69,5
 2.51\O,0,40.42,47.33,51.37\O,0,39.92,46.92,53.49\H,0,38.47,48.36,50.46
 \H,0,38.87,50.88,51.91\H,0,38.77,49.14,53.46\H,0,40.36,49.69,53.31\N,0
 ,40.97,49.81,49.74\C,0,42.23,50.01,49.04\C,0,43.34,49.12,49.57\O,0,44.
 49,49.54,49.49\H,0,40.27,49.15,49.44\H,0,42.52,51.06,49.13\H,0,42.18,4
 9.86,47.96\N,0,42.94,48.03,50.24\C,0,43.96,47.14,50.75\C,0,44.82,46.28
 ,49.84\O,0,45.81,45.67,50.24\C,0,43.39,46.28,51.88\C,0,42.84,44.92,51.
 46\N,0,43.13,43.86,52.2\O,0,42.2,44.81,50.41\H,0,41.97,47.79,50.35\H,0
 ,44.65,47.84,51.22\H,0,42.62,46.78,52.46\H,0,44.04,46.18,52.75\H,0,43.
 75,43.97,52.99\H,0,42.67,42.96,52.25\N,0,44.5,46.14,48.55\C,0,45.16,45
 .33,47.55\C,0,44.4,44.08,47.1\O,0,44.97,43.19,46.48\H,0,43.75,46.74,48
 .25\H,0,46.06,44.98,48.06\H,0,45.22,45.91,46.63\N,0,43.16,43.92,47.56\
 C,0,42.31,42.76,47.34\C,0,40.83,43.09,47.22\O,0,40.39,44.1,47.77\C,0,4
 2.47,41.73,48.46\C,0,43.87,41.21,48.69\C,0,44.51,41.68,49.85\C,0,44.46
 ,40.25,47.87\C,0,45.7,41.07,50.26\C,0,45.72,39.75,48.22\C,0,46.37,40.2
 ,49.39\O,0,47.62,39.74,49.68\H,0,42.78,44.58,48.23\H,0,42.63,42.27,46.
 42\H,0,41.8,40.88,48.35\H,0,42.22,42.09,49.45\H,0,44.13,42.45,50.5\H,0
 ,44.01,40.,46.91\H,0,46.14,41.45,51.18\H,0,46.24,39.07,47.58\H,0,48.08
 ,39.44,48.89\N,0,40.09,42.29,46.44\C,0,38.66,42.51,46.3\C,0,37.88,41.3
 5,46.89\O,0,38.11,40.24,46.41\C,0,38.29,42.74,44.84\C,0,39.08,43.85,44
 .14\C,0,36.78,42.94,44.69\C,0,38.97,43.74,42.62\H,0,40.5,41.65,45.78\H
 ,0,38.33,43.38,46.87\H,0,38.53,41.8,44.35\H,0,40.14,43.8,44.39\H,0,38.
 76,44.85,44.44\H,0,36.52,43.99,44.77\H,0,36.38,42.63,43.73\H,0,36.13,4
 2.39,45.38\H,0,37.93,43.78,42.3\H,0,39.58,44.49,42.11\H,0,39.17,42.72,
 42.3\N,0,36.93,41.65,47.76\C,0,36.01,40.66,48.29\C,0,34.59,40.89,47.8\
 O,0,34.32,41.92,47.18\C,0,36.07,40.57,49.81\O,0,35.73,41.74,50.51\H,0,
 36.94,42.59,48.13\H,0,36.23,39.68,47.85\H,0,37.08,40.4,50.19\H,0,35.47
 ,39.75,50.19\H,0,36.34,42.45,50.28\N,0,33.58,40.06,48.06\C,0,32.27,40.
 1,47.44\C,0,31.4,41.28,47.84\O,0,30.71,41.83,46.98\C,0,31.6,38.76,47.6
 9\H,0,33.73,39.24,48.64\H,0,32.34,40.32,46.37\H,0,32.13,37.96,47.16\H,
 0,31.65,38.57,48.76\H,0,30.55,38.84,47.42\N,0,31.41,41.76,49.08\C,0,30
 .65,42.95,49.45\C,0,31.18,44.15,48.68\O,0,30.48,45.15,48.53\C,0,30.68,
 43.13,50.96\H,0,32.01,41.35,49.78\H,0,29.62,42.72,49.17\H,0,30.34,42.1
 8,51.37\H,0,31.69,43.41,51.27\H,0,30.01,43.96,51.18\N,0,32.44,44.19,48
 .25\C,0,33.07,45.26,47.49\C,0,32.68,45.26,46.02\O,0,32.5,46.31,45.41\C
 ,0,34.59,45.24,47.53\C,0,35.08,44.93,48.95\C,0,36.59,44.74,49.03\O,0,3
 7.18,43.8,49.59\O,0,37.41,45.54,48.54\H,0,33.03,43.4,48.46\H,0,32.67,4
 6.21,47.85\H,0,34.97,46.24,47.35\H,0,34.95,44.58,46.74\H,0,34.65,43.99
 ,49.3\H,0,34.94,45.78,49.62\N,0,32.55,44.11,45.36\C,0,31.91,43.91,44.0
 8\H,0,31.013,44.527,44.022\H,0,32.596,44.192,43.282\H,0,31.636,42.861,
 43.97\H,0,32.71,43.23,45.85\Ca,0,39.47,45.17,50.1\O,0,39.61,44.38,52.7
 5\H,0,39.58,43.76,53.47\H,0,39.58,45.24,53.16\\Version=ES64L-G09RevD.0
 1\State=1-A\HF=-5333.574101\RMSD=2.530e-09\Dipole=-14.7322751,-3.58440
 75,4.7328857\Quadrupole=1.4960651,-5.5891451,4.09308,-93.4345837,-77.8
 499317,7.0499559\PG=C01 [X(C54H83Ca1N15O23)]\\@


 ALL MY ATTEMPTS TO ADAPT THE THEORETICAL FOUNDATIONS OF PHYSICS
 TO THESE NEW NOTIONS FAILED COMPLETELY. IT WAS AS IF THE GROUND HAD
 BEEN PULLED OUT FROM UNDER ONE WITH NO FIRM FOUNDATION TO BE SEEN ANYWHERE,
 UPON WHICH ONE COULD HAVE BUILT.  -- A.EINSTEIN
 Job cpu time:       0 days 16 hours 42 minutes 39.1 seconds.
 File lengths (MBytes):  RWF=   1513 Int=      0 D2E=      0 Chk=    103 Scr=      1
 Normal termination of Gaussian 09 at Mon Sep 16 19:07:27 2019.
