 Entering Gaussian System, Link 0=g09
 Initial command:
 /home/pcieplak/g09/g09/l1.exe "/scratch1/pcieplak/holo_15.0/Gau-31208.inp" -scrdir="/scratch1/pcieplak/holo_15.0/"
 Entering Link 1 = /home/pcieplak/g09/g09/l1.exe PID=     31209.
  
 Copyright (c) 1988,1990,1992,1993,1995,1998,2003,2009,2013,
            Gaussian, Inc.  All Rights Reserved.
  
 This is part of the Gaussian(R) 09 program.  It is based on
 the Gaussian(R) 03 system (copyright 2003, Gaussian, Inc.),
 the Gaussian(R) 98 system (copyright 1998, Gaussian, Inc.),
 the Gaussian(R) 94 system (copyright 1995, Gaussian, Inc.),
 the Gaussian 92(TM) system (copyright 1992, Gaussian, Inc.),
 the Gaussian 90(TM) system (copyright 1990, Gaussian, Inc.),
 the Gaussian 88(TM) system (copyright 1988, Gaussian, Inc.),
 the Gaussian 86(TM) system (copyright 1986, Carnegie Mellon
 University), and the Gaussian 82(TM) system (copyright 1983,
 Carnegie Mellon University). Gaussian is a federally registered
 trademark of Gaussian, Inc.
  
 This software contains proprietary and confidential information,
 including trade secrets, belonging to Gaussian, Inc.
  
 This software is provided under written license and may be
 used, copied, transmitted, or stored only in accord with that
 written license.
  
 The following legend is applicable only to US Government
 contracts under FAR:
  
                    RESTRICTED RIGHTS LEGEND
  
 Use, reproduction and disclosure by the US Government is
 subject to restrictions as set forth in subparagraphs (a)
 and (c) of the Commercial Computer Software - Restricted
 Rights clause in FAR 52.227-19.
  
 Gaussian, Inc.
 340 Quinnipiac St., Bldg. 40, Wallingford CT 06492
  
  
 ---------------------------------------------------------------
 Warning -- This program may not be used in any manner that
 competes with the business of Gaussian, Inc. or will provide
 assistance to any competitor of Gaussian, Inc.  The licensee
 of this program is prohibited from giving any competitor of
 Gaussian, Inc. access to this program.  By using this program,
 the user acknowledges that Gaussian, Inc. is engaged in the
 business of creating and licensing software in the field of
 computational chemistry and represents and warrants to the
 licensee that it is not a competitor of Gaussian, Inc. and that
 it will not use this program in any manner prohibited above.
 ---------------------------------------------------------------
  

 Cite this work as:
 Gaussian 09, Revision D.01,
 M. J. Frisch, G. W. Trucks, H. B. Schlegel, G. E. Scuseria, 
 M. A. Robb, J. R. Cheeseman, G. Scalmani, V. Barone, B. Mennucci, 
 G. A. Petersson, H. Nakatsuji, M. Caricato, X. Li, H. P. Hratchian, 
 A. F. Izmaylov, J. Bloino, G. Zheng, J. L. Sonnenberg, M. Hada, 
 M. Ehara, K. Toyota, R. Fukuda, J. Hasegawa, M. Ishida, T. Nakajima, 
 Y. Honda, O. Kitao, H. Nakai, T. Vreven, J. A. Montgomery, Jr., 
 J. E. Peralta, F. Ogliaro, M. Bearpark, J. J. Heyd, E. Brothers, 
 K. N. Kudin, V. N. Staroverov, T. Keith, R. Kobayashi, J. Normand, 
 K. Raghavachari, A. Rendell, J. C. Burant, S. S. Iyengar, J. Tomasi, 
 M. Cossi, N. Rega, J. M. Millam, M. Klene, J. E. Knox, J. B. Cross, 
 V. Bakken, C. Adamo, J. Jaramillo, R. Gomperts, R. E. Stratmann, 
 O. Yazyev, A. J. Austin, R. Cammi, C. Pomelli, J. W. Ochterski, 
 R. L. Martin, K. Morokuma, V. G. Zakrzewski, G. A. Voth, 
 P. Salvador, J. J. Dannenberg, S. Dapprich, A. D. Daniels, 
 O. Farkas, J. B. Foresman, J. V. Ortiz, J. Cioslowski, 
 and D. J. Fox, Gaussian, Inc., Wallingford CT, 2013.
 
 ******************************************
 Gaussian 09:  ES64L-G09RevD.01 24-Apr-2013
                16-Sep-2019 
 ******************************************
 %Nproc=12
 Will use up to   12 processors via shared memory.
 %chk=chk1mol
 %mem=32GB
 ----------------------------------------------------------------------
 #maxdisk=50GB #B3LYP/SVP Density=Current scf=(tight) #IOP(5/87=12)Pop=
 (MK,readradii) iop(6/33=2) iop(6/42=6)
 ----------------------------------------------------------------------
 1/30=1,38=1/1;
 2/12=2,17=6,18=5,40=1/2;
 3/5=18,7=101,11=2,16=1,25=1,30=1,74=-5/1,2,3;
 4//1;
 5/5=2,32=2,38=5,87=12/2;
 6/7=2,8=2,9=2,10=2,15=8,20=101,22=-1,28=1,33=2,42=6/1,2;
 99/5=1,9=1/99;
 ------------
 SOL molecule
 ------------
 Symbolic Z-matrix:
 Charge =  0 Multiplicity = 1
 C                     94.02     53.69     4.196 
 C                     95.02     54.71     3.666 
 O                     96.08     54.37     3.146 
 H                     93.094    53.76     3.626 
 H                     94.434    52.687    4.093 
 H                     93.815    53.893    5.247 
 N                     94.61     55.97     3.746 
 C                     95.57     57.05     3.646 
 C                     96.45     57.04     4.886 
 O                     95.9      57.17     5.976 
 C                     94.8      58.36     3.476 
 C                     95.75     59.51     3.186 
 O                     95.65     60.56     3.866 
 O                     96.66     59.32     2.356 
 H                     93.69     56.21     4.106 
 H                     96.05     56.79     2.706 
 H                     94.19     58.67     4.326 
 H                     94.12     58.28     2.636 
 N                     97.76     57.01     4.626 
 C                     98.79     56.96     5.646 
 C                     99.83     58.07     5.556 
 O                     100.8     58.11     6.306 
 C                     99.38     55.55     5.626 
 C                     98.53     54.44     6.226 
 C                     99.27     53.12     6.066 
 C                     98.63     51.92     6.766 
 N                     97.19     51.85     6.476 
 H                     98.07     56.9      3.666 
 H                     98.35     57.13     6.626 
 H                     100.29    55.51     6.226 
 H                     99.67     55.26     4.616 
 H                     97.58     54.48     5.696 
 H                     98.44     54.75     7.266 
 H                     100.24    53.17     6.566 
 H                     99.36     52.82     5.026 
 H                     98.8      52.06     7.836 
 H                     99.1      50.98     6.466 
 H                     96.68     52.68     6.756 
 H                     97.02     51.73     5.486 
 H                     96.7      51.18     7.046 
 N                     99.72     58.98     4.576 
 C                     100.59    60.13     4.426 
 C                     99.84     61.45     4.386 
 O                     100.41    62.5      4.076 
 C                     101.66    59.97     3.356 
 C                     101.1     59.87     1.946 
 O                     101.79    59.47     0.976 
 O                     99.89     60.13     1.806 
 H                     99.       58.92     3.876 
 H                     101.21    60.2      5.326 
 H                     102.14    59.04     3.666 
 H                     102.17    60.93     3.306 
 N                     98.56     61.49     4.746 
 C                     97.85     62.71     5.046 
 C                     97.61     63.62     3.846 
 O                     97.5      64.84     3.956 
 H                     98.18     60.59     5.026 
 H                     98.3      63.2      5.916 
 H                     96.83     62.47     5.346 
 N                     97.68     63.01     2.656 
 C                     97.43     63.63     1.366 
 C                     96.       63.37     0.916 
 O                     95.62     64.05    -0.034 
 C                     98.57     63.17     0.466 
 C                     98.14     62.13    -0.554 
 N                     98.39     62.46    -1.824 
 O                     97.67     61.04    -0.224 
 H                     97.74     62.01     2.736 
 H                     97.5      64.71     1.496 
 H                     99.41     62.81     1.046 
 H                     98.84     64.      -0.194 
 H                     98.84     63.35    -1.994 
 H                     98.21     61.83    -2.594 
 N                     95.24     62.52     1.616 
 C                     93.82     62.33     1.396 
 C                     93.5      61.27     0.356 
 O                     92.34     60.96     0.106 
 H                     95.65     61.91     2.306 
 H                     93.39     63.29     1.136 
 H                     93.29     61.96     2.276 
 N                     94.44     60.8     -0.484 
 C                     94.24     59.99    -1.664 
 C                     95.09     58.73    -1.584 
 O                     96.23     58.75    -1.114 
 C                     94.72     60.77    -2.884 
 C                     94.09     62.11    -3.154 
 C                     94.85     63.12    -3.774 
 C                     92.74     62.34    -2.894 
 C                     94.26     64.31    -4.204 
 C                     92.12     63.53    -3.274 
 C                     92.87     64.46    -4.024 
 O                     92.35     65.69    -4.324 
 H                     95.37     61.07    -0.224 
 H                     93.19     59.72    -1.754 
 H                     94.49     60.17    -3.774 
 H                     95.81     60.8     -2.884 
 H                     95.91     62.95    -3.894 
 H                     92.16     61.54    -2.444 
 H                     94.88     65.13    -4.564 
 H                     91.1      63.68    -2.934 
 H                     91.54     65.8     -3.824 
 N                     94.52     57.57    -1.934 
 C                     95.24     56.31    -1.824 
 C                     96.17     56.11    -3.014 
 O                     95.85     56.46    -4.144 
 C                     94.28     55.13    -1.754 
 C                     92.98     55.34    -0.984 
 C                     94.98     53.88    -1.214 
 C                     93.09     55.75     0.486 
 H                     93.68     57.59    -2.484 
 H                     95.82     56.46    -0.914 
 H                     93.88     54.92    -2.744 
 H                     92.36     54.45    -1.074 
 H                     92.4      56.18    -1.354 
 H                     94.26     53.06    -1.164 
 H                     95.86     53.63    -1.794 
 H                     95.32     54.06    -0.194 
 H                     93.23     56.82     0.626 
 H                     92.22     55.44     1.066 
 H                     93.96     55.26     0.906 
 N                     97.29     55.43    -2.744 
 C                     98.26     55.      -3.734 
 C                     98.6      53.51    -3.674 
 O                     98.28     52.91    -2.654 
 C                     99.5      55.81    -3.374 
 O                     99.99     55.4     -2.114 
 H                     97.57     55.19    -1.804 
 H                     97.95     55.14    -4.764 
 H                     99.28     56.87    -3.394 
 H                     100.34    55.61    -4.044 
 H                     99.51     55.72    -1.344 
 N                     99.2      52.92    -4.704 
 C                     99.57     51.52    -4.674 
 C                     100.17    51.02    -3.364 
 O                     99.74     49.95    -2.964 
 C                     100.33    51.17    -5.954 
 H                     99.29     53.48    -5.544 
 H                     98.68     50.89    -4.714 
 H                     100.28    50.11    -6.194 
 H                     99.93     51.79    -6.754 
 H                     101.42    51.31    -5.994 
 N                     101.08    51.67    -2.634 
 C                     101.7     51.11    -1.454 
 C                     100.63    51.01    -0.374 
 O                     100.62    50.01     0.346 
 C                     102.82    51.99    -0.904 
 H                     101.52    52.47    -3.054 
 H                     102.15    50.15    -1.704 
 H                     103.81    51.79    -1.304 
 H                     102.54    53.04    -0.754 
 H                     102.91    51.74     0.156 
 N                     99.74     52.      -0.224 
 C                     98.6      51.94     0.666 
 C                     97.59     50.89     0.226 
 O                     97.06     50.2      1.106 
 C                     97.94     53.32     0.706 
 C                     98.71     54.3      1.586 
 C                     98.5      55.73     1.106 
 O                     98.47     56.68     1.926 
 O                     98.35     55.99    -0.104 
 H                     99.71     52.75    -0.894 
 H                     98.93     51.71     1.676 
 H                     96.94     53.22     1.136 
 H                     97.82     53.66    -0.324 
 H                     99.76     54.14     1.386 
 H                     98.5      54.07     2.636 
 N                     97.34     50.7     -1.074 
 C                     96.37     49.72    -1.524 
 H                     95.481    50.232   -1.892 
 H                     96.802    49.122   -2.326 
 H                     96.096    49.07    -0.693 
 H                     97.89     51.1     -1.814 
 Ca                    98.43     58.61     0.29 
 O                     99.56     59.06    -2.024 
 H                     99.21     59.53    -2.774 
 H                     100.33    58.6     -2.364 
 
 Stoichiometry    C54H83CaN15O23
 Framework group  C1[X(C54H83CaN15O23)]
 Deg. of freedom   522
 Full point group                 C1      NOp   1
 Largest Abelian subgroup         C1      NOp   1
 Largest concise Abelian subgroup C1      NOp   1
                         Standard orientation:                         
 ---------------------------------------------------------------------
 Center     Atomic      Atomic             Coordinates (Angstroms)
 Number     Number       Type             X           Y           Z
 ---------------------------------------------------------------------
      1          6           0        2.333649    2.518699    5.077038
      2          6           0        1.670099    2.289380    3.724849
      3          8           0        2.325874    2.076047    2.707967
      4          1           0        2.051176    1.718069    5.760030
      5          1           0        3.416681    2.525259    4.954512
      6          1           0        2.007713    3.475266    5.485181
      7          7           0        0.343494    2.263679    3.764312
      8          6           0       -0.419186    2.437533    2.545258
      9          6           0       -0.254566    3.870572    2.064219
     10          8           0       -0.608654    4.769927    2.821373
     11          6           0       -1.875428    2.073418    2.836257
     12          6           0       -2.694453    2.062281    1.556346
     13          8           0       -3.776777    2.696858    1.528284
     14          8           0       -2.201856    1.510886    0.553145
     15          1           0       -0.166372    2.360581    4.638524
     16          1           0        0.029486    1.662406    1.929245
     17          1           0       -2.401550    2.726842    3.534063
     18          1           0       -1.926957    1.079112    3.264160
     19          7           0        0.154702    3.977892    0.797103
     20          6           0        0.414754    5.239954    0.131241
     21          6           0       -0.355281    5.445490   -1.167451
     22          8           0       -0.178872    6.432099   -1.874899
     23          6           0        1.930602    5.371413   -0.015473
     24          6           0        2.716886    5.708360    1.242630
     25          6           0        4.197883    5.746758    0.895105
     26          6           0        5.121350    6.236575    2.011746
     27          7           0        4.811101    5.563936    3.282141
     28          1           0        0.414052    3.138217    0.289675
     29          1           0        0.060550    6.063818    0.746617
     30          1           0        2.177767    6.196755   -0.684368
     31          1           0        2.360495    4.476853   -0.466310
     32          1           0        2.453689    4.939437    1.966843
     33          1           0        2.320962    6.686531    1.511381
     34          1           0        4.382481    6.492945    0.118878
     35          1           0        4.584222    4.768661    0.623501
     36          1           0        4.958079    7.313338    2.097323
     37          1           0        6.173484    6.069378    1.767696
     38          1           0        3.854761    5.700163    3.589153
     39          1           0        4.949516    4.564279    3.211954
     40          1           0        5.277302    5.973552    4.075092
     41          7           0       -1.188169    4.479419   -1.584109
     42          6           0       -2.039256    4.581118   -2.753385
     43          6           0       -3.508798    4.347594   -2.449386
     44          8           0       -4.335575    4.212733   -3.355891
     45          6           0       -1.514131    3.842752   -3.975866
     46          6           0       -1.472804    2.332732   -3.803144
     47          8           0       -0.829784    1.585049   -4.580637
     48          8           0       -2.046434    1.869615   -2.799266
     49          1           0       -1.279875    3.609017   -1.088135
     50          1           0       -1.998990    5.616687   -3.107325
     51          1           0       -0.512187    4.265166   -4.071124
     52          1           0       -2.289717    3.940962   -4.732847
     53          7           0       -3.926469    4.344736   -1.186397
     54          6           0       -5.313286    4.448470   -0.801071
     55          6           0       -6.166460    3.235270   -1.155953
     56          8           0       -7.373953    3.320040   -1.373606
     57          1           0       -3.188813    4.503716   -0.505669
     58          1           0       -5.720405    5.411860   -1.126084
     59          1           0       -5.386481    4.456817    0.286391
     60          7           0       -5.477873    2.105133   -1.360252
     61          6           0       -6.049468    0.800489   -1.646927
     62          6           0       -6.163479   -0.024734   -0.373739
     63          8           0       -6.852680   -1.037356   -0.468081
     64          6           0       -5.229558    0.242562   -2.803501
     65          6           0       -4.279116   -0.863715   -2.379578
     66          7           0       -4.436012   -2.014744   -3.038982
     67          8           0       -3.387788   -0.682607   -1.548534
     68          1           0       -4.508558    2.191109   -1.109180
     69          1           0       -7.074461    0.952611   -1.985231
     70          1           0       -4.693621    1.027196   -3.321884
     71          1           0       -5.903507   -0.312517   -3.463107
     72          1           0       -5.152559   -2.048868   -3.752352
     73          1           0       -3.827207   -2.809252   -2.896455
     74          7           0       -5.608622    0.434897    0.753635
     75          6           0       -5.803310   -0.165825    2.058291
     76          6           0       -4.801878   -1.261457    2.381286
     77          8           0       -4.807570   -1.820938    3.472683
     78          1           0       -4.959734    1.206110    0.731802
     79          1           0       -6.823744   -0.526269    2.112104
     80          1           0       -5.657730    0.533292    2.884270
     81          7           0       -4.031921   -1.816343    1.427678
     82          6           0       -3.226978   -3.012048    1.531863
     83          6           0       -1.790150   -2.712302    1.129150
     84          8           0       -1.527685   -1.948781    0.196923
     85          6           0       -3.755156   -4.048871    0.545340
     86          6           0       -5.194350   -4.470740    0.672407
     87          6           0       -5.908243   -4.852236   -0.479513
     88          6           0       -5.806357   -4.587508    1.919328
     89          6           0       -7.181244   -5.418206   -0.388707
     90          6           0       -7.091204   -5.113570    2.050963
     91          6           0       -7.721944   -5.623442    0.896797
     92          8           0       -9.023179   -6.044949    0.945972
     93          1           0       -4.052166   -1.310331    0.562263
     94          1           0       -3.251983   -3.387286    2.552682
     95          1           0       -3.180390   -4.972246    0.693737
     96          1           0       -3.482677   -3.751059   -0.467608
     97          1           0       -5.443839   -4.679524   -1.439409
     98          1           0       -5.231902   -4.318860    2.800651
     99          1           0       -7.770212   -5.589208   -1.288860
    100          1           0       -7.541026   -5.063872    3.037720
    101          1           0       -9.388005   -5.784294    1.792826
    102          7           0       -0.811022   -3.213158    1.892990
    103          6           0        0.587746   -2.920045    1.617979
    104          6           0        1.121049   -3.812366    0.504268
    105          8           0        0.777506   -4.984192    0.401309
    106          6           0        1.448401   -3.123495    2.857648
    107          6           0        0.833122   -2.736149    4.198690
    108          6           0        2.801487   -2.422116    2.711605
    109          6           0        0.366056   -1.288987    4.368015
    110          1           0       -1.023229   -3.971437    2.516274
    111          1           0        0.539573   -1.885187    1.280713
    112          1           0        1.609512   -4.186609    3.025071
    113          1           0        1.521173   -2.998553    5.000145
    114          1           0       -0.105934   -3.244247    4.395945
    115          1           0        3.384859   -2.576630    3.622156
    116          1           0        3.325524   -2.741649    1.819090
    117          1           0        2.650414   -1.346744    2.615939
    118          1           0       -0.630717   -1.108207    3.970699
    119          1           0        0.381498   -0.970848    5.411064
    120          1           0        1.046254   -0.651036    3.816880
    121          7           0        2.063102   -3.251857   -0.262587
    122          6           0        2.813677   -3.942554   -1.294805
    123          6           0        4.331420   -3.802981   -1.167237
    124          8           0        4.745519   -2.913546   -0.432236
    125          6           0        2.354446   -3.251732   -2.573543
    126          8           0        2.793233   -1.908877   -2.575834
    127          1           0        2.303672   -2.272917   -0.204252
    128          1           0        2.667056   -5.016999   -1.320703
    129          1           0        1.279143   -3.323230   -2.678475
    130          1           0        2.825907   -3.668395   -3.467197
    131          1           0        2.299141   -1.296845   -2.021767
    132          7           0        5.135934   -4.634354   -1.823421
    133          6           0        6.577843   -4.514787   -1.757082
    134          6           0        7.129733   -3.094463   -1.821875
    135          8           0        8.007970   -2.834948   -1.014935
    136          6           0        7.214328   -5.541204   -2.695088
    137          1           0        4.683812   -5.413722   -2.287610
    138          1           0        6.938533   -4.800893   -0.767816
    139          1           0        8.233499   -5.793536   -2.409925
    140          1           0        6.566440   -6.415430   -2.714330
    141          1           0        7.384224   -5.281060   -3.749963
    142          7           0        6.706345   -2.138982   -2.653320
    143          6           0        7.330509   -0.838697   -2.753707
    144          6           0        7.053863   -0.092626   -1.454421
    145          8           0        7.958330    0.589905   -0.970078
    146          6           0        6.757518    0.002654   -3.891736
    147          1           0        6.091067   -2.416994   -3.397727
    148          1           0        8.392729   -0.963403   -2.960437
    149          1           0        7.251236   -0.113321   -4.852408
    150          1           0        5.663130    0.078238   -3.893698
    151          1           0        6.946633    1.045084   -3.623826
    152          7           0        5.848402   -0.184026   -0.877178
    153          6           0        5.527582    0.360452    0.425096
    154          6           0        6.286084   -0.346302    1.539266
    155          8           0        6.738359    0.350459    2.456529
    156          6           0        4.019720    0.228900    0.650145
    157          6           0        3.230698    1.292885   -0.106877
    158          6           0        1.836247    0.784330   -0.447874
    159          8           0        0.859157    1.571959   -0.474994
    160          8           0        1.631631   -0.418704   -0.702904
    161          1           0        5.168930   -0.831221   -1.240162
    162          1           0        5.767409    1.420455    0.452965
    163          1           0        3.808631    0.368796    1.713522
    164          1           0        3.733923   -0.792198    0.392116
    165          1           0        3.688442    1.385981   -1.081508
    166          1           0        3.318448    2.243936    0.429127
    167          7           0        6.491520   -1.666530    1.481017
    168          6           0        7.194698   -2.371467    2.535723
    169          1           0        6.484466   -2.964420    3.111802
    170          1           0        7.944240   -3.029434    2.096750
    171          1           0        7.682867   -1.651655    3.192761
    172          1           0        6.312760   -2.225289    0.664969
    173         20           0       -0.885336    0.001451   -1.420111
    174          8           0       -0.839821   -1.912745   -3.199936
    175          1           0       -1.333682   -2.726326   -3.209276
    176          1           0       -0.161978   -2.032980   -3.867897
 ---------------------------------------------------------------------
 Rotational constants (GHZ):      0.0239052      0.0151631      0.0121744
 Standard basis: SVP (5D, 7F)
 There are  1809 symmetry adapted cartesian basis functions of A   symmetry.
 There are  1717 symmetry adapted basis functions of A   symmetry.
  1717 basis functions,  2922 primitive gaussians,  1809 cartesian basis functions
   358 alpha electrons      358 beta electrons
       nuclear repulsion energy     21854.2945157901 Hartrees.
 NAtoms=  176 NActive=  176 NUniq=  176 SFac= 1.00D+00 NAtFMM=   60 NAOKFM=T Big=T
 Integral buffers will be    131072 words long.
 Raffenetti 2 integral format.
 Two-electron integral symmetry is turned on.
 One-electron integrals computed using PRISM.
 NBasis=  1717 RedAO= T EigKep=  2.97D-04  NBF=  1717
 NBsUse=  1717 1.00D-06 EigRej= -1.00D+00 NBFU=  1717
 ExpMin= 1.98D-02 ExpMax= 3.51D+04 ExpMxC= 5.28D+03 IAcc=3 IRadAn=         5 AccDes= 0.00D+00
 Harris functional with IExCor=  402 and IRadAn=       5 diagonalized for initial guess.
 HarFok:  IExCor=  402 AccDes= 0.00D+00 IRadAn=         5 IDoV= 1 UseB2=F ITyADJ=14
 ICtDFT=  3500011 ScaDFX=  1.000000  1.000000  1.000000  1.000000
 FoFCou: FMM=F IPFlag=           0 FMFlag=      100000 FMFlg1=        2001
         NFxFlg=           0 DoJE=T BraDBF=F KetDBF=T FulRan=T
         wScrn=  0.000000 ICntrl=     500 IOpCl=  0 I1Cent=   200000004 NGrid=           0
         NMat0=    1 NMatS0=      1 NMatT0=    0 NMatD0=    1 NMtDS0=    0 NMtDT0=    0
 Petite list used in FoFCou.
 Requested convergence on RMS density matrix=1.00D-08 within 128 cycles.
 Requested convergence on MAX density matrix=1.00D-06.
 Requested convergence on             energy=1.00D-06.
 No special actions if energy rises.
 EnCoef did     3 forward-backward iterations
 SCF Done:  E(RB3LYP) =  -5333.61954666     A.U. after   18 cycles
            NFock= 18  Conv=0.40D-08     -V/T= 2.0082

 **********************************************************************

            Population analysis using the SCF density.

 **********************************************************************

 Orbital symmetries:
 BldTbl:  Degeneracy threshold= 1.00D-02
       Occupied  (A) (A) (A) (A) (A) (A) (A) (A) (A) (A) (A) (A)
                 (A) (A) (A) (A) (A) (A) (A) (A) (A) (A) (A) (A)
                 (A) (A) (A) (A) (A) (A) (A) (A) (A) (A) (A) (A)
                 (A) (A) (A) (A) (A) (A) (A) (A) (A) (A) (A) (A)
                 (A) (A) (A) (A) (A) (A) (A) (A) (A) (A) (A) (A)
                 (A) (A) (A) (A) (A) (A) (A) (A) (A) (A) (A) (A)
                 (A) (A) (A) (A) (A) (A) (A) (A) (A) (A) (A) (A)
                 (A) (A) (A) (A) (A) (A) (A) (A) (A) (A) (A) (A)
                 (A) (A) (A) (A) (A) (A) (A) (A) (A) (A) (A) (A)
                 (A) (A) (A) (A) (A) (A) (A) (A) (A) (A) (A) (A)
                 (A) (A) (A) (A) (A) (A) (A) (A) (A) (A) (A) (A)
                 (A) (A) (A) (A) (A) (A) (A) (A) (A) (A) (A) (A)
                 (A) (A) (A) (A) (A) (A) (A) (A) (A) (A) (A) (A)
                 (A) (A) (A) (A) (A) (A) (A) (A) (A) (A) (A) (A)
                 (A) (A) (A) (A) (A) (A) (A) (A) (A) (A) (A) (A)
                 (A) (A) (A) (A) (A) (A) (A) (A) (A) (A) (A) (A)
                 (A) (A) (A) (A) (A) (A) (A) (A) (A) (A) (A) (A)
                 (A) (A) (A) (A) (A) (A) (A) (A) (A) (A) (A) (A)
                 (A) (A) (A) (A) (A) (A) (A) (A) (A) (A) (A) (A)
                 (A) (A) (A) (A) (A) (A) (A) (A) (A) (A) (A) (A)
                 (A) (A) (A) (A) (A) (A) (A) (A) (A) (A) (A) (A)
                 (A) (A) (A) (A) (A) (A) (A) (A) (A) (A) (A) (A)
                 (A) (A) (A) (A) (A) (A) (A) (A) (A) (A) (A) (A)
                 (A) (A) (A) (A) (A) (A) (A) (A) (A) (A) (A) (A)
                 (A) (A) (A) (A) (A) (A) (A) (A) (A) (A) (A) (A)
                 (A) (A) (A) (A) (A) (A) (A) (A) (A) (A) (A) (A)
                 (A) (A) (A) (A) (A) (A) (A) (A) (A) (A) (A) (A)
                 (A) (A) (A) (A) (A) (A) (A) (A) (A) (A) (A) (A)
                 (A) (A) (A) (A) (A) (A) (A) (A) (A) (A) (A) (A)
                 (A) (A) (A) (A) (A) (A) (A) (A) (A) (A)
       Virtual   (A) (A) (A) (A) (A) (A) (A) (A) (A) (A) (A) (A)
                 (A) (A) (A) (A) (A) (A) (A) (A) (A) (A) (A) (A)
                 (A) (A) (A) (A) (A) (A) (A) (A) (A) (A) (A) (A)
                 (A) (A) (A) (A) (A) (A) (A) (A) (A) (A) (A) (A)
                 (A) (A) (A) (A) (A) (A) (A) (A) (A) (A) (A) (A)
                 (A) (A) (A) (A) (A) (A) (A) (A) (A) (A) (A) (A)
                 (A) (A) (A) (A) (A) (A) (A) (A) (A) (A) (A) (A)
                 (A) (A) (A) (A) (A) (A) (A) (A) (A) (A) (A) (A)
                 (A) (A) (A) (A) (A) (A) (A) (A) (A) (A) (A) (A)
                 (A) (A) (A) (A) (A) (A) (A) (A) (A) (A) (A) (A)
                 (A) (A) (A) (A) (A) (A) (A) (A) (A) (A) (A) (A)
                 (A) (A) (A) (A) (A) (A) (A) (A) (A) (A) (A) (A)
                 (A) (A) (A) (A) (A) (A) (A) (A) (A) (A) (A) (A)
                 (A) (A) (A) (A) (A) (A) (A) (A) (A) (A) (A) (A)
                 (A) (A) (A) (A) (A) (A) (A) (A) (A) (A) (A) (A)
                 (A) (A) (A) (A) (A) (A) (A) (A) (A) (A) (A) (A)
                 (A) (A) (A) (A) (A) (A) (A) (A) (A) (A) (A) (A)
                 (A) (A) (A) (A) (A) (A) (A) (A) (A) (A) (A) (A)
                 (A) (A) (A) (A) (A) (A) (A) (A) (A) (A) (A) (A)
                 (A) (A) (A) (A) (A) (A) (A) (A) (A) (A) (A) (A)
                 (A) (A) (A) (A) (A) (A) (A) (A) (A) (A) (A) (A)
                 (A) (A) (A) (A) (A) (A) (A) (A) (A) (A) (A) (A)
                 (A) (A) (A) (A) (A) (A) (A) (A) (A) (A) (A) (A)
                 (A) (A) (A) (A) (A) (A) (A) (A) (A) (A) (A) (A)
                 (A) (A) (A) (A) (A) (A) (A) (A) (A) (A) (A) (A)
                 (A) (A) (A) (A) (A) (A) (A) (A) (A) (A) (A) (A)
                 (A) (A) (A) (A) (A) (A) (A) (A) (A) (A) (A) (A)
                 (A) (A) (A) (A) (A) (A) (A) (A) (A) (A) (A) (A)
                 (A) (A) (A) (A) (A) (A) (A) (A) (A) (A) (A) (A)
                 (A) (A) (A) (A) (A) (A) (A) (A) (A) (A) (A) (A)
                 (A) (A) (A) (A) (A) (A) (A) (A) (A) (A) (A) (A)
                 (A) (A) (A) (A) (A) (A) (A) (A) (A) (A) (A) (A)
                 (A) (A) (A) (A) (A) (A) (A) (A) (A) (A) (A) (A)
                 (A) (A) (A) (A) (A) (A) (A) (A) (A) (A) (A) (A)
                 (A) (A) (A) (A) (A) (A) (A) (A) (A) (A) (A) (A)
                 (A) (A) (A) (A) (A) (A) (A) (A) (A) (A) (A) (A)
                 (A) (A) (A) (A) (A) (A) (A) (A) (A) (A) (A) (A)
                 (A) (A) (A) (A) (A) (A) (A) (A) (A) (A) (A) (A)
                 (A) (A) (A) (A) (A) (A) (A) (A) (A) (A) (A) (A)
                 (A) (A) (A) (A) (A) (A) (A) (A) (A) (A) (A) (A)
                 (A) (A) (A) (A) (A) (A) (A) (A) (A) (A) (A) (A)
                 (A) (A) (A) (A) (A) (A) (A) (A) (A) (A) (A) (A)
                 (A) (A) (A) (A) (A) (A) (A) (A) (A) (A) (A) (A)
                 (A) (A) (A) (A) (A) (A) (A) (A) (A) (A) (A) (A)
                 (A) (A) (A) (A) (A) (A) (A) (A) (A) (A) (A) (A)
                 (A) (A) (A) (A) (A) (A) (A) (A) (A) (A) (A) (A)
                 (A) (A) (A) (A) (A) (A) (A) (A) (A) (A) (A) (A)
                 (A) (A) (A) (A) (A) (A) (A) (A) (A) (A) (A) (A)
                 (A) (A) (A) (A) (A) (A) (A) (A) (A) (A) (A) (A)
                 (A) (A) (A) (A) (A) (A) (A) (A) (A) (A) (A) (A)
                 (A) (A) (A) (A) (A) (A) (A) (A) (A) (A) (A) (A)
                 (A) (A) (A) (A) (A) (A) (A) (A) (A) (A) (A) (A)
                 (A) (A) (A) (A) (A) (A) (A) (A) (A) (A) (A) (A)
                 (A) (A) (A) (A) (A) (A) (A) (A) (A) (A) (A) (A)
                 (A) (A) (A) (A) (A) (A) (A) (A) (A) (A) (A) (A)
                 (A) (A) (A) (A) (A) (A) (A) (A) (A) (A) (A) (A)
                 (A) (A) (A) (A) (A) (A) (A) (A) (A) (A) (A) (A)
                 (A) (A) (A) (A) (A) (A) (A) (A) (A) (A) (A) (A)
                 (A) (A) (A) (A) (A) (A) (A) (A) (A) (A) (A) (A)
                 (A) (A) (A) (A) (A) (A) (A) (A) (A) (A) (A) (A)
                 (A) (A) (A) (A) (A) (A) (A) (A) (A) (A) (A) (A)
                 (A) (A) (A) (A) (A) (A) (A) (A) (A) (A) (A) (A)
                 (A) (A) (A) (A) (A) (A) (A) (A) (A) (A) (A) (A)
                 (A) (A) (A) (A) (A) (A) (A) (A) (A) (A) (A) (A)
                 (A) (A) (A) (A) (A) (A) (A) (A) (A) (A) (A) (A)
                 (A) (A) (A) (A) (A) (A) (A) (A) (A) (A) (A) (A)
                 (A) (A) (A) (A) (A) (A) (A) (A) (A) (A) (A) (A)
                 (A) (A) (A) (A) (A) (A) (A) (A) (A) (A) (A) (A)
                 (A) (A) (A) (A) (A) (A) (A) (A) (A) (A) (A) (A)
                 (A) (A) (A) (A) (A) (A) (A) (A) (A) (A) (A) (A)
                 (A) (A) (A) (A) (A) (A) (A) (A) (A) (A) (A) (A)
                 (A) (A) (A) (A) (A) (A) (A) (A) (A) (A) (A) (A)
                 (A) (A) (A) (A) (A) (A) (A) (A) (A) (A) (A) (A)
                 (A) (A) (A) (A) (A) (A) (A) (A) (A) (A) (A) (A)
                 (A) (A) (A) (A) (A) (A) (A) (A) (A) (A) (A) (A)
                 (A) (A) (A) (A) (A) (A) (A) (A) (A) (A) (A) (A)
                 (A) (A) (A) (A) (A) (A) (A) (A) (A) (A) (A) (A)
                 (A) (A) (A) (A) (A) (A) (A) (A) (A) (A) (A) (A)
                 (A) (A) (A) (A) (A) (A) (A) (A) (A) (A) (A) (A)
                 (A) (A) (A) (A) (A) (A) (A) (A) (A) (A) (A) (A)
                 (A) (A) (A) (A) (A) (A) (A) (A) (A) (A) (A) (A)
                 (A) (A) (A) (A) (A) (A) (A) (A) (A) (A) (A) (A)
                 (A) (A) (A) (A) (A) (A) (A) (A) (A) (A) (A) (A)
                 (A) (A) (A) (A) (A) (A) (A) (A) (A) (A) (A) (A)
                 (A) (A) (A) (A) (A) (A) (A) (A) (A) (A) (A) (A)
                 (A) (A) (A) (A) (A) (A) (A) (A) (A) (A) (A) (A)
                 (A) (A) (A) (A) (A) (A) (A) (A) (A) (A) (A) (A)
                 (A) (A) (A) (A) (A) (A) (A) (A) (A) (A) (A) (A)
                 (A) (A) (A) (A) (A) (A) (A) (A) (A) (A) (A) (A)
                 (A) (A) (A) (A) (A) (A) (A) (A) (A) (A) (A) (A)
                 (A) (A) (A) (A) (A) (A) (A) (A) (A) (A) (A) (A)
                 (A) (A) (A) (A) (A) (A) (A) (A) (A) (A) (A) (A)
                 (A) (A) (A) (A) (A) (A) (A) (A) (A) (A) (A) (A)
                 (A) (A) (A) (A) (A) (A) (A) (A) (A) (A) (A) (A)
                 (A) (A) (A) (A) (A) (A) (A) (A) (A) (A) (A) (A)
                 (A) (A) (A) (A) (A) (A) (A) (A) (A) (A) (A) (A)
                 (A) (A) (A) (A) (A) (A) (A) (A) (A) (A) (A) (A)
                 (A) (A) (A) (A) (A) (A) (A) (A) (A) (A) (A) (A)
                 (A) (A) (A) (A) (A) (A) (A) (A) (A) (A) (A) (A)
                 (A) (A) (A) (A) (A) (A) (A) (A) (A) (A) (A) (A)
                 (A) (A) (A) (A) (A) (A) (A) (A) (A) (A) (A) (A)
                 (A) (A) (A) (A) (A) (A) (A) (A) (A) (A) (A) (A)
                 (A) (A) (A) (A) (A) (A) (A) (A) (A) (A) (A) (A)
                 (A) (A) (A) (A) (A) (A) (A) (A) (A) (A) (A) (A)
                 (A) (A) (A) (A) (A) (A) (A) (A) (A) (A) (A) (A)
                 (A) (A) (A) (A) (A) (A) (A) (A) (A) (A) (A) (A)
                 (A) (A) (A) (A) (A) (A) (A) (A) (A) (A) (A) (A)
                 (A) (A) (A) (A) (A) (A) (A) (A) (A) (A) (A) (A)
                 (A) (A) (A) (A) (A) (A) (A) (A) (A) (A) (A) (A)
                 (A) (A) (A) (A) (A) (A) (A) (A) (A) (A) (A) (A)
                 (A) (A) (A) (A) (A) (A) (A) (A) (A) (A) (A) (A)
                 (A) (A) (A) (A) (A) (A) (A) (A) (A) (A) (A) (A)
                 (A) (A) (A) (A) (A) (A) (A) (A) (A) (A) (A) (A)
                 (A) (A) (A)
 The electronic state is 1-A.
 Alpha  occ. eigenvalues -- -145.37433 -19.19983 -19.14457 -19.13911 -19.13769
 Alpha  occ. eigenvalues --  -19.12935 -19.12575 -19.12199 -19.11111 -19.11053
 Alpha  occ. eigenvalues --  -19.10981 -19.10935 -19.09188 -19.08323 -19.07816
 Alpha  occ. eigenvalues --  -19.07123 -19.06608 -19.06302 -19.04353 -19.04160
 Alpha  occ. eigenvalues --  -19.03847 -19.03233 -19.02942 -19.01000 -15.43200
 Alpha  occ. eigenvalues --  -14.57183 -14.40415 -14.37538 -14.37204 -14.36984
 Alpha  occ. eigenvalues --  -14.36534 -14.36256 -14.34627 -14.34222 -14.33075
 Alpha  occ. eigenvalues --  -14.32843 -14.32805 -14.31939 -14.30950 -14.29387
 Alpha  occ. eigenvalues --  -12.56816 -12.56777 -12.56758 -10.34232 -10.32153
 Alpha  occ. eigenvalues --  -10.30780 -10.30635 -10.30410 -10.30236 -10.29642
 Alpha  occ. eigenvalues --  -10.29548 -10.27469 -10.27453 -10.26984 -10.26964
 Alpha  occ. eigenvalues --  -10.26845 -10.26342 -10.26065 -10.25869 -10.25814
 Alpha  occ. eigenvalues --  -10.25011 -10.24351 -10.24214 -10.23977 -10.23751
 Alpha  occ. eigenvalues --  -10.23672 -10.23433 -10.23405 -10.23230 -10.22952
 Alpha  occ. eigenvalues --  -10.22674 -10.22229 -10.22198 -10.21659 -10.21183
 Alpha  occ. eigenvalues --  -10.20958 -10.20562 -10.20540 -10.20269 -10.20188
 Alpha  occ. eigenvalues --  -10.20014 -10.19450 -10.19350 -10.19110 -10.18926
 Alpha  occ. eigenvalues --  -10.18454 -10.18222 -10.18024 -10.17987 -10.17927
 Alpha  occ. eigenvalues --  -10.17902 -10.17810 -10.17743 -10.17537 -10.17373
 Alpha  occ. eigenvalues --  -10.16304 -10.13746  -1.80069  -1.12554  -1.08558
 Alpha  occ. eigenvalues --   -1.07766  -1.07651  -1.07522  -1.06267  -1.05658
 Alpha  occ. eigenvalues --   -1.05572  -1.05109  -1.04863  -1.03855  -1.03384
 Alpha  occ. eigenvalues --   -1.03297  -1.02287  -1.01917  -1.01490  -1.01002
 Alpha  occ. eigenvalues --   -1.00479  -0.99663  -0.99238  -0.98209  -0.97977
 Alpha  occ. eigenvalues --   -0.96961  -0.96888  -0.96430  -0.96228  -0.94199
 Alpha  occ. eigenvalues --   -0.94023  -0.93504  -0.93464  -0.92265  -0.91724
 Alpha  occ. eigenvalues --   -0.91507  -0.90185  -0.89486  -0.89053  -0.88851
 Alpha  occ. eigenvalues --   -0.88386  -0.88278  -0.87503  -0.86331  -0.86130
 Alpha  occ. eigenvalues --   -0.83583  -0.82984  -0.82022  -0.81850  -0.79938
 Alpha  occ. eigenvalues --   -0.78625  -0.78539  -0.78231  -0.77863  -0.76222
 Alpha  occ. eigenvalues --   -0.75946  -0.74895  -0.73768  -0.73503  -0.73076
 Alpha  occ. eigenvalues --   -0.72853  -0.72602  -0.72536  -0.71344  -0.70078
 Alpha  occ. eigenvalues --   -0.70006  -0.69899  -0.69104  -0.68668  -0.68207
 Alpha  occ. eigenvalues --   -0.67622  -0.66225  -0.65448  -0.65150  -0.65020
 Alpha  occ. eigenvalues --   -0.64712  -0.63739  -0.63306  -0.62078  -0.61577
 Alpha  occ. eigenvalues --   -0.61319  -0.60901  -0.60888  -0.60795  -0.60625
 Alpha  occ. eigenvalues --   -0.60589  -0.59638  -0.59159  -0.59087  -0.58765
 Alpha  occ. eigenvalues --   -0.58329  -0.57849  -0.57583  -0.57053  -0.56901
 Alpha  occ. eigenvalues --   -0.56259  -0.56088  -0.55941  -0.55706  -0.55379
 Alpha  occ. eigenvalues --   -0.55183  -0.54946  -0.54305  -0.54136  -0.53558
 Alpha  occ. eigenvalues --   -0.53347  -0.53185  -0.52856  -0.52602  -0.52246
 Alpha  occ. eigenvalues --   -0.51833  -0.51682  -0.51451  -0.50910  -0.50398
 Alpha  occ. eigenvalues --   -0.50119  -0.49876  -0.49744  -0.49293  -0.49072
 Alpha  occ. eigenvalues --   -0.49023  -0.48810  -0.48650  -0.48152  -0.48121
 Alpha  occ. eigenvalues --   -0.47857  -0.47723  -0.47535  -0.47063  -0.47029
 Alpha  occ. eigenvalues --   -0.46681  -0.46563  -0.46433  -0.46307  -0.46187
 Alpha  occ. eigenvalues --   -0.46049  -0.45962  -0.45498  -0.45414  -0.45276
 Alpha  occ. eigenvalues --   -0.45062  -0.44987  -0.44905  -0.44657  -0.44389
 Alpha  occ. eigenvalues --   -0.44236  -0.44024  -0.43847  -0.43737  -0.43488
 Alpha  occ. eigenvalues --   -0.43479  -0.43262  -0.43138  -0.43028  -0.42690
 Alpha  occ. eigenvalues --   -0.42576  -0.42382  -0.42171  -0.42060  -0.42011
 Alpha  occ. eigenvalues --   -0.41853  -0.41722  -0.41593  -0.41477  -0.41324
 Alpha  occ. eigenvalues --   -0.41086  -0.41049  -0.40741  -0.40624  -0.40488
 Alpha  occ. eigenvalues --   -0.40337  -0.40108  -0.39788  -0.39734  -0.39633
 Alpha  occ. eigenvalues --   -0.39581  -0.39522  -0.39367  -0.39272  -0.39123
 Alpha  occ. eigenvalues --   -0.38976  -0.38962  -0.38831  -0.38749  -0.38700
 Alpha  occ. eigenvalues --   -0.38539  -0.38054  -0.37773  -0.37644  -0.37590
 Alpha  occ. eigenvalues --   -0.37514  -0.37422  -0.37281  -0.37195  -0.36938
 Alpha  occ. eigenvalues --   -0.36815  -0.36671  -0.36597  -0.36304  -0.36284
 Alpha  occ. eigenvalues --   -0.35940  -0.35708  -0.35464  -0.35293  -0.35073
 Alpha  occ. eigenvalues --   -0.34978  -0.34929  -0.34799  -0.34420  -0.34272
 Alpha  occ. eigenvalues --   -0.34146  -0.33949  -0.33785  -0.33759  -0.33459
 Alpha  occ. eigenvalues --   -0.33140  -0.32677  -0.32578  -0.32317  -0.32183
 Alpha  occ. eigenvalues --   -0.31518  -0.31382  -0.31280  -0.30777  -0.30224
 Alpha  occ. eigenvalues --   -0.30133  -0.29794  -0.29394  -0.29325  -0.29241
 Alpha  occ. eigenvalues --   -0.28605  -0.28575  -0.28410  -0.27870  -0.27672
 Alpha  occ. eigenvalues --   -0.27184  -0.26774  -0.26512  -0.26428  -0.26304
 Alpha  occ. eigenvalues --   -0.26183  -0.25115  -0.24740  -0.24596  -0.24268
 Alpha  occ. eigenvalues --   -0.23869  -0.23792  -0.23375  -0.23349  -0.23339
 Alpha  occ. eigenvalues --   -0.22538  -0.22505  -0.21632  -0.21503  -0.20986
 Alpha  occ. eigenvalues --   -0.20749  -0.20545  -0.19997  -0.19742  -0.19508
 Alpha  occ. eigenvalues --   -0.19333  -0.18938  -0.16902
 Alpha virt. eigenvalues --   -0.09088  -0.03315  -0.03072  -0.02879  -0.01695
 Alpha virt. eigenvalues --   -0.00926  -0.00635  -0.00562  -0.00416  -0.00071
 Alpha virt. eigenvalues --    0.00356   0.00843   0.01098   0.01268   0.01335
 Alpha virt. eigenvalues --    0.02079   0.02336   0.02450   0.02699   0.03104
 Alpha virt. eigenvalues --    0.03184   0.03486   0.03763   0.03885   0.04096
 Alpha virt. eigenvalues --    0.04643   0.04827   0.05089   0.05383   0.05546
 Alpha virt. eigenvalues --    0.05680   0.06122   0.06452   0.06508   0.06705
 Alpha virt. eigenvalues --    0.06766   0.06988   0.07104   0.07440   0.07720
 Alpha virt. eigenvalues --    0.07870   0.08116   0.08265   0.08419   0.08614
 Alpha virt. eigenvalues --    0.08772   0.09001   0.09485   0.09541   0.09767
 Alpha virt. eigenvalues --    0.09910   0.10019   0.10218   0.10403   0.10587
 Alpha virt. eigenvalues --    0.10768   0.10914   0.11210   0.11370   0.11543
 Alpha virt. eigenvalues --    0.11739   0.11917   0.12063   0.12270   0.12322
 Alpha virt. eigenvalues --    0.12643   0.12660   0.12990   0.13138   0.13329
 Alpha virt. eigenvalues --    0.13366   0.13552   0.13798   0.13905   0.14088
 Alpha virt. eigenvalues --    0.14178   0.14430   0.14563   0.14714   0.14831
 Alpha virt. eigenvalues --    0.15114   0.15226   0.15364   0.15674   0.15772
 Alpha virt. eigenvalues --    0.15840   0.15971   0.16123   0.16261   0.16431
 Alpha virt. eigenvalues --    0.16519   0.16619   0.16932   0.17072   0.17226
 Alpha virt. eigenvalues --    0.17369   0.17473   0.17961   0.18079   0.18455
 Alpha virt. eigenvalues --    0.18585   0.18745   0.18944   0.18967   0.19214
 Alpha virt. eigenvalues --    0.19426   0.19702   0.19852   0.19949   0.20041
 Alpha virt. eigenvalues --    0.20548   0.20774   0.20899   0.20983   0.21219
 Alpha virt. eigenvalues --    0.21418   0.21521   0.21699   0.21830   0.22065
 Alpha virt. eigenvalues --    0.22449   0.22681   0.22897   0.22974   0.23103
 Alpha virt. eigenvalues --    0.23195   0.23334   0.23531   0.23932   0.23977
 Alpha virt. eigenvalues --    0.24469   0.24476   0.24716   0.24964   0.25615
 Alpha virt. eigenvalues --    0.25632   0.25766   0.25880   0.26011   0.26113
 Alpha virt. eigenvalues --    0.26300   0.26625   0.26884   0.27033   0.27191
 Alpha virt. eigenvalues --    0.27449   0.27743   0.27903   0.28107   0.28515
 Alpha virt. eigenvalues --    0.28743   0.28873   0.29596   0.30013   0.30230
 Alpha virt. eigenvalues --    0.30294   0.30521   0.30717   0.31014   0.31357
 Alpha virt. eigenvalues --    0.31493   0.31855   0.32179   0.32218   0.32372
 Alpha virt. eigenvalues --    0.32557   0.32914   0.33048   0.33242   0.33386
 Alpha virt. eigenvalues --    0.33814   0.33849   0.34153   0.34488   0.35239
 Alpha virt. eigenvalues --    0.35329   0.35683   0.35826   0.36118   0.36333
 Alpha virt. eigenvalues --    0.36518   0.37033   0.37477   0.37614   0.37744
 Alpha virt. eigenvalues --    0.37839   0.38100   0.38363   0.38587   0.38744
 Alpha virt. eigenvalues --    0.39157   0.39506   0.39849   0.40182   0.40436
 Alpha virt. eigenvalues --    0.40484   0.40674   0.40943   0.41250   0.41467
 Alpha virt. eigenvalues --    0.41648   0.41903   0.42014   0.42069   0.42287
 Alpha virt. eigenvalues --    0.42681   0.42885   0.43067   0.43348   0.43639
 Alpha virt. eigenvalues --    0.43812   0.44089   0.44339   0.44530   0.44772
 Alpha virt. eigenvalues --    0.44959   0.45384   0.45565   0.45821   0.46063
 Alpha virt. eigenvalues --    0.46171   0.46361   0.46414   0.46548   0.46960
 Alpha virt. eigenvalues --    0.47122   0.47216   0.47330   0.47765   0.47936
 Alpha virt. eigenvalues --    0.48036   0.48270   0.48326   0.48518   0.48604
 Alpha virt. eigenvalues --    0.48867   0.48998   0.49279   0.49444   0.49603
 Alpha virt. eigenvalues --    0.49953   0.50111   0.50190   0.50572   0.50775
 Alpha virt. eigenvalues --    0.50925   0.51127   0.51332   0.51526   0.51822
 Alpha virt. eigenvalues --    0.52013   0.52129   0.52390   0.52554   0.52710
 Alpha virt. eigenvalues --    0.52803   0.53038   0.53517   0.53656   0.53900
 Alpha virt. eigenvalues --    0.54074   0.54323   0.54432   0.54659   0.54890
 Alpha virt. eigenvalues --    0.54951   0.55138   0.55346   0.55437   0.55716
 Alpha virt. eigenvalues --    0.55814   0.55946   0.56282   0.56620   0.56724
 Alpha virt. eigenvalues --    0.56818   0.56951   0.57214   0.57471   0.57583
 Alpha virt. eigenvalues --    0.57632   0.57980   0.58062   0.58215   0.58382
 Alpha virt. eigenvalues --    0.58525   0.58841   0.58939   0.59121   0.59280
 Alpha virt. eigenvalues --    0.59452   0.59583   0.59754   0.59908   0.60106
 Alpha virt. eigenvalues --    0.60218   0.60309   0.60510   0.60528   0.60694
 Alpha virt. eigenvalues --    0.60805   0.60947   0.61027   0.61247   0.61384
 Alpha virt. eigenvalues --    0.61478   0.61615   0.61808   0.61862   0.61899
 Alpha virt. eigenvalues --    0.62083   0.62199   0.62413   0.62605   0.62652
 Alpha virt. eigenvalues --    0.62718   0.62963   0.63167   0.63341   0.63466
 Alpha virt. eigenvalues --    0.63491   0.63659   0.63716   0.63882   0.64038
 Alpha virt. eigenvalues --    0.64096   0.64333   0.64385   0.64518   0.64565
 Alpha virt. eigenvalues --    0.64688   0.64723   0.64927   0.65057   0.65175
 Alpha virt. eigenvalues --    0.65302   0.65503   0.65626   0.65800   0.65844
 Alpha virt. eigenvalues --    0.65925   0.66026   0.66184   0.66343   0.66385
 Alpha virt. eigenvalues --    0.66528   0.66625   0.66730   0.66999   0.67054
 Alpha virt. eigenvalues --    0.67070   0.67137   0.67329   0.67394   0.67521
 Alpha virt. eigenvalues --    0.67662   0.67717   0.67768   0.67983   0.68110
 Alpha virt. eigenvalues --    0.68186   0.68326   0.68418   0.68654   0.68700
 Alpha virt. eigenvalues --    0.68888   0.69047   0.69152   0.69303   0.69463
 Alpha virt. eigenvalues --    0.69510   0.69818   0.69984   0.70046   0.70055
 Alpha virt. eigenvalues --    0.70210   0.70240   0.70499   0.70728   0.70895
 Alpha virt. eigenvalues --    0.71027   0.71064   0.71127   0.71368   0.71513
 Alpha virt. eigenvalues --    0.71626   0.71898   0.71975   0.72080   0.72203
 Alpha virt. eigenvalues --    0.72448   0.72490   0.72881   0.72973   0.73008
 Alpha virt. eigenvalues --    0.73144   0.73326   0.73420   0.73739   0.73781
 Alpha virt. eigenvalues --    0.73900   0.74085   0.74403   0.74594   0.74632
 Alpha virt. eigenvalues --    0.74803   0.74989   0.75486   0.75565   0.75645
 Alpha virt. eigenvalues --    0.75920   0.76362   0.76549   0.76778   0.77061
 Alpha virt. eigenvalues --    0.77089   0.77279   0.77508   0.77577   0.77746
 Alpha virt. eigenvalues --    0.78124   0.78315   0.78386   0.78678   0.79046
 Alpha virt. eigenvalues --    0.79209   0.79550   0.79654   0.79824   0.80225
 Alpha virt. eigenvalues --    0.80359   0.80766   0.81095   0.81249   0.81521
 Alpha virt. eigenvalues --    0.81968   0.82304   0.82739   0.83007   0.83385
 Alpha virt. eigenvalues --    0.83446   0.83814   0.84035   0.84193   0.84284
 Alpha virt. eigenvalues --    0.84920   0.85064   0.85335   0.85508   0.85837
 Alpha virt. eigenvalues --    0.86156   0.86215   0.86409   0.86643   0.87056
 Alpha virt. eigenvalues --    0.87395   0.87470   0.87709   0.87945   0.88107
 Alpha virt. eigenvalues --    0.88473   0.88612   0.89078   0.89271   0.89615
 Alpha virt. eigenvalues --    0.89712   0.89919   0.90190   0.90769   0.91103
 Alpha virt. eigenvalues --    0.91350   0.91528   0.91835   0.92395   0.92597
 Alpha virt. eigenvalues --    0.92953   0.93215   0.93618   0.94226   0.94308
 Alpha virt. eigenvalues --    0.94633   0.94987   0.95068   0.95326   0.95575
 Alpha virt. eigenvalues --    0.95904   0.96033   0.96376   0.96539   0.96827
 Alpha virt. eigenvalues --    0.97039   0.97274   0.97428   0.97571   0.97893
 Alpha virt. eigenvalues --    0.98391   0.98642   0.98824   0.99136   0.99289
 Alpha virt. eigenvalues --    0.99469   0.99909   1.00134   1.00909   1.01078
 Alpha virt. eigenvalues --    1.01171   1.01747   1.02299   1.02545   1.02847
 Alpha virt. eigenvalues --    1.03078   1.03218   1.03393   1.03798   1.04060
 Alpha virt. eigenvalues --    1.04538   1.04610   1.04912   1.05032   1.05465
 Alpha virt. eigenvalues --    1.05736   1.06011   1.06389   1.06857   1.06995
 Alpha virt. eigenvalues --    1.07155   1.07359   1.07987   1.08175   1.08308
 Alpha virt. eigenvalues --    1.08588   1.09126   1.09429   1.09819   1.10249
 Alpha virt. eigenvalues --    1.10423   1.10633   1.10888   1.11320   1.11639
 Alpha virt. eigenvalues --    1.11864   1.12136   1.12273   1.12404   1.12810
 Alpha virt. eigenvalues --    1.13146   1.13351   1.13588   1.13846   1.14006
 Alpha virt. eigenvalues --    1.14281   1.14509   1.14984   1.15289   1.15449
 Alpha virt. eigenvalues --    1.15580   1.15647   1.15956   1.16271   1.16927
 Alpha virt. eigenvalues --    1.16985   1.17159   1.17276   1.17714   1.18050
 Alpha virt. eigenvalues --    1.18115   1.18694   1.18893   1.18967   1.19327
 Alpha virt. eigenvalues --    1.19587   1.19854   1.19863   1.20238   1.20465
 Alpha virt. eigenvalues --    1.20949   1.21194   1.21455   1.21503   1.21862
 Alpha virt. eigenvalues --    1.21940   1.22158   1.22523   1.22906   1.23104
 Alpha virt. eigenvalues --    1.23288   1.23846   1.24016   1.24143   1.24253
 Alpha virt. eigenvalues --    1.24686   1.24864   1.25054   1.25303   1.25532
 Alpha virt. eigenvalues --    1.25998   1.26135   1.26415   1.26630   1.26807
 Alpha virt. eigenvalues --    1.26958   1.27397   1.27535   1.27846   1.28383
 Alpha virt. eigenvalues --    1.28518   1.29036   1.29349   1.29579   1.29821
 Alpha virt. eigenvalues --    1.30152   1.30375   1.30673   1.30776   1.31001
 Alpha virt. eigenvalues --    1.31289   1.31591   1.32044   1.32254   1.32495
 Alpha virt. eigenvalues --    1.32998   1.33245   1.33718   1.33751   1.34182
 Alpha virt. eigenvalues --    1.34271   1.34582   1.34803   1.35182   1.35691
 Alpha virt. eigenvalues --    1.35792   1.36255   1.36450   1.37077   1.37232
 Alpha virt. eigenvalues --    1.37561   1.37709   1.37776   1.38318   1.38693
 Alpha virt. eigenvalues --    1.38897   1.38961   1.39299   1.39637   1.39956
 Alpha virt. eigenvalues --    1.40050   1.40730   1.40991   1.41315   1.41715
 Alpha virt. eigenvalues --    1.41925   1.42140   1.42343   1.42456   1.42676
 Alpha virt. eigenvalues --    1.42700   1.43323   1.43385   1.43620   1.44210
 Alpha virt. eigenvalues --    1.44290   1.44667   1.44982   1.45207   1.45431
 Alpha virt. eigenvalues --    1.45637   1.45864   1.46107   1.46237   1.46539
 Alpha virt. eigenvalues --    1.46714   1.47238   1.47607   1.47896   1.47974
 Alpha virt. eigenvalues --    1.48086   1.48461   1.48688   1.48934   1.49480
 Alpha virt. eigenvalues --    1.49643   1.49813   1.50061   1.50363   1.50471
 Alpha virt. eigenvalues --    1.51194   1.51322   1.51457   1.52165   1.52465
 Alpha virt. eigenvalues --    1.52856   1.52937   1.53116   1.53552   1.53741
 Alpha virt. eigenvalues --    1.54004   1.54125   1.54669   1.55325   1.55518
 Alpha virt. eigenvalues --    1.55608   1.56173   1.56278   1.56548   1.56863
 Alpha virt. eigenvalues --    1.57028   1.57331   1.57705   1.57779   1.58151
 Alpha virt. eigenvalues --    1.58594   1.59297   1.59380   1.59838   1.60350
 Alpha virt. eigenvalues --    1.60719   1.61050   1.61469   1.61688   1.61851
 Alpha virt. eigenvalues --    1.62483   1.62706   1.62817   1.63134   1.63340
 Alpha virt. eigenvalues --    1.64124   1.64258   1.64430   1.64633   1.64813
 Alpha virt. eigenvalues --    1.64928   1.65108   1.65928   1.66180   1.66995
 Alpha virt. eigenvalues --    1.67331   1.67371   1.67592   1.67794   1.67869
 Alpha virt. eigenvalues --    1.68063   1.68475   1.68659   1.68742   1.69176
 Alpha virt. eigenvalues --    1.69261   1.69440   1.69828   1.70052   1.70135
 Alpha virt. eigenvalues --    1.70271   1.70738   1.70910   1.71076   1.71497
 Alpha virt. eigenvalues --    1.71533   1.71818   1.72063   1.72251   1.72467
 Alpha virt. eigenvalues --    1.72580   1.72876   1.73259   1.73389   1.73623
 Alpha virt. eigenvalues --    1.73754   1.74030   1.74086   1.74516   1.74642
 Alpha virt. eigenvalues --    1.74760   1.75272   1.75436   1.75678   1.75752
 Alpha virt. eigenvalues --    1.76275   1.76381   1.76463   1.76576   1.76757
 Alpha virt. eigenvalues --    1.76941   1.76970   1.77401   1.77627   1.77693
 Alpha virt. eigenvalues --    1.78153   1.78359   1.78511   1.78744   1.78941
 Alpha virt. eigenvalues --    1.78999   1.79076   1.79322   1.79470   1.79617
 Alpha virt. eigenvalues --    1.79870   1.79980   1.80157   1.80511   1.80603
 Alpha virt. eigenvalues --    1.80771   1.80981   1.81067   1.81207   1.81357
 Alpha virt. eigenvalues --    1.81429   1.81644   1.81798   1.81839   1.82166
 Alpha virt. eigenvalues --    1.82207   1.82327   1.82507   1.82567   1.82641
 Alpha virt. eigenvalues --    1.83360   1.83497   1.83691   1.83787   1.83937
 Alpha virt. eigenvalues --    1.84223   1.84297   1.84587   1.84689   1.84886
 Alpha virt. eigenvalues --    1.85036   1.85107   1.85255   1.85286   1.85411
 Alpha virt. eigenvalues --    1.85898   1.85916   1.86122   1.86511   1.86763
 Alpha virt. eigenvalues --    1.86975   1.87132   1.87239   1.87461   1.87626
 Alpha virt. eigenvalues --    1.87667   1.87781   1.88085   1.88434   1.88693
 Alpha virt. eigenvalues --    1.88915   1.89117   1.89503   1.89552   1.89714
 Alpha virt. eigenvalues --    1.90097   1.90220   1.90296   1.90451   1.90741
 Alpha virt. eigenvalues --    1.90845   1.91027   1.91134   1.91535   1.91625
 Alpha virt. eigenvalues --    1.91875   1.92119   1.92272   1.92568   1.92742
 Alpha virt. eigenvalues --    1.92756   1.93118   1.93308   1.93472   1.93680
 Alpha virt. eigenvalues --    1.94120   1.94173   1.94491   1.94690   1.94754
 Alpha virt. eigenvalues --    1.94945   1.95139   1.95375   1.95576   1.95770
 Alpha virt. eigenvalues --    1.95919   1.96085   1.96207   1.96601   1.96979
 Alpha virt. eigenvalues --    1.97112   1.97280   1.97675   1.97917   1.97982
 Alpha virt. eigenvalues --    1.98133   1.98322   1.98527   1.98752   1.98957
 Alpha virt. eigenvalues --    1.99716   2.00021   2.00054   2.00537   2.00676
 Alpha virt. eigenvalues --    2.00880   2.01005   2.01190   2.01371   2.01562
 Alpha virt. eigenvalues --    2.01801   2.02154   2.02355   2.02543   2.02627
 Alpha virt. eigenvalues --    2.02951   2.03158   2.03533   2.03660   2.03978
 Alpha virt. eigenvalues --    2.04150   2.04634   2.04780   2.05069   2.05186
 Alpha virt. eigenvalues --    2.05466   2.05567   2.05999   2.06419   2.06550
 Alpha virt. eigenvalues --    2.06911   2.07223   2.07256   2.07686   2.07875
 Alpha virt. eigenvalues --    2.08274   2.08518   2.08605   2.08818   2.09273
 Alpha virt. eigenvalues --    2.09358   2.09767   2.10050   2.10205   2.10970
 Alpha virt. eigenvalues --    2.11115   2.11119   2.11555   2.11698   2.11974
 Alpha virt. eigenvalues --    2.12087   2.12237   2.12653   2.12866   2.13139
 Alpha virt. eigenvalues --    2.13175   2.13724   2.14153   2.14591   2.14938
 Alpha virt. eigenvalues --    2.15039   2.15634   2.15817   2.15903   2.16209
 Alpha virt. eigenvalues --    2.16350   2.16868   2.17104   2.17285   2.17800
 Alpha virt. eigenvalues --    2.18160   2.18256   2.18641   2.18898   2.19207
 Alpha virt. eigenvalues --    2.19259   2.19737   2.19800   2.20002   2.20240
 Alpha virt. eigenvalues --    2.20624   2.20876   2.21005   2.21673   2.21813
 Alpha virt. eigenvalues --    2.22106   2.22651   2.23043   2.23767   2.24028
 Alpha virt. eigenvalues --    2.24230   2.24626   2.25235   2.25394   2.25602
 Alpha virt. eigenvalues --    2.25876   2.26393   2.26552   2.26888   2.27738
 Alpha virt. eigenvalues --    2.27855   2.28147   2.28368   2.28826   2.29103
 Alpha virt. eigenvalues --    2.29415   2.29949   2.30111   2.30485   2.30608
 Alpha virt. eigenvalues --    2.30756   2.30849   2.31464   2.31664   2.32395
 Alpha virt. eigenvalues --    2.32691   2.32931   2.33127   2.33439   2.33623
 Alpha virt. eigenvalues --    2.34367   2.34727   2.34954   2.35113   2.35342
 Alpha virt. eigenvalues --    2.35926   2.36331   2.36503   2.36858   2.37022
 Alpha virt. eigenvalues --    2.37579   2.38043   2.38262   2.38478   2.38588
 Alpha virt. eigenvalues --    2.38704   2.38916   2.39119   2.39620   2.39682
 Alpha virt. eigenvalues --    2.39842   2.40566   2.40973   2.41283   2.41566
 Alpha virt. eigenvalues --    2.42125   2.42236   2.42452   2.42546   2.42760
 Alpha virt. eigenvalues --    2.42898   2.43406   2.43669   2.44121   2.44341
 Alpha virt. eigenvalues --    2.44673   2.44758   2.44971   2.45390   2.46606
 Alpha virt. eigenvalues --    2.47129   2.47313   2.47437   2.47849   2.48160
 Alpha virt. eigenvalues --    2.48307   2.48416   2.48783   2.49068   2.49535
 Alpha virt. eigenvalues --    2.49728   2.50056   2.50623   2.51192   2.51417
 Alpha virt. eigenvalues --    2.51946   2.52297   2.52489   2.52987   2.53520
 Alpha virt. eigenvalues --    2.53794   2.54392   2.54763   2.55073   2.55232
 Alpha virt. eigenvalues --    2.55623   2.55727   2.56093   2.56391   2.56830
 Alpha virt. eigenvalues --    2.57334   2.57612   2.57787   2.58198   2.58370
 Alpha virt. eigenvalues --    2.58630   2.58704   2.58935   2.59972   2.60141
 Alpha virt. eigenvalues --    2.60341   2.60636   2.61085   2.61367   2.61512
 Alpha virt. eigenvalues --    2.61761   2.61836   2.62053   2.62722   2.62769
 Alpha virt. eigenvalues --    2.63110   2.63484   2.63542   2.63965   2.64083
 Alpha virt. eigenvalues --    2.64308   2.64720   2.64789   2.64899   2.65600
 Alpha virt. eigenvalues --    2.66098   2.66342   2.66649   2.67023   2.67187
 Alpha virt. eigenvalues --    2.67293   2.67524   2.68055   2.68485   2.68730
 Alpha virt. eigenvalues --    2.68905   2.69152   2.69238   2.69680   2.69888
 Alpha virt. eigenvalues --    2.70245   2.70685   2.71016   2.71362   2.71618
 Alpha virt. eigenvalues --    2.72085   2.72818   2.73073   2.73400   2.73647
 Alpha virt. eigenvalues --    2.73892   2.73984   2.74661   2.74823   2.74982
 Alpha virt. eigenvalues --    2.75078   2.75295   2.75479   2.75703   2.75870
 Alpha virt. eigenvalues --    2.76053   2.76164   2.76282   2.76592   2.76803
 Alpha virt. eigenvalues --    2.77191   2.77318   2.77690   2.77818   2.77891
 Alpha virt. eigenvalues --    2.77956   2.78392   2.78520   2.78730   2.79152
 Alpha virt. eigenvalues --    2.79596   2.79934   2.80388   2.80640   2.81239
 Alpha virt. eigenvalues --    2.81327   2.81541   2.81740   2.82103   2.82598
 Alpha virt. eigenvalues --    2.82940   2.83392   2.83524   2.83680   2.84066
 Alpha virt. eigenvalues --    2.84381   2.84587   2.84767   2.85380   2.85665
 Alpha virt. eigenvalues --    2.86251   2.86551   2.86729   2.86864   2.87377
 Alpha virt. eigenvalues --    2.87925   2.88407   2.88628   2.88756   2.89166
 Alpha virt. eigenvalues --    2.89284   2.89589   2.89905   2.90308   2.90890
 Alpha virt. eigenvalues --    2.91305   2.91559   2.91653   2.91976   2.92590
 Alpha virt. eigenvalues --    2.92726   2.92973   2.93081   2.93324   2.93949
 Alpha virt. eigenvalues --    2.94025   2.94103   2.94431   2.94664   2.94917
 Alpha virt. eigenvalues --    2.95113   2.95311   2.95717   2.96145   2.96559
 Alpha virt. eigenvalues --    2.96711   2.96826   2.97109   2.97693   2.97847
 Alpha virt. eigenvalues --    2.98042   2.98198   2.98799   2.98825   2.99192
 Alpha virt. eigenvalues --    2.99340   3.00057   3.00271   3.00651   3.00936
 Alpha virt. eigenvalues --    3.01265   3.01525   3.01905   3.02164   3.02441
 Alpha virt. eigenvalues --    3.02679   3.02859   3.03140   3.03596   3.03797
 Alpha virt. eigenvalues --    3.04257   3.04802   3.05335   3.05739   3.06358
 Alpha virt. eigenvalues --    3.06770   3.07179   3.07356   3.08342   3.08410
 Alpha virt. eigenvalues --    3.09942   3.10358   3.10612   3.11365   3.11584
 Alpha virt. eigenvalues --    3.12510   3.12811   3.12875   3.12989   3.13014
 Alpha virt. eigenvalues --    3.13680   3.14246   3.14741   3.15021   3.15240
 Alpha virt. eigenvalues --    3.15397   3.15739   3.16159   3.16583   3.16644
 Alpha virt. eigenvalues --    3.17137   3.17504   3.17748   3.18397   3.18501
 Alpha virt. eigenvalues --    3.18707   3.19241   3.19512   3.19781   3.20277
 Alpha virt. eigenvalues --    3.20486   3.20627   3.21232   3.21414   3.21798
 Alpha virt. eigenvalues --    3.22171   3.22369   3.22750   3.23224   3.23349
 Alpha virt. eigenvalues --    3.23396   3.25691   3.26892   3.27162   3.28213
 Alpha virt. eigenvalues --    3.28493   3.29772   3.29834   3.30776   3.31043
 Alpha virt. eigenvalues --    3.31349   3.31685   3.32463   3.33866   3.34286
 Alpha virt. eigenvalues --    3.37414   3.37580   3.38769   3.39644   3.41177
 Alpha virt. eigenvalues --    3.42232   3.43296   3.46060   3.47524   3.51429
 Alpha virt. eigenvalues --    3.52163   3.52870   3.53095   3.54325   3.54452
 Alpha virt. eigenvalues --    3.55599   3.56667   3.57648   3.57823   3.58538
 Alpha virt. eigenvalues --    3.58911   3.59215   3.60227   3.61957   3.63631
 Alpha virt. eigenvalues --    3.63979   3.66152   3.66854   3.67268   3.67758
 Alpha virt. eigenvalues --    3.68967   3.69073   3.69262   3.69445   3.69686
 Alpha virt. eigenvalues --    3.70547   3.70843   3.71171   3.71415   3.72078
 Alpha virt. eigenvalues --    3.72337   3.72836   3.73130   3.74202   3.77707
 Alpha virt. eigenvalues --    3.78197   3.78883   3.82552   3.84851
          Condensed to atoms (all electrons):
 Mulliken charges:
               1
     1  C    0.030722
     2  C    0.049082
     3  O   -0.296017
     4  H    0.047610
     5  H   -0.000460
     6  H    0.021151
     7  N   -0.139723
     8  C    0.111251
     9  C    0.063821
    10  O   -0.290401
    11  C    0.097805
    12  C    0.094440
    13  O   -0.391520
    14  O   -0.422929
    15  H    0.123296
    16  H   -0.000050
    17  H   -0.002159
    18  H   -0.000509
    19  N   -0.156903
    20  C    0.177135
    21  C    0.063006
    22  O   -0.282179
    23  C    0.009094
    24  C   -0.027567
    25  C   -0.026911
    26  C    0.043991
    27  N    0.066866
    28  H    0.161344
    29  H    0.014099
    30  H    0.008910
    31  H    0.008395
    32  H    0.011177
    33  H    0.013641
    34  H    0.048352
    35  H    0.047490
    36  H    0.065628
    37  H    0.080243
    38  H    0.184176
    39  H    0.209426
    40  H    0.182328
    41  N   -0.168408
    42  C    0.121234
    43  C    0.047344
    44  O   -0.294298
    45  C    0.117220
    46  C    0.071544
    47  O   -0.386221
    48  O   -0.458645
    49  H    0.135827
    50  H    0.024548
    51  H    0.006221
    52  H    0.027670
    53  N   -0.143594
    54  C    0.232667
    55  C    0.025134
    56  O   -0.290942
    57  H    0.116374
    58  H    0.014813
    59  H    0.028331
    60  N   -0.176193
    61  C    0.126301
    62  C    0.043002
    63  O   -0.293756
    64  C    0.161573
    65  C    0.047139
    66  N   -0.031938
    67  O   -0.356857
    68  H    0.145825
    69  H    0.033810
    70  H    0.083658
    71  H   -0.030518
    72  H    0.136908
    73  H    0.113848
    74  N   -0.167524
    75  C    0.245130
    76  C    0.015059
    77  O   -0.314351
    78  H    0.146746
    79  H    0.042453
    80  H    0.031223
    81  N   -0.137978
    82  C    0.137820
    83  C    0.141507
    84  O   -0.370186
    85  C    0.123723
    86  C    0.017466
    87  C    0.011800
    88  C   -0.012176
    89  C   -0.005567
    90  C   -0.047810
    91  C    0.175125
    92  O   -0.208723
    93  H    0.151559
    94  H    0.002170
    95  H    0.008629
    96  H   -0.045302
    97  H   -0.072633
    98  H   -0.019163
    99  H   -0.018482
   100  H   -0.030231
   101  H    0.168758
   102  N   -0.113478
   103  C    0.126918
   104  C    0.082642
   105  O   -0.281800
   106  C   -0.062266
   107  C    0.032354
   108  C    0.039901
   109  C   -0.014400
   110  H    0.130339
   111  H    0.007916
   112  H   -0.011621
   113  H   -0.000030
   114  H   -0.021199
   115  H    0.005592
   116  H    0.024963
   117  H    0.009321
   118  H    0.028705
   119  H    0.000463
   120  H    0.006978
   121  N   -0.156655
   122  C    0.074469
   123  C    0.095150
   124  O   -0.289548
   125  C    0.285785
   126  O   -0.364998
   127  H    0.163204
   128  H    0.009210
   129  H   -0.042304
   130  H   -0.022166
   131  H    0.177586
   132  N   -0.103415
   133  C    0.125673
   134  C    0.034932
   135  O   -0.265424
   136  C    0.027891
   137  H    0.124946
   138  H    0.023982
   139  H    0.041387
   140  H    0.013502
   141  H    0.019043
   142  N   -0.108254
   143  C    0.116014
   144  C    0.050391
   145  O   -0.274805
   146  C    0.037487
   147  H    0.108033
   148  H    0.012220
   149  H    0.028655
   150  H    0.021049
   151  H    0.019325
   152  N   -0.146208
   153  C    0.166418
   154  C    0.069936
   155  O   -0.314354
   156  C   -0.075925
   157  C    0.132777
   158  C    0.171942
   159  O   -0.419306
   160  O   -0.455797
   161  H    0.124094
   162  H   -0.040206
   163  H    0.046971
   164  H    0.012846
   165  H    0.001067
   166  H    0.008406
   167  N   -0.164024
   168  C    0.120916
   169  H    0.004565
   170  H    0.020874
   171  H    0.032033
   172  H    0.139418
   173  Ca   1.281089
   174  O   -0.268456
   175  H    0.179067
   176  H    0.202381
 Sum of Mulliken charges =   0.00000
 Mulliken charges with hydrogens summed into heavy atoms:
               1
     1  C    0.099023
     2  C    0.049082
     3  O   -0.296017
     7  N   -0.016427
     8  C    0.111201
     9  C    0.063821
    10  O   -0.290401
    11  C    0.095137
    12  C    0.094440
    13  O   -0.391520
    14  O   -0.422929
    19  N    0.004441
    20  C    0.191234
    21  C    0.063006
    22  O   -0.282179
    23  C    0.026398
    24  C   -0.002749
    25  C    0.068931
    26  C    0.189862
    27  N    0.642796
    41  N   -0.032581
    42  C    0.145782
    43  C    0.047344
    44  O   -0.294298
    45  C    0.151112
    46  C    0.071544
    47  O   -0.386221
    48  O   -0.458645
    53  N   -0.027220
    54  C    0.275811
    55  C    0.025134
    56  O   -0.290942
    60  N   -0.030368
    61  C    0.160111
    62  C    0.043002
    63  O   -0.293756
    64  C    0.214712
    65  C    0.047139
    66  N    0.218818
    67  O   -0.356857
    74  N   -0.020778
    75  C    0.318806
    76  C    0.015059
    77  O   -0.314351
    81  N    0.013581
    82  C    0.139991
    83  C    0.141507
    84  O   -0.370186
    85  C    0.087050
    86  C    0.017466
    87  C   -0.060833
    88  C   -0.031338
    89  C   -0.024049
    90  C   -0.078041
    91  C    0.175125
    92  O   -0.039965
   102  N    0.016860
   103  C    0.134834
   104  C    0.082642
   105  O   -0.281800
   106  C   -0.073887
   107  C    0.011125
   108  C    0.079777
   109  C    0.021745
   121  N    0.006549
   122  C    0.083679
   123  C    0.095150
   124  O   -0.289548
   125  C    0.221315
   126  O   -0.187412
   132  N    0.021531
   133  C    0.149655
   134  C    0.034932
   135  O   -0.265424
   136  C    0.101822
   142  N   -0.000220
   143  C    0.128234
   144  C    0.050391
   145  O   -0.274805
   146  C    0.106516
   152  N   -0.022114
   153  C    0.126212
   154  C    0.069936
   155  O   -0.314354
   156  C   -0.016108
   157  C    0.142250
   158  C    0.171942
   159  O   -0.419306
   160  O   -0.455797
   167  N   -0.024607
   168  C    0.178387
   173  Ca   1.281089
   174  O    0.112992
 DipInt: DoE/N= T F RetVal/Mat= T F Init=T NMatP=  1 IDeriv=0 Min/MaxMlt=  0  4
 Entering OneElI...
 OneElI was handed  4286741430 working-precision words.
 Multipole integrals L=0 to 4 MinM= 0 MaxM= 0.
 Requested accuracy = 0.1000D-12
 ShPair: Thresh= 1.00D-13 NBox=     0 BxSize= 0.00D+00 RnKept= 2.55D+01
         NSMCal=               327645 NSMKep=              163646
 PrsmSu:  NPrtUS=   1 ThrOK=F IAlg=1 NPAlg=1 LenDen=           0.
 Prism:   IPart=     0 DynPar=F LinDyn=F Incr=         512.
 PRISM was handed  4276555222 working-precision words and163646 shell-pairs
 IPart=  0 NShTot=      163646 NBatch=         457 AvBLen=       358.1
 PrSmSu:  NxtVal=            513.
 Electronic moments (au):
       -716.00000000         10.03831766         -0.91692678          3.72645599
     -51523.12436182     -28561.43428098     -13141.06082736         80.48711298
          3.31168878         94.92648914     -25399.57136769     -25945.52216022
      -6985.91364691      19275.63901179     111806.93136369      25257.77268024
     -11042.83705281     -10592.22969837      -3508.69057501     -54060.49488119
   -7563665.65041845   -2371968.23690743    -568500.80398893    -261133.11714286
     407574.32706097    -461313.42500294     -31483.05794296     -50984.83640593
      -1736.45129716   -2200513.32283431    -740431.87440009    -436565.91551101
     -36288.96409359      10892.73778122      46843.23493662
 Electronic spatial extent (au):  <R**2>=          93225.6195
 DipInt: DoE/N= F T RetVal/Mat= T F Init=T NMatP=  1 IDeriv=0 Min/MaxMlt=  0  4
 Nuclear    moments (au):
        716.00000000          0.00000000          0.00000000          0.00000000
      51046.31936329      28215.82805670      12759.07381253          0.00000000
          0.00000000          0.00000000      25901.16446686      26503.38477731
       7301.84452615     -17757.78806181    -111730.25109508     -25113.02938232
      11500.83021392      10482.43032654       4029.72997665      54542.65858682
    7360246.25772120    2278544.82827311     524429.79657529     268369.32156721
    -413105.43494838     468136.85641007      40950.93721979      52474.37285936
       7120.33829151    2162299.54714557     708176.35730930     416415.06970882
      42955.67486939      -8256.48643303     -42819.59460098
 Total      moments (au):
          0.00000000         10.03831766         -0.91692678          3.72645599
       -476.80499853       -345.60622428       -381.98701483         80.48711298
          3.31168878         94.92648914        501.59309917        557.86261709
        315.93087924       1517.85094998         76.68026861        144.74329792
        457.99316111       -109.79937182        521.03940164        482.16370564
    -203419.39269725     -93423.40863433     -44071.00741364       7236.20442435
      -5531.10788741       6823.43140712       9467.87927683       1489.53645343
       5383.88699435     -38213.77568874     -32255.51709079     -20150.84580218
       6666.71077580       2636.25134819       4023.64033564
 Traceless Quadrup. (au):
        -75.33891932         55.85985494         19.47906438         80.48711298
          3.31168878         94.92648914
 Charge=              0.0000 electrons
 Dipole moment (field-independent basis, Debye):
    X=             25.5149    Y=             -2.3306    Z=              9.4717  Tot=             27.3158
 Quadrupole moment (field-independent basis, Debye-Ang):
   XX=           -641.3190   YY=           -464.8522   ZZ=           -513.7856
   XY=            108.2579   XZ=              4.4543   YZ=            127.6794
 Traceless Quadrupole moment (field-independent basis, Debye-Ang):
   XX=           -101.3334   YY=             75.1334   ZZ=             26.2000
   XY=            108.2579   XZ=              4.4543   YZ=            127.6794
 Octapole moment (field-independent basis, Debye-Ang**2):
  XXX=            357.0146  YYY=            397.0651  ZZZ=            224.8674  XYY=           1080.3478
  XXY=             54.5781  XXZ=            103.0227  XZZ=            325.9819  YZZ=            -78.1510
  YYZ=            370.8557  XYZ=            343.1855
 Hexadecapole moment (field-independent basis, Debye-Ang**3):
 XXXX=         -76617.4925 YYYY=         -35187.7332 ZZZZ=         -16599.2536 XXXY=           2725.5014
 XXXZ=          -2083.2803 YYYX=           2570.0313 YYYZ=           3566.0571 ZZZX=            561.0308
 ZZZY=           2027.8299 XXYY=         -14393.1394 XXZZ=         -12148.9736 YYZZ=          -7589.7743
 XXYZ=           2511.0028 YYXZ=            992.9386 ZZXY=           1515.4958
 N-N= 2.185429451579D+04 E-N=-5.618747789611D+04  KE= 5.290477824609D+03
 Leave Link  601 at Mon Sep 16 18:42:45 2019, MaxMem=  4294967296 cpu:        21.9
 FitSet:  NAtFit=   176 NAtPot=   176 NAtFrz=     0 MDM=   180 TotChg=   0.00000
 Merz-Kollman atomic radii used.
 Read replacement radii for each type of atom:
 Rad(20) =   1.700000000000D+00
 Atom Element Radius
    1     6    1.50
    2     6    1.50
    3     8    1.40
    4     1    1.20
    5     1    1.20
    6     1    1.20
    7     7    1.50
    8     6    1.50
    9     6    1.50
   10     8    1.40
   11     6    1.50
   12     6    1.50
   13     8    1.40
   14     8    1.40
   15     1    1.20
   16     1    1.20
   17     1    1.20
   18     1    1.20
   19     7    1.50
   20     6    1.50
   21     6    1.50
   22     8    1.40
   23     6    1.50
   24     6    1.50
   25     6    1.50
   26     6    1.50
   27     7    1.50
   28     1    1.20
   29     1    1.20
   30     1    1.20
   31     1    1.20
   32     1    1.20
   33     1    1.20
   34     1    1.20
   35     1    1.20
   36     1    1.20
   37     1    1.20
   38     1    1.20
   39     1    1.20
   40     1    1.20
   41     7    1.50
   42     6    1.50
   43     6    1.50
   44     8    1.40
   45     6    1.50
   46     6    1.50
   47     8    1.40
   48     8    1.40
   49     1    1.20
   50     1    1.20
   51     1    1.20
   52     1    1.20
   53     7    1.50
   54     6    1.50
   55     6    1.50
   56     8    1.40
   57     1    1.20
   58     1    1.20
   59     1    1.20
   60     7    1.50
   61     6    1.50
   62     6    1.50
   63     8    1.40
   64     6    1.50
   65     6    1.50
   66     7    1.50
   67     8    1.40
   68     1    1.20
   69     1    1.20
   70     1    1.20
   71     1    1.20
   72     1    1.20
   73     1    1.20
   74     7    1.50
   75     6    1.50
   76     6    1.50
   77     8    1.40
   78     1    1.20
   79     1    1.20
   80     1    1.20
   81     7    1.50
   82     6    1.50
   83     6    1.50
   84     8    1.40
   85     6    1.50
   86     6    1.50
   87     6    1.50
   88     6    1.50
   89     6    1.50
   90     6    1.50
   91     6    1.50
   92     8    1.40
   93     1    1.20
   94     1    1.20
   95     1    1.20
   96     1    1.20
   97     1    1.20
   98     1    1.20
   99     1    1.20
  100     1    1.20
  101     1    1.20
  102     7    1.50
  103     6    1.50
  104     6    1.50
  105     8    1.40
  106     6    1.50
  107     6    1.50
  108     6    1.50
  109     6    1.50
  110     1    1.20
  111     1    1.20
  112     1    1.20
  113     1    1.20
  114     1    1.20
  115     1    1.20
  116     1    1.20
  117     1    1.20
  118     1    1.20
  119     1    1.20
  120     1    1.20
  121     7    1.50
  122     6    1.50
  123     6    1.50
  124     8    1.40
  125     6    1.50
  126     8    1.40
  127     1    1.20
  128     1    1.20
  129     1    1.20
  130     1    1.20
  131     1    1.20
  132     7    1.50
  133     6    1.50
  134     6    1.50
  135     8    1.40
  136     6    1.50
  137     1    1.20
  138     1    1.20
  139     1    1.20
  140     1    1.20
  141     1    1.20
  142     7    1.50
  143     6    1.50
  144     6    1.50
  145     8    1.40
  146     6    1.50
  147     1    1.20
  148     1    1.20
  149     1    1.20
  150     1    1.20
  151     1    1.20
  152     7    1.50
  153     6    1.50
  154     6    1.50
  155     8    1.40
  156     6    1.50
  157     6    1.50
  158     6    1.50
  159     8    1.40
  160     8    1.40
  161     1    1.20
  162     1    1.20
  163     1    1.20
  164     1    1.20
  165     1    1.20
  166     1    1.20
  167     7    1.50
  168     6    1.50
  169     1    1.20
  170     1    1.20
  171     1    1.20
  172     1    1.20
  173    20    1.70
  174     8    1.40
  175     1    1.20
  176     1    1.20
 Generate VDW surfaces: Layer= 4 Dens= 6 Start= 1.400 Inc= 0.200

 **********************************************************************

            Electrostatic Properties Using The SCF Density

 **********************************************************************

       Atomic Center    1 is at   2.333649  2.518699  5.077038
       Atomic Center    2 is at   1.670099  2.289380  3.724849
       Atomic Center    3 is at   2.325874  2.076047  2.707967
[...]
 **** Fit      -0.004766
 **** Fit       0.003727
 **** Fit       0.013821
 **** Fit       0.025414
 **** Fit       0.038011
 **** Fit      -0.030286
 **** Fit      -0.029597
 **** Fit      -0.027775
 **** Fit      -0.024806
 **** Fit      -0.020635
 **** Fit      -0.015176
 **** Fit      -0.008319
 **** Fit       0.000050
 **** Fit       0.009995
 **** Fit       0.021442
 **** Fit       0.033995
 **** Fit      -0.029806
 **** Fit      -0.034147
 **** Fit      -0.033480
 **** Fit      -0.031670
 **** Fit      -0.028673
 **** Fit      -0.024429
 **** Fit      -0.018865
 **** Fit      -0.011900
 **** Fit      -0.003470
 **** Fit       0.006427
 **** Fit       0.017616
 **** Fit       0.029576
 **** Fit      -0.033692
 **** Fit      -0.039080
 **** Fit      -0.038478
 **** Fit      -0.036638
 **** Fit      -0.033482
 **** Fit      -0.028952
 **** Fit      -0.023010
 **** Fit      -0.015635
 **** Fit      -0.006852
 **** Fit       0.003211
 **** Fit       0.014202
 **** Fit       0.025369
 **** Fit      -0.038535
 **** Fit      -0.040123
 **** Fit      -0.035206
 **** Fit      -0.028761
 **** Fit      -0.020878
 **** Fit      -0.011714
 **** Fit      -0.001535
 **** Fit      -0.044865
 **** Fit      -0.001861
 **** Fit      -0.004992
 **** Fit      -0.007103
 **** Fit      -0.011244
 **** Fit      -0.006641
 **** Fit      -0.013368
 **** Fit      -0.020493
 **** Fit      -0.000871
 **** Fit      -0.003383
 **** Fit      -0.008833
 **** Fit      -0.015854
 **** Fit      -0.004499
 **** Fit      -0.009535
 **** Fit      -0.007625
 **** Fit      -0.008972
 **** Fit      -0.012951
 **** Fit      -0.012996
 **** Fit      -0.017699
 **** Fit      -0.022075
 **** Fit      -0.022929
 **** Fit       0.037611
 **** Fit       0.028350
 **** Fit       0.046799
 **** Fit       0.005766
 **** Fit       0.023116
 **** Fit       0.040080
 **** Fit       0.000174
 **** Fit       0.016090
 **** Fit       0.031389
 **** Fit       0.010105
 **** Fit       0.024188
 **** Fit       0.007334
 **** Fit       0.020597
 **** Fit       0.006307
 **** Fit       0.018463
 **** Fit       0.005493
 **** Fit       0.016036
 **** Fit       0.023948
 **** Fit       0.008620
 **** Fit       0.016598
 **** Fit       0.021662
 **** Fit       0.010900
 **** Fit       0.015880
 **** Fit      -0.001386
 **** Fit       0.000401
 **** Fit       0.016559
 **** Fit       0.020521
 **** Fit       0.023017
 **** Fit       0.015184
 **** Fit       0.017557
 **** Fit       0.018640
 **** Fit       0.018345
 **** Fit       0.012445
 **** Fit       0.013973
 **** Fit       0.014802
 **** Fit       0.014601
 **** Fit       0.013259
 **** Fit       0.010835
 **** Fit       0.012588
 **** Fit       0.012513
 **** Fit       0.011772
 **** Fit       0.010062
 **** Fit       0.007334
 **** Fit       0.003716
 **** Fit      -0.000524
 **** Fit       0.011426
 **** Fit       0.010018
 **** Fit       0.007933
 **** Fit       0.005012
 **** Fit       0.001413
 **** Fit      -0.002390
 **** Fit      -0.005485
 **** Fit       0.011026
 **** Fit       0.008784
 **** Fit       0.006105
 **** Fit       0.002813
 **** Fit      -0.000720
 **** Fit      -0.003544
 **** Fit       0.007583
 **** Fit       0.004137
 **** Fit       0.000638
 **** Fit      -0.001537
 **** Fit      -0.001051
 **** Fit       0.001055
 **** Fit       0.006540
 **** Fit       0.002764
 **** Fit       0.001727
 **** Fit       0.004230
 **** Fit       0.005471
 **** Fit       0.001055
 **** Fit       0.000790
 **** Fit      -0.000172
 **** Fit       0.001420
 **** Fit       0.002324
 **** Fit       0.001895
 **** Fit      -0.001974
 **** Fit      -0.000064
 **** Fit       0.003195
 **** Fit       0.002477
 **** Fit       0.001576
 **** Fit      -0.002210
 **** Fit       0.000430
 **** Fit       0.003641
 **** Fit       0.002884
 **** Fit       0.002059
 **** Fit       0.001177
 **** Fit      -0.007444
 **** Fit      -0.003914
 **** Fit      -0.000489
 **** Fit       0.004076
 **** Fit       0.003301
 **** Fit       0.002487
 **** Fit       0.001617
 **** Fit       0.000710
 **** Fit      -0.007838
 **** Fit      -0.003430
 **** Fit       0.004244
 **** Fit       0.003498
 **** Fit       0.002713
 **** Fit       0.001865
 **** Fit       0.000963
 **** Fit       0.000039
 **** Fit      -0.008579
 **** Fit      -0.003367
 **** Fit       0.004657
 **** Fit       0.003911
 **** Fit       0.003122
 **** Fit       0.002253
 **** Fit       0.001298
 **** Fit       0.000281
 **** Fit      -0.000759
 **** Fit       0.005038
 **** Fit       0.004307
 **** Fit       0.003528
 **** Fit       0.002656
 **** Fit       0.001672
 **** Fit       0.000585
 **** Fit      -0.000571
 **** Fit      -0.001754
 **** Fit      -0.004305
 **** Fit       0.005584
 **** Fit       0.004867
 **** Fit       0.004098
 **** Fit       0.003233
 **** Fit       0.002235
 **** Fit       0.001093
 **** Fit      -0.000173
 **** Fit      -0.001521
 **** Fit      -0.002905
 **** Fit      -0.005870
 **** Fit       0.006183
 **** Fit       0.005486
 **** Fit       0.004732
 **** Fit      -0.002637
 **** Fit      -0.004242
 **** Fit      -0.007653
 **** Fit      -0.009614
 **** Fit       0.007047
 **** Fit       0.006363
 **** Fit      -0.005758
 **** Fit      -0.009728
 **** Fit      -0.012035
 **** Fit      -0.014546
 **** Fit       0.008386
 **** Fit       0.007759
 **** Fit      -0.014865
 **** Fit      -0.017691
 **** Fit      -0.020967
 **** Fit       0.009815
 **** Fit       0.009423
 **** Fit       0.008703
 **** Fit      -0.018307
 **** Fit      -0.021379
 **** Fit      -0.024891
 **** Fit      -0.029154
 **** Fit      -0.034560
 **** Fit       0.010155
 **** Fit       0.011044
 **** Fit       0.011246
 **** Fit       0.010838
 **** Fit      -0.026188
 **** Fit      -0.030075
 **** Fit      -0.034773
 **** Fit      -0.040561
 **** Fit       0.011967
 **** Fit       0.013049
 **** Fit      -0.032374
 **** Fit      -0.036650
 **** Fit      -0.041890
 **** Fit       0.003967
 **** Fit       0.003115
 **** Fit       0.003247
 **** Fit       0.004945
 **** Fit       0.005316
 **** Fit       0.004434
 **** Fit       0.002141
 **** Fit       0.004388
 **** Fit       0.006055
 **** Fit       0.006638
 **** Fit       0.006403
 **** Fit       0.005706
 **** Fit       0.004737
 **** Fit       0.003609
 **** Fit       0.003283
 **** Fit       0.005784
 **** Fit       0.007359
 **** Fit       0.007874
 **** Fit       0.007719
 **** Fit       0.007251
 **** Fit       0.006608
 **** Fit       0.005828
 **** Fit       0.004938
 **** Fit       0.008615
 **** Fit       0.008064
 **** Fit       0.007470
 **** Fit       0.006805
 **** Fit       0.006054
 **** Fit       0.005225
 **** Fit       0.008832
 **** Fit       0.008280
 **** Fit       0.007724
 **** Fit       0.007104
 **** Fit       0.006397
 **** Fit       0.005612
 **** Fit       0.009252
 **** Fit       0.008776
 **** Fit       0.008363
 **** Fit       0.007908
 **** Fit       0.007364
 **** Fit       0.006717
 **** Fit       0.005980
 **** Fit       0.008784
 **** Fit       0.008585
 **** Fit       0.008306
 **** Fit       0.007901
 **** Fit       0.007353
 **** Fit       0.006670
 **** Fit       0.008428
 **** Fit       0.008585
 **** Fit       0.008576
 **** Fit       0.008381
 **** Fit       0.007989
 **** Fit       0.007409
 **** Fit       0.006678
 **** Fit       0.008181
 **** Fit       0.008634
 **** Fit       0.008809
 **** Fit       0.008708
 **** Fit       0.008337
 **** Fit       0.007725
 **** Fit       0.007488
 **** Fit       0.008507
 **** Fit       0.009101
 **** Fit       0.009290
 **** Fit       0.009085
 **** Fit       0.007527
 **** Fit       0.008945
 **** Fit       0.009764
 **** Fit       0.009995
 **** Fit       0.007698
 **** Fit       0.009606
 **** Fit       0.002733
 **** Fit       0.001553
 **** Fit       0.000216
 **** Fit      -0.004073
 **** Fit       0.005114
 **** Fit       0.004268
 **** Fit       0.003246
 **** Fit       0.002059
 **** Fit       0.000721
 **** Fit      -0.000754
 **** Fit      -0.002355
 **** Fit      -0.005525
 **** Fit       0.006098
 **** Fit       0.005208
 **** Fit       0.004123
 **** Fit       0.002865
 **** Fit       0.001455
 **** Fit      -0.000093
 **** Fit      -0.001772
 **** Fit      -0.003580
 **** Fit      -0.007298
 **** Fit      -0.009611
 **** Fit       0.007253
 **** Fit       0.006271
 **** Fit       0.005066
 **** Fit       0.003683
 **** Fit       0.002153
 **** Fit       0.000499
 **** Fit      -0.001269
 **** Fit      -0.003151
 **** Fit      -0.005154
 **** Fit      -0.009564
 **** Fit      -0.012129
 **** Fit      -0.014929
 **** Fit       0.008926
 **** Fit       0.007837
 **** Fit       0.006447
 **** Fit       0.004840
 **** Fit       0.003081
 **** Fit       0.001211
 **** Fit      -0.000750
 **** Fit      -0.002796
 **** Fit      -0.004933
 **** Fit      -0.007180
 **** Fit      -0.012564
 **** Fit      -0.015516
 **** Fit      -0.018738
 **** Fit       0.010636
 **** Fit       0.009109
 **** Fit       0.007164
 **** Fit       0.004973
 **** Fit       0.002652
 **** Fit       0.000261
 **** Fit      -0.002174
 **** Fit      -0.004650
 **** Fit      -0.007184
 **** Fit      -0.009807
 **** Fit      -0.016669
 **** Fit      -0.020109
 **** Fit      -0.023850
 **** Fit       0.005471
 **** Fit       0.002239
 **** Fit      -0.000965
 **** Fit      -0.004113
 **** Fit      -0.007214
 **** Fit      -0.010301
 **** Fit      -0.013428
 **** Fit       0.001291
 **** Fit      -0.003157
 **** Fit      -0.007315
 **** Fit      -0.011242
 **** Fit      -0.015015
 **** Fit      -0.018729
 **** Fit      -0.001244
 **** Fit      -0.001183
 **** Fit      -0.002629
 **** Fit      -0.002979
 **** Fit      -0.001522
 **** Fit      -0.000174
 **** Fit      -0.000136
 **** Fit      -0.001360
 **** Fit      -0.002825
 **** Fit      -0.004466
 **** Fit      -0.005704
 **** Fit      -0.005665
 **** Fit      -0.004134
 **** Fit      -0.001990
 **** Fit       0.000558
 **** Fit      -0.000226
 **** Fit      -0.001793
 **** Fit      -0.003183
 **** Fit      -0.004905
 **** Fit      -0.006905
 **** Fit      -0.008853
 **** Fit      -0.010066
 **** Fit      -0.009818
 **** Fit      -0.007995
 **** Fit      -0.005293
 **** Fit       0.000245
 **** Fit      -0.000673
 **** Fit      -0.002499
 **** Fit      -0.003904
 **** Fit      -0.005672
 **** Fit      -0.007897
 **** Fit      -0.010574
 **** Fit      -0.013446
 **** Fit      -0.000334
 **** Fit      -0.001339
 **** Fit      -0.003493
 **** Fit      -0.004977
 **** Fit      -0.006843
 **** Fit      -0.009254
 **** Fit      -0.012364
 **** Fit      -0.016230
 **** Fit      -0.001138
 **** Fit      -0.002250
 **** Fit      -0.004797
 **** Fit      -0.006358
 **** Fit      -0.008297
 **** Fit      -0.010803
 **** Fit      -0.014110
 **** Fit      -0.018476
 **** Fit      -0.002247
 **** Fit      -0.003465
 **** Fit      -0.006436
 **** Fit      -0.008188
 **** Fit      -0.010358
 **** Fit      -0.013179
 **** Fit      -0.016970
 **** Fit      -0.004924
 **** Fit      -0.008444
 **** Fit      -0.010389
 **** Fit      -0.012772
 **** Fit      -0.015855
 **** Fit      -0.020008
 **** Fit      -0.006740
 **** Fit      -0.010868
 **** Fit      -0.013066
 **** Fit      -0.015737
 **** Fit      -0.019175
 **** Fit      -0.023806
 **** Fit      -0.016366
 **** Fit      -0.019517
 **** Fit      -0.023599
 **** Fit      -0.024082
 **** Fit      -0.028988
 **** Fit      -0.008801
 **** Fit      -0.021465
 **** Fit      -0.016572
 **** Fit      -0.004539
 **** Fit       0.006479
 **** Fit       0.016309
 **** Fit       0.024547
 **** Fit       0.030916
 **** Fit       0.038683
 **** Fit      -0.016859
 **** Fit      -0.005338
 **** Fit       0.005837
 **** Fit       0.015777
 **** Fit       0.023863
 **** Fit       0.029876
 **** Fit      -0.012636
 **** Fit      -0.004323
 **** Fit       0.006503
 **** Fit       0.016585
 **** Fit       0.024995
 **** Fit       0.033135
 **** Fit       0.029245
 **** Fit       0.025999
 **** Fit       0.038540
 **** Fit       0.034969
 **** Fit       0.032239
 **** Fit       0.030444
 **** Fit       0.043009
 **** Fit       0.039601
 **** Fit       0.037257
 **** Fit       0.035810
 **** Fit       0.035411
 **** Fit       0.043889
 **** Fit       0.041443
 **** Fit       0.039979
 **** Fit       0.039399
 **** Fit       0.039798
 **** Fit       0.045845
 **** Fit       0.043628
 **** Fit       0.042430
 **** Fit       0.042107
 **** Fit       0.042669
 **** Fit       0.047416
 **** Fit       0.045204
 **** Fit       0.044018
 **** Fit       0.043696
 **** Fit       0.044199
 **** Fit       0.045565
 **** Fit       0.047235
 **** Fit       0.045506
 **** Fit       0.044527
 **** Fit       0.044276
 **** Fit       0.044750
 **** Fit       0.045990
 **** Fit       0.048068
 **** Fit       0.044581
 **** Fit       0.044041
 **** Fit       0.043776
 **** Fit       0.044036
 **** Fit       0.044954
 **** Fit       0.046651
 **** Fit       0.040406
 **** Fit       0.041469
 **** Fit       0.042164
 **** Fit       0.043052
 **** Fit       0.044453
 **** Fit       0.046617
 **** Fit       0.026898
 **** Fit       0.033055
 **** Fit       0.036848
 **** Fit       0.039118
 **** Fit       0.040844
 **** Fit       0.042718
 **** Fit       0.032345
 **** Fit       0.036375
 **** Fit       0.039261
 **** Fit      -0.007075
 **** Fit       0.047749
 **** Fit      -0.000466
 **** Fit      -0.009111
 **** Fit       0.045458
 **** Fit       0.044156
 **** Fit       0.042998
 **** Fit       0.019898
 **** Fit       0.013304
 **** Fit       0.006345
 **** Fit      -0.002023
 **** Fit      -0.013096
 **** Fit       0.042079
 **** Fit       0.041604
 **** Fit       0.040810
 **** Fit       0.039729
 **** Fit       0.038109
 **** Fit       0.035540
 **** Fit       0.026220
 **** Fit       0.020005
 **** Fit       0.013296
 **** Fit       0.005533
 **** Fit      -0.003862
 **** Fit      -0.015087
 **** Fit       0.035069
 **** Fit       0.036817
 **** Fit       0.037280
 **** Fit       0.036909
 **** Fit       0.035795
 **** Fit       0.033745
 **** Fit       0.030464
 **** Fit       0.025819
 **** Fit       0.019062
 **** Fit       0.011999
 **** Fit       0.003611
 **** Fit      -0.005768
 **** Fit      -0.014389
 **** Fit      -0.018879
 **** Fit      -0.016834
 **** Fit      -0.009360
 **** Fit       0.019750
 **** Fit       0.026322
 **** Fit       0.030351
 **** Fit       0.032244
 **** Fit       0.032525
 **** Fit       0.031434
 **** Fit       0.028891
 **** Fit       0.024750
 **** Fit       0.017561
 **** Fit       0.009806
 **** Fit       0.001380
 **** Fit      -0.004593
 **** Fit      -0.004313
 **** Fit       0.002238
 **** Fit       0.011428
 **** Fit       0.019687
 **** Fit       0.025063
 **** Fit       0.027254
 **** Fit       0.026622
 **** Fit       0.023343
 **** Fit       0.015824
 **** Fit       0.008012
 **** Fit       0.005819
 **** Fit       0.012562
 **** Fit       0.019716
 **** Fit       0.020919
 **** Fit       0.014090
 -----------------------------------------------------------------
 Leave Link  602 at Mon Sep 16 18:42:58 2019, MaxMem=  4294967296 cpu:       154.0

 Test job not archived.
 1\1\GINC-N004\SP\RB3LYP\SVP\C54H83Ca1N15O23\PCIEPLAK\16-Sep-2019\0\\#m
 axdisk=50GB #B3LYP/SVP Density=Current scf=(tight) #IOP(5/87=12)Pop=(M
 K,readradii) iop(6/33=2) iop(6/42=6)\\SOL molecule\\0,1\C,0,94.02,53.6
 9,4.196\C,0,95.02,54.71,3.666\O,0,96.08,54.37,3.146\H,0,93.094,53.76,3
 .626\H,0,94.434,52.687,4.093\H,0,93.815,53.893,5.247\N,0,94.61,55.97,3
 .746\C,0,95.57,57.05,3.646\C,0,96.45,57.04,4.886\O,0,95.9,57.17,5.976\
 C,0,94.8,58.36,3.476\C,0,95.75,59.51,3.186\O,0,95.65,60.56,3.866\O,0,9
 6.66,59.32,2.356\H,0,93.69,56.21,4.106\H,0,96.05,56.79,2.706\H,0,94.19
 ,58.67,4.326\H,0,94.12,58.28,2.636\N,0,97.76,57.01,4.626\C,0,98.79,56.
 96,5.646\C,0,99.83,58.07,5.556\O,0,100.8,58.11,6.306\C,0,99.38,55.55,5
 .626\C,0,98.53,54.44,6.226\C,0,99.27,53.12,6.066\C,0,98.63,51.92,6.766
 \N,0,97.19,51.85,6.476\H,0,98.07,56.9,3.666\H,0,98.35,57.13,6.626\H,0,
 100.29,55.51,6.226\H,0,99.67,55.26,4.616\H,0,97.58,54.48,5.696\H,0,98.
 44,54.75,7.266\H,0,100.24,53.17,6.566\H,0,99.36,52.82,5.026\H,0,98.8,5
 2.06,7.836\H,0,99.1,50.98,6.466\H,0,96.68,52.68,6.756\H,0,97.02,51.73,
 5.486\H,0,96.7,51.18,7.046\N,0,99.72,58.98,4.576\C,0,100.59,60.13,4.42
 6\C,0,99.84,61.45,4.386\O,0,100.41,62.5,4.076\C,0,101.66,59.97,3.356\C
 ,0,101.1,59.87,1.946\O,0,101.79,59.47,0.976\O,0,99.89,60.13,1.806\H,0,
 99.,58.92,3.876\H,0,101.21,60.2,5.326\H,0,102.14,59.04,3.666\H,0,102.1
 7,60.93,3.306\N,0,98.56,61.49,4.746\C,0,97.85,62.71,5.046\C,0,97.61,63
 .62,3.846\O,0,97.5,64.84,3.956\H,0,98.18,60.59,5.026\H,0,98.3,63.2,5.9
 16\H,0,96.83,62.47,5.346\N,0,97.68,63.01,2.656\C,0,97.43,63.63,1.366\C
 ,0,96.,63.37,0.916\O,0,95.62,64.05,-0.034\C,0,98.57,63.17,0.466\C,0,98
 .14,62.13,-0.554\N,0,98.39,62.46,-1.824\O,0,97.67,61.04,-0.224\H,0,97.
 74,62.01,2.736\H,0,97.5,64.71,1.496\H,0,99.41,62.81,1.046\H,0,98.84,64
 .,-0.194\H,0,98.84,63.35,-1.994\H,0,98.21,61.83,-2.594\N,0,95.24,62.52
 ,1.616\C,0,93.82,62.33,1.396\C,0,93.5,61.27,0.356\O,0,92.34,60.96,0.10
 6\H,0,95.65,61.91,2.306\H,0,93.39,63.29,1.136\H,0,93.29,61.96,2.276\N,
 0,94.44,60.8,-0.484\C,0,94.24,59.99,-1.664\C,0,95.09,58.73,-1.584\O,0,
 96.23,58.75,-1.114\C,0,94.72,60.77,-2.884\C,0,94.09,62.11,-3.154\C,0,9
 4.85,63.12,-3.774\C,0,92.74,62.34,-2.894\C,0,94.26,64.31,-4.204\C,0,92
 .12,63.53,-3.274\C,0,92.87,64.46,-4.024\O,0,92.35,65.69,-4.324\H,0,95.
 37,61.07,-0.224\H,0,93.19,59.72,-1.754\H,0,94.49,60.17,-3.774\H,0,95.8
 1,60.8,-2.884\H,0,95.91,62.95,-3.894\H,0,92.16,61.54,-2.444\H,0,94.88,
 65.13,-4.564\H,0,91.1,63.68,-2.934\H,0,91.54,65.8,-3.824\N,0,94.52,57.
 57,-1.934\C,0,95.24,56.31,-1.824\C,0,96.17,56.11,-3.014\O,0,95.85,56.4
 6,-4.144\C,0,94.28,55.13,-1.754\C,0,92.98,55.34,-0.984\C,0,94.98,53.88
 ,-1.214\C,0,93.09,55.75,0.486\H,0,93.68,57.59,-2.484\H,0,95.82,56.46,-
 0.914\H,0,93.88,54.92,-2.744\H,0,92.36,54.45,-1.074\H,0,92.4,56.18,-1.
 354\H,0,94.26,53.06,-1.164\H,0,95.86,53.63,-1.794\H,0,95.32,54.06,-0.1
 94\H,0,93.23,56.82,0.626\H,0,92.22,55.44,1.066\H,0,93.96,55.26,0.906\N
 ,0,97.29,55.43,-2.744\C,0,98.26,55.,-3.734\C,0,98.6,53.51,-3.674\O,0,9
 8.28,52.91,-2.654\C,0,99.5,55.81,-3.374\O,0,99.99,55.4,-2.114\H,0,97.5
 7,55.19,-1.804\H,0,97.95,55.14,-4.764\H,0,99.28,56.87,-3.394\H,0,100.3
 4,55.61,-4.044\H,0,99.51,55.72,-1.344\N,0,99.2,52.92,-4.704\C,0,99.57,
 51.52,-4.674\C,0,100.17,51.02,-3.364\O,0,99.74,49.95,-2.964\C,0,100.33
 ,51.17,-5.954\H,0,99.29,53.48,-5.544\H,0,98.68,50.89,-4.714\H,0,100.28
 ,50.11,-6.194\H,0,99.93,51.79,-6.754\H,0,101.42,51.31,-5.994\N,0,101.0
 8,51.67,-2.634\C,0,101.7,51.11,-1.454\C,0,100.63,51.01,-0.374\O,0,100.
 62,50.01,0.346\C,0,102.82,51.99,-0.904\H,0,101.52,52.47,-3.054\H,0,102
 .15,50.15,-1.704\H,0,103.81,51.79,-1.304\H,0,102.54,53.04,-0.754\H,0,1
 02.91,51.74,0.156\N,0,99.74,52.,-0.224\C,0,98.6,51.94,0.666\C,0,97.59,
 50.89,0.226\O,0,97.06,50.2,1.106\C,0,97.94,53.32,0.706\C,0,98.71,54.3,
 1.586\C,0,98.5,55.73,1.106\O,0,98.47,56.68,1.926\O,0,98.35,55.99,-0.10
 4\H,0,99.71,52.75,-0.894\H,0,98.93,51.71,1.676\H,0,96.94,53.22,1.136\H
 ,0,97.82,53.66,-0.324\H,0,99.76,54.14,1.386\H,0,98.5,54.07,2.636\N,0,9
 7.34,50.7,-1.074\C,0,96.37,49.72,-1.524\H,0,95.481,50.232,-1.892\H,0,9
 6.802,49.122,-2.326\H,0,96.096,49.07,-0.693\H,0,97.89,51.1,-1.814\Ca,0
 ,98.43,58.61,0.29\O,0,99.56,59.06,-2.024\H,0,99.21,59.53,-2.774\H,0,10
 0.33,58.6,-2.364\\Version=ES64L-G09RevD.01\State=1-A\HF=-5333.6195467\
 RMSD=3.981e-09\Dipole=-0.909934,-10.6907064,-0.6130801\Quadrupole=-22.
 3542248,-67.3400987,89.6943235,-1.0832709,-45.5991919,-107.0880025\PG=
 C01 [X(C54H83Ca1N15O23)]\\@


 ALMOST ANYTHING IS EASIER TO GET INTO THAN OUT OF.

                         -- AGNES ALLEN'S LAW FROM
                PAUL DICKSON'S "THE OFFICIAL RULES"
 Job cpu time:       0 days 16 hours  3 minutes 42.1 seconds.
 File lengths (MBytes):  RWF=   1513 Int=      0 D2E=      0 Chk=    103 Scr=      1
 Normal termination of Gaussian 09 at Mon Sep 16 18:42:58 2019.
