 Entering Gaussian System, Link 0=g09
 Initial command:
 /home/pcieplak/g09/g09/l1.exe "/scratch1/pcieplak/holo_14.0/Gau-31220.inp" -scrdir="/scratch1/pcieplak/holo_14.0/"
 Entering Link 1 = /home/pcieplak/g09/g09/l1.exe PID=     31221.
  
 Copyright (c) 1988,1990,1992,1993,1995,1998,2003,2009,2013,
            Gaussian, Inc.  All Rights Reserved.
  
 This is part of the Gaussian(R) 09 program.  It is based on
 the Gaussian(R) 03 system (copyright 2003, Gaussian, Inc.),
 the Gaussian(R) 98 system (copyright 1998, Gaussian, Inc.),
 the Gaussian(R) 94 system (copyright 1995, Gaussian, Inc.),
 the Gaussian 92(TM) system (copyright 1992, Gaussian, Inc.),
 the Gaussian 90(TM) system (copyright 1990, Gaussian, Inc.),
 the Gaussian 88(TM) system (copyright 1988, Gaussian, Inc.),
 the Gaussian 86(TM) system (copyright 1986, Carnegie Mellon
 University), and the Gaussian 82(TM) system (copyright 1983,
 Carnegie Mellon University). Gaussian is a federally registered
 trademark of Gaussian, Inc.
  
 This software contains proprietary and confidential information,
 including trade secrets, belonging to Gaussian, Inc.
  
 This software is provided under written license and may be
 used, copied, transmitted, or stored only in accord with that
 written license.
  
 The following legend is applicable only to US Government
 contracts under FAR:
  
                    RESTRICTED RIGHTS LEGEND
  
 Use, reproduction and disclosure by the US Government is
 subject to restrictions as set forth in subparagraphs (a)
 and (c) of the Commercial Computer Software - Restricted
 Rights clause in FAR 52.227-19.
  
 Gaussian, Inc.
 340 Quinnipiac St., Bldg. 40, Wallingford CT 06492
  
  
 ---------------------------------------------------------------
 Warning -- This program may not be used in any manner that
 competes with the business of Gaussian, Inc. or will provide
 assistance to any competitor of Gaussian, Inc.  The licensee
 of this program is prohibited from giving any competitor of
 Gaussian, Inc. access to this program.  By using this program,
 the user acknowledges that Gaussian, Inc. is engaged in the
 business of creating and licensing software in the field of
 computational chemistry and represents and warrants to the
 licensee that it is not a competitor of Gaussian, Inc. and that
 it will not use this program in any manner prohibited above.
 ---------------------------------------------------------------
  

 Cite this work as:
 Gaussian 09, Revision D.01,
 M. J. Frisch, G. W. Trucks, H. B. Schlegel, G. E. Scuseria, 
 M. A. Robb, J. R. Cheeseman, G. Scalmani, V. Barone, B. Mennucci, 
 G. A. Petersson, H. Nakatsuji, M. Caricato, X. Li, H. P. Hratchian, 
 A. F. Izmaylov, J. Bloino, G. Zheng, J. L. Sonnenberg, M. Hada, 
 M. Ehara, K. Toyota, R. Fukuda, J. Hasegawa, M. Ishida, T. Nakajima, 
 Y. Honda, O. Kitao, H. Nakai, T. Vreven, J. A. Montgomery, Jr., 
 J. E. Peralta, F. Ogliaro, M. Bearpark, J. J. Heyd, E. Brothers, 
 K. N. Kudin, V. N. Staroverov, T. Keith, R. Kobayashi, J. Normand, 
 K. Raghavachari, A. Rendell, J. C. Burant, S. S. Iyengar, J. Tomasi, 
 M. Cossi, N. Rega, J. M. Millam, M. Klene, J. E. Knox, J. B. Cross, 
 V. Bakken, C. Adamo, J. Jaramillo, R. Gomperts, R. E. Stratmann, 
 O. Yazyev, A. J. Austin, R. Cammi, C. Pomelli, J. W. Ochterski, 
 R. L. Martin, K. Morokuma, V. G. Zakrzewski, G. A. Voth, 
 P. Salvador, J. J. Dannenberg, S. Dapprich, A. D. Daniels, 
 O. Farkas, J. B. Foresman, J. V. Ortiz, J. Cioslowski, 
 and D. J. Fox, Gaussian, Inc., Wallingford CT, 2013.
 
 ******************************************
 Gaussian 09:  ES64L-G09RevD.01 24-Apr-2013
                16-Sep-2019 
 ******************************************
 %Nproc=12
 Will use up to   12 processors via shared memory.
 %chk=chk1mol
 %mem=32GB
 ----------------------------------------------------------------------
 #maxdisk=50GB #B3LYP/SVP Density=Current scf=(tight) #IOP(5/87=12)Pop=
 (MK,readradii) iop(6/33=2) iop(6/42=6)
 ----------------------------------------------------------------------
 1/30=1,38=1/1;
 2/12=2,17=6,18=5,40=1/2;
 3/5=18,7=101,11=2,16=1,25=1,30=1,74=-5/1,2,3;
 4//1;
 5/5=2,32=2,38=5,87=12/2;
 6/7=2,8=2,9=2,10=2,15=8,20=101,22=-1,28=1,33=2,42=6/1,2;
 99/5=1,9=1/99;
 ------------
 SOL molecule
 ------------
 Symbolic Z-matrix:
 Charge =  0 Multiplicity = 1
 C                     62.17     48.75     35.4 
 C                     62.52     47.38     35.97 
 O                     61.8      46.87     36.83 
 H                     61.268    49.125    35.884 
 H                     62.993    49.441    35.582 
 H                     61.997    48.664    34.327 
 N                     63.56     46.69     35.5 
 C                     64.07     45.44     36.02 
 C                     65.11     45.7      37.1 
 O                     66.23     46.18     36.95 
 C                     64.43     44.55     34.83 
 C                     64.9      43.16     35.22 
 O                     64.54     42.74     36.35 
 O                     65.52     42.48     34.38 
 H                     64.12     47.25     34.87 
 H                     63.25     44.91     36.49 
 H                     65.28     45.04     34.34 
 H                     63.66     44.48     34.06 
 N                     64.62     45.51     38.33 
 C                     65.29     46.01     39.52 
 C                     66.46     45.08     39.82 
 O                     67.53     45.55     40.22 
 C                     64.35     46.25     40.69 
 C                     64.81     47.34     41.66 
 C                     64.57     48.74     41.11 
 C                     65.08     49.88     41.99 
 N                     64.8      51.2      41.42 
 H                     63.64     45.31     38.24 
 H                     65.73     46.95     39.18 
 H                     64.28     45.32     41.27 
 H                     63.37     46.52     40.3 
 H                     65.9      47.24     41.75 
 H                     64.29     47.31     42.62 
 H                     63.5      48.85     40.93 
 H                     65.09     48.67     40.16 
 H                     66.16     49.85     42.1 
 H                     64.57     49.84     42.95 
 H                     65.1      51.21     40.45 
 H                     63.82     51.43     41.42 
 H                     65.27     51.9      41.98 
 N                     66.18     43.79     39.67 
 C                     67.13     42.72     39.9 
 C                     68.04     42.4      38.72 
 O                     69.13     41.83     38.81 
 C                     66.5      41.45     40.46 
 C                     65.17     41.09     39.8 
 O                     65.13     40.58     38.66 
 O                     64.11     41.42     40.37 
 H                     65.26     43.58     39.31 
 H                     67.79     43.19     40.63 
 H                     66.37     41.68     41.51 
 H                     67.18     40.6      40.4 
 N                     67.68     42.89     37.54 
 C                     68.55     42.75     36.39 
 C                     68.56     41.41     35.67 
 O                     69.46     41.04     34.92 
 H                     66.94     43.58     37.52 
 H                     69.52     43.13     36.7 
 H                     68.25     43.47     35.62 
 N                     67.48     40.63     35.72 
 C                     67.42     39.28     35.19 
 C                     67.13     39.16     33.7 
 O                     67.31     38.1      33.11 
 C                     66.61     38.4      36.13 
 C                     65.09     38.47     36.02 
 N                     64.38     37.34     35.95 
 O                     64.5      39.55     36.1 
 H                     66.73     40.98     36.29 
 H                     68.39     38.79     35.26 
 H                     66.84     38.57     37.19 
 H                     66.89     37.41     35.8 
 H                     64.85     36.45     35.9 
 H                     63.37     37.39     35.93 
 N                     66.66     40.24     33.08 
 C                     66.02     40.33     31.78 
 C                     64.52     40.49     31.65 
 O                     64.04     40.28     30.53 
 H                     66.65     41.03     33.71 
 H                     66.37     39.41     31.31 
 H                     66.39     41.24     31.3 
 N                     63.73     40.6      32.72 
 C                     62.34     40.19     32.75 
 C                     61.58     40.94     33.84 
 O                     62.14     41.41     34.83 
 C                     62.2      38.69     33.01 
 C                     62.84     37.74     32.03 
 C                     64.19     37.4      32.23 
 C                     62.04     37.16     31.04 
 C                     64.75     36.48     31.34 
 C                     62.63     36.22     30.19 
 C                     64.01     35.94     30.27 
 O                     64.6      35.17     29.3 
 H                     64.04     41.12     33.53 
 H                     61.74     40.29     31.85 
 H                     61.14     38.45     33.08 
 H                     62.64     38.53     33.99 
 H                     64.74     37.74     33.1 
 H                     60.98     37.3      30.97 
 H                     65.81     36.24     31.33 
 H                     62.05     35.72     29.43 
 H                     63.96     34.93     28.63 
 N                     60.29     41.12     33.56 
 C                     59.42     42.       34.32 
 C                     58.38     41.11     35. 
 O                     57.82     40.26     34.3 
 C                     58.78     43.       33.37 
 C                     59.74     44.08     32.88 
 C                     57.54     43.69     33.94 
 C                     60.41     45.05     33.86 
 H                     59.98     40.61     32.74 
 H                     59.97     42.51     35.11 
 H                     58.46     42.4      32.52 
 H                     59.35     44.69     32.07 
 H                     60.63     43.65     32.42 
 H                     57.79     44.34     34.78 
 H                     57.09     44.3      33.15 
 H                     56.74     43.05     34.3 
 H                     59.67     45.37     34.6 
 H                     61.11     44.58     34.54 
 H                     60.88     45.9      33.37 
 N                     58.19     41.36     36.3 
 C                     57.27     40.61     37.14 
 C                     56.24     41.54     37.78 
 O                     56.2      42.72     37.44 
 C                     58.05     39.89     38.23 
 O                     58.84     38.96     37.52 
 H                     58.7      42.14     36.68 
 H                     56.84     39.74     36.66 
 H                     57.4      39.48     38.99 
 H                     58.78     40.56     38.69 
 H                     58.71     38.1      37.93 
 N                     55.34     41.       38.61 
 C                     54.16     41.71     39.07 
 C                     54.43     43.       39.83 
 O                     54.       44.08     39.44 
 C                     53.51     40.66     39.97 
 H                     55.47     40.03     38.86 
 H                     53.49     41.93     38.25 
 H                     52.64     41.06     40.49 
 H                     53.33     39.76     39.39 
 H                     54.23     40.43     40.76 
 N                     55.36     42.97     40.8 
 C                     55.79     44.12     41.57 
 C                     56.43     45.13     40.63 
 O                     56.43     46.32     40.92 
 C                     56.73     43.69     42.69 
 H                     55.87     42.1      40.9 
 H                     54.94     44.68     41.97 
 H                     56.95     44.46     43.42 
 H                     56.28     42.85     43.22 
 H                     57.72     43.57     42.25 
 N                     57.13     44.59     39.62 
 C                     57.88     45.51     38.79 
 C                     56.97     46.29     37.85 
 O                     57.12     47.49     37.66 
 C                     58.9      44.68     38.01 
 C                     59.91     44.08     38.99 
 C                     60.95     43.31     38.19 
 O                     62.15     43.53     38.49 
 O                     60.62     42.42     37.38 
 H                     57.31     43.6      39.51 
 H                     58.41     46.28     39.34 
 H                     59.44     45.24     37.25 
 H                     58.5      43.79     37.54 
 H                     59.44     43.39     39.69 
 H                     60.38     44.9      39.53 
 N                     55.85     45.66     37.47 
 C                     54.85     46.21     36.58 
 H                     53.991    46.544    37.162 
 H                     55.272    47.056    36.038 
 H                     54.533    45.445    35.871 
 H                     55.82     44.67     37.67 
 Ca                    62.92     41.15     37.41 
 O                     61.86     40.12     39.64 
 H                     62.55     40.44     40.22 
 H                     61.2      39.76     40.23 
 
 Stoichiometry    C54H83CaN15O23
 Framework group  C1[X(C54H83CaN15O23)]
 Deg. of freedom   522
 Full point group                 C1      NOp   1
 Largest Abelian subgroup         C1      NOp   1
 Largest concise Abelian subgroup C1      NOp   1
                         Standard orientation:                         
 ---------------------------------------------------------------------
 Center     Atomic      Atomic             Coordinates (Angstroms)
 Number     Number       Type             X           Y           Z
 ---------------------------------------------------------------------
      1          6           0        2.160610    3.076408    5.120333
      2          6           0        1.541473    2.760073    3.763534
      3          8           0        2.260723    2.409817    2.826464
      4          1           0        3.242487    2.955024    5.062946
      5          1           0        1.925356    4.104032    5.397058
      6          1           0        1.758464    2.395757    5.871097
      7          7           0        0.219144    2.789070    3.592639
      8          6           0       -0.491621    2.622721    2.343583
      9          6           0       -0.671285    3.966634    1.652773
     10          8           0       -1.381828    4.898669    2.018478
     11          6           0       -1.716341    1.748441    2.614687
     12          6           0       -2.519421    1.410206    1.371401
     13          8           0       -1.910353    1.474976    0.272428
     14          8           0       -3.687010    0.996950    1.506885
     15          1           0       -0.248997    3.177598    4.401335
     16          1           0        0.114906    2.007964    1.689061
     17          1           0       -2.373008    2.348947    3.255686
     18          1           0       -1.514656    0.840724    3.185716
     19          7           0        0.186651    4.133358    0.640227
     20          6           0        0.448532    5.436048    0.049111
     21          6           0       -0.725097    5.777477   -0.861834
     22          8           0       -1.147711    6.937212   -0.908863
     23          6           0        1.815910    5.541295   -0.606098
     24          6           0        2.401533    6.954501   -0.628376
     25          6           0        2.959241    7.368942    0.727095
     26          6           0        3.487468    8.800531    0.802120
     27          7           0        4.030624    9.131982    2.121522
     28          1           0        0.804864    3.342010    0.631289
     29          1           0        0.376736    6.114117    0.902263
     30          1           0        1.720107    5.222508   -1.652710
     31          1           0        2.506417    4.885034   -0.078916
     32          1           0        1.564546    7.637673   -0.825680
     33          1           0        3.229446    7.066858   -1.331821
     34          1           0        3.743826    6.661074    0.996816
     35          1           0        2.091069    7.201834    1.356502
     36          1           0        2.698788    9.528658    0.637150
     37          1           0        4.303245    8.913345    0.091429
     38          1           0        3.357384    8.861739    2.831955
     39          1           0        4.883412    8.640318    2.332045
     40          1           0        4.244093   10.121140    2.143801
     41          7           0       -1.159204    4.756771   -1.593073
     42          6           0       -2.259744    4.839828   -2.532335
     43          6           0       -3.644702    4.662838   -1.921216
     44          8           0       -4.692623    5.065976   -2.431549
     45          6           0       -2.089058    3.949542   -3.757756
     46          6           0       -1.538367    2.562928   -3.428908
     47          8           0       -2.263492    1.682603   -2.918494
     48          8           0       -0.316095    2.354922   -3.570973
     49          1           0       -0.716147    3.867504   -1.411401
     50          1           0       -2.216260    5.895976   -2.800775
     51          1           0       -1.401161    4.510494   -4.377782
     52          1           0       -3.018369    3.850350   -4.319042
     53          7           0       -3.694759    4.153714   -0.696313
     54          6           0       -4.954475    4.072804    0.014722
     55          6           0       -5.896248    2.932953   -0.342914
     56          8           0       -7.097279    2.927513   -0.084274
     57          1           0       -2.828335    4.080431   -0.178589
     58          1           0       -5.382586    5.071279   -0.019471
     59          1           0       -4.757726    3.937303    1.084408
     60          7           0       -5.397152    1.799519   -0.836402
     61          6           0       -6.202068    0.700602   -1.337893
     62          6           0       -6.722693   -0.276841   -0.292832
     63          8           0       -7.608752   -1.077993   -0.570601
     64          6           0       -5.543065    0.110808   -2.575616
     65          6           0       -4.399894   -0.875761   -2.358261
     66          7           0       -4.396332   -2.038343   -3.017268
     67          8           0       -3.426954   -0.572130   -1.663929
     68          1           0       -4.403011    1.802304   -0.983285
     69          1           0       -7.131544    1.064759   -1.773051
     70          1           0       -5.152825    0.871793   -3.264103
     71          1           0       -6.354039   -0.458863   -3.005959
     72          1           0       -5.178353   -2.291257   -3.600344
     73          1           0       -3.610624   -2.666162   -2.910001
     74          7           0       -6.165031   -0.234435    0.915024
     75          6           0       -6.235903   -1.219494    1.979137
     76          6           0       -5.076880   -2.149271    2.270136
     77          8           0       -5.321585   -3.123462    2.991228
     78          1           0       -5.511689    0.534232    0.973275
     79          1           0       -7.133701   -1.770192    1.695428
     80          1           0       -6.332321   -0.671848    2.920512
     81          7           0       -3.928788   -2.073566    1.593931
     82          6           0       -3.035773   -3.195086    1.379881
     83          6           0       -1.614154   -2.709148    1.113302
     84          8           0       -1.374029   -1.591533    0.657368
     85          6           0       -3.481733   -4.053005    0.195696
     86          6           0       -4.850493   -4.681943    0.254293
     87          6           0       -5.943220   -3.921821   -0.199868
     88          6           0       -4.956419   -6.019066    0.651007
     89          6           0       -7.195735   -4.540723   -0.183537
     90          6           0       -6.222370   -6.611312    0.622517
     91          6           0       -7.366572   -5.854174    0.295798
     92          8           0       -8.611684   -6.403109    0.469768
     93          1           0       -3.558192   -1.173511    1.319780
     94          1           0       -2.947898   -3.955263    2.150860
     95          1           0       -2.746341   -4.842205    0.045816
     96          1           0       -3.437188   -3.392570   -0.665373
     97          1           0       -5.809246   -2.946056   -0.652564
     98          1           0       -4.115183   -6.649496    0.858324
     99          1           0       -8.118821   -4.008527   -0.397965
    100          1           0       -6.354371   -7.648507    0.888604
    101          1           0       -8.539514   -7.280400    0.845604
    102          7           0       -0.676097   -3.564761    1.516880
    103          6           0        0.735496   -3.231377    1.588718
    104          6           0        1.445774   -4.100302    0.551137
    105          8           0        1.169125   -5.304213    0.538329
    106          6           0        1.234776   -3.505138    2.998638
    107          6           0        0.758764   -2.482531    4.026153
    108          6           0        2.756291   -3.614126    3.106872
    109          6           0        1.134531   -1.001270    3.904230
    110          1           0       -1.046827   -4.463690    1.805128
    111          1           0        0.908794   -2.192976    1.308737
    112          1           0        0.817440   -4.478600    3.249838
    113          1           0        0.956497   -2.760636    5.057588
    114          1           0       -0.327527   -2.390020    4.029763
    115          1           0        3.244986   -2.660612    2.900504
    116          1           0        3.009159   -3.921060    4.126945
    117          1           0        3.247319   -4.334739    2.459717
    118          1           0        2.186123   -0.927808    3.610363
    119          1           0        0.702445   -0.503686    3.044572
    120          1           0        0.930078   -0.430052    4.807229
    121          7           0        2.304072   -3.445138   -0.237966
    122          6           0        3.059340   -4.076360   -1.308307
    123          6           0        4.560294   -3.873809   -1.104570
    124          8           0        4.963343   -3.360679   -0.063489
    125          6           0        2.643340   -3.478314   -2.644041
    126          8           0        1.293603   -3.868653   -2.781682
    127          1           0        2.439665   -2.469620   -0.030891
    128          1           0        2.775952   -5.102494   -1.505641
    129          1           0        3.307716   -3.772397   -3.444241
    130          1           0        2.598267   -2.388547   -2.582591
    131          1           0        1.196545   -4.266362   -3.651744
    132          7           0        5.389891   -4.371910   -2.028780
    133          6           0        6.823655   -4.483637   -1.828937
    134          6           0        7.547312   -3.174621   -1.550730
    135          8           0        8.180671   -2.995428   -0.516251
    136          6           0        7.265499   -5.091401   -3.159499
    137          1           0        4.970659   -4.745665   -2.868335
    138          1           0        7.055897   -5.178570   -1.033430
    139          1           0        8.350757   -5.159966   -3.228878
    140          1           0        6.731219   -6.023342   -3.317078
    141          1           0        6.976662   -4.384843   -3.942282
    142          7           0        7.270797   -2.127211   -2.346450
    143          6           0        7.813867   -0.794133   -2.178284
    144          6           0        7.343234   -0.235943   -0.844032
    145          8           0        8.011321    0.613194   -0.267121
    146          6           0        7.419505    0.093840   -3.352543
    147          1           0        6.536478   -2.270074   -3.030091
    148          1           0        8.900179   -0.812516   -2.053034
    149          1           0        7.934167    1.046459   -3.395432
    150          1           0        7.631634   -0.439264   -4.279798
    151          1           0        6.405097    0.444870   -3.163190
    152          7           0        6.098725   -0.596598   -0.493568
    153          6           0        5.554400    0.031684    0.692506
    154          6           0        6.166079   -0.541539    1.964263
    155          8           0        6.502101    0.177872    2.896002
    156          6           0        4.041275   -0.185343    0.660065
    157          6           0        3.452378    0.578607   -0.527404
    158          6           0        1.941641    0.400497   -0.506181
    159          8           0        1.261183    1.446362   -0.652958
    160          8           0        1.420288   -0.732841   -0.477287
    161          1           0        5.465906   -1.124128   -1.081660
    162          1           0        5.748771    1.096210    0.765333
    163          1           0        3.528354    0.127544    1.566605
    164          1           0        3.730587   -1.199315    0.440219
    165          1           0        3.825688    0.204181   -1.480003
    166          1           0        3.710459    1.629600   -0.410329
    167          7           0        6.564371   -1.819019    1.892781
    168          6           0        7.164771   -2.562859    2.979437
    169          1           0        8.240648   -2.633736    2.819351
    170          1           0        6.971205   -2.049942    3.921250
    171          1           0        6.736250   -3.564582    3.015715
    172          1           0        6.235435   -2.331492    1.086449
    173         20           0       -0.895002    0.000489   -1.480013
    174          8           0        0.484050   -0.215790   -3.762301
    175          1           0        0.367949    0.697758   -4.020854
    176          1           0        1.099951   -0.568634   -4.402197
 ---------------------------------------------------------------------
 Rotational constants (GHZ):      0.0214899      0.0154968      0.0112438
 Standard basis: SVP (5D, 7F)
 There are  1809 symmetry adapted cartesian basis functions of A   symmetry.
 There are  1717 symmetry adapted basis functions of A   symmetry.
  1717 basis functions,  2922 primitive gaussians,  1809 cartesian basis functions
   358 alpha electrons      358 beta electrons
       nuclear repulsion energy     21520.3971929447 Hartrees.
 NAtoms=  176 NActive=  176 NUniq=  176 SFac= 1.00D+00 NAtFMM=   60 NAOKFM=T Big=T
 Integral buffers will be    131072 words long.
 Raffenetti 2 integral format.
 Two-electron integral symmetry is turned on.
 One-electron integrals computed using PRISM.
 NBasis=  1717 RedAO= T EigKep=  2.87D-04  NBF=  1717
 NBsUse=  1717 1.00D-06 EigRej= -1.00D+00 NBFU=  1717
 ExpMin= 1.98D-02 ExpMax= 3.51D+04 ExpMxC= 5.28D+03 IAcc=3 IRadAn=         5 AccDes= 0.00D+00
 Harris functional with IExCor=  402 and IRadAn=       5 diagonalized for initial guess.
 HarFok:  IExCor=  402 AccDes= 0.00D+00 IRadAn=         5 IDoV= 1 UseB2=F ITyADJ=14
 ICtDFT=  3500011 ScaDFX=  1.000000  1.000000  1.000000  1.000000
 FoFCou: FMM=F IPFlag=           0 FMFlag=      100000 FMFlg1=        2001
         NFxFlg=           0 DoJE=T BraDBF=F KetDBF=T FulRan=T
         wScrn=  0.000000 ICntrl=     500 IOpCl=  0 I1Cent=   200000004 NGrid=           0
         NMat0=    1 NMatS0=      1 NMatT0=    0 NMatD0=    1 NMtDS0=    0 NMtDT0=    0
 Petite list used in FoFCou.
 Requested convergence on RMS density matrix=1.00D-08 within 128 cycles.
 Requested convergence on MAX density matrix=1.00D-06.
 Requested convergence on             energy=1.00D-06.
 No special actions if energy rises.
 EnCoef did     3 forward-backward iterations
 EnCoef did     2 forward-backward iterations
 EnCoef did     2 forward-backward iterations
 Restarting incremental Fock formation.
 SCF Done:  E(RB3LYP) =  -5333.56638989     A.U. after   21 cycles
            NFock= 21  Conv=0.20D-08     -V/T= 2.0081

 **********************************************************************

            Population analysis using the SCF density.

 **********************************************************************

 Orbital symmetries:
 BldTbl:  Degeneracy threshold= 1.00D-02
       Occupied  (A) (A) (A) (A) (A) (A) (A) (A) (A) (A) (A) (A)
                 (A) (A) (A) (A) (A) (A) (A) (A) (A) (A) (A) (A)
                 (A) (A) (A) (A) (A) (A) (A) (A) (A) (A) (A) (A)
                 (A) (A) (A) (A) (A) (A) (A) (A) (A) (A) (A) (A)
                 (A) (A) (A) (A) (A) (A) (A) (A) (A) (A) (A) (A)
                 (A) (A) (A) (A) (A) (A) (A) (A) (A) (A) (A) (A)
                 (A) (A) (A) (A) (A) (A) (A) (A) (A) (A) (A) (A)
                 (A) (A) (A) (A) (A) (A) (A) (A) (A) (A) (A) (A)
                 (A) (A) (A) (A) (A) (A) (A) (A) (A) (A) (A) (A)
                 (A) (A) (A) (A) (A) (A) (A) (A) (A) (A) (A) (A)
                 (A) (A) (A) (A) (A) (A) (A) (A) (A) (A) (A) (A)
                 (A) (A) (A) (A) (A) (A) (A) (A) (A) (A) (A) (A)
                 (A) (A) (A) (A) (A) (A) (A) (A) (A) (A) (A) (A)
                 (A) (A) (A) (A) (A) (A) (A) (A) (A) (A) (A) (A)
                 (A) (A) (A) (A) (A) (A) (A) (A) (A) (A) (A) (A)
                 (A) (A) (A) (A) (A) (A) (A) (A) (A) (A) (A) (A)
                 (A) (A) (A) (A) (A) (A) (A) (A) (A) (A) (A) (A)
                 (A) (A) (A) (A) (A) (A) (A) (A) (A) (A) (A) (A)
                 (A) (A) (A) (A) (A) (A) (A) (A) (A) (A) (A) (A)
                 (A) (A) (A) (A) (A) (A) (A) (A) (A) (A) (A) (A)
                 (A) (A) (A) (A) (A) (A) (A) (A) (A) (A) (A) (A)
                 (A) (A) (A) (A) (A) (A) (A) (A) (A) (A) (A) (A)
                 (A) (A) (A) (A) (A) (A) (A) (A) (A) (A) (A) (A)
                 (A) (A) (A) (A) (A) (A) (A) (A) (A) (A) (A) (A)
                 (A) (A) (A) (A) (A) (A) (A) (A) (A) (A) (A) (A)
                 (A) (A) (A) (A) (A) (A) (A) (A) (A) (A) (A) (A)
                 (A) (A) (A) (A) (A) (A) (A) (A) (A) (A) (A) (A)
                 (A) (A) (A) (A) (A) (A) (A) (A) (A) (A) (A) (A)
                 (A) (A) (A) (A) (A) (A) (A) (A) (A) (A) (A) (A)
                 (A) (A) (A) (A) (A) (A) (A) (A) (A) (A)
       Virtual   (A) (A) (A) (A) (A) (A) (A) (A) (A) (A) (A) (A)
                 (A) (A) (A) (A) (A) (A) (A) (A) (A) (A) (A) (A)
                 (A) (A) (A) (A) (A) (A) (A) (A) (A) (A) (A) (A)
                 (A) (A) (A) (A) (A) (A) (A) (A) (A) (A) (A) (A)
                 (A) (A) (A) (A) (A) (A) (A) (A) (A) (A) (A) (A)
                 (A) (A) (A) (A) (A) (A) (A) (A) (A) (A) (A) (A)
                 (A) (A) (A) (A) (A) (A) (A) (A) (A) (A) (A) (A)
                 (A) (A) (A) (A) (A) (A) (A) (A) (A) (A) (A) (A)
                 (A) (A) (A) (A) (A) (A) (A) (A) (A) (A) (A) (A)
                 (A) (A) (A) (A) (A) (A) (A) (A) (A) (A) (A) (A)
                 (A) (A) (A) (A) (A) (A) (A) (A) (A) (A) (A) (A)
                 (A) (A) (A) (A) (A) (A) (A) (A) (A) (A) (A) (A)
                 (A) (A) (A) (A) (A) (A) (A) (A) (A) (A) (A) (A)
                 (A) (A) (A) (A) (A) (A) (A) (A) (A) (A) (A) (A)
                 (A) (A) (A) (A) (A) (A) (A) (A) (A) (A) (A) (A)
                 (A) (A) (A) (A) (A) (A) (A) (A) (A) (A) (A) (A)
                 (A) (A) (A) (A) (A) (A) (A) (A) (A) (A) (A) (A)
                 (A) (A) (A) (A) (A) (A) (A) (A) (A) (A) (A) (A)
                 (A) (A) (A) (A) (A) (A) (A) (A) (A) (A) (A) (A)
                 (A) (A) (A) (A) (A) (A) (A) (A) (A) (A) (A) (A)
                 (A) (A) (A) (A) (A) (A) (A) (A) (A) (A) (A) (A)
                 (A) (A) (A) (A) (A) (A) (A) (A) (A) (A) (A) (A)
                 (A) (A) (A) (A) (A) (A) (A) (A) (A) (A) (A) (A)
                 (A) (A) (A) (A) (A) (A) (A) (A) (A) (A) (A) (A)
                 (A) (A) (A) (A) (A) (A) (A) (A) (A) (A) (A) (A)
                 (A) (A) (A) (A) (A) (A) (A) (A) (A) (A) (A) (A)
                 (A) (A) (A) (A) (A) (A) (A) (A) (A) (A) (A) (A)
                 (A) (A) (A) (A) (A) (A) (A) (A) (A) (A) (A) (A)
                 (A) (A) (A) (A) (A) (A) (A) (A) (A) (A) (A) (A)
                 (A) (A) (A) (A) (A) (A) (A) (A) (A) (A) (A) (A)
                 (A) (A) (A) (A) (A) (A) (A) (A) (A) (A) (A) (A)
                 (A) (A) (A) (A) (A) (A) (A) (A) (A) (A) (A) (A)
                 (A) (A) (A) (A) (A) (A) (A) (A) (A) (A) (A) (A)
                 (A) (A) (A) (A) (A) (A) (A) (A) (A) (A) (A) (A)
                 (A) (A) (A) (A) (A) (A) (A) (A) (A) (A) (A) (A)
                 (A) (A) (A) (A) (A) (A) (A) (A) (A) (A) (A) (A)
                 (A) (A) (A) (A) (A) (A) (A) (A) (A) (A) (A) (A)
                 (A) (A) (A) (A) (A) (A) (A) (A) (A) (A) (A) (A)
                 (A) (A) (A) (A) (A) (A) (A) (A) (A) (A) (A) (A)
                 (A) (A) (A) (A) (A) (A) (A) (A) (A) (A) (A) (A)
                 (A) (A) (A) (A) (A) (A) (A) (A) (A) (A) (A) (A)
                 (A) (A) (A) (A) (A) (A) (A) (A) (A) (A) (A) (A)
                 (A) (A) (A) (A) (A) (A) (A) (A) (A) (A) (A) (A)
                 (A) (A) (A) (A) (A) (A) (A) (A) (A) (A) (A) (A)
                 (A) (A) (A) (A) (A) (A) (A) (A) (A) (A) (A) (A)
                 (A) (A) (A) (A) (A) (A) (A) (A) (A) (A) (A) (A)
                 (A) (A) (A) (A) (A) (A) (A) (A) (A) (A) (A) (A)
                 (A) (A) (A) (A) (A) (A) (A) (A) (A) (A) (A) (A)
                 (A) (A) (A) (A) (A) (A) (A) (A) (A) (A) (A) (A)
                 (A) (A) (A) (A) (A) (A) (A) (A) (A) (A) (A) (A)
                 (A) (A) (A) (A) (A) (A) (A) (A) (A) (A) (A) (A)
                 (A) (A) (A) (A) (A) (A) (A) (A) (A) (A) (A) (A)
                 (A) (A) (A) (A) (A) (A) (A) (A) (A) (A) (A) (A)
                 (A) (A) (A) (A) (A) (A) (A) (A) (A) (A) (A) (A)
                 (A) (A) (A) (A) (A) (A) (A) (A) (A) (A) (A) (A)
                 (A) (A) (A) (A) (A) (A) (A) (A) (A) (A) (A) (A)
                 (A) (A) (A) (A) (A) (A) (A) (A) (A) (A) (A) (A)
                 (A) (A) (A) (A) (A) (A) (A) (A) (A) (A) (A) (A)
                 (A) (A) (A) (A) (A) (A) (A) (A) (A) (A) (A) (A)
                 (A) (A) (A) (A) (A) (A) (A) (A) (A) (A) (A) (A)
                 (A) (A) (A) (A) (A) (A) (A) (A) (A) (A) (A) (A)
                 (A) (A) (A) (A) (A) (A) (A) (A) (A) (A) (A) (A)
                 (A) (A) (A) (A) (A) (A) (A) (A) (A) (A) (A) (A)
                 (A) (A) (A) (A) (A) (A) (A) (A) (A) (A) (A) (A)
                 (A) (A) (A) (A) (A) (A) (A) (A) (A) (A) (A) (A)
                 (A) (A) (A) (A) (A) (A) (A) (A) (A) (A) (A) (A)
                 (A) (A) (A) (A) (A) (A) (A) (A) (A) (A) (A) (A)
                 (A) (A) (A) (A) (A) (A) (A) (A) (A) (A) (A) (A)
                 (A) (A) (A) (A) (A) (A) (A) (A) (A) (A) (A) (A)
                 (A) (A) (A) (A) (A) (A) (A) (A) (A) (A) (A) (A)
                 (A) (A) (A) (A) (A) (A) (A) (A) (A) (A) (A) (A)
                 (A) (A) (A) (A) (A) (A) (A) (A) (A) (A) (A) (A)
                 (A) (A) (A) (A) (A) (A) (A) (A) (A) (A) (A) (A)
                 (A) (A) (A) (A) (A) (A) (A) (A) (A) (A) (A) (A)
                 (A) (A) (A) (A) (A) (A) (A) (A) (A) (A) (A) (A)
                 (A) (A) (A) (A) (A) (A) (A) (A) (A) (A) (A) (A)
                 (A) (A) (A) (A) (A) (A) (A) (A) (A) (A) (A) (A)
                 (A) (A) (A) (A) (A) (A) (A) (A) (A) (A) (A) (A)
                 (A) (A) (A) (A) (A) (A) (A) (A) (A) (A) (A) (A)
                 (A) (A) (A) (A) (A) (A) (A) (A) (A) (A) (A) (A)
                 (A) (A) (A) (A) (A) (A) (A) (A) (A) (A) (A) (A)
                 (A) (A) (A) (A) (A) (A) (A) (A) (A) (A) (A) (A)
                 (A) (A) (A) (A) (A) (A) (A) (A) (A) (A) (A) (A)
                 (A) (A) (A) (A) (A) (A) (A) (A) (A) (A) (A) (A)
                 (A) (A) (A) (A) (A) (A) (A) (A) (A) (A) (A) (A)
                 (A) (A) (A) (A) (A) (A) (A) (A) (A) (A) (A) (A)
                 (A) (A) (A) (A) (A) (A) (A) (A) (A) (A) (A) (A)
                 (A) (A) (A) (A) (A) (A) (A) (A) (A) (A) (A) (A)
                 (A) (A) (A) (A) (A) (A) (A) (A) (A) (A) (A) (A)
                 (A) (A) (A) (A) (A) (A) (A) (A) (A) (A) (A) (A)
                 (A) (A) (A) (A) (A) (A) (A) (A) (A) (A) (A) (A)
                 (A) (A) (A) (A) (A) (A) (A) (A) (A) (A) (A) (A)
                 (A) (A) (A) (A) (A) (A) (A) (A) (A) (A) (A) (A)
                 (A) (A) (A) (A) (A) (A) (A) (A) (A) (A) (A) (A)
                 (A) (A) (A) (A) (A) (A) (A) (A) (A) (A) (A) (A)
                 (A) (A) (A) (A) (A) (A) (A) (A) (A) (A) (A) (A)
                 (A) (A) (A) (A) (A) (A) (A) (A) (A) (A) (A) (A)
                 (A) (A) (A) (A) (A) (A) (A) (A) (A) (A) (A) (A)
                 (A) (A) (A) (A) (A) (A) (A) (A) (A) (A) (A) (A)
                 (A) (A) (A) (A) (A) (A) (A) (A) (A) (A) (A) (A)
                 (A) (A) (A) (A) (A) (A) (A) (A) (A) (A) (A) (A)
                 (A) (A) (A) (A) (A) (A) (A) (A) (A) (A) (A) (A)
                 (A) (A) (A) (A) (A) (A) (A) (A) (A) (A) (A) (A)
                 (A) (A) (A) (A) (A) (A) (A) (A) (A) (A) (A) (A)
                 (A) (A) (A) (A) (A) (A) (A) (A) (A) (A) (A) (A)
                 (A) (A) (A) (A) (A) (A) (A) (A) (A) (A) (A) (A)
                 (A) (A) (A) (A) (A) (A) (A) (A) (A) (A) (A) (A)
                 (A) (A) (A) (A) (A) (A) (A) (A) (A) (A) (A) (A)
                 (A) (A) (A) (A) (A) (A) (A) (A) (A) (A) (A) (A)
                 (A) (A) (A) (A) (A) (A) (A) (A) (A) (A) (A) (A)
                 (A) (A) (A) (A) (A) (A) (A) (A) (A) (A) (A) (A)
                 (A) (A) (A) (A) (A) (A) (A) (A) (A) (A) (A) (A)
                 (A) (A) (A) (A) (A) (A) (A) (A) (A) (A) (A) (A)
                 (A) (A) (A)
 The electronic state is 1-A.
 Alpha  occ. eigenvalues -- -145.35253 -19.15462 -19.13492 -19.13369 -19.13188
 Alpha  occ. eigenvalues --  -19.11078 -19.10193 -19.09708 -19.08760 -19.08634
 Alpha  occ. eigenvalues --  -19.08544 -19.08346 -19.07997 -19.07364 -19.05625
 Alpha  occ. eigenvalues --  -19.05072 -19.04920 -19.04876 -19.04722 -19.04293
 Alpha  occ. eigenvalues --  -19.04058 -19.03640 -19.03426 -19.02874 -15.41012
 Alpha  occ. eigenvalues --  -14.59569 -14.39687 -14.37291 -14.35683 -14.35071
 Alpha  occ. eigenvalues --  -14.34613 -14.34512 -14.34397 -14.33898 -14.33564
 Alpha  occ. eigenvalues --  -14.30981 -14.30868 -14.30294 -14.29400 -14.29168
 Alpha  occ. eigenvalues --  -12.54635 -12.54592 -12.54558 -10.35908 -10.31539
 Alpha  occ. eigenvalues --  -10.29897 -10.28584 -10.28097 -10.27449 -10.27411
 Alpha  occ. eigenvalues --  -10.27051 -10.27009 -10.26841 -10.26637 -10.26368
 Alpha  occ. eigenvalues --  -10.26142 -10.25238 -10.24872 -10.24073 -10.23967
 Alpha  occ. eigenvalues --  -10.23834 -10.23728 -10.23555 -10.23511 -10.23428
 Alpha  occ. eigenvalues --  -10.23321 -10.23030 -10.22835 -10.22470 -10.22018
 Alpha  occ. eigenvalues --  -10.21845 -10.21186 -10.21155 -10.20769 -10.20767
 Alpha  occ. eigenvalues --  -10.20628 -10.20276 -10.19769 -10.19521 -10.18435
 Alpha  occ. eigenvalues --  -10.18341 -10.18177 -10.18156 -10.18155 -10.16929
 Alpha  occ. eigenvalues --  -10.16821 -10.16473 -10.16403 -10.16401 -10.16262
 Alpha  occ. eigenvalues --  -10.16150 -10.15956 -10.15953 -10.15682 -10.15470
 Alpha  occ. eigenvalues --  -10.15384 -10.15323  -1.77849  -1.14980  -1.06623
 Alpha  occ. eigenvalues --   -1.05563  -1.05315  -1.05202  -1.04311  -1.03991
 Alpha  occ. eigenvalues --   -1.02843  -1.02316  -1.02298  -1.01944  -1.01571
 Alpha  occ. eigenvalues --   -1.01231  -1.01050  -1.00668  -1.00648  -0.99778
 Alpha  occ. eigenvalues --   -0.99009  -0.98438  -0.98111  -0.97993  -0.97627
 Alpha  occ. eigenvalues --   -0.97557  -0.96837  -0.96607  -0.93843  -0.92103
 Alpha  occ. eigenvalues --   -0.92071  -0.91683  -0.91179  -0.90951  -0.90889
 Alpha  occ. eigenvalues --   -0.90346  -0.90024  -0.89243  -0.88633  -0.88357
 Alpha  occ. eigenvalues --   -0.87824  -0.87354  -0.86792  -0.86701  -0.85452
 Alpha  occ. eigenvalues --   -0.82671  -0.82336  -0.81971  -0.80325  -0.78823
 Alpha  occ. eigenvalues --   -0.77995  -0.77486  -0.76942  -0.76326  -0.76034
 Alpha  occ. eigenvalues --   -0.75828  -0.75394  -0.74006  -0.73329  -0.72657
 Alpha  occ. eigenvalues --   -0.71831  -0.71428  -0.70804  -0.70792  -0.69690
 Alpha  occ. eigenvalues --   -0.69222  -0.69071  -0.68935  -0.68005  -0.67127
 Alpha  occ. eigenvalues --   -0.66251  -0.65303  -0.64799  -0.64106  -0.63887
 Alpha  occ. eigenvalues --   -0.63583  -0.62707  -0.62471  -0.61651  -0.61397
 Alpha  occ. eigenvalues --   -0.61168  -0.60116  -0.59324  -0.59152  -0.58681
 Alpha  occ. eigenvalues --   -0.58446  -0.58388  -0.58143  -0.57946  -0.57670
 Alpha  occ. eigenvalues --   -0.56943  -0.56246  -0.55968  -0.55551  -0.55358
 Alpha  occ. eigenvalues --   -0.55102  -0.54674  -0.54252  -0.54004  -0.53707
 Alpha  occ. eigenvalues --   -0.53677  -0.53414  -0.53191  -0.53131  -0.52808
 Alpha  occ. eigenvalues --   -0.52345  -0.52009  -0.51975  -0.51738  -0.51548
 Alpha  occ. eigenvalues --   -0.50848  -0.50712  -0.50580  -0.49777  -0.49479
 Alpha  occ. eigenvalues --   -0.48947  -0.48885  -0.48604  -0.48460  -0.48001
 Alpha  occ. eigenvalues --   -0.47669  -0.47340  -0.46992  -0.46905  -0.46867
 Alpha  occ. eigenvalues --   -0.46621  -0.46370  -0.46129  -0.45990  -0.45836
 Alpha  occ. eigenvalues --   -0.45314  -0.45251  -0.45141  -0.45032  -0.44815
 Alpha  occ. eigenvalues --   -0.44632  -0.44315  -0.44209  -0.44097  -0.43981
 Alpha  occ. eigenvalues --   -0.43858  -0.43660  -0.43542  -0.43046  -0.42701
 Alpha  occ. eigenvalues --   -0.42579  -0.42429  -0.42336  -0.42224  -0.42069
 Alpha  occ. eigenvalues --   -0.41883  -0.41845  -0.41736  -0.41552  -0.41277
 Alpha  occ. eigenvalues --   -0.41167  -0.40942  -0.40926  -0.40880  -0.40845
 Alpha  occ. eigenvalues --   -0.40528  -0.40393  -0.40350  -0.40273  -0.40134
 Alpha  occ. eigenvalues --   -0.39791  -0.39738  -0.39680  -0.39530  -0.39332
 Alpha  occ. eigenvalues --   -0.39303  -0.39031  -0.38863  -0.38715  -0.38662
 Alpha  occ. eigenvalues --   -0.38611  -0.38478  -0.38273  -0.38189  -0.38070
 Alpha  occ. eigenvalues --   -0.37933  -0.37873  -0.37750  -0.37624  -0.37553
 Alpha  occ. eigenvalues --   -0.37353  -0.37260  -0.37156  -0.37034  -0.36738
 Alpha  occ. eigenvalues --   -0.36640  -0.36480  -0.36294  -0.36064  -0.36026
 Alpha  occ. eigenvalues --   -0.35923  -0.35856  -0.35683  -0.35602  -0.35100
 Alpha  occ. eigenvalues --   -0.35053  -0.34832  -0.34782  -0.34419  -0.34206
 Alpha  occ. eigenvalues --   -0.33703  -0.33559  -0.33455  -0.32896  -0.32770
 Alpha  occ. eigenvalues --   -0.32750  -0.32703  -0.32496  -0.31906  -0.31520
 Alpha  occ. eigenvalues --   -0.31321  -0.31179  -0.31108  -0.31033  -0.31023
 Alpha  occ. eigenvalues --   -0.30720  -0.30587  -0.30230  -0.29980  -0.29458
 Alpha  occ. eigenvalues --   -0.28599  -0.28273  -0.27603  -0.26890  -0.26702
 Alpha  occ. eigenvalues --   -0.26545  -0.26385  -0.26097  -0.25912  -0.25724
 Alpha  occ. eigenvalues --   -0.25438  -0.25159  -0.24544  -0.24199  -0.23921
 Alpha  occ. eigenvalues --   -0.23790  -0.23716  -0.23577  -0.23349  -0.23124
 Alpha  occ. eigenvalues --   -0.22874  -0.22817  -0.22624  -0.22577  -0.22026
 Alpha  occ. eigenvalues --   -0.21853  -0.21808  -0.21339  -0.21020  -0.20639
 Alpha  occ. eigenvalues --   -0.20594  -0.20264  -0.19635  -0.19428  -0.19386
 Alpha  occ. eigenvalues --   -0.19076  -0.18859  -0.18557
 Alpha virt. eigenvalues --   -0.11461  -0.05478  -0.04891  -0.02180  -0.01620
 Alpha virt. eigenvalues --   -0.01137  -0.00903   0.00318   0.01206   0.01638
 Alpha virt. eigenvalues --    0.01663   0.01862   0.01907   0.02146   0.02403
 Alpha virt. eigenvalues --    0.02792   0.03179   0.03279   0.03503   0.03761
 Alpha virt. eigenvalues --    0.04348   0.04560   0.04998   0.05062   0.05236
 Alpha virt. eigenvalues --    0.05599   0.05649   0.05865   0.06020   0.06205
 Alpha virt. eigenvalues --    0.06388   0.06553   0.06603   0.06837   0.07109
 Alpha virt. eigenvalues --    0.07201   0.07388   0.07569   0.07662   0.07912
 Alpha virt. eigenvalues --    0.08121   0.08539   0.09127   0.09265   0.09422
 Alpha virt. eigenvalues --    0.09701   0.09783   0.10104   0.10315   0.10542
 Alpha virt. eigenvalues --    0.10753   0.10904   0.11015   0.11280   0.11412
 Alpha virt. eigenvalues --    0.11609   0.11628   0.11885   0.12070   0.12363
 Alpha virt. eigenvalues --    0.12490   0.12569   0.12760   0.12938   0.13109
 Alpha virt. eigenvalues --    0.13191   0.13395   0.13551   0.13774   0.13857
 Alpha virt. eigenvalues --    0.14115   0.14141   0.14460   0.14603   0.14845
 Alpha virt. eigenvalues --    0.14960   0.15184   0.15484   0.15547   0.16048
 Alpha virt. eigenvalues --    0.16256   0.16266   0.16633   0.16875   0.16938
 Alpha virt. eigenvalues --    0.17140   0.17217   0.17249   0.17537   0.17631
 Alpha virt. eigenvalues --    0.17880   0.17946   0.18240   0.18355   0.18640
 Alpha virt. eigenvalues --    0.18747   0.19039   0.19063   0.19161   0.19376
 Alpha virt. eigenvalues --    0.19564   0.19723   0.19836   0.20155   0.20315
 Alpha virt. eigenvalues --    0.20371   0.20443   0.20662   0.20815   0.21000
 Alpha virt. eigenvalues --    0.21233   0.21351   0.21710   0.21861   0.22058
 Alpha virt. eigenvalues --    0.22208   0.22440   0.22900   0.23038   0.23195
 Alpha virt. eigenvalues --    0.23665   0.24038   0.24102   0.24295   0.24517
 Alpha virt. eigenvalues --    0.24601   0.24628   0.24845   0.25168   0.25506
 Alpha virt. eigenvalues --    0.25571   0.25661   0.26010   0.26189   0.26415
 Alpha virt. eigenvalues --    0.26772   0.26965   0.27091   0.27164   0.27324
 Alpha virt. eigenvalues --    0.27517   0.27620   0.27988   0.28213   0.28425
 Alpha virt. eigenvalues --    0.28705   0.28986   0.29188   0.29331   0.29502
 Alpha virt. eigenvalues --    0.29672   0.29774   0.30575   0.30962   0.31098
 Alpha virt. eigenvalues --    0.31353   0.31527   0.31695   0.31792   0.31995
 Alpha virt. eigenvalues --    0.32107   0.32363   0.32679   0.32897   0.33063
 Alpha virt. eigenvalues --    0.33364   0.33498   0.33574   0.33882   0.34159
 Alpha virt. eigenvalues --    0.34534   0.34657   0.35163   0.35301   0.35689
 Alpha virt. eigenvalues --    0.35955   0.36084   0.36269   0.36663   0.36771
 Alpha virt. eigenvalues --    0.36983   0.37471   0.37881   0.38304   0.38375
 Alpha virt. eigenvalues --    0.38966   0.39286   0.39543   0.39841   0.39997
 Alpha virt. eigenvalues --    0.40431   0.40562   0.40810   0.41045   0.41318
 Alpha virt. eigenvalues --    0.41575   0.41673   0.41923   0.42473   0.42676
 Alpha virt. eigenvalues --    0.42907   0.43127   0.43239   0.43469   0.43692
 Alpha virt. eigenvalues --    0.44017   0.44162   0.44554   0.44750   0.45046
 Alpha virt. eigenvalues --    0.45119   0.45518   0.45880   0.46022   0.46242
 Alpha virt. eigenvalues --    0.46413   0.46651   0.46859   0.46935   0.47020
 Alpha virt. eigenvalues --    0.47248   0.47360   0.47540   0.47723   0.47970
 Alpha virt. eigenvalues --    0.48058   0.48171   0.48455   0.48789   0.48839
 Alpha virt. eigenvalues --    0.49136   0.49270   0.49459   0.49544   0.49862
 Alpha virt. eigenvalues --    0.50148   0.50220   0.50499   0.50611   0.50911
 Alpha virt. eigenvalues --    0.51049   0.51431   0.51495   0.51628   0.51990
 Alpha virt. eigenvalues --    0.52069   0.52223   0.52381   0.52689   0.52932
 Alpha virt. eigenvalues --    0.53090   0.53276   0.53503   0.53705   0.53849
 Alpha virt. eigenvalues --    0.54030   0.54295   0.54507   0.54596   0.54803
 Alpha virt. eigenvalues --    0.54910   0.55121   0.55386   0.55449   0.55636
 Alpha virt. eigenvalues --    0.55904   0.56052   0.56245   0.56473   0.56629
 Alpha virt. eigenvalues --    0.56803   0.56896   0.57087   0.57163   0.57393
 Alpha virt. eigenvalues --    0.57513   0.57745   0.57780   0.57907   0.58143
 Alpha virt. eigenvalues --    0.58391   0.58473   0.58610   0.58852   0.59031
 Alpha virt. eigenvalues --    0.59250   0.59337   0.59484   0.59730   0.59831
 Alpha virt. eigenvalues --    0.60068   0.60152   0.60470   0.60526   0.60685
 Alpha virt. eigenvalues --    0.60843   0.61045   0.61218   0.61352   0.61508
 Alpha virt. eigenvalues --    0.61576   0.61775   0.61897   0.62207   0.62217
 Alpha virt. eigenvalues --    0.62578   0.62616   0.62770   0.62825   0.62981
 Alpha virt. eigenvalues --    0.63119   0.63201   0.63419   0.63475   0.63566
 Alpha virt. eigenvalues --    0.63691   0.63790   0.63945   0.64125   0.64149
 Alpha virt. eigenvalues --    0.64277   0.64363   0.64536   0.64669   0.64824
 Alpha virt. eigenvalues --    0.64953   0.64978   0.65142   0.65271   0.65436
 Alpha virt. eigenvalues --    0.65482   0.65522   0.65689   0.65796   0.65903
 Alpha virt. eigenvalues --    0.65987   0.66065   0.66170   0.66275   0.66438
 Alpha virt. eigenvalues --    0.66571   0.66712   0.66768   0.66794   0.67021
 Alpha virt. eigenvalues --    0.67102   0.67209   0.67341   0.67465   0.67593
 Alpha virt. eigenvalues --    0.67711   0.67815   0.67923   0.67996   0.68040
 Alpha virt. eigenvalues --    0.68224   0.68233   0.68380   0.68444   0.68568
 Alpha virt. eigenvalues --    0.68648   0.68753   0.68845   0.68981   0.69024
 Alpha virt. eigenvalues --    0.69250   0.69328   0.69489   0.69504   0.69608
 Alpha virt. eigenvalues --    0.69671   0.70006   0.70116   0.70168   0.70202
 Alpha virt. eigenvalues --    0.70755   0.70810   0.70941   0.71068   0.71286
 Alpha virt. eigenvalues --    0.71449   0.71566   0.71711   0.71874   0.71957
 Alpha virt. eigenvalues --    0.72279   0.72567   0.72736   0.73009   0.73129
 Alpha virt. eigenvalues --    0.73283   0.73516   0.73589   0.73718   0.74080
 Alpha virt. eigenvalues --    0.74295   0.74476   0.74679   0.74893   0.75084
 Alpha virt. eigenvalues --    0.75118   0.75177   0.75506   0.75968   0.76239
 Alpha virt. eigenvalues --    0.76629   0.76870   0.76926   0.77116   0.77235
 Alpha virt. eigenvalues --    0.77405   0.77422   0.77803   0.77858   0.78174
 Alpha virt. eigenvalues --    0.78261   0.78558   0.78671   0.78789   0.78968
 Alpha virt. eigenvalues --    0.79297   0.79486   0.79763   0.79802   0.79975
 Alpha virt. eigenvalues --    0.80167   0.80503   0.80856   0.81182   0.81372
 Alpha virt. eigenvalues --    0.81464   0.81577   0.81857   0.82163   0.82398
 Alpha virt. eigenvalues --    0.82784   0.82971   0.83064   0.83413   0.83560
 Alpha virt. eigenvalues --    0.84009   0.84067   0.84341   0.84516   0.84743
 Alpha virt. eigenvalues --    0.85024   0.85145   0.85429   0.85787   0.86193
 Alpha virt. eigenvalues --    0.86499   0.86684   0.86773   0.87010   0.87428
 Alpha virt. eigenvalues --    0.88064   0.88290   0.88471   0.88784   0.89195
 Alpha virt. eigenvalues --    0.89653   0.89695   0.90100   0.90326   0.90567
 Alpha virt. eigenvalues --    0.90961   0.91546   0.91796   0.92109   0.92468
 Alpha virt. eigenvalues --    0.92961   0.93084   0.93305   0.93409   0.93866
 Alpha virt. eigenvalues --    0.93992   0.94252   0.94541   0.94616   0.95326
 Alpha virt. eigenvalues --    0.95539   0.95690   0.96049   0.96059   0.96625
 Alpha virt. eigenvalues --    0.96830   0.96899   0.97139   0.97535   0.97759
 Alpha virt. eigenvalues --    0.98177   0.98271   0.98629   0.98860   0.99050
 Alpha virt. eigenvalues --    0.99528   0.99777   0.99992   1.00116   1.00367
 Alpha virt. eigenvalues --    1.00535   1.00629   1.00986   1.01371   1.01541
 Alpha virt. eigenvalues --    1.01689   1.01871   1.02007   1.02780   1.03489
 Alpha virt. eigenvalues --    1.03526   1.03624   1.04182   1.04322   1.04387
 Alpha virt. eigenvalues --    1.04716   1.05010   1.05106   1.05212   1.05716
 Alpha virt. eigenvalues --    1.06179   1.06498   1.06625   1.06820   1.07576
 Alpha virt. eigenvalues --    1.08056   1.08094   1.08125   1.08723   1.08783
 Alpha virt. eigenvalues --    1.09139   1.09296   1.09697   1.09878   1.10530
 Alpha virt. eigenvalues --    1.10709   1.11145   1.11157   1.11458   1.11509
 Alpha virt. eigenvalues --    1.12014   1.12333   1.12787   1.13025   1.13340
 Alpha virt. eigenvalues --    1.13479   1.13810   1.13959   1.14381   1.14745
 Alpha virt. eigenvalues --    1.14830   1.15273   1.15754   1.15859   1.16003
 Alpha virt. eigenvalues --    1.16329   1.16949   1.17090   1.17239   1.17975
 Alpha virt. eigenvalues --    1.18144   1.18271   1.18709   1.19044   1.19374
 Alpha virt. eigenvalues --    1.19515   1.19879   1.20128   1.20291   1.20346
 Alpha virt. eigenvalues --    1.20640   1.21153   1.21443   1.21732   1.22008
 Alpha virt. eigenvalues --    1.22273   1.22389   1.22454   1.22952   1.23172
 Alpha virt. eigenvalues --    1.23269   1.23687   1.23941   1.24020   1.24212
 Alpha virt. eigenvalues --    1.24850   1.25112   1.25523   1.25747   1.25974
 Alpha virt. eigenvalues --    1.26186   1.26426   1.26534   1.27008   1.27218
 Alpha virt. eigenvalues --    1.27463   1.27748   1.27794   1.27988   1.28119
 Alpha virt. eigenvalues --    1.28577   1.28673   1.28846   1.29230   1.29585
 Alpha virt. eigenvalues --    1.29907   1.30076   1.30414   1.30687   1.31042
 Alpha virt. eigenvalues --    1.31178   1.31406   1.31640   1.31910   1.32156
 Alpha virt. eigenvalues --    1.32388   1.32972   1.33145   1.33516   1.33745
 Alpha virt. eigenvalues --    1.33877   1.34359   1.34660   1.34805   1.35001
 Alpha virt. eigenvalues --    1.35128   1.35275   1.35564   1.35926   1.36478
 Alpha virt. eigenvalues --    1.36605   1.36817   1.36838   1.37060   1.37499
 Alpha virt. eigenvalues --    1.38154   1.38682   1.38775   1.38849   1.38871
 Alpha virt. eigenvalues --    1.39467   1.39623   1.39845   1.39906   1.40176
 Alpha virt. eigenvalues --    1.40434   1.40732   1.41159   1.41301   1.41552
 Alpha virt. eigenvalues --    1.41866   1.42453   1.43072   1.43242   1.43493
 Alpha virt. eigenvalues --    1.43706   1.43872   1.44371   1.44492   1.44732
 Alpha virt. eigenvalues --    1.45038   1.45252   1.45425   1.45794   1.46045
 Alpha virt. eigenvalues --    1.46489   1.46701   1.46976   1.47086   1.47381
 Alpha virt. eigenvalues --    1.47974   1.48242   1.48525   1.48676   1.48879
 Alpha virt. eigenvalues --    1.49148   1.49235   1.49587   1.49724   1.50047
 Alpha virt. eigenvalues --    1.50087   1.50252   1.50602   1.50870   1.51118
 Alpha virt. eigenvalues --    1.51285   1.51585   1.51834   1.51942   1.52377
 Alpha virt. eigenvalues --    1.52678   1.53473   1.53834   1.54036   1.54818
 Alpha virt. eigenvalues --    1.55198   1.55487   1.55593   1.56223   1.56513
 Alpha virt. eigenvalues --    1.56713   1.57010   1.57402   1.57897   1.58216
 Alpha virt. eigenvalues --    1.58385   1.58765   1.59005   1.59284   1.59592
 Alpha virt. eigenvalues --    1.59720   1.60258   1.60628   1.60737   1.60868
 Alpha virt. eigenvalues --    1.61366   1.61870   1.62366   1.62518   1.62789
 Alpha virt. eigenvalues --    1.62895   1.63080   1.63296   1.63507   1.63616
 Alpha virt. eigenvalues --    1.64389   1.64734   1.64890   1.65323   1.65672
 Alpha virt. eigenvalues --    1.65923   1.66138   1.66456   1.66785   1.67262
 Alpha virt. eigenvalues --    1.67601   1.67933   1.68452   1.68656   1.69093
 Alpha virt. eigenvalues --    1.69138   1.69515   1.69653   1.70215   1.70310
 Alpha virt. eigenvalues --    1.70753   1.70803   1.71094   1.71495   1.71587
 Alpha virt. eigenvalues --    1.71675   1.71890   1.72088   1.72555   1.72769
 Alpha virt. eigenvalues --    1.72867   1.73246   1.73399   1.73639   1.73722
 Alpha virt. eigenvalues --    1.73836   1.74082   1.74317   1.74467   1.74646
 Alpha virt. eigenvalues --    1.74779   1.74996   1.75134   1.75667   1.75790
 Alpha virt. eigenvalues --    1.76196   1.76229   1.76417   1.76491   1.76727
 Alpha virt. eigenvalues --    1.76762   1.76880   1.77077   1.77263   1.77335
 Alpha virt. eigenvalues --    1.77401   1.77572   1.77684   1.77794   1.77984
 Alpha virt. eigenvalues --    1.78080   1.78573   1.78931   1.79052   1.79239
 Alpha virt. eigenvalues --    1.79532   1.79739   1.79856   1.80146   1.80268
 Alpha virt. eigenvalues --    1.80607   1.80795   1.80845   1.81084   1.81360
 Alpha virt. eigenvalues --    1.81547   1.81805   1.81855   1.81940   1.82236
 Alpha virt. eigenvalues --    1.82373   1.82452   1.82524   1.82639   1.83034
 Alpha virt. eigenvalues --    1.83107   1.83400   1.83668   1.83807   1.84047
 Alpha virt. eigenvalues --    1.84252   1.84351   1.84659   1.84779   1.84942
 Alpha virt. eigenvalues --    1.85126   1.85215   1.85513   1.85790   1.85835
 Alpha virt. eigenvalues --    1.85992   1.86055   1.86216   1.86483   1.86597
 Alpha virt. eigenvalues --    1.86815   1.86996   1.87140   1.87267   1.87376
 Alpha virt. eigenvalues --    1.87628   1.87796   1.87854   1.88144   1.88490
 Alpha virt. eigenvalues --    1.88524   1.88819   1.88933   1.89142   1.89249
 Alpha virt. eigenvalues --    1.89409   1.89491   1.89511   1.89645   1.89699
 Alpha virt. eigenvalues --    1.89929   1.90088   1.90240   1.90410   1.90913
 Alpha virt. eigenvalues --    1.91078   1.91339   1.91889   1.92260   1.92407
 Alpha virt. eigenvalues --    1.92525   1.92621   1.92690   1.92863   1.93275
 Alpha virt. eigenvalues --    1.93394   1.93495   1.93779   1.94009   1.94161
 Alpha virt. eigenvalues --    1.94197   1.94252   1.94626   1.95021   1.95507
 Alpha virt. eigenvalues --    1.95709   1.95950   1.96081   1.96366   1.96478
 Alpha virt. eigenvalues --    1.96736   1.97093   1.97549   1.97693   1.97817
 Alpha virt. eigenvalues --    1.98155   1.98432   1.98514   1.98705   1.99117
 Alpha virt. eigenvalues --    1.99369   1.99706   2.00203   2.00590   2.00760
 Alpha virt. eigenvalues --    2.00943   2.01074   2.01271   2.01282   2.01670
 Alpha virt. eigenvalues --    2.01899   2.02254   2.02399   2.02655   2.02786
 Alpha virt. eigenvalues --    2.02894   2.03372   2.03598   2.03735   2.03805
 Alpha virt. eigenvalues --    2.04068   2.04412   2.04627   2.04741   2.04853
 Alpha virt. eigenvalues --    2.04938   2.05301   2.05455   2.05910   2.06144
 Alpha virt. eigenvalues --    2.06317   2.06679   2.07006   2.07337   2.07635
 Alpha virt. eigenvalues --    2.07754   2.07858   2.08215   2.08386   2.08510
 Alpha virt. eigenvalues --    2.08566   2.08971   2.09258   2.09448   2.09790
 Alpha virt. eigenvalues --    2.09949   2.10460   2.10689   2.10969   2.11213
 Alpha virt. eigenvalues --    2.11870   2.12468   2.12608   2.12976   2.13154
 Alpha virt. eigenvalues --    2.13714   2.13843   2.13894   2.14191   2.14636
 Alpha virt. eigenvalues --    2.14787   2.14861   2.14977   2.15350   2.15480
 Alpha virt. eigenvalues --    2.16064   2.16750   2.17068   2.17291   2.17469
 Alpha virt. eigenvalues --    2.18147   2.18488   2.18768   2.19087   2.19444
 Alpha virt. eigenvalues --    2.19536   2.19617   2.19837   2.20551   2.21121
 Alpha virt. eigenvalues --    2.21362   2.21524   2.22087   2.22209   2.22577
 Alpha virt. eigenvalues --    2.22712   2.22824   2.23305   2.23623   2.24052
 Alpha virt. eigenvalues --    2.24324   2.24366   2.24534   2.24738   2.25150
 Alpha virt. eigenvalues --    2.25288   2.25716   2.25825   2.26323   2.26402
 Alpha virt. eigenvalues --    2.26917   2.27580   2.27818   2.28014   2.28327
 Alpha virt. eigenvalues --    2.28499   2.28967   2.29077   2.29354   2.29669
 Alpha virt. eigenvalues --    2.30052   2.30649   2.30913   2.30958   2.31376
 Alpha virt. eigenvalues --    2.31472   2.31845   2.32078   2.32319   2.32883
 Alpha virt. eigenvalues --    2.33012   2.33256   2.33382   2.33959   2.34332
 Alpha virt. eigenvalues --    2.34472   2.34963   2.35336   2.35720   2.35953
 Alpha virt. eigenvalues --    2.36170   2.36274   2.36646   2.37034   2.37391
 Alpha virt. eigenvalues --    2.37678   2.38115   2.38495   2.38581   2.38784
 Alpha virt. eigenvalues --    2.38912   2.39362   2.39534   2.39792   2.40285
 Alpha virt. eigenvalues --    2.40933   2.41176   2.41720   2.41951   2.42342
 Alpha virt. eigenvalues --    2.42591   2.42836   2.42947   2.43821   2.44021
 Alpha virt. eigenvalues --    2.44381   2.44560   2.44947   2.45086   2.45402
 Alpha virt. eigenvalues --    2.45615   2.45915   2.46206   2.46580   2.46755
 Alpha virt. eigenvalues --    2.46841   2.46924   2.48116   2.49052   2.49499
 Alpha virt. eigenvalues --    2.49639   2.50033   2.50610   2.51010   2.51362
 Alpha virt. eigenvalues --    2.51478   2.51973   2.52447   2.52555   2.52956
 Alpha virt. eigenvalues --    2.53242   2.53632   2.54118   2.54553   2.54726
 Alpha virt. eigenvalues --    2.54814   2.55208   2.55435   2.56061   2.56125
 Alpha virt. eigenvalues --    2.56473   2.56759   2.57418   2.57801   2.58009
 Alpha virt. eigenvalues --    2.58241   2.58460   2.58702   2.59215   2.59445
 Alpha virt. eigenvalues --    2.59977   2.60083   2.60318   2.60518   2.61013
 Alpha virt. eigenvalues --    2.61032   2.61466   2.62117   2.62855   2.62868
 Alpha virt. eigenvalues --    2.63038   2.63321   2.63465   2.63744   2.63908
 Alpha virt. eigenvalues --    2.64428   2.64695   2.64764   2.65070   2.65813
 Alpha virt. eigenvalues --    2.66594   2.66656   2.66840   2.67008   2.67471
 Alpha virt. eigenvalues --    2.67570   2.67935   2.68434   2.68777   2.68931
 Alpha virt. eigenvalues --    2.69365   2.69542   2.69772   2.70111   2.70797
 Alpha virt. eigenvalues --    2.70866   2.71125   2.71234   2.71432   2.71637
 Alpha virt. eigenvalues --    2.71724   2.71956   2.72271   2.72379   2.72422
 Alpha virt. eigenvalues --    2.72993   2.73029   2.73277   2.73767   2.74174
 Alpha virt. eigenvalues --    2.74464   2.74520   2.74662   2.75133   2.75352
 Alpha virt. eigenvalues --    2.75730   2.75886   2.75964   2.76002   2.76339
 Alpha virt. eigenvalues --    2.76708   2.77049   2.77377   2.77501   2.77880
 Alpha virt. eigenvalues --    2.77964   2.78226   2.78550   2.79000   2.79034
 Alpha virt. eigenvalues --    2.79375   2.79666   2.79978   2.80341   2.80637
 Alpha virt. eigenvalues --    2.81017   2.81297   2.81382   2.81644   2.82010
 Alpha virt. eigenvalues --    2.82268   2.82298   2.82593   2.82716   2.83059
 Alpha virt. eigenvalues --    2.83150   2.83751   2.83879   2.84359   2.84536
 Alpha virt. eigenvalues --    2.84685   2.85294   2.86351   2.86917   2.87151
 Alpha virt. eigenvalues --    2.87351   2.87626   2.87863   2.88323   2.88639
 Alpha virt. eigenvalues --    2.89431   2.89505   2.89727   2.90148   2.90444
 Alpha virt. eigenvalues --    2.90586   2.90605   2.91098   2.91236   2.91386
 Alpha virt. eigenvalues --    2.91699   2.91820   2.92067   2.92515   2.92649
 Alpha virt. eigenvalues --    2.93340   2.93490   2.93679   2.93799   2.93983
 Alpha virt. eigenvalues --    2.94342   2.94758   2.94975   2.95087   2.95489
 Alpha virt. eigenvalues --    2.95769   2.96122   2.96325   2.96803   2.97069
 Alpha virt. eigenvalues --    2.97230   2.97537   2.98130   2.98216   2.98637
 Alpha virt. eigenvalues --    2.98902   2.99047   2.99509   2.99730   3.00198
 Alpha virt. eigenvalues --    3.00612   3.00906   3.01700   3.01877   3.02034
 Alpha virt. eigenvalues --    3.02653   3.02829   3.03311   3.03878   3.04003
 Alpha virt. eigenvalues --    3.04283   3.04560   3.04754   3.05077   3.05386
 Alpha virt. eigenvalues --    3.05635   3.06018   3.06183   3.06280   3.06588
 Alpha virt. eigenvalues --    3.07205   3.07661   3.07735   3.08248   3.09443
 Alpha virt. eigenvalues --    3.09929   3.11341   3.11406   3.11734   3.12235
 Alpha virt. eigenvalues --    3.13373   3.13581   3.14536   3.15555   3.15902
 Alpha virt. eigenvalues --    3.16415   3.16506   3.16793   3.16887   3.17057
 Alpha virt. eigenvalues --    3.17724   3.17792   3.17893   3.18532   3.18653
 Alpha virt. eigenvalues --    3.19144   3.19402   3.19475   3.20330   3.20389
 Alpha virt. eigenvalues --    3.20741   3.21039   3.21251   3.21399   3.21452
 Alpha virt. eigenvalues --    3.21949   3.22096   3.22389   3.22861   3.23117
 Alpha virt. eigenvalues --    3.23565   3.24522   3.25011   3.25626   3.26298
 Alpha virt. eigenvalues --    3.26384   3.26674   3.26737   3.27591   3.28195
 Alpha virt. eigenvalues --    3.28906   3.29311   3.30427   3.30929   3.31732
 Alpha virt. eigenvalues --    3.31998   3.32382   3.32820   3.33619   3.35202
 Alpha virt. eigenvalues --    3.35272   3.35748   3.36398   3.39117   3.39365
 Alpha virt. eigenvalues --    3.39620   3.41416   3.48591   3.50814   3.51320
 Alpha virt. eigenvalues --    3.52785   3.53999   3.54249   3.55071   3.55216
 Alpha virt. eigenvalues --    3.56538   3.56997   3.57994   3.58412   3.60928
 Alpha virt. eigenvalues --    3.61691   3.62006   3.63234   3.63592   3.65270
 Alpha virt. eigenvalues --    3.65740   3.66398   3.68155   3.68623   3.69163
 Alpha virt. eigenvalues --    3.69758   3.69887   3.70309   3.70377   3.70605
 Alpha virt. eigenvalues --    3.70820   3.71032   3.71237   3.71701   3.72025
 Alpha virt. eigenvalues --    3.72251   3.73909   3.74477   3.74888   3.75749
 Alpha virt. eigenvalues --    3.75883   3.80445   3.83704   3.84771
          Condensed to atoms (all electrons):
 Mulliken charges:
               1
     1  C    0.055223
     2  C   -0.006157
     3  O   -0.296618
     4  H    0.040509
     5  H    0.005024
     6  H    0.037091
     7  N   -0.121085
     8  C    0.122761
     9  C    0.050410
    10  O   -0.289940
    11  C    0.059739
    12  C    0.167617
    13  O   -0.476288
    14  O   -0.381625
    15  H    0.105811
    16  H    0.032862
    17  H   -0.009511
    18  H    0.017504
    19  N   -0.154134
    20  C    0.081831
    21  C    0.049909
    22  O   -0.283486
    23  C    0.125075
    24  C    0.014519
    25  C   -0.084303
    26  C    0.049153
    27  N    0.080123
    28  H    0.149254
    29  H   -0.008534
    30  H    0.034723
    31  H    0.017224
    32  H    0.031193
    33  H    0.008247
    34  H    0.026815
    35  H    0.028204
    36  H    0.075451
    37  H    0.068044
    38  H    0.200228
    39  H    0.189326
    40  H    0.196168
    41  N   -0.159316
    42  C    0.108865
    43  C    0.058566
    44  O   -0.287356
    45  C    0.178858
    46  C    0.060049
    47  O   -0.413350
    48  O   -0.408377
    49  H    0.161157
    50  H    0.013925
    51  H   -0.025238
    52  H    0.015648
    53  N   -0.160511
    54  C    0.224087
    55  C    0.043940
    56  O   -0.297551
    57  H    0.143387
    58  H    0.015037
    59  H    0.027843
    60  N   -0.153886
    61  C    0.175080
    62  C    0.016494
    63  O   -0.300266
    64  C    0.074006
    65  C    0.062622
    66  N   -0.043719
    67  O   -0.333820
    68  H    0.147858
    69  H    0.023059
    70  H    0.064566
    71  H   -0.009140
    72  H    0.130165
    73  H    0.129391
    74  N   -0.138732
    75  C    0.215363
    76  C    0.060446
    77  O   -0.304619
    78  H    0.144135
    79  H    0.051430
    80  H    0.020128
    81  N   -0.141680
    82  C    0.123992
    83  C    0.091109
    84  O   -0.336775
    85  C    0.128120
    86  C    0.012598
    87  C    0.019924
    88  C    0.013576
    89  C   -0.030827
    90  C   -0.056922
    91  C    0.163071
    92  O   -0.197164
    93  H    0.157393
    94  H   -0.017743
    95  H   -0.022333
    96  H   -0.057196
    97  H   -0.023091
    98  H   -0.047097
    99  H   -0.003770
   100  H   -0.060005
   101  H    0.167084
   102  N   -0.103151
   103  C    0.141083
   104  C    0.063382
   105  O   -0.301825
   106  C   -0.047253
   107  C    0.037127
   108  C    0.062432
   109  C   -0.026397
   110  H    0.130664
   111  H    0.027495
   112  H   -0.020193
   113  H   -0.010505
   114  H   -0.014397
   115  H    0.012154
   116  H    0.000365
   117  H    0.013015
   118  H    0.001392
   119  H    0.039931
   120  H    0.005111
   121  N   -0.117463
   122  C    0.098583
   123  C    0.083947
   124  O   -0.253776
   125  C    0.209894
   126  O   -0.296113
   127  H    0.165871
   128  H    0.023085
   129  H   -0.024492
   130  H   -0.005525
   131  H    0.164944
   132  N   -0.138882
   133  C    0.114456
   134  C    0.071398
   135  O   -0.233367
   136  C    0.020707
   137  H    0.117663
   138  H    0.024831
   139  H    0.039204
   140  H    0.030106
   141  H   -0.007338
   142  N   -0.159249
   143  C    0.084093
   144  C    0.090695
   145  O   -0.257537
   146  C    0.065403
   147  H    0.102207
   148  H    0.020389
   149  H    0.026065
   150  H    0.023704
   151  H    0.006394
   152  N   -0.165853
   153  C    0.164267
   154  C    0.046508
   155  O   -0.275637
   156  C   -0.058961
   157  C    0.099362
   158  C    0.146390
   159  O   -0.399399
   160  O   -0.432950
   161  H    0.113136
   162  H   -0.007563
   163  H    0.043350
   164  H   -0.020031
   165  H   -0.023888
   166  H   -0.016412
   167  N   -0.168099
   168  C    0.142319
   169  H    0.020358
   170  H    0.021911
   171  H    0.004885
   172  H    0.137171
   173  Ca   1.294203
   174  O   -0.316987
   175  H    0.170197
   176  H    0.160544
 Sum of Mulliken charges =   0.00000
 Mulliken charges with hydrogens summed into heavy atoms:
               1
     1  C    0.137847
     2  C   -0.006157
     3  O   -0.296618
     7  N   -0.015274
     8  C    0.155623
     9  C    0.050410
    10  O   -0.289940
    11  C    0.067731
    12  C    0.167617
    13  O   -0.476288
    14  O   -0.381625
    19  N   -0.004881
    20  C    0.073297
    21  C    0.049909
    22  O   -0.283486
    23  C    0.177023
    24  C    0.053959
    25  C   -0.029284
    26  C    0.192648
    27  N    0.665846
    41  N    0.001842
    42  C    0.122790
    43  C    0.058566
    44  O   -0.287356
    45  C    0.169268
    46  C    0.060049
    47  O   -0.413350
    48  O   -0.408377
    53  N   -0.017124
    54  C    0.266967
    55  C    0.043940
    56  O   -0.297551
    60  N   -0.006028
    61  C    0.198139
    62  C    0.016494
    63  O   -0.300266
    64  C    0.129432
    65  C    0.062622
    66  N    0.215838
    67  O   -0.333820
    74  N    0.005403
    75  C    0.286922
    76  C    0.060446
    77  O   -0.304619
    81  N    0.015714
    82  C    0.106249
    83  C    0.091109
    84  O   -0.336775
    85  C    0.048591
    86  C    0.012598
    87  C   -0.003167
    88  C   -0.033521
    89  C   -0.034597
    90  C   -0.116928
    91  C    0.163071
    92  O   -0.030080
   102  N    0.027513
   103  C    0.168578
   104  C    0.063382
   105  O   -0.301825
   106  C   -0.067446
   107  C    0.012226
   108  C    0.087966
   109  C    0.020037
   121  N    0.048408
   122  C    0.121668
   123  C    0.083947
   124  O   -0.253776
   125  C    0.179878
   126  O   -0.131169
   132  N   -0.021219
   133  C    0.139286
   134  C    0.071398
   135  O   -0.233367
   136  C    0.082679
   142  N   -0.057042
   143  C    0.104483
   144  C    0.090695
   145  O   -0.257537
   146  C    0.121567
   152  N   -0.052716
   153  C    0.156705
   154  C    0.046508
   155  O   -0.275637
   156  C   -0.035642
   157  C    0.059062
   158  C    0.146390
   159  O   -0.399399
   160  O   -0.432950
   167  N   -0.030928
   168  C    0.189473
   173  Ca   1.294203
   174  O    0.013755
 DipInt: DoE/N= T F RetVal/Mat= T F Init=T NMatP=  1 IDeriv=0 Min/MaxMlt=  0  4
 Entering OneElI...
 OneElI was handed  4286741430 working-precision words.
 Multipole integrals L=0 to 4 MinM= 0 MaxM= 0.
 Requested accuracy = 0.1000D-12
 ShPair: Thresh= 1.00D-13 NBox=     0 BxSize= 0.00D+00 RnKept= 2.55D+01
         NSMCal=               327645 NSMKep=              157154
 PrsmSu:  NPrtUS=   1 ThrOK=F IAlg=1 NPAlg=1 LenDen=           0.
 Prism:   IPart=     0 DynPar=F LinDyn=F Incr=         512.
 PRISM was handed  4276803982 working-precision words and157154 shell-pairs
 IPart=  0 NShTot=      157154 NBatch=         442 AvBLen=       355.6
 PrSmSu:  NxtVal=            513.
 Electronic moments (au):
       -716.00000000         11.85563673          6.71925081         -1.53821224
     -51791.82027763     -34904.12416403     -11452.72780119        123.19071527
        -16.49794707        100.94740302     -42507.51480964     -95209.47790502
      -7656.30174358       6526.73126377     129549.55720673      25289.37070611
     -18037.97708444      -4213.60072134      -6895.17307866     -40207.42532917
   -7796736.20741469   -4325761.35840520    -468354.35423400     -73876.08359366
     359185.31784364    -973758.35625970    -144454.95083313     -56390.19682546
     -22661.12866004   -2309307.08988294    -639709.33739764    -415610.48939960
     -78028.50393622     -10953.71191933      98034.61290272
 Electronic spatial extent (au):  <R**2>=          98148.6722
 DipInt: DoE/N= F T RetVal/Mat= T F Init=T NMatP=  1 IDeriv=0 Min/MaxMlt=  0  4
 Nuclear    moments (au):
        716.00000000          0.00000000          0.00000000          0.00000000
      51276.25466775      34711.91690792      11082.54216320          0.00000000
          0.00000000          0.00000000      43500.65181563      98816.29245921
       7520.28190678      -4025.88752482    -129240.14315735     -25807.98411616
      18336.32970845       4284.99701049       7832.51243419      40667.24690792
    7582279.55890997    4280738.38850315     431757.91589085      80908.37726930
    -364688.54938549    1014901.55103277     164682.31787330      56535.59120394
      26869.82151368    2275380.75622012     605297.31352434     394360.29495316
      84284.74982416      15825.56944282     -97203.57265523
 Total      moments (au):
          0.00000000         11.85563673          6.71925081         -1.53821224
       -515.56560988       -192.20725611       -370.18563799        123.19071527
        -16.49794707        100.94740302        993.13700600       3606.81455419
       -136.01983680       2500.84373895        309.41404938       -518.61341005
        298.35262401         71.39628914        937.33935553        459.82157876
    -214456.64850472     -45022.96990206     -36596.43834315       7032.29367564
      -5503.23154184      41143.19477307      20227.36704017        145.39437847
       4208.69285364     -33926.33366282     -34412.02387330     -21250.19444644
       6256.24588794       4871.85752348        831.04024749
 Traceless Quadrup. (au):
       -156.24610856        167.11224522        -10.86613666        123.19071527
        -16.49794707        100.94740302
 Charge=              0.0000 electrons
 Dipole moment (field-independent basis, Debye):
    X=             30.1340    Y=             17.0786    Z=             -3.9097  Tot=             34.8572
 Quadrupole moment (field-independent basis, Debye-Ang):
   XX=           -693.4534   YY=           -258.5253   ZZ=           -497.9123
   XY=            165.6957   XZ=            -22.1903   YZ=            135.7777
 Traceless Quadrupole moment (field-independent basis, Debye-Ang):
   XX=           -210.1564   YY=            224.7717   ZZ=            -14.6153
   XY=            165.6957   XZ=            -22.1903   YZ=            135.7777
 Octapole moment (field-independent basis, Debye-Ang**2):
  XXX=            706.8766  YYY=           2567.1915  ZZZ=            -96.8137  XYY=           1780.0041
  XXY=            220.2290  XXZ=           -369.1290  XZZ=            212.3559  YZZ=             50.8171
  YYZ=            667.1620  XYZ=            327.2833
 Hexadecapole moment (field-independent basis, Debye-Ang**3):
 XXXX=         -80774.6520 YYYY=         -16957.8083 ZZZZ=         -13783.9726 XXXY=           2648.6988
 XXXZ=          -2072.7807 YYYX=          15496.4990 YYYZ=           7618.5959 ZZZX=             54.7625
 ZZZY=           1585.1954 XXYY=         -12778.2832 XXZZ=         -12961.2174 YYZZ=          -8003.8417
 XXYZ=           2356.4020 YYXZ=           1834.9750 ZZXY=            313.0096
 N-N= 2.152039719294D+04 E-N=-5.552780587548D+04  KE= 5.290486247535D+03
 Leave Link  601 at Mon Sep 16 18:50:50 2019, MaxMem=  4294967296 cpu:        21.8
 FitSet:  NAtFit=   176 NAtPot=   176 NAtFrz=     0 MDM=   180 TotChg=   0.00000
 Merz-Kollman atomic radii used.
 Read replacement radii for each type of atom:
 Rad(20) =   1.700000000000D+00
 Atom Element Radius
    1     6    1.50
    2     6    1.50
    3     8    1.40
    4     1    1.20
    5     1    1.20
    6     1    1.20
    7     7    1.50
    8     6    1.50
    9     6    1.50
   10     8    1.40
   11     6    1.50
   12     6    1.50
   13     8    1.40
   14     8    1.40
   15     1    1.20
   16     1    1.20
   17     1    1.20
   18     1    1.20
   19     7    1.50
   20     6    1.50
   21     6    1.50
   22     8    1.40
   23     6    1.50
   24     6    1.50
   25     6    1.50
   26     6    1.50
   27     7    1.50
   28     1    1.20
   29     1    1.20
   30     1    1.20
   31     1    1.20
   32     1    1.20
   33     1    1.20
   34     1    1.20
   35     1    1.20
   36     1    1.20
   37     1    1.20
   38     1    1.20
   39     1    1.20
   40     1    1.20
   41     7    1.50
   42     6    1.50
   43     6    1.50
   44     8    1.40
   45     6    1.50
   46     6    1.50
   47     8    1.40
   48     8    1.40
   49     1    1.20
   50     1    1.20
   51     1    1.20
   52     1    1.20
   53     7    1.50
   54     6    1.50
   55     6    1.50
   56     8    1.40
   57     1    1.20
   58     1    1.20
   59     1    1.20
   60     7    1.50
   61     6    1.50
   62     6    1.50
   63     8    1.40
   64     6    1.50
   65     6    1.50
   66     7    1.50
   67     8    1.40
   68     1    1.20
   69     1    1.20
   70     1    1.20
   71     1    1.20
   72     1    1.20
   73     1    1.20
   74     7    1.50
   75     6    1.50
   76     6    1.50
   77     8    1.40
   78     1    1.20
   79     1    1.20
   80     1    1.20
   81     7    1.50
   82     6    1.50
   83     6    1.50
   84     8    1.40
   85     6    1.50
   86     6    1.50
   87     6    1.50
   88     6    1.50
   89     6    1.50
   90     6    1.50
   91     6    1.50
   92     8    1.40
   93     1    1.20
   94     1    1.20
   95     1    1.20
   96     1    1.20
   97     1    1.20
   98     1    1.20
   99     1    1.20
  100     1    1.20
  101     1    1.20
  102     7    1.50
  103     6    1.50
  104     6    1.50
  105     8    1.40
  106     6    1.50
  107     6    1.50
  108     6    1.50
  109     6    1.50
  110     1    1.20
  111     1    1.20
  112     1    1.20
  113     1    1.20
  114     1    1.20
  115     1    1.20
  116     1    1.20
  117     1    1.20
  118     1    1.20
  119     1    1.20
  120     1    1.20
  121     7    1.50
  122     6    1.50
  123     6    1.50
  124     8    1.40
  125     6    1.50
  126     8    1.40
  127     1    1.20
  128     1    1.20
  129     1    1.20
  130     1    1.20
  131     1    1.20
  132     7    1.50
  133     6    1.50
  134     6    1.50
  135     8    1.40
  136     6    1.50
  137     1    1.20
  138     1    1.20
  139     1    1.20
  140     1    1.20
  141     1    1.20
  142     7    1.50
  143     6    1.50
  144     6    1.50
  145     8    1.40
  146     6    1.50
  147     1    1.20
  148     1    1.20
  149     1    1.20
  150     1    1.20
  151     1    1.20
  152     7    1.50
  153     6    1.50
  154     6    1.50
  155     8    1.40
  156     6    1.50
  157     6    1.50
  158     6    1.50
  159     8    1.40
  160     8    1.40
  161     1    1.20
  162     1    1.20
  163     1    1.20
  164     1    1.20
  165     1    1.20
  166     1    1.20
  167     7    1.50
  168     6    1.50
  169     1    1.20
  170     1    1.20
  171     1    1.20
  172     1    1.20
  173    20    1.70
  174     8    1.40
  175     1    1.20
  176     1    1.20
 Generate VDW surfaces: Layer= 4 Dens= 6 Start= 1.400 Inc= 0.200

 **********************************************************************

            Electrostatic Properties Using The SCF Density

 **********************************************************************

       Atomic Center    1 is at   2.160610  3.076408  5.120333
[...]
 **** Fit      -0.040609
 **** Fit      -0.029886
 **** Fit      -0.021182
 **** Fit      -0.014757
 **** Fit      -0.010996
 **** Fit      -0.010385
 **** Fit      -0.013407
 **** Fit      -0.029465
 **** Fit      -0.019790
 **** Fit      -0.012317
 **** Fit      -0.007164
 **** Fit      -0.004605
 **** Fit      -0.004963
 **** Fit      -0.008464
 **** Fit      -0.018948
 **** Fit      -0.010816
 **** Fit      -0.004974
 **** Fit      -0.001481
 **** Fit      -0.000488
 **** Fit      -0.002070
 **** Fit      -0.016176
 **** Fit      -0.008078
 **** Fit      -0.002470
 **** Fit       0.000747
 **** Fit       0.001599
 **** Fit      -0.012362
 **** Fit      -0.005076
 **** Fit      -0.000414
 **** Fit       0.001861
 **** Fit      -0.009030
 **** Fit      -0.003089
 **** Fit       0.000340
 **** Fit      -0.004026
 **** Fit      -0.004355
 **** Fit       0.005023
 **** Fit      -0.000511
 **** Fit       0.007979
 **** Fit       0.003161
 **** Fit      -0.000291
 **** Fit       0.010656
 **** Fit       0.007979
 **** Fit       0.032630
 **** Fit       0.033795
 **** Fit       0.018490
 **** Fit       0.015391
 **** Fit       0.019189
 **** Fit       0.025589
 **** Fit       0.027863
 **** Fit       0.021919
 **** Fit      -0.009464
 **** Fit      -0.001809
 **** Fit       0.000640
 **** Fit       0.002583
 **** Fit       0.006449
 **** Fit       0.004482
 **** Fit       0.008798
 **** Fit       0.005507
 **** Fit       0.009557
 **** Fit       0.002694
 **** Fit       0.006675
 **** Fit       0.009873
 **** Fit      -0.001851
 **** Fit       0.001201
 **** Fit       0.004398
 **** Fit       0.007152
 **** Fit       0.008983
 **** Fit       0.001896
 **** Fit       0.003346
 **** Fit       0.005035
 **** Fit       0.006280
 **** Fit       0.006475
 **** Fit       0.005020
 **** Fit       0.004257
 **** Fit       0.004340
 **** Fit       0.004472
 **** Fit       0.003798
 **** Fit       0.001533
 **** Fit      -0.003048
 **** Fit       0.003384
 **** Fit       0.001738
 **** Fit      -0.001293
 **** Fit      -0.006566
 **** Fit      -0.014762
 **** Fit      -0.004220
 **** Fit      -0.051473
 **** Fit      -0.013043
 **** Fit      -0.012479
 **** Fit      -0.012324
 **** Fit      -0.012596
 **** Fit      -0.013294
 **** Fit      -0.014415
 **** Fit      -0.016324
 **** Fit      -0.013830
 **** Fit      -0.012788
 **** Fit      -0.012051
 **** Fit      -0.011652
 **** Fit      -0.011598
 **** Fit      -0.011878
 **** Fit      -0.012479
 **** Fit      -0.013404
 **** Fit      -0.014674
 **** Fit      -0.016698
 **** Fit      -0.018748
 **** Fit      -0.014470
 **** Fit      -0.013228
 **** Fit      -0.012224
 **** Fit      -0.011481
 **** Fit      -0.011034
 **** Fit      -0.010882
 **** Fit      -0.010999
 **** Fit      -0.011350
 **** Fit      -0.011917
 **** Fit      -0.012704
 **** Fit      -0.013733
 **** Fit      -0.015046
 **** Fit      -0.017046
 **** Fit      -0.019193
 **** Fit      -0.021854
 **** Fit      -0.025134
 **** Fit      -0.014992
 **** Fit      -0.013543
 **** Fit      -0.010394
 **** Fit      -0.010780
 **** Fit      -0.011325
 **** Fit      -0.012024
 **** Fit      -0.012893
 **** Fit      -0.013973
 **** Fit      -0.015332
 **** Fit      -0.022286
 **** Fit      -0.025672
 **** Fit      -0.029894
 **** Fit      -0.010315
 **** Fit      -0.010889
 **** Fit      -0.011551
 **** Fit      -0.012308
 **** Fit      -0.013193
 **** Fit      -0.030709
 **** Fit      -0.036310
 **** Fit      -0.010483
 **** Fit      -0.011174
 **** Fit      -0.011895
 **** Fit      -0.012658
 **** Fit      -0.036881
 **** Fit      -0.010175
 **** Fit      -0.010959
 **** Fit      -0.011721
 **** Fit      -0.037966
 **** Fit      -0.010726
 **** Fit      -0.011631
 **** Fit      -0.012463
 **** Fit      -0.011277
 **** Fit      -0.012385
 **** Fit      -0.012197
 **** Fit      -0.013583
 **** Fit      -0.013636
 **** Fit      -0.015424
 **** Fit      -0.014972
 **** Fit      -0.017489
 **** Fit      -0.016159
 **** Fit      -0.019812
 **** Fit      -0.016790
 **** Fit      -0.018892
 **** Fit      -0.021629
 **** Fit      -0.014083
 **** Fit      -0.015222
 **** Fit      -0.016799
 **** Fit      -0.018830
 **** Fit      -0.021483
 **** Fit      -0.024903
 **** Fit      -0.012700
 **** Fit      -0.013311
 **** Fit      -0.014138
 **** Fit      -0.015269
 **** Fit      -0.017044
 **** Fit      -0.018976
 **** Fit      -0.021474
 **** Fit      -0.024679
 **** Fit      -0.028790
 **** Fit      -0.012502
 **** Fit      -0.012991
 **** Fit      -0.013618
 **** Fit      -0.014452
 **** Fit      -0.015567
 **** Fit      -0.017624
 **** Fit      -0.019577
 **** Fit      -0.022101
 **** Fit      -0.025342
 **** Fit      -0.029504
 **** Fit      -0.034894
 **** Fit      -0.012966
 **** Fit      -0.013480
 **** Fit      -0.014132
 **** Fit      -0.014990
 **** Fit      -0.016127
 **** Fit      -0.018644
 **** Fit      -0.020592
 **** Fit      -0.023099
 **** Fit      -0.026304
 **** Fit      -0.030389
 **** Fit      -0.035610
 **** Fit      -0.013387
 **** Fit      -0.013870
 **** Fit      -0.014423
 **** Fit      -0.015108
 **** Fit      -0.015990
 **** Fit      -0.017142
 **** Fit      -0.020233
 **** Fit      -0.022212
 **** Fit      -0.024763
 **** Fit      -0.028027
 **** Fit      -0.032172
 **** Fit      -0.037407
 **** Fit      -0.044018
 **** Fit      -0.014209
 **** Fit      -0.014756
 **** Fit      -0.015301
 **** Fit      -0.015903
 **** Fit      -0.016624
 **** Fit      -0.017533
 **** Fit      -0.018707
 **** Fit      -0.022567
 **** Fit      -0.024665
 **** Fit      -0.027415
 **** Fit      -0.030984
 **** Fit      -0.035553
 **** Fit      -0.041304
 **** Fit      -0.048390
 **** Fit      -0.016762
 **** Fit      -0.017408
 **** Fit      -0.018072
 **** Fit      -0.018830
 **** Fit      -0.019765
 **** Fit      -0.020975
 **** Fit      -0.025908
 **** Fit      -0.028136
 **** Fit      -0.031142
 **** Fit      -0.035136
 **** Fit      -0.040323
 **** Fit      -0.046822
 **** Fit      -0.019853
 **** Fit      -0.020643
 **** Fit      -0.021372
 **** Fit      -0.022139
 **** Fit      -0.023062
 **** Fit      -0.024271
 **** Fit      -0.030677
 **** Fit      -0.032911
 **** Fit      -0.036049
 **** Fit      -0.040335
 **** Fit      -0.045967
 **** Fit      -0.025859
 **** Fit      -0.026584
 **** Fit      -0.027254
 **** Fit      -0.028040
 **** Fit      -0.029120
 **** Fit      -0.016977
 **** Fit      -0.016893
 **** Fit      -0.018848
 **** Fit      -0.019112
 **** Fit      -0.017321
 **** Fit      -0.015644
 **** Fit      -0.015459
 **** Fit      -0.017064
 **** Fit      -0.019253
 **** Fit      -0.021396
 **** Fit      -0.022577
 **** Fit      -0.022085
 **** Fit      -0.020205
 **** Fit      -0.017925
 **** Fit      -0.016005
 **** Fit      -0.014736
 **** Fit      -0.014187
 **** Fit      -0.014394
 **** Fit      -0.015373
 **** Fit      -0.017484
 **** Fit      -0.019705
 **** Fit      -0.022253
 **** Fit      -0.024784
 **** Fit      -0.026679
 **** Fit      -0.027247
 **** Fit      -0.026203
 **** Fit      -0.023956
 **** Fit      -0.021278
 **** Fit      -0.018783
 **** Fit      -0.016744
 **** Fit      -0.015212
 **** Fit      -0.014153
 **** Fit      -0.013533
 **** Fit      -0.013357
 **** Fit      -0.013652
 **** Fit      -0.014438
 **** Fit      -0.015718
 **** Fit      -0.018139
 **** Fit      -0.020490
 **** Fit      -0.023307
 **** Fit      -0.026492
 **** Fit      -0.029734
 **** Fit      -0.032427
 **** Fit      -0.033787
 **** Fit      -0.033269
 **** Fit      -0.031001
 **** Fit      -0.027724
 **** Fit      -0.024281
 **** Fit      -0.021210
 **** Fit      -0.018697
 **** Fit      -0.016723
 **** Fit      -0.015216
 **** Fit      -0.014101
 **** Fit      -0.013321
 **** Fit      -0.014778
 **** Fit      -0.016246
 **** Fit      -0.019008
 **** Fit      -0.021563
 **** Fit      -0.024686
 **** Fit      -0.028421
 **** Fit      -0.032682
 **** Fit      -0.037111
 **** Fit      -0.035438
 **** Fit      -0.030614
 **** Fit      -0.026251
 **** Fit      -0.022681
 **** Fit      -0.019881
 **** Fit      -0.017689
 **** Fit      -0.015969
 **** Fit      -0.026154
 **** Fit      -0.030282
 **** Fit      -0.035281
 **** Fit      -0.033382
 **** Fit      -0.028192
 **** Fit      -0.024232
 **** Fit      -0.021256
 **** Fit      -0.018924
 **** Fit      -0.033014
 **** Fit      -0.039108
 **** Fit      -0.030255
 **** Fit      -0.025737
 **** Fit      -0.011866
 **** Fit      -0.010918
 **** Fit      -0.010370
 **** Fit      -0.010250
 **** Fit      -0.012828
 **** Fit      -0.011545
 **** Fit      -0.010551
 **** Fit      -0.009853
 **** Fit      -0.009491
 **** Fit      -0.009486
 **** Fit      -0.009823
 **** Fit      -0.010756
 **** Fit      -0.009824
 **** Fit      -0.009163
 **** Fit      -0.008823
 **** Fit      -0.008827
 **** Fit      -0.009163
 **** Fit      -0.009785
 **** Fit      -0.010188
 **** Fit      -0.009261
 **** Fit      -0.008613
 **** Fit      -0.008284
 **** Fit      -0.008294
 **** Fit      -0.008632
 **** Fit      -0.009261
 **** Fit      -0.010567
 **** Fit      -0.009406
 **** Fit      -0.008533
 **** Fit      -0.007994
 **** Fit      -0.007826
 **** Fit      -0.008036
 **** Fit      -0.008600
 **** Fit      -0.009463
 **** Fit      -0.009766
 **** Fit      -0.008682
 **** Fit      -0.007919
 **** Fit      -0.007543
 **** Fit      -0.007584
 **** Fit      -0.008037
 **** Fit      -0.008864
 **** Fit      -0.009995
 **** Fit      -0.009434
 **** Fit      -0.008322
 **** Fit      -0.007578
 **** Fit      -0.007291
 **** Fit      -0.007490
 **** Fit      -0.008165
 **** Fit      -0.009268
 **** Fit      -0.010717
 **** Fit      -0.010162
 **** Fit      -0.008717
 **** Fit      -0.007674
 **** Fit      -0.007194
 **** Fit      -0.007339
 **** Fit      -0.008114
 **** Fit      -0.009473
 **** Fit      -0.011321
 **** Fit      -0.010173
 **** Fit      -0.008439
 **** Fit      -0.007416
 **** Fit      -0.007232
 **** Fit      -0.007931
 **** Fit      -0.009490
 **** Fit      -0.011817
 **** Fit      -0.010329
 **** Fit      -0.008338
 **** Fit      -0.007508
 **** Fit      -0.007915
 **** Fit      -0.009578
 **** Fit      -0.012432
 **** Fit      -0.008401
 **** Fit      -0.009067
 **** Fit      -0.011836
 **** Fit       0.014420
 **** Fit       0.013620
 **** Fit      -0.008401
 **** Fit      -0.017687
 **** Fit       0.012634
 **** Fit       0.005282
 **** Fit      -0.002516
 **** Fit       0.013701
 **** Fit       0.009625
 **** Fit       0.002077
 **** Fit       0.007772
 **** Fit       0.010028
 **** Fit       0.011352
 **** Fit       0.006200
 **** Fit      -0.015269
 **** Fit      -0.008214
 **** Fit      -0.002258
 **** Fit       0.002574
 **** Fit       0.006331
 **** Fit       0.009485
 **** Fit       0.012850
 **** Fit       0.017254
 **** Fit      -0.022553
 **** Fit      -0.016379
 **** Fit      -0.010406
 **** Fit      -0.004925
 **** Fit      -0.000013
 **** Fit       0.004390
 **** Fit       0.008600
 **** Fit       0.013159
 **** Fit       0.018581
 **** Fit      -0.021610
 **** Fit      -0.017626
 **** Fit      -0.012908
 **** Fit      -0.007950
 **** Fit      -0.003036
 **** Fit       0.001762
 **** Fit       0.006570
 **** Fit       0.011695
 **** Fit       0.017463
 **** Fit      -0.015838
 **** Fit      -0.012830
 **** Fit      -0.009027
 **** Fit      -0.004697
 **** Fit      -0.000045
 **** Fit       0.004890
 **** Fit       0.010223
 **** Fit      -0.011097
 **** Fit      -0.009285
 **** Fit      -0.006437
 **** Fit      -0.002662
 **** Fit       0.001854
 **** Fit       0.007011
 **** Fit       0.012805
 **** Fit      -0.004828
 **** Fit      -0.003984
 **** Fit      -0.001532
 **** Fit       0.002374
 **** Fit       0.007503
 **** Fit       0.006695
 **** Fit       0.002765
 **** Fit       0.001797
 **** Fit       0.003714
 **** Fit       0.008143
 **** Fit      -0.015294
 **** Fit      -0.001562
 **** Fit      -0.010561
 **** Fit       0.001638
 **** Fit      -0.007609
 **** Fit       0.003763
 **** Fit      -0.005370
 **** Fit       0.003747
 **** Fit      -0.005545
 **** Fit       0.002914
 **** Fit      -0.006043
 **** Fit       0.009396
 **** Fit       0.000760
 **** Fit      -0.007539
 **** Fit      -0.015421
 **** Fit      -0.011609
 **** Fit       0.005633
 **** Fit      -0.002608
 **** Fit      -0.008827
 **** Fit      -0.011290
 **** Fit      -0.010033
 **** Fit      -0.006330
 **** Fit       0.001282
 **** Fit      -0.003361
 **** Fit      -0.001075
 **** Fit       0.004140
 **** Fit       0.031560
 **** Fit       0.025627
 **** Fit       0.019085
 **** Fit       0.033632
 **** Fit       0.028369
 **** Fit       0.022663
 **** Fit       0.016607
 **** Fit       0.010204
 **** Fit       0.038251
 **** Fit       0.034582
 **** Fit       0.029788
 **** Fit       0.024615
 **** Fit       0.019139
 **** Fit       0.013350
 **** Fit       0.042310
 **** Fit       0.038822
 **** Fit       0.034676
 **** Fit       0.030302
 **** Fit       0.025553
 **** Fit       0.020504
 **** Fit       0.015158
 **** Fit       0.009460
 **** Fit       0.044061
 **** Fit       0.041681
 **** Fit       0.038526
 **** Fit       0.034119
 **** Fit       0.030218
 **** Fit       0.025931
 **** Fit       0.021341
 **** Fit       0.016481
 **** Fit       0.011365
 **** Fit       0.024341
 **** Fit       0.030688
 **** Fit       0.036308
 **** Fit       0.040403
 **** Fit       0.042706
 **** Fit       0.043531
 **** Fit       0.043276
 **** Fit       0.042147
 **** Fit       0.040205
 **** Fit       0.037497
 **** Fit       0.033044
 **** Fit       0.029380
 **** Fit       0.025266
 **** Fit       0.020821
 **** Fit       0.016138
 **** Fit       0.011339
 **** Fit       0.016567
 **** Fit       0.022502
 **** Fit       0.028246
 **** Fit       0.033284
 **** Fit       0.037043
 **** Fit       0.039275
 **** Fit       0.040104
 **** Fit       0.039754
 **** Fit       0.038381
 **** Fit       0.036099
 **** Fit       0.031532
 **** Fit       0.028128
 **** Fit       0.024206
 **** Fit       0.019957
 **** Fit       0.015576
 **** Fit       0.011327
 **** Fit       0.015446
 **** Fit       0.020801
 **** Fit       0.026017
 **** Fit       0.030587
 **** Fit       0.034010
 **** Fit       0.036020
 **** Fit       0.036629
 **** Fit       0.035975
 **** Fit       0.034216
 **** Fit       0.029626
 **** Fit       0.026337
 **** Fit       0.022435
 **** Fit       0.018278
 **** Fit       0.014277
 **** Fit       0.010884
 **** Fit       0.008478
 **** Fit       0.009547
 **** Fit       0.013068
 **** Fit       0.017625
 **** Fit       0.022536
 **** Fit       0.027087
 **** Fit       0.030601
 **** Fit       0.032627
 **** Fit       0.033043
 **** Fit       0.031964
 **** Fit       0.027340
 **** Fit       0.023897
 **** Fit       0.019760
 **** Fit       0.015887
 **** Fit       0.013222
 **** Fit       0.012489
 **** Fit       0.014083
 **** Fit       0.017739
 **** Fit       0.022383
 **** Fit       0.026564
 **** Fit       0.029044
 **** Fit       0.029254
 **** Fit       0.024667
 **** Fit       0.020838
 **** Fit       0.017561
 **** Fit       0.018077
 **** Fit       0.022085
 **** Fit       0.025391
 **** Fit       0.021590
 -----------------------------------------------------------------
 Leave Link  602 at Mon Sep 16 18:51:04 2019, MaxMem=  4294967296 cpu:       157.3

 Test job not archived.
 1\1\GINC-N008\SP\RB3LYP\SVP\C54H83Ca1N15O23\PCIEPLAK\16-Sep-2019\0\\#m
 axdisk=50GB #B3LYP/SVP Density=Current scf=(tight) #IOP(5/87=12)Pop=(M
 K,readradii) iop(6/33=2) iop(6/42=6)\\SOL molecule\\0,1\C,0,62.17,48.7
 5,35.4\C,0,62.52,47.38,35.97\O,0,61.8,46.87,36.83\H,0,61.268,49.125,35
 .884\H,0,62.993,49.441,35.582\H,0,61.997,48.664,34.327\N,0,63.56,46.69
 ,35.5\C,0,64.07,45.44,36.02\C,0,65.11,45.7,37.1\O,0,66.23,46.18,36.95\
 C,0,64.43,44.55,34.83\C,0,64.9,43.16,35.22\O,0,64.54,42.74,36.35\O,0,6
 5.52,42.48,34.38\H,0,64.12,47.25,34.87\H,0,63.25,44.91,36.49\H,0,65.28
 ,45.04,34.34\H,0,63.66,44.48,34.06\N,0,64.62,45.51,38.33\C,0,65.29,46.
 01,39.52\C,0,66.46,45.08,39.82\O,0,67.53,45.55,40.22\C,0,64.35,46.25,4
 0.69\C,0,64.81,47.34,41.66\C,0,64.57,48.74,41.11\C,0,65.08,49.88,41.99
 \N,0,64.8,51.2,41.42\H,0,63.64,45.31,38.24\H,0,65.73,46.95,39.18\H,0,6
 4.28,45.32,41.27\H,0,63.37,46.52,40.3\H,0,65.9,47.24,41.75\H,0,64.29,4
 7.31,42.62\H,0,63.5,48.85,40.93\H,0,65.09,48.67,40.16\H,0,66.16,49.85,
 42.1\H,0,64.57,49.84,42.95\H,0,65.1,51.21,40.45\H,0,63.82,51.43,41.42\
 H,0,65.27,51.9,41.98\N,0,66.18,43.79,39.67\C,0,67.13,42.72,39.9\C,0,68
 .04,42.4,38.72\O,0,69.13,41.83,38.81\C,0,66.5,41.45,40.46\C,0,65.17,41
 .09,39.8\O,0,65.13,40.58,38.66\O,0,64.11,41.42,40.37\H,0,65.26,43.58,3
 9.31\H,0,67.79,43.19,40.63\H,0,66.37,41.68,41.51\H,0,67.18,40.6,40.4\N
 ,0,67.68,42.89,37.54\C,0,68.55,42.75,36.39\C,0,68.56,41.41,35.67\O,0,6
 9.46,41.04,34.92\H,0,66.94,43.58,37.52\H,0,69.52,43.13,36.7\H,0,68.25,
 43.47,35.62\N,0,67.48,40.63,35.72\C,0,67.42,39.28,35.19\C,0,67.13,39.1
 6,33.7\O,0,67.31,38.1,33.11\C,0,66.61,38.4,36.13\C,0,65.09,38.47,36.02
 \N,0,64.38,37.34,35.95\O,0,64.5,39.55,36.1\H,0,66.73,40.98,36.29\H,0,6
 8.39,38.79,35.26\H,0,66.84,38.57,37.19\H,0,66.89,37.41,35.8\H,0,64.85,
 36.45,35.9\H,0,63.37,37.39,35.93\N,0,66.66,40.24,33.08\C,0,66.02,40.33
 ,31.78\C,0,64.52,40.49,31.65\O,0,64.04,40.28,30.53\H,0,66.65,41.03,33.
 71\H,0,66.37,39.41,31.31\H,0,66.39,41.24,31.3\N,0,63.73,40.6,32.72\C,0
 ,62.34,40.19,32.75\C,0,61.58,40.94,33.84\O,0,62.14,41.41,34.83\C,0,62.
 2,38.69,33.01\C,0,62.84,37.74,32.03\C,0,64.19,37.4,32.23\C,0,62.04,37.
 16,31.04\C,0,64.75,36.48,31.34\C,0,62.63,36.22,30.19\C,0,64.01,35.94,3
 0.27\O,0,64.6,35.17,29.3\H,0,64.04,41.12,33.53\H,0,61.74,40.29,31.85\H
 ,0,61.14,38.45,33.08\H,0,62.64,38.53,33.99\H,0,64.74,37.74,33.1\H,0,60
 .98,37.3,30.97\H,0,65.81,36.24,31.33\H,0,62.05,35.72,29.43\H,0,63.96,3
 4.93,28.63\N,0,60.29,41.12,33.56\C,0,59.42,42.,34.32\C,0,58.38,41.11,3
 5.\O,0,57.82,40.26,34.3\C,0,58.78,43.,33.37\C,0,59.74,44.08,32.88\C,0,
 57.54,43.69,33.94\C,0,60.41,45.05,33.86\H,0,59.98,40.61,32.74\H,0,59.9
 7,42.51,35.11\H,0,58.46,42.4,32.52\H,0,59.35,44.69,32.07\H,0,60.63,43.
 65,32.42\H,0,57.79,44.34,34.78\H,0,57.09,44.3,33.15\H,0,56.74,43.05,34
 .3\H,0,59.67,45.37,34.6\H,0,61.11,44.58,34.54\H,0,60.88,45.9,33.37\N,0
 ,58.19,41.36,36.3\C,0,57.27,40.61,37.14\C,0,56.24,41.54,37.78\O,0,56.2
 ,42.72,37.44\C,0,58.05,39.89,38.23\O,0,58.84,38.96,37.52\H,0,58.7,42.1
 4,36.68\H,0,56.84,39.74,36.66\H,0,57.4,39.48,38.99\H,0,58.78,40.56,38.
 69\H,0,58.71,38.1,37.93\N,0,55.34,41.,38.61\C,0,54.16,41.71,39.07\C,0,
 54.43,43.,39.83\O,0,54.,44.08,39.44\C,0,53.51,40.66,39.97\H,0,55.47,40
 .03,38.86\H,0,53.49,41.93,38.25\H,0,52.64,41.06,40.49\H,0,53.33,39.76,
 39.39\H,0,54.23,40.43,40.76\N,0,55.36,42.97,40.8\C,0,55.79,44.12,41.57
 \C,0,56.43,45.13,40.63\O,0,56.43,46.32,40.92\C,0,56.73,43.69,42.69\H,0
 ,55.87,42.1,40.9\H,0,54.94,44.68,41.97\H,0,56.95,44.46,43.42\H,0,56.28
 ,42.85,43.22\H,0,57.72,43.57,42.25\N,0,57.13,44.59,39.62\C,0,57.88,45.
 51,38.79\C,0,56.97,46.29,37.85\O,0,57.12,47.49,37.66\C,0,58.9,44.68,38
 .01\C,0,59.91,44.08,38.99\C,0,60.95,43.31,38.19\O,0,62.15,43.53,38.49\
 O,0,60.62,42.42,37.38\H,0,57.31,43.6,39.51\H,0,58.41,46.28,39.34\H,0,5
 9.44,45.24,37.25\H,0,58.5,43.79,37.54\H,0,59.44,43.39,39.69\H,0,60.38,
 44.9,39.53\N,0,55.85,45.66,37.47\C,0,54.85,46.21,36.58\H,0,53.991,46.5
 44,37.162\H,0,55.272,47.056,36.038\H,0,54.533,45.445,35.871\H,0,55.82,
 44.67,37.67\Ca,0,62.92,41.15,37.41\O,0,61.86,40.12,39.64\H,0,62.55,40.
 44,40.22\H,0,61.2,39.76,40.23\\Version=ES64L-G09RevD.01\State=1-A\HF=-
 5333.5663899\RMSD=2.021e-09\Dipole=-4.6673073,8.2997338,9.8692053\Quad
 rupole=-152.6160276,159.1706119,-6.5545844,145.7130622,37.6016852,69.9
 005823\PG=C01 [X(C54H83Ca1N15O23)]\\@


 THE MOST INCOMPREHENSIBLE THING ABOUT THE WORLD
 IS THAT IT IS COMPREHENSIBLE. -- A. EINSTEIN
 Job cpu time:       0 days 17 hours 50 minutes 38.7 seconds.
 File lengths (MBytes):  RWF=   1513 Int=      0 D2E=      0 Chk=    103 Scr=      1
 Normal termination of Gaussian 09 at Mon Sep 16 18:51:04 2019.
