 Entering Gaussian System, Link 0=g09
 Initial command:
 /home/pcieplak/g09/g09/l1.exe "/scratch1/pcieplak/holo_27.0/Gau-22617.inp" -scrdir="/scratch1/pcieplak/holo_27.0/"
 Entering Link 1 = /home/pcieplak/g09/g09/l1.exe PID=     22618.
  
 Copyright (c) 1988,1990,1992,1993,1995,1998,2003,2009,2013,
            Gaussian, Inc.  All Rights Reserved.
  
 This is part of the Gaussian(R) 09 program.  It is based on
 the Gaussian(R) 03 system (copyright 2003, Gaussian, Inc.),
 the Gaussian(R) 98 system (copyright 1998, Gaussian, Inc.),
 the Gaussian(R) 94 system (copyright 1995, Gaussian, Inc.),
 the Gaussian 92(TM) system (copyright 1992, Gaussian, Inc.),
 the Gaussian 90(TM) system (copyright 1990, Gaussian, Inc.),
 the Gaussian 88(TM) system (copyright 1988, Gaussian, Inc.),
 the Gaussian 86(TM) system (copyright 1986, Carnegie Mellon
 University), and the Gaussian 82(TM) system (copyright 1983,
 Carnegie Mellon University). Gaussian is a federally registered
 trademark of Gaussian, Inc.
  
 This software contains proprietary and confidential information,
 including trade secrets, belonging to Gaussian, Inc.
  
 This software is provided under written license and may be
 used, copied, transmitted, or stored only in accord with that
 written license.
  
 The following legend is applicable only to US Government
 contracts under FAR:
  
                    RESTRICTED RIGHTS LEGEND
  
 Use, reproduction and disclosure by the US Government is
 subject to restrictions as set forth in subparagraphs (a)
 and (c) of the Commercial Computer Software - Restricted
 Rights clause in FAR 52.227-19.
  
 Gaussian, Inc.
 340 Quinnipiac St., Bldg. 40, Wallingford CT 06492
  
  
 ---------------------------------------------------------------
 Warning -- This program may not be used in any manner that
 competes with the business of Gaussian, Inc. or will provide
 assistance to any competitor of Gaussian, Inc.  The licensee
 of this program is prohibited from giving any competitor of
 Gaussian, Inc. access to this program.  By using this program,
 the user acknowledges that Gaussian, Inc. is engaged in the
 business of creating and licensing software in the field of
 computational chemistry and represents and warrants to the
 licensee that it is not a competitor of Gaussian, Inc. and that
 it will not use this program in any manner prohibited above.
 ---------------------------------------------------------------
  

 Cite this work as:
 Gaussian 09, Revision D.01,
 M. J. Frisch, G. W. Trucks, H. B. Schlegel, G. E. Scuseria, 
 M. A. Robb, J. R. Cheeseman, G. Scalmani, V. Barone, B. Mennucci, 
 G. A. Petersson, H. Nakatsuji, M. Caricato, X. Li, H. P. Hratchian, 
 A. F. Izmaylov, J. Bloino, G. Zheng, J. L. Sonnenberg, M. Hada, 
 M. Ehara, K. Toyota, R. Fukuda, J. Hasegawa, M. Ishida, T. Nakajima, 
 Y. Honda, O. Kitao, H. Nakai, T. Vreven, J. A. Montgomery, Jr., 
 J. E. Peralta, F. Ogliaro, M. Bearpark, J. J. Heyd, E. Brothers, 
 K. N. Kudin, V. N. Staroverov, T. Keith, R. Kobayashi, J. Normand, 
 K. Raghavachari, A. Rendell, J. C. Burant, S. S. Iyengar, J. Tomasi, 
 M. Cossi, N. Rega, J. M. Millam, M. Klene, J. E. Knox, J. B. Cross, 
 V. Bakken, C. Adamo, J. Jaramillo, R. Gomperts, R. E. Stratmann, 
 O. Yazyev, A. J. Austin, R. Cammi, C. Pomelli, J. W. Ochterski, 
 R. L. Martin, K. Morokuma, V. G. Zakrzewski, G. A. Voth, 
 P. Salvador, J. J. Dannenberg, S. Dapprich, A. D. Daniels, 
 O. Farkas, J. B. Foresman, J. V. Ortiz, J. Cioslowski, 
 and D. J. Fox, Gaussian, Inc., Wallingford CT, 2013.
 
 ******************************************
 Gaussian 09:  ES64L-G09RevD.01 24-Apr-2013
                16-Sep-2019 
 ******************************************
 %Nproc=12
 Will use up to   12 processors via shared memory.
 %chk=chk1mol
 %mem=32GB
 ----------------------------------------------------------------------
 #maxdisk=50GB #B3LYP/SVP Density=Current scf=(tight) #IOP(5/87=12)Pop=
 (MK,readradii) iop(6/33=2) iop(6/42=6)
 ----------------------------------------------------------------------
 1/30=1,38=1/1;
 2/12=2,17=6,18=5,40=1/2;
 3/5=18,7=101,11=2,16=1,25=1,30=1,74=-5/1,2,3;
 4//1;
 5/5=2,32=2,38=5,87=12/2;
 6/7=2,8=2,9=2,10=2,15=8,20=101,22=-1,28=1,33=2,42=6/1,2;
 99/5=1,9=1/99;
 ------------
 SOL molecule
 ------------
 Symbolic Z-matrix:
 Charge =  0 Multiplicity = 1
 C                     46.81     40.13     24.57 
 C                     47.27     39.25     25.73 
 O                     47.12     39.64     26.88 
 H                     45.93     40.697    24.872 
 H                     47.609    40.819    24.297 
 H                     46.561    39.503    23.714 
 N                     47.8      38.07     25.4 
 C                     48.64     37.3      26.29 
 C                     50.07     37.79     26.48 
 O                     50.86     37.86     25.54 
 C                     48.67     35.92     25.63 
 C                     49.52     34.89     26.36 
 O                     50.17     35.18     27.39 
 O                     49.42     33.72     25.94 
 H                     47.85     37.84     24.42 
 H                     48.26     37.28     27.31 
 H                     49.07     36.13     24.63 
 H                     47.64     35.65     25.44 
 N                     50.37     38.4      27.63 
 C                     51.47     39.31     27.82 
 C                     52.83     38.66     27.63 
 O                     53.77     39.44     27.49 
 C                     51.32     39.98     29.18 
 C                     50.33     41.13     29.36 
 C                     50.53     42.37     28.48 
 C                     51.85     43.1      28.71 
 N                     52.03     44.35     27.96 
 H                     49.73     38.31     28.41 
 H                     51.49     40.05     27.01 
 H                     52.29     40.33     29.54 
 H                     51.15     39.25     29.96 
 H                     50.28     41.34     30.43 
 H                     49.34     40.73     29.15 
 H                     49.63     42.97     28.58 
 H                     50.51     41.89     27.51 
 H                     52.67     42.42     28.48 
 H                     51.95     43.37     29.76 
 H                     52.72     44.95     28.4 
 H                     52.45     44.08     27.08 
 H                     51.14     44.82     27.95 
 N                     52.98     37.33     27.57 
 C                     54.11     36.48     27.26 
 C                     53.98     35.68     25.96 
 O                     54.89     35.01     25.48 
 C                     54.55     35.65     28.46 
 C                     53.44     35.05     29.31 
 O                     53.78     33.94     29.77 
 O                     52.36     35.62     29.61 
 H                     52.17     36.82     27.9 
 H                     54.92     37.15     27. 
 H                     55.23     36.16     29.14 
 H                     55.13     34.82     28.04 
 N                     52.77     35.57     25.42 
 C                     52.38     34.72     24.31 
 C                     52.42     33.22     24.54 
 O                     52.69     32.48     23.6 
 H                     52.01     36.08     25.86 
 H                     53.1      34.91     23.51 
 H                     51.33     34.93     24.11 
 N                     52.35     32.77     25.8 
 C                     52.63     31.42     26.22 
 C                     51.44     30.49     25.98 
 O                     51.56     29.27     26.05 
 C                     53.1      31.51     27.66 
 C                     52.04     31.62     28.75 
 N                     52.17     30.88     29.85 
 O                     51.12     32.44     28.75 
 H                     52.04     33.4      26.53 
 H                     53.38     31.01     25.54 
 H                     53.86     32.3      27.72 
 H                     53.63     30.6      27.93 
 H                     52.98     30.28     29.91 
 H                     51.49     30.9      30.59 
 N                     50.31     31.07     25.58 
 C                     49.08     30.43     25.16 
 C                     47.85     30.71     26.01 
 O                     46.79     30.23     25.62 
 H                     50.29     32.08     25.62 
 H                     49.12     29.37     24.9 
 H                     48.92     30.98     24.24 
 N                     47.99     31.44     27.12 
 C                     46.95     31.57     28.13 
 C                     46.81     32.95     28.75 
 O                     47.85     33.54     29.01 
 C                     47.01     30.51     29.23 
 C                     47.47     29.14     28.81 
 C                     48.82     28.77     28.72 
 C                     46.57     28.09     28.59 
 C                     49.24     27.49     28.34 
 C                     46.96     26.77     28.33 
 C                     48.32     26.43     28.18 
 O                     48.79     25.22     27.75 
 H                     48.86     31.93     27.22 
 H                     46.       31.34     27.65 
 H                     46.       30.39     29.6 
 H                     47.62     30.93     30.03 
 H                     49.6      29.43     29.07 
 H                     45.51     28.26     28.63 
 H                     50.3      27.32     28.31 
 H                     46.19     26.01     28.28 
 H                     48.09     24.56     27.77 
 N                     45.58     33.36     29.06 
 C                     45.23     34.58     29.76 
 C                     44.74     34.22     31.16 
 O                     44.01     33.26     31.37 
 C                     44.46     35.56     28.88 
 C                     45.11     35.86     27.53 
 C                     44.03     36.89     29.5 
 C                     44.31     36.62     26.47 
 H                     44.8      32.72     29.01 
 H                     46.14     35.13     30. 
 H                     43.55     35.03     28.57 
 H                     45.43     34.95     27.02 
 H                     45.96     36.45     27.85 
 H                     43.23     37.31     28.88 
 H                     43.52     36.65     30.43 
 H                     44.83     37.62     29.59 
 H                     44.26     37.66     26.82 
 H                     44.72     36.57     25.47 
 H                     43.27     36.33     26.49 
 N                     45.13     35.05     32.13 
 C                     44.75     34.9      33.52 
 C                     43.9      36.02     34.11 
 O                     43.61     36.96     33.37 
 C                     46.06     34.81     34.3 
 O                     46.84     35.98     34.19 
 H                     45.68     35.85     31.86 
 H                     44.16     33.99     33.56 
 H                     46.62     33.94     33.97 
 H                     45.84     34.67     35.36 
 H                     47.74     35.7      34.39 
 N                     43.52     36.03     35.39 
 C                     42.85     37.15     36.02 
 C                     43.57     38.47     35.78 
 O                     43.03     39.49     35.34 
 C                     42.53     36.86     37.48 
 H                     43.75     35.26     36. 
 H                     41.92     37.2      35.45 
 H                     42.01     35.9      37.52 
 H                     43.41     36.9      38.13 
 H                     41.86     37.68     37.74 
 N                     44.88     38.46     36.05 
 C                     45.72     39.63     35.99 
 C                     45.99     40.16     34.58 
 O                     46.4      41.31     34.47 
 C                     47.02     39.23     36.68 
 H                     45.31     37.59     36.3 
 H                     45.17     40.42     36.51 
 H                     47.63     40.12     36.86 
 H                     46.85     38.77     37.65 
 H                     47.58     38.52     36.07 
 N                     45.88     39.26     33.6 
 C                     46.08     39.67     32.23 
 C                     44.78     40.11     31.56 
 O                     44.8      41.09     30.8 
 C                     46.78     38.55     31.47 
 C                     48.24     38.31     31.84 
 C                     48.87     37.15     31.1 
 O                     49.19     37.2      29.89 
 O                     48.86     36.01     31.62 
 H                     45.74     38.29     33.83 
 H                     46.68     40.58     32.19 
 H                     46.91     38.85     30.43 
 H                     46.23     37.61     31.52 
 H                     48.4      38.14     32.91 
 H                     48.89     39.16     31.62 
 N                     43.61     39.53     31.83 
 C                     42.31     39.89     31.31 
 H                     41.622    40.057    32.138 
 H                     42.394    40.802    30.719 
 H                     41.933    39.083    30.682 
 H                     43.59     38.71     32.4 
 Ca                    50.08     34.62     29.9 
 O                     51.54     34.34     32.11 
 H                     51.08     33.98     32.86 
 H                     52.45     34.4      32.39 
 
 Stoichiometry    C54H83CaN15O23
 Framework group  C1[X(C54H83CaN15O23)]
 Deg. of freedom   522
 Full point group                 C1      NOp   1
 Largest Abelian subgroup         C1      NOp   1
 Largest concise Abelian subgroup C1      NOp   1
                         Standard orientation:                         
 ---------------------------------------------------------------------
 Center     Atomic      Atomic             Coordinates (Angstroms)
 Number     Number       Type             X           Y           Z
 ---------------------------------------------------------------------
      1          6           0        0.883058    4.180745    5.350823
      2          6           0        0.785808    3.373612    4.058276
      3          8           0        1.785238    3.211143    3.371369
      4          1           0        1.866398    4.034190    5.796532
      5          1           0        0.738718    5.238336    5.131009
      6          1           0        0.115451    3.845260    6.048029
      7          7           0       -0.414879    2.866552    3.769414
      8          6           0       -0.798879    2.441449    2.441848
      9          6           0       -1.117545    3.539128    1.434548
     10          8           0       -2.036183    4.336521    1.615844
     11          6           0       -2.061810    1.615621    2.694662
     12          6           0       -2.707072    1.049089    1.438088
     13          8           0       -2.252129    1.288007    0.296402
     14          8           0       -3.630781    0.234061    1.632485
     15          1           0       -1.162969    3.040974    4.421901
     16          1           0       -0.012724    1.880817    1.939005
     17          1           0       -2.728400    2.326594    3.198919
     18          1           0       -1.812190    0.906265    3.472096
     19          7           0       -0.212874    3.792393    0.484797
     20          6           0       -0.100939    5.031856   -0.240050
     21          6           0       -1.316454    5.340789   -1.097537
     22          8           0       -1.398130    6.501664   -1.494147
     23          6           0        1.196601    5.015149   -1.038242
     24          6           0        2.526513    5.296526   -0.340274
     25          6           0        2.673546    6.649593    0.366544
     26          6           0        2.584185    7.858153   -0.560601
     27          7           0        2.824588    9.164995    0.065314
     28          1           0        0.521588    3.114719    0.319191
     29          1           0       -0.130534    5.878954    0.456835
     30          1           0        1.128057    5.696922   -1.888823
     31          1           0        1.291806    4.103411   -1.612584
     32          1           0        3.315399    5.077008   -1.062056
     33          1           0        2.662982    4.515823    0.405433
     34          1           0        3.568221    6.584156    0.979140
     35          1           0        1.812074    6.590254    1.019265
     36          1           0        1.604083    7.861209   -1.037142
     37          1           0        3.321375    7.773574   -1.357342
     38          1           0        3.102639    9.858921   -0.620875
     39          1           0        1.920508    9.478494    0.394034
     40          1           0        3.568321    9.041494    0.732179
     41          7           0       -2.255238    4.420965   -1.357552
     42          6           0       -3.547667    4.489781   -2.005927
     43          6           0       -4.746486    4.233282   -1.087264
     44          8           0       -5.914493    4.375945   -1.437704
     45          6           0       -3.579920    3.696886   -3.306995
     46          6           0       -2.879161    2.346576   -3.292812
     47          8           0       -3.471503    1.528174   -4.026738
     48          8           0       -1.792288    2.093342   -2.713262
     49          1           0       -1.960345    3.476045   -1.144795
     50          1           0       -3.701778    5.534510   -2.245492
     51          1           0       -3.210712    4.236900   -4.177035
     52          1           0       -4.642128    3.515883   -3.508617
     53          7           0       -4.511878    3.663795    0.091058
     54          6           0       -5.495694    3.163577    1.033707
     55          6           0       -6.312022    1.957035    0.606665
     56          8           0       -7.466396    1.847005    1.005932
     57          1           0       -3.544052    3.493646    0.347305
     58          1           0       -6.221006    3.968548    1.176694
     59          1           0       -4.943538    2.815358    1.905754
     60          7           0       -5.810474    1.156691   -0.343545
     61          6           0       -6.544696    0.134209   -1.045505
     62          6           0       -6.652337   -1.153444   -0.227604
     63          8           0       -7.430490   -2.048142   -0.546496
     64          6           0       -5.878974   -0.014656   -2.400959
     65          6           0       -4.620974   -0.871321   -2.486757
     66          7           0       -4.497033   -1.731982   -3.495915
     67          8           0       -3.638488   -0.745657   -1.753456
     68          1           0       -4.828039    1.229646   -0.578914
     69          1           0       -7.587181    0.454989   -1.103167
     70          1           0       -5.743605    0.989155   -2.824444
     71          1           0       -6.557144   -0.512467   -3.089559
     72          1           0       -5.250811   -1.768738   -4.166860
     73          1           0       -3.697325   -2.333855   -3.588739
     74          7           0       -5.947471   -1.195173    0.901432
     75          6           0       -5.960841   -2.222479    1.922884
     76          6           0       -4.651736   -2.962446    2.151998
     77          8           0       -4.635402   -3.783531    3.063948
     78          1           0       -5.286145   -0.443338    1.041044
     79          1           0       -6.793605   -2.929093    1.924213
     80          1           0       -6.080938   -1.583707    2.790090
     81          7           0       -3.613895   -2.691484    1.355716
     82          6           0       -2.401063   -3.495391    1.318667
     83          6           0       -1.105217   -2.716654    1.167829
     84          8           0       -1.119810   -1.779074    0.381680
     85          6           0       -2.439900   -4.640293    0.306299
     86          6           0       -3.775832   -5.301982    0.100496
     87          6           0       -4.753141   -4.816431   -0.780757
     88          6           0       -4.095323   -6.529456    0.693903
     89          6           0       -5.988943   -5.444112   -0.975718
     90          6           0       -5.269585   -7.243957    0.424276
     91          6           0       -6.268882   -6.710054   -0.414803
     92          8           0       -7.516481   -7.240024   -0.595156
     93          1           0       -3.697794   -1.871081    0.783965
     94          1           0       -2.339224   -4.034360    2.262854
     95          1           0       -1.776243   -5.408423    0.681714
     96          1           0       -2.019640   -4.247445   -0.619742
     97          1           0       -4.537323   -3.997336   -1.450835
     98          1           0       -3.420952   -6.993171    1.389814
     99          1           0       -6.657401   -4.983701   -1.678985
    100          1           0       -5.375263   -8.233503    0.851629
    101          1           0       -7.554647   -8.137485   -0.250037
    102          7           0       -0.034679   -3.178358    1.814263
    103          6           0        1.317081   -2.664108    1.718385
    104          6           0        2.173312   -3.671803    0.956073
    105          8           0        2.076574   -4.878973    1.134910
    106          6           0        1.801443   -2.042584    3.024831
    107          6           0        0.855226   -1.009790    3.635576
    108          6           0        3.215366   -1.461249    3.057542
    109          6           0        1.111917   -0.514285    5.060281
    110          1           0       -0.060673   -4.081187    2.266728
    111          1           0        1.332669   -1.821923    1.026517
    112          1           0        1.756885   -2.846279    3.771282
    113          1           0       -0.176188   -1.365068    3.659298
    114          1           0        0.973823   -0.196191    2.930599
    115          1           0        3.521044   -1.372323    4.106091
    116          1           0        3.878497   -2.232452    2.672701
    117          1           0        3.310635   -0.491519    2.576348
    118          1           0        1.990620    0.141750    4.996251
    119          1           0        0.278678    0.002404    5.517824
    120          1           0        1.478436   -1.313860    5.686734
    121          7           0        3.061918   -3.140706    0.113331
    122          6           0        3.986114   -3.923444   -0.681769
    123          6           0        5.467840   -3.723802   -0.382387
    124          8           0        5.763296   -2.916110    0.498317
    125          6           0        3.717763   -3.532080   -2.133465
    126          8           0        3.978368   -2.169183   -2.386441
    127          1           0        3.116355   -2.135329    0.072662
    128          1           0        3.747912   -4.959289   -0.462488
    129          1           0        2.694213   -3.784511   -2.394279
    130          1           0        4.370749   -4.110409   -2.789777
    131          1           0        3.459869   -1.956980   -3.170360
    132          7           0        6.426378   -4.347270   -1.071875
    133          6           0        7.839190   -4.062161   -0.920636
    134          6           0        8.146954   -2.573965   -1.015258
    135          8           0        8.798069   -1.940963   -0.178026
    136          6           0        8.686959   -4.942695   -1.828407
    137          1           0        6.190504   -5.014296   -1.791139
    138          1           0        8.011454   -4.345303    0.119775
    139          1           0        8.381700   -5.978582   -1.663009
    140          1           0        8.643621   -4.644242   -2.880808
    141          1           0        9.694626   -4.765862   -1.451263
    142          7           0        7.626718   -1.952665   -2.079420
    143          6           0        7.886034   -0.573391   -2.408752
    144          6           0        7.242627    0.447614   -1.467754
    145          8           0        7.681086    1.592302   -1.479789
    146          6           0        7.377042   -0.395962   -3.835477
    147          1           0        7.012995   -2.467959   -2.681181
    148          1           0        8.967100   -0.439707   -2.306655
    149          1           0        7.722628    0.562808   -4.232882
    150          1           0        7.752318   -1.163015   -4.507934
    151          1           0        6.287307   -0.432967   -3.865616
    152          7           0        6.160632    0.019540   -0.813126
    153          6           0        5.502336    0.896756    0.126095
    154          6           0        6.048002    0.743453    1.544280
    155          8           0        6.197056    1.758434    2.241414
    156          6           0        3.997222    0.671037    0.050707
    157          6           0        3.316110    1.164822   -1.221441
    158          6           0        1.833974    0.863388   -1.271548
    159          8           0        0.984956    1.476939   -0.584726
    160          8           0        1.438468   -0.189764   -1.823406
    161          1           0        5.766094   -0.878468   -1.039671
    162          1           0        5.735395    1.938084   -0.099781
    163          1           0        3.501735    1.316352    0.776353
    164          1           0        3.725727   -0.369232    0.231621
    165          1           0        3.760953    0.768465   -2.140362
    166          1           0        3.379745    2.246921   -1.357133
    167          7           0        6.449067   -0.432790    2.027807
    168          6           0        7.033738   -0.697109    3.323297
    169          1           0        7.980911   -1.219492    3.193693
    170          1           0        7.207575    0.244885    3.843401
    171          1           0        6.354969   -1.316382    3.909416
    172          1           0        6.287047   -1.262075    1.495138
    173         20           0       -1.069459   -0.020735   -1.577174
    174          8           0       -0.687366   -0.165497   -4.209122
    175          1           0       -0.230930   -0.942028   -4.513036
    176          1           0       -0.952502    0.286994   -5.006026
 ---------------------------------------------------------------------
 Rotational constants (GHZ):      0.0227452      0.0149272      0.0112931
 Standard basis: SVP (5D, 7F)
 There are  1809 symmetry adapted cartesian basis functions of A   symmetry.
 There are  1717 symmetry adapted basis functions of A   symmetry.
  1717 basis functions,  2922 primitive gaussians,  1809 cartesian basis functions
   358 alpha electrons      358 beta electrons
       nuclear repulsion energy     21541.8179001589 Hartrees.
 NAtoms=  176 NActive=  176 NUniq=  176 SFac= 1.00D+00 NAtFMM=   60 NAOKFM=T Big=T
 Integral buffers will be    131072 words long.
 Raffenetti 2 integral format.
 Two-electron integral symmetry is turned on.
 One-electron integrals computed using PRISM.
 NBasis=  1717 RedAO= T EigKep=  2.63D-04  NBF=  1717
 NBsUse=  1717 1.00D-06 EigRej= -1.00D+00 NBFU=  1717
 ExpMin= 1.98D-02 ExpMax= 3.51D+04 ExpMxC= 5.28D+03 IAcc=3 IRadAn=         5 AccDes= 0.00D+00
 Harris functional with IExCor=  402 and IRadAn=       5 diagonalized for initial guess.
 HarFok:  IExCor=  402 AccDes= 0.00D+00 IRadAn=         5 IDoV= 1 UseB2=F ITyADJ=14
 ICtDFT=  3500011 ScaDFX=  1.000000  1.000000  1.000000  1.000000
 FoFCou: FMM=F IPFlag=           0 FMFlag=      100000 FMFlg1=        2001
         NFxFlg=           0 DoJE=T BraDBF=F KetDBF=T FulRan=T
         wScrn=  0.000000 ICntrl=     500 IOpCl=  0 I1Cent=   200000004 NGrid=           0
         NMat0=    1 NMatS0=      1 NMatT0=    0 NMatD0=    1 NMtDS0=    0 NMtDT0=    0
 Petite list used in FoFCou.
 Requested convergence on RMS density matrix=1.00D-08 within 128 cycles.
 Requested convergence on MAX density matrix=1.00D-06.
 Requested convergence on             energy=1.00D-06.
 No special actions if energy rises.
 EnCoef did     4 forward-backward iterations
 EnCoef did     1 forward-backward iterations
 SCF Done:  E(RB3LYP) =  -5333.58352987     A.U. after   18 cycles
            NFock= 18  Conv=0.21D-08     -V/T= 2.0082

 **********************************************************************

            Population analysis using the SCF density.

 **********************************************************************

 Orbital symmetries:
 BldTbl:  Degeneracy threshold= 1.00D-02
       Occupied  (A) (A) (A) (A) (A) (A) (A) (A) (A) (A) (A) (A)
                 (A) (A) (A) (A) (A) (A) (A) (A) (A) (A) (A) (A)
                 (A) (A) (A) (A) (A) (A) (A) (A) (A) (A) (A) (A)
                 (A) (A) (A) (A) (A) (A) (A) (A) (A) (A) (A) (A)
                 (A) (A) (A) (A) (A) (A) (A) (A) (A) (A) (A) (A)
                 (A) (A) (A) (A) (A) (A) (A) (A) (A) (A) (A) (A)
                 (A) (A) (A) (A) (A) (A) (A) (A) (A) (A) (A) (A)
                 (A) (A) (A) (A) (A) (A) (A) (A) (A) (A) (A) (A)
                 (A) (A) (A) (A) (A) (A) (A) (A) (A) (A) (A) (A)
                 (A) (A) (A) (A) (A) (A) (A) (A) (A) (A) (A) (A)
                 (A) (A) (A) (A) (A) (A) (A) (A) (A) (A) (A) (A)
                 (A) (A) (A) (A) (A) (A) (A) (A) (A) (A) (A) (A)
                 (A) (A) (A) (A) (A) (A) (A) (A) (A) (A) (A) (A)
                 (A) (A) (A) (A) (A) (A) (A) (A) (A) (A) (A) (A)
                 (A) (A) (A) (A) (A) (A) (A) (A) (A) (A) (A) (A)
                 (A) (A) (A) (A) (A) (A) (A) (A) (A) (A) (A) (A)
                 (A) (A) (A) (A) (A) (A) (A) (A) (A) (A) (A) (A)
                 (A) (A) (A) (A) (A) (A) (A) (A) (A) (A) (A) (A)
                 (A) (A) (A) (A) (A) (A) (A) (A) (A) (A) (A) (A)
                 (A) (A) (A) (A) (A) (A) (A) (A) (A) (A) (A) (A)
                 (A) (A) (A) (A) (A) (A) (A) (A) (A) (A) (A) (A)
                 (A) (A) (A) (A) (A) (A) (A) (A) (A) (A) (A) (A)
                 (A) (A) (A) (A) (A) (A) (A) (A) (A) (A) (A) (A)
                 (A) (A) (A) (A) (A) (A) (A) (A) (A) (A) (A) (A)
                 (A) (A) (A) (A) (A) (A) (A) (A) (A) (A) (A) (A)
                 (A) (A) (A) (A) (A) (A) (A) (A) (A) (A) (A) (A)
                 (A) (A) (A) (A) (A) (A) (A) (A) (A) (A) (A) (A)
                 (A) (A) (A) (A) (A) (A) (A) (A) (A) (A) (A) (A)
                 (A) (A) (A) (A) (A) (A) (A) (A) (A) (A) (A) (A)
                 (A) (A) (A) (A) (A) (A) (A) (A) (A) (A)
       Virtual   (A) (A) (A) (A) (A) (A) (A) (A) (A) (A) (A) (A)
                 (A) (A) (A) (A) (A) (A) (A) (A) (A) (A) (A) (A)
                 (A) (A) (A) (A) (A) (A) (A) (A) (A) (A) (A) (A)
                 (A) (A) (A) (A) (A) (A) (A) (A) (A) (A) (A) (A)
                 (A) (A) (A) (A) (A) (A) (A) (A) (A) (A) (A) (A)
                 (A) (A) (A) (A) (A) (A) (A) (A) (A) (A) (A) (A)
                 (A) (A) (A) (A) (A) (A) (A) (A) (A) (A) (A) (A)
                 (A) (A) (A) (A) (A) (A) (A) (A) (A) (A) (A) (A)
                 (A) (A) (A) (A) (A) (A) (A) (A) (A) (A) (A) (A)
                 (A) (A) (A) (A) (A) (A) (A) (A) (A) (A) (A) (A)
                 (A) (A) (A) (A) (A) (A) (A) (A) (A) (A) (A) (A)
                 (A) (A) (A) (A) (A) (A) (A) (A) (A) (A) (A) (A)
                 (A) (A) (A) (A) (A) (A) (A) (A) (A) (A) (A) (A)
                 (A) (A) (A) (A) (A) (A) (A) (A) (A) (A) (A) (A)
                 (A) (A) (A) (A) (A) (A) (A) (A) (A) (A) (A) (A)
                 (A) (A) (A) (A) (A) (A) (A) (A) (A) (A) (A) (A)
                 (A) (A) (A) (A) (A) (A) (A) (A) (A) (A) (A) (A)
                 (A) (A) (A) (A) (A) (A) (A) (A) (A) (A) (A) (A)
                 (A) (A) (A) (A) (A) (A) (A) (A) (A) (A) (A) (A)
                 (A) (A) (A) (A) (A) (A) (A) (A) (A) (A) (A) (A)
                 (A) (A) (A) (A) (A) (A) (A) (A) (A) (A) (A) (A)
                 (A) (A) (A) (A) (A) (A) (A) (A) (A) (A) (A) (A)
                 (A) (A) (A) (A) (A) (A) (A) (A) (A) (A) (A) (A)
                 (A) (A) (A) (A) (A) (A) (A) (A) (A) (A) (A) (A)
                 (A) (A) (A) (A) (A) (A) (A) (A) (A) (A) (A) (A)
                 (A) (A) (A) (A) (A) (A) (A) (A) (A) (A) (A) (A)
                 (A) (A) (A) (A) (A) (A) (A) (A) (A) (A) (A) (A)
                 (A) (A) (A) (A) (A) (A) (A) (A) (A) (A) (A) (A)
                 (A) (A) (A) (A) (A) (A) (A) (A) (A) (A) (A) (A)
                 (A) (A) (A) (A) (A) (A) (A) (A) (A) (A) (A) (A)
                 (A) (A) (A) (A) (A) (A) (A) (A) (A) (A) (A) (A)
                 (A) (A) (A) (A) (A) (A) (A) (A) (A) (A) (A) (A)
                 (A) (A) (A) (A) (A) (A) (A) (A) (A) (A) (A) (A)
                 (A) (A) (A) (A) (A) (A) (A) (A) (A) (A) (A) (A)
                 (A) (A) (A) (A) (A) (A) (A) (A) (A) (A) (A) (A)
                 (A) (A) (A) (A) (A) (A) (A) (A) (A) (A) (A) (A)
                 (A) (A) (A) (A) (A) (A) (A) (A) (A) (A) (A) (A)
                 (A) (A) (A) (A) (A) (A) (A) (A) (A) (A) (A) (A)
                 (A) (A) (A) (A) (A) (A) (A) (A) (A) (A) (A) (A)
                 (A) (A) (A) (A) (A) (A) (A) (A) (A) (A) (A) (A)
                 (A) (A) (A) (A) (A) (A) (A) (A) (A) (A) (A) (A)
                 (A) (A) (A) (A) (A) (A) (A) (A) (A) (A) (A) (A)
                 (A) (A) (A) (A) (A) (A) (A) (A) (A) (A) (A) (A)
                 (A) (A) (A) (A) (A) (A) (A) (A) (A) (A) (A) (A)
                 (A) (A) (A) (A) (A) (A) (A) (A) (A) (A) (A) (A)
                 (A) (A) (A) (A) (A) (A) (A) (A) (A) (A) (A) (A)
                 (A) (A) (A) (A) (A) (A) (A) (A) (A) (A) (A) (A)
                 (A) (A) (A) (A) (A) (A) (A) (A) (A) (A) (A) (A)
                 (A) (A) (A) (A) (A) (A) (A) (A) (A) (A) (A) (A)
                 (A) (A) (A) (A) (A) (A) (A) (A) (A) (A) (A) (A)
                 (A) (A) (A) (A) (A) (A) (A) (A) (A) (A) (A) (A)
                 (A) (A) (A) (A) (A) (A) (A) (A) (A) (A) (A) (A)
                 (A) (A) (A) (A) (A) (A) (A) (A) (A) (A) (A) (A)
                 (A) (A) (A) (A) (A) (A) (A) (A) (A) (A) (A) (A)
                 (A) (A) (A) (A) (A) (A) (A) (A) (A) (A) (A) (A)
                 (A) (A) (A) (A) (A) (A) (A) (A) (A) (A) (A) (A)
                 (A) (A) (A) (A) (A) (A) (A) (A) (A) (A) (A) (A)
                 (A) (A) (A) (A) (A) (A) (A) (A) (A) (A) (A) (A)
                 (A) (A) (A) (A) (A) (A) (A) (A) (A) (A) (A) (A)
                 (A) (A) (A) (A) (A) (A) (A) (A) (A) (A) (A) (A)
                 (A) (A) (A) (A) (A) (A) (A) (A) (A) (A) (A) (A)
                 (A) (A) (A) (A) (A) (A) (A) (A) (A) (A) (A) (A)
                 (A) (A) (A) (A) (A) (A) (A) (A) (A) (A) (A) (A)
                 (A) (A) (A) (A) (A) (A) (A) (A) (A) (A) (A) (A)
                 (A) (A) (A) (A) (A) (A) (A) (A) (A) (A) (A) (A)
                 (A) (A) (A) (A) (A) (A) (A) (A) (A) (A) (A) (A)
                 (A) (A) (A) (A) (A) (A) (A) (A) (A) (A) (A) (A)
                 (A) (A) (A) (A) (A) (A) (A) (A) (A) (A) (A) (A)
                 (A) (A) (A) (A) (A) (A) (A) (A) (A) (A) (A) (A)
                 (A) (A) (A) (A) (A) (A) (A) (A) (A) (A) (A) (A)
                 (A) (A) (A) (A) (A) (A) (A) (A) (A) (A) (A) (A)
                 (A) (A) (A) (A) (A) (A) (A) (A) (A) (A) (A) (A)
                 (A) (A) (A) (A) (A) (A) (A) (A) (A) (A) (A) (A)
                 (A) (A) (A) (A) (A) (A) (A) (A) (A) (A) (A) (A)
                 (A) (A) (A) (A) (A) (A) (A) (A) (A) (A) (A) (A)
                 (A) (A) (A) (A) (A) (A) (A) (A) (A) (A) (A) (A)
                 (A) (A) (A) (A) (A) (A) (A) (A) (A) (A) (A) (A)
                 (A) (A) (A) (A) (A) (A) (A) (A) (A) (A) (A) (A)
                 (A) (A) (A) (A) (A) (A) (A) (A) (A) (A) (A) (A)
                 (A) (A) (A) (A) (A) (A) (A) (A) (A) (A) (A) (A)
                 (A) (A) (A) (A) (A) (A) (A) (A) (A) (A) (A) (A)
                 (A) (A) (A) (A) (A) (A) (A) (A) (A) (A) (A) (A)
                 (A) (A) (A) (A) (A) (A) (A) (A) (A) (A) (A) (A)
                 (A) (A) (A) (A) (A) (A) (A) (A) (A) (A) (A) (A)
                 (A) (A) (A) (A) (A) (A) (A) (A) (A) (A) (A) (A)
                 (A) (A) (A) (A) (A) (A) (A) (A) (A) (A) (A) (A)
                 (A) (A) (A) (A) (A) (A) (A) (A) (A) (A) (A) (A)
                 (A) (A) (A) (A) (A) (A) (A) (A) (A) (A) (A) (A)
                 (A) (A) (A) (A) (A) (A) (A) (A) (A) (A) (A) (A)
                 (A) (A) (A) (A) (A) (A) (A) (A) (A) (A) (A) (A)
                 (A) (A) (A) (A) (A) (A) (A) (A) (A) (A) (A) (A)
                 (A) (A) (A) (A) (A) (A) (A) (A) (A) (A) (A) (A)
                 (A) (A) (A) (A) (A) (A) (A) (A) (A) (A) (A) (A)
                 (A) (A) (A) (A) (A) (A) (A) (A) (A) (A) (A) (A)
                 (A) (A) (A) (A) (A) (A) (A) (A) (A) (A) (A) (A)
                 (A) (A) (A) (A) (A) (A) (A) (A) (A) (A) (A) (A)
                 (A) (A) (A) (A) (A) (A) (A) (A) (A) (A) (A) (A)
                 (A) (A) (A) (A) (A) (A) (A) (A) (A) (A) (A) (A)
                 (A) (A) (A) (A) (A) (A) (A) (A) (A) (A) (A) (A)
                 (A) (A) (A) (A) (A) (A) (A) (A) (A) (A) (A) (A)
                 (A) (A) (A) (A) (A) (A) (A) (A) (A) (A) (A) (A)
                 (A) (A) (A) (A) (A) (A) (A) (A) (A) (A) (A) (A)
                 (A) (A) (A) (A) (A) (A) (A) (A) (A) (A) (A) (A)
                 (A) (A) (A) (A) (A) (A) (A) (A) (A) (A) (A) (A)
                 (A) (A) (A) (A) (A) (A) (A) (A) (A) (A) (A) (A)
                 (A) (A) (A) (A) (A) (A) (A) (A) (A) (A) (A) (A)
                 (A) (A) (A) (A) (A) (A) (A) (A) (A) (A) (A) (A)
                 (A) (A) (A) (A) (A) (A) (A) (A) (A) (A) (A) (A)
                 (A) (A) (A) (A) (A) (A) (A) (A) (A) (A) (A) (A)
                 (A) (A) (A) (A) (A) (A) (A) (A) (A) (A) (A) (A)
                 (A) (A) (A) (A) (A) (A) (A) (A) (A) (A) (A) (A)
                 (A) (A) (A) (A) (A) (A) (A) (A) (A) (A) (A) (A)
                 (A) (A) (A) (A) (A) (A) (A) (A) (A) (A) (A) (A)
                 (A) (A) (A)
 The electronic state is 1-A.
 Alpha  occ. eigenvalues -- -145.35551 -19.17872 -19.15518 -19.14692 -19.13814
 Alpha  occ. eigenvalues --  -19.12514 -19.11789 -19.10939 -19.09639 -19.09013
 Alpha  occ. eigenvalues --  -19.08392 -19.07412 -19.07321 -19.07297 -19.06291
 Alpha  occ. eigenvalues --  -19.05996 -19.05124 -19.05103 -19.04248 -19.04093
 Alpha  occ. eigenvalues --  -19.03933 -19.03403 -19.03387 -19.00985 -15.41356
 Alpha  occ. eigenvalues --  -14.58020 -14.40122 -14.37790 -14.37525 -14.36920
 Alpha  occ. eigenvalues --  -14.35021 -14.34852 -14.34552 -14.32215 -14.32042
 Alpha  occ. eigenvalues --  -14.31506 -14.30776 -14.29858 -14.29802 -14.29180
 Alpha  occ. eigenvalues --  -12.54973 -12.54921 -12.54905 -10.33583 -10.32592
 Alpha  occ. eigenvalues --  -10.30534 -10.30312 -10.29757 -10.28630 -10.27777
 Alpha  occ. eigenvalues --  -10.27604 -10.27291 -10.27033 -10.26565 -10.26269
 Alpha  occ. eigenvalues --  -10.25988 -10.25622 -10.25341 -10.25185 -10.24341
 Alpha  occ. eigenvalues --  -10.24100 -10.23965 -10.23777 -10.23180 -10.23097
 Alpha  occ. eigenvalues --  -10.22853 -10.22807 -10.22635 -10.22486 -10.22231
 Alpha  occ. eigenvalues --  -10.22117 -10.21978 -10.21686 -10.20547 -10.20478
 Alpha  occ. eigenvalues --  -10.19932 -10.19722 -10.19688 -10.19497 -10.19465
 Alpha  occ. eigenvalues --  -10.18934 -10.18736 -10.18562 -10.18172 -10.17928
 Alpha  occ. eigenvalues --  -10.17908 -10.17635 -10.17630 -10.17302 -10.17189
 Alpha  occ. eigenvalues --  -10.17128 -10.17026 -10.16884 -10.16742 -10.16041
 Alpha  occ. eigenvalues --  -10.15959 -10.13761  -1.78265  -1.13307  -1.07501
 Alpha  occ. eigenvalues --   -1.06044  -1.05932  -1.05857  -1.05771  -1.05192
 Alpha  occ. eigenvalues --   -1.04550  -1.03735  -1.02926  -1.02531  -1.02236
 Alpha  occ. eigenvalues --   -1.01849  -1.01819  -1.01583  -1.00653  -0.99105
 Alpha  occ. eigenvalues --   -0.98961  -0.98868  -0.98305  -0.97915  -0.97281
 Alpha  occ. eigenvalues --   -0.96710  -0.96666  -0.96472  -0.94676  -0.94466
 Alpha  occ. eigenvalues --   -0.93937  -0.91868  -0.91469  -0.91329  -0.90003
 Alpha  occ. eigenvalues --   -0.89503  -0.89247  -0.88719  -0.88290  -0.88246
 Alpha  occ. eigenvalues --   -0.87935  -0.87081  -0.86846  -0.86038  -0.85452
 Alpha  occ. eigenvalues --   -0.82907  -0.82703  -0.81754  -0.80020  -0.79677
 Alpha  occ. eigenvalues --   -0.79046  -0.77615  -0.77450  -0.76856  -0.75214
 Alpha  occ. eigenvalues --   -0.75014  -0.74484  -0.74058  -0.73054  -0.72281
 Alpha  occ. eigenvalues --   -0.71836  -0.71768  -0.71607  -0.71304  -0.70429
 Alpha  occ. eigenvalues --   -0.69645  -0.69248  -0.68401  -0.68239  -0.68132
 Alpha  occ. eigenvalues --   -0.67729  -0.66167  -0.64937  -0.64627  -0.64052
 Alpha  occ. eigenvalues --   -0.63703  -0.63015  -0.62309  -0.62143  -0.61749
 Alpha  occ. eigenvalues --   -0.61167  -0.60999  -0.60850  -0.59666  -0.59593
 Alpha  occ. eigenvalues --   -0.59146  -0.59014  -0.58408  -0.58158  -0.57326
 Alpha  occ. eigenvalues --   -0.56925  -0.56698  -0.56038  -0.55900  -0.55542
 Alpha  occ. eigenvalues --   -0.55465  -0.55136  -0.55082  -0.54961  -0.54486
 Alpha  occ. eigenvalues --   -0.54407  -0.54115  -0.53213  -0.53110  -0.52926
 Alpha  occ. eigenvalues --   -0.52681  -0.52503  -0.52294  -0.51635  -0.51177
 Alpha  occ. eigenvalues --   -0.51019  -0.50603  -0.50065  -0.49743  -0.49641
 Alpha  occ. eigenvalues --   -0.49110  -0.48693  -0.48422  -0.48350  -0.48110
 Alpha  occ. eigenvalues --   -0.48010  -0.47715  -0.47670  -0.47423  -0.47305
 Alpha  occ. eigenvalues --   -0.47205  -0.47026  -0.46878  -0.46634  -0.46062
 Alpha  occ. eigenvalues --   -0.45829  -0.45508  -0.45117  -0.44971  -0.44858
 Alpha  occ. eigenvalues --   -0.44726  -0.44549  -0.44498  -0.44370  -0.44282
 Alpha  occ. eigenvalues --   -0.44027  -0.43922  -0.43758  -0.43596  -0.43432
 Alpha  occ. eigenvalues --   -0.43276  -0.43156  -0.43030  -0.42846  -0.42645
 Alpha  occ. eigenvalues --   -0.42445  -0.42171  -0.42033  -0.41818  -0.41736
 Alpha  occ. eigenvalues --   -0.41656  -0.41543  -0.41328  -0.41184  -0.41084
 Alpha  occ. eigenvalues --   -0.40928  -0.40794  -0.40654  -0.40537  -0.40336
 Alpha  occ. eigenvalues --   -0.40310  -0.40026  -0.39767  -0.39756  -0.39634
 Alpha  occ. eigenvalues --   -0.39605  -0.39332  -0.39243  -0.39138  -0.39060
 Alpha  occ. eigenvalues --   -0.38960  -0.38825  -0.38801  -0.38723  -0.38689
 Alpha  occ. eigenvalues --   -0.38451  -0.38377  -0.38269  -0.38098  -0.37956
 Alpha  occ. eigenvalues --   -0.37803  -0.37469  -0.37243  -0.37205  -0.36743
 Alpha  occ. eigenvalues --   -0.36684  -0.36576  -0.36421  -0.36242  -0.36159
 Alpha  occ. eigenvalues --   -0.36097  -0.35956  -0.35769  -0.35720  -0.35450
 Alpha  occ. eigenvalues --   -0.34984  -0.34906  -0.34843  -0.34597  -0.34283
 Alpha  occ. eigenvalues --   -0.34094  -0.34031  -0.33666  -0.33505  -0.33431
 Alpha  occ. eigenvalues --   -0.33117  -0.32938  -0.32696  -0.32470  -0.32262
 Alpha  occ. eigenvalues --   -0.32228  -0.31820  -0.31772  -0.31705  -0.31049
 Alpha  occ. eigenvalues --   -0.30983  -0.30910  -0.30894  -0.30562  -0.30426
 Alpha  occ. eigenvalues --   -0.29503  -0.29129  -0.28574  -0.28235  -0.27945
 Alpha  occ. eigenvalues --   -0.27133  -0.27007  -0.26711  -0.26679  -0.26526
 Alpha  occ. eigenvalues --   -0.26264  -0.25627  -0.25447  -0.24880  -0.24191
 Alpha  occ. eigenvalues --   -0.24164  -0.23775  -0.23543  -0.23264  -0.22872
 Alpha  occ. eigenvalues --   -0.22756  -0.22625  -0.22542  -0.22339  -0.22158
 Alpha  occ. eigenvalues --   -0.22047  -0.21640  -0.21459  -0.21327  -0.20343
 Alpha  occ. eigenvalues --   -0.20306  -0.19947  -0.19600  -0.19434  -0.19196
 Alpha  occ. eigenvalues --   -0.18892  -0.18649  -0.17020
 Alpha virt. eigenvalues --   -0.10121  -0.04515  -0.03228  -0.02723  -0.01868
 Alpha virt. eigenvalues --   -0.00761  -0.00107   0.00078   0.00462   0.00760
 Alpha virt. eigenvalues --    0.01012   0.01948   0.02075   0.02211   0.02480
 Alpha virt. eigenvalues --    0.02518   0.03063   0.03155   0.03821   0.04231
 Alpha virt. eigenvalues --    0.04488   0.04581   0.04738   0.05129   0.05259
 Alpha virt. eigenvalues --    0.05421   0.05683   0.05798   0.06105   0.06224
 Alpha virt. eigenvalues --    0.06375   0.06491   0.06695   0.06794   0.06964
 Alpha virt. eigenvalues --    0.07208   0.07479   0.07661   0.07915   0.07985
 Alpha virt. eigenvalues --    0.08250   0.08455   0.08663   0.08986   0.09081
 Alpha virt. eigenvalues --    0.09286   0.09342   0.09508   0.09704   0.10020
 Alpha virt. eigenvalues --    0.10110   0.10317   0.10933   0.11112   0.11322
 Alpha virt. eigenvalues --    0.11430   0.11601   0.11807   0.11848   0.12216
 Alpha virt. eigenvalues --    0.12364   0.12545   0.12712   0.12773   0.12873
 Alpha virt. eigenvalues --    0.13019   0.13270   0.13666   0.13848   0.13895
 Alpha virt. eigenvalues --    0.14005   0.14137   0.14522   0.14540   0.14696
 Alpha virt. eigenvalues --    0.14823   0.14963   0.15348   0.15386   0.15529
 Alpha virt. eigenvalues --    0.15693   0.15894   0.16067   0.16263   0.16481
 Alpha virt. eigenvalues --    0.16555   0.16638   0.16878   0.17173   0.17282
 Alpha virt. eigenvalues --    0.17372   0.17686   0.17726   0.17927   0.17994
 Alpha virt. eigenvalues --    0.18164   0.18347   0.18519   0.18787   0.18824
 Alpha virt. eigenvalues --    0.19034   0.19251   0.19365   0.19509   0.19788
 Alpha virt. eigenvalues --    0.19837   0.20179   0.20479   0.20498   0.20705
 Alpha virt. eigenvalues --    0.20824   0.21337   0.21447   0.21551   0.21753
 Alpha virt. eigenvalues --    0.21915   0.21996   0.22180   0.22673   0.22812
 Alpha virt. eigenvalues --    0.22991   0.23258   0.23459   0.23892   0.23984
 Alpha virt. eigenvalues --    0.24255   0.24491   0.24596   0.24755   0.25122
 Alpha virt. eigenvalues --    0.25271   0.25412   0.25606   0.25955   0.25990
 Alpha virt. eigenvalues --    0.26071   0.26307   0.26405   0.26665   0.26728
 Alpha virt. eigenvalues --    0.27159   0.27620   0.27837   0.27935   0.28079
 Alpha virt. eigenvalues --    0.28363   0.28503   0.28928   0.29205   0.29593
 Alpha virt. eigenvalues --    0.29758   0.30077   0.30344   0.30600   0.30996
 Alpha virt. eigenvalues --    0.31243   0.31296   0.31519   0.31884   0.32164
 Alpha virt. eigenvalues --    0.32220   0.32491   0.32684   0.32820   0.32963
 Alpha virt. eigenvalues --    0.33014   0.33166   0.33290   0.33578   0.33863
 Alpha virt. eigenvalues --    0.34179   0.34395   0.34546   0.34773   0.35044
 Alpha virt. eigenvalues --    0.35598   0.36074   0.36291   0.36797   0.37022
 Alpha virt. eigenvalues --    0.37388   0.37641   0.37823   0.38006   0.38381
 Alpha virt. eigenvalues --    0.38569   0.38690   0.38844   0.39247   0.39554
 Alpha virt. eigenvalues --    0.40119   0.40312   0.40552   0.40860   0.41155
 Alpha virt. eigenvalues --    0.41453   0.41909   0.42130   0.42276   0.42501
 Alpha virt. eigenvalues --    0.42623   0.43320   0.43341   0.43537   0.43595
 Alpha virt. eigenvalues --    0.43698   0.43940   0.44067   0.44266   0.44436
 Alpha virt. eigenvalues --    0.44725   0.44863   0.44980   0.45175   0.45518
 Alpha virt. eigenvalues --    0.45676   0.45964   0.46139   0.46296   0.46404
 Alpha virt. eigenvalues --    0.46833   0.46931   0.47009   0.47258   0.47450
 Alpha virt. eigenvalues --    0.47657   0.48026   0.48112   0.48418   0.48518
 Alpha virt. eigenvalues --    0.48580   0.48692   0.48790   0.49008   0.49221
 Alpha virt. eigenvalues --    0.49568   0.49890   0.50186   0.50454   0.50667
 Alpha virt. eigenvalues --    0.51079   0.51156   0.51393   0.51475   0.51679
 Alpha virt. eigenvalues --    0.51984   0.52222   0.52442   0.52597   0.52913
 Alpha virt. eigenvalues --    0.53104   0.53320   0.53476   0.53545   0.53814
 Alpha virt. eigenvalues --    0.53894   0.54199   0.54311   0.54395   0.54754
 Alpha virt. eigenvalues --    0.55021   0.55167   0.55368   0.55504   0.55603
 Alpha virt. eigenvalues --    0.55827   0.55997   0.56120   0.56232   0.56374
 Alpha virt. eigenvalues --    0.56482   0.56587   0.56741   0.57281   0.57436
 Alpha virt. eigenvalues --    0.57518   0.57795   0.57922   0.58157   0.58229
 Alpha virt. eigenvalues --    0.58523   0.58770   0.58811   0.58944   0.59081
 Alpha virt. eigenvalues --    0.59251   0.59349   0.59535   0.59698   0.59972
 Alpha virt. eigenvalues --    0.60047   0.60211   0.60285   0.60554   0.60669
 Alpha virt. eigenvalues --    0.60875   0.60985   0.61149   0.61209   0.61269
 Alpha virt. eigenvalues --    0.61544   0.61605   0.61673   0.62039   0.62155
 Alpha virt. eigenvalues --    0.62279   0.62440   0.62487   0.62704   0.62857
 Alpha virt. eigenvalues --    0.62965   0.62986   0.63131   0.63175   0.63278
 Alpha virt. eigenvalues --    0.63571   0.63732   0.63804   0.63830   0.63948
 Alpha virt. eigenvalues --    0.64027   0.64224   0.64393   0.64565   0.64678
 Alpha virt. eigenvalues --    0.64795   0.64851   0.64908   0.64989   0.65011
 Alpha virt. eigenvalues --    0.65241   0.65393   0.65500   0.65579   0.65665
 Alpha virt. eigenvalues --    0.65908   0.65913   0.66083   0.66264   0.66381
 Alpha virt. eigenvalues --    0.66429   0.66495   0.66626   0.66770   0.66983
 Alpha virt. eigenvalues --    0.67038   0.67089   0.67257   0.67307   0.67391
 Alpha virt. eigenvalues --    0.67510   0.67607   0.67700   0.67926   0.67973
 Alpha virt. eigenvalues --    0.68040   0.68074   0.68283   0.68426   0.68543
 Alpha virt. eigenvalues --    0.68627   0.68807   0.68899   0.68991   0.69145
 Alpha virt. eigenvalues --    0.69309   0.69387   0.69494   0.69648   0.69777
 Alpha virt. eigenvalues --    0.69983   0.70017   0.70325   0.70386   0.70570
 Alpha virt. eigenvalues --    0.70650   0.70755   0.70985   0.71088   0.71218
 Alpha virt. eigenvalues --    0.71343   0.71501   0.71667   0.71945   0.72106
 Alpha virt. eigenvalues --    0.72250   0.72316   0.72441   0.72676   0.72772
 Alpha virt. eigenvalues --    0.72880   0.73181   0.73240   0.73346   0.73647
 Alpha virt. eigenvalues --    0.73680   0.73845   0.74069   0.74135   0.74446
 Alpha virt. eigenvalues --    0.74539   0.74721   0.74818   0.74927   0.75032
 Alpha virt. eigenvalues --    0.75370   0.75698   0.75715   0.75879   0.76186
 Alpha virt. eigenvalues --    0.76403   0.76626   0.76717   0.76920   0.77107
 Alpha virt. eigenvalues --    0.77375   0.77759   0.77825   0.78171   0.78405
 Alpha virt. eigenvalues --    0.78548   0.78820   0.79018   0.79443   0.79691
 Alpha virt. eigenvalues --    0.79840   0.80173   0.80385   0.80507   0.80831
 Alpha virt. eigenvalues --    0.81017   0.81283   0.81658   0.81860   0.82075
 Alpha virt. eigenvalues --    0.82229   0.82537   0.82805   0.83032   0.83085
 Alpha virt. eigenvalues --    0.83363   0.83661   0.83967   0.84068   0.84238
 Alpha virt. eigenvalues --    0.84530   0.84722   0.84818   0.85123   0.85700
 Alpha virt. eigenvalues --    0.86223   0.86265   0.86440   0.86489   0.87084
 Alpha virt. eigenvalues --    0.87398   0.87618   0.87925   0.88200   0.88634
 Alpha virt. eigenvalues --    0.89022   0.89325   0.89565   0.89828   0.89951
 Alpha virt. eigenvalues --    0.90310   0.90564   0.90674   0.91122   0.91317
 Alpha virt. eigenvalues --    0.91614   0.91811   0.91988   0.92476   0.92807
 Alpha virt. eigenvalues --    0.93198   0.93354   0.93538   0.93847   0.94398
 Alpha virt. eigenvalues --    0.94552   0.94769   0.95181   0.95572   0.95811
 Alpha virt. eigenvalues --    0.96229   0.96508   0.96591   0.96756   0.97367
 Alpha virt. eigenvalues --    0.97468   0.97632   0.97931   0.98145   0.98187
 Alpha virt. eigenvalues --    0.98351   0.99007   0.99267   0.99675   0.99750
 Alpha virt. eigenvalues --    0.99895   1.00418   1.00590   1.01122   1.01262
 Alpha virt. eigenvalues --    1.01592   1.01862   1.01961   1.02231   1.02876
 Alpha virt. eigenvalues --    1.02989   1.03116   1.03819   1.04003   1.04499
 Alpha virt. eigenvalues --    1.04673   1.04883   1.05317   1.05553   1.05604
 Alpha virt. eigenvalues --    1.06148   1.06434   1.06833   1.06935   1.07211
 Alpha virt. eigenvalues --    1.07410   1.07843   1.08001   1.08241   1.08617
 Alpha virt. eigenvalues --    1.08710   1.09134   1.09499   1.09814   1.10201
 Alpha virt. eigenvalues --    1.10448   1.10818   1.11092   1.11214   1.11487
 Alpha virt. eigenvalues --    1.12087   1.12231   1.12720   1.12782   1.12903
 Alpha virt. eigenvalues --    1.13016   1.13283   1.13441   1.13873   1.14233
 Alpha virt. eigenvalues --    1.14492   1.14946   1.15195   1.15249   1.15667
 Alpha virt. eigenvalues --    1.15867   1.16161   1.16318   1.16669   1.16922
 Alpha virt. eigenvalues --    1.17095   1.17568   1.18010   1.18119   1.18406
 Alpha virt. eigenvalues --    1.18763   1.19022   1.19309   1.19777   1.20034
 Alpha virt. eigenvalues --    1.20125   1.20502   1.20731   1.20893   1.21274
 Alpha virt. eigenvalues --    1.21733   1.21927   1.22093   1.22855   1.22920
 Alpha virt. eigenvalues --    1.22956   1.23233   1.23333   1.23604   1.23961
 Alpha virt. eigenvalues --    1.24237   1.24337   1.24579   1.24898   1.25112
 Alpha virt. eigenvalues --    1.25544   1.25813   1.26248   1.26346   1.26490
 Alpha virt. eigenvalues --    1.26842   1.26900   1.27076   1.27265   1.27498
 Alpha virt. eigenvalues --    1.27888   1.28091   1.28564   1.28602   1.28863
 Alpha virt. eigenvalues --    1.28974   1.29314   1.29497   1.29763   1.30376
 Alpha virt. eigenvalues --    1.30709   1.30882   1.31034   1.31395   1.31516
 Alpha virt. eigenvalues --    1.32047   1.32232   1.32334   1.32670   1.32877
 Alpha virt. eigenvalues --    1.33233   1.33618   1.34042   1.34466   1.34585
 Alpha virt. eigenvalues --    1.34667   1.34918   1.35119   1.35630   1.36098
 Alpha virt. eigenvalues --    1.36339   1.36528   1.36750   1.36988   1.37228
 Alpha virt. eigenvalues --    1.37394   1.37467   1.37644   1.37754   1.38237
 Alpha virt. eigenvalues --    1.38591   1.38835   1.39215   1.39270   1.39618
 Alpha virt. eigenvalues --    1.39795   1.40074   1.40196   1.40571   1.40639
 Alpha virt. eigenvalues --    1.41343   1.41476   1.41869   1.42176   1.42460
 Alpha virt. eigenvalues --    1.42619   1.43202   1.43225   1.43455   1.43855
 Alpha virt. eigenvalues --    1.44032   1.44333   1.44620   1.44916   1.45292
 Alpha virt. eigenvalues --    1.45682   1.46103   1.46581   1.46758   1.47189
 Alpha virt. eigenvalues --    1.47333   1.47502   1.47655   1.48111   1.48352
 Alpha virt. eigenvalues --    1.48753   1.49099   1.49410   1.49865   1.50035
 Alpha virt. eigenvalues --    1.50481   1.50615   1.50774   1.51236   1.51865
 Alpha virt. eigenvalues --    1.52500   1.52595   1.52800   1.53006   1.53078
 Alpha virt. eigenvalues --    1.53356   1.53742   1.53853   1.54088   1.54285
 Alpha virt. eigenvalues --    1.54340   1.54742   1.55197   1.55426   1.55919
 Alpha virt. eigenvalues --    1.55974   1.56226   1.56631   1.57068   1.57262
 Alpha virt. eigenvalues --    1.57610   1.58442   1.58619   1.59018   1.59187
 Alpha virt. eigenvalues --    1.59704   1.60028   1.60094   1.60456   1.61073
 Alpha virt. eigenvalues --    1.61148   1.61441   1.61781   1.62497   1.62658
 Alpha virt. eigenvalues --    1.62931   1.62991   1.63168   1.63520   1.64185
 Alpha virt. eigenvalues --    1.64491   1.64742   1.65507   1.65819   1.65939
 Alpha virt. eigenvalues --    1.66292   1.66529   1.66754   1.67178   1.67334
 Alpha virt. eigenvalues --    1.67458   1.67621   1.67774   1.68210   1.68735
 Alpha virt. eigenvalues --    1.68994   1.69530   1.69550   1.69736   1.70128
 Alpha virt. eigenvalues --    1.70299   1.70436   1.70747   1.71097   1.71391
 Alpha virt. eigenvalues --    1.71705   1.71925   1.72195   1.72325   1.72671
 Alpha virt. eigenvalues --    1.72740   1.72970   1.73102   1.73155   1.73388
 Alpha virt. eigenvalues --    1.73552   1.73702   1.74059   1.74519   1.74775
 Alpha virt. eigenvalues --    1.74994   1.75093   1.75221   1.75461   1.75629
 Alpha virt. eigenvalues --    1.75689   1.76242   1.76295   1.76590   1.76604
 Alpha virt. eigenvalues --    1.76760   1.76844   1.77056   1.77260   1.77437
 Alpha virt. eigenvalues --    1.77578   1.77698   1.77913   1.78149   1.78221
 Alpha virt. eigenvalues --    1.78255   1.78490   1.78616   1.78981   1.79044
 Alpha virt. eigenvalues --    1.79208   1.79238   1.79492   1.79654   1.79694
 Alpha virt. eigenvalues --    1.79856   1.79906   1.80013   1.80233   1.80648
 Alpha virt. eigenvalues --    1.80832   1.81048   1.81161   1.81449   1.81650
 Alpha virt. eigenvalues --    1.81770   1.81920   1.81990   1.82098   1.82401
 Alpha virt. eigenvalues --    1.82533   1.82736   1.82880   1.83181   1.83340
 Alpha virt. eigenvalues --    1.83453   1.83677   1.83789   1.84020   1.84118
 Alpha virt. eigenvalues --    1.84215   1.84343   1.84475   1.84683   1.84773
 Alpha virt. eigenvalues --    1.84976   1.85143   1.85359   1.85697   1.86046
 Alpha virt. eigenvalues --    1.86281   1.86331   1.86481   1.86609   1.86822
 Alpha virt. eigenvalues --    1.86851   1.87237   1.87487   1.87709   1.87847
 Alpha virt. eigenvalues --    1.87988   1.88350   1.88509   1.88613   1.88731
 Alpha virt. eigenvalues --    1.89177   1.89607   1.89687   1.90104   1.90285
 Alpha virt. eigenvalues --    1.90465   1.90505   1.90953   1.91073   1.91111
 Alpha virt. eigenvalues --    1.91315   1.91401   1.91863   1.91997   1.92224
 Alpha virt. eigenvalues --    1.92328   1.92500   1.92791   1.93157   1.93245
 Alpha virt. eigenvalues --    1.93418   1.93568   1.93999   1.94138   1.94388
 Alpha virt. eigenvalues --    1.95019   1.95142   1.95453   1.95568   1.95674
 Alpha virt. eigenvalues --    1.95808   1.95973   1.96273   1.96594   1.96901
 Alpha virt. eigenvalues --    1.97128   1.97358   1.97430   1.97754   1.97900
 Alpha virt. eigenvalues --    1.98022   1.98227   1.98412   1.98682   1.98872
 Alpha virt. eigenvalues --    1.99037   1.99249   1.99486   1.99902   2.00146
 Alpha virt. eigenvalues --    2.00544   2.00757   2.00998   2.01333   2.01601
 Alpha virt. eigenvalues --    2.01739   2.01862   2.02056   2.02306   2.02476
 Alpha virt. eigenvalues --    2.02672   2.02744   2.02918   2.03100   2.03457
 Alpha virt. eigenvalues --    2.03629   2.03996   2.04188   2.04339   2.04712
 Alpha virt. eigenvalues --    2.04898   2.05372   2.05556   2.05695   2.06029
 Alpha virt. eigenvalues --    2.06441   2.06581   2.06996   2.07076   2.07369
 Alpha virt. eigenvalues --    2.07738   2.08147   2.08468   2.08654   2.08873
 Alpha virt. eigenvalues --    2.09042   2.09214   2.09432   2.09743   2.09945
 Alpha virt. eigenvalues --    2.10500   2.10654   2.10859   2.11164   2.11532
 Alpha virt. eigenvalues --    2.11607   2.11800   2.12309   2.12670   2.12747
 Alpha virt. eigenvalues --    2.13103   2.13286   2.13704   2.13893   2.14140
 Alpha virt. eigenvalues --    2.14617   2.14913   2.15028   2.15569   2.15767
 Alpha virt. eigenvalues --    2.16373   2.16571   2.16806   2.17024   2.17368
 Alpha virt. eigenvalues --    2.17719   2.17852   2.18231   2.18429   2.18802
 Alpha virt. eigenvalues --    2.19263   2.19567   2.19916   2.20062   2.20283
 Alpha virt. eigenvalues --    2.20543   2.20930   2.21338   2.21595   2.21736
 Alpha virt. eigenvalues --    2.22102   2.22175   2.22675   2.22768   2.22896
 Alpha virt. eigenvalues --    2.23219   2.23478   2.23938   2.24402   2.24587
 Alpha virt. eigenvalues --    2.24731   2.24899   2.25675   2.25795   2.25919
 Alpha virt. eigenvalues --    2.26400   2.26687   2.27148   2.27334   2.27473
 Alpha virt. eigenvalues --    2.27867   2.28060   2.28423   2.28607   2.29139
 Alpha virt. eigenvalues --    2.29278   2.29600   2.30296   2.30414   2.30724
 Alpha virt. eigenvalues --    2.30958   2.31275   2.31318   2.31971   2.32446
 Alpha virt. eigenvalues --    2.32567   2.33499   2.33669   2.34096   2.34312
 Alpha virt. eigenvalues --    2.34457   2.35370   2.35494   2.35774   2.36141
 Alpha virt. eigenvalues --    2.36395   2.36467   2.36678   2.36839   2.37173
 Alpha virt. eigenvalues --    2.37507   2.38114   2.38371   2.38522   2.38742
 Alpha virt. eigenvalues --    2.38892   2.39405   2.39973   2.40266   2.40619
 Alpha virt. eigenvalues --    2.40902   2.41142   2.41250   2.41508   2.41787
 Alpha virt. eigenvalues --    2.41899   2.42172   2.42769   2.42863   2.43088
 Alpha virt. eigenvalues --    2.43269   2.43777   2.44321   2.44799   2.45234
 Alpha virt. eigenvalues --    2.45572   2.45747   2.46052   2.46581   2.47027
 Alpha virt. eigenvalues --    2.47443   2.47712   2.47846   2.48364   2.48767
 Alpha virt. eigenvalues --    2.48805   2.49039   2.49924   2.50187   2.50763
 Alpha virt. eigenvalues --    2.51319   2.51471   2.51767   2.51952   2.52223
 Alpha virt. eigenvalues --    2.52525   2.52677   2.53029   2.54117   2.54320
 Alpha virt. eigenvalues --    2.54551   2.55065   2.55176   2.55348   2.55518
 Alpha virt. eigenvalues --    2.55679   2.56286   2.57059   2.57195   2.57526
 Alpha virt. eigenvalues --    2.57642   2.58491   2.58618   2.58645   2.59237
 Alpha virt. eigenvalues --    2.59653   2.59803   2.59948   2.60338   2.60482
 Alpha virt. eigenvalues --    2.60733   2.61180   2.61303   2.61683   2.62082
 Alpha virt. eigenvalues --    2.62100   2.62626   2.62981   2.63398   2.63436
 Alpha virt. eigenvalues --    2.63709   2.63935   2.64382   2.64994   2.65143
 Alpha virt. eigenvalues --    2.65226   2.65345   2.66954   2.67200   2.67283
 Alpha virt. eigenvalues --    2.67514   2.67894   2.68206   2.68389   2.69019
 Alpha virt. eigenvalues --    2.69397   2.69425   2.69871   2.70046   2.70143
 Alpha virt. eigenvalues --    2.70312   2.70560   2.70854   2.70948   2.71424
 Alpha virt. eigenvalues --    2.71504   2.71819   2.71942   2.72229   2.72331
 Alpha virt. eigenvalues --    2.72706   2.72803   2.73005   2.73578   2.73792
 Alpha virt. eigenvalues --    2.74104   2.74333   2.74520   2.74721   2.74982
 Alpha virt. eigenvalues --    2.75550   2.75699   2.75886   2.76209   2.76340
 Alpha virt. eigenvalues --    2.76497   2.76900   2.77002   2.77158   2.77674
 Alpha virt. eigenvalues --    2.77772   2.77848   2.78235   2.78293   2.78743
 Alpha virt. eigenvalues --    2.79059   2.79443   2.79812   2.79949   2.80058
 Alpha virt. eigenvalues --    2.80207   2.80317   2.80667   2.81004   2.81362
 Alpha virt. eigenvalues --    2.81395   2.81861   2.82053   2.82698   2.82911
 Alpha virt. eigenvalues --    2.83715   2.83981   2.84614   2.84727   2.85040
 Alpha virt. eigenvalues --    2.85393   2.85928   2.86147   2.86343   2.86559
 Alpha virt. eigenvalues --    2.86607   2.87016   2.87321   2.87596   2.87772
 Alpha virt. eigenvalues --    2.88430   2.88575   2.88778   2.89146   2.89542
 Alpha virt. eigenvalues --    2.89705   2.89768   2.90459   2.90739   2.91237
 Alpha virt. eigenvalues --    2.91734   2.91755   2.91834   2.92613   2.92656
 Alpha virt. eigenvalues --    2.92715   2.92731   2.92907   2.93594   2.93962
 Alpha virt. eigenvalues --    2.94144   2.94258   2.94742   2.95026   2.95413
 Alpha virt. eigenvalues --    2.95833   2.96222   2.96384   2.96530   2.97002
 Alpha virt. eigenvalues --    2.97194   2.97752   2.98016   2.98277   2.98508
 Alpha virt. eigenvalues --    2.98927   2.99539   2.99845   3.00198   3.00326
 Alpha virt. eigenvalues --    3.00468   3.00807   3.00853   3.01072   3.01512
 Alpha virt. eigenvalues --    3.01547   3.01716   3.01804   3.02107   3.02321
 Alpha virt. eigenvalues --    3.02885   3.03761   3.04539   3.04788   3.04941
 Alpha virt. eigenvalues --    3.05061   3.05345   3.05662   3.06080   3.06546
 Alpha virt. eigenvalues --    3.06870   3.07290   3.07923   3.08781   3.09133
 Alpha virt. eigenvalues --    3.09458   3.10133   3.10301   3.11260   3.11426
 Alpha virt. eigenvalues --    3.11518   3.12118   3.12904   3.13264   3.13765
 Alpha virt. eigenvalues --    3.14283   3.15009   3.15958   3.16969   3.17016
 Alpha virt. eigenvalues --    3.17047   3.17282   3.17386   3.17512   3.17940
 Alpha virt. eigenvalues --    3.17985   3.18145   3.18830   3.19166   3.19627
 Alpha virt. eigenvalues --    3.19923   3.20487   3.20783   3.20918   3.21363
 Alpha virt. eigenvalues --    3.21467   3.22018   3.22745   3.23600   3.23878
 Alpha virt. eigenvalues --    3.24420   3.24578   3.24859   3.25023   3.25062
 Alpha virt. eigenvalues --    3.25634   3.25723   3.25910   3.27114   3.28154
 Alpha virt. eigenvalues --    3.28423   3.28705   3.29497   3.29826   3.30466
 Alpha virt. eigenvalues --    3.30841   3.31751   3.31989   3.33502   3.35012
 Alpha virt. eigenvalues --    3.35454   3.35914   3.36972   3.38153   3.38749
 Alpha virt. eigenvalues --    3.40541   3.43446   3.48520   3.49800   3.50606
 Alpha virt. eigenvalues --    3.51192   3.52528   3.53773   3.56223   3.56796
 Alpha virt. eigenvalues --    3.57002   3.57514   3.58254   3.59201   3.60690
 Alpha virt. eigenvalues --    3.60797   3.61768   3.62827   3.63626   3.64158
 Alpha virt. eigenvalues --    3.65832   3.66605   3.67271   3.67582   3.68143
 Alpha virt. eigenvalues --    3.69555   3.69725   3.70127   3.70184   3.70847
 Alpha virt. eigenvalues --    3.71148   3.71648   3.72133   3.72373   3.72771
 Alpha virt. eigenvalues --    3.73248   3.74195   3.74597   3.75048   3.75441
 Alpha virt. eigenvalues --    3.77518   3.80257   3.82064   3.82933
          Condensed to atoms (all electrons):
 Mulliken charges:
               1
     1  C    0.045529
     2  C    0.017415
     3  O   -0.284847
     4  H    0.031792
     5  H    0.029334
     6  H    0.004849
     7  N   -0.103360
     8  C    0.131113
     9  C    0.048682
    10  O   -0.312634
    11  C    0.023553
    12  C    0.173246
    13  O   -0.454714
    14  O   -0.378880
    15  H    0.117427
    16  H    0.009333
    17  H    0.002547
    18  H    0.007951
    19  N   -0.116672
    20  C    0.138239
    21  C    0.042337
    22  O   -0.328803
    23  C   -0.001154
    24  C    0.014049
    25  C   -0.005125
    26  C   -0.026782
    27  N    0.091251
    28  H    0.143730
    29  H   -0.016540
    30  H   -0.008664
    31  H    0.021887
    32  H    0.012782
    33  H    0.045019
    34  H    0.034090
    35  H    0.038994
    36  H    0.093098
    37  H    0.058203
    38  H    0.190859
    39  H    0.206265
    40  H    0.196663
    41  N   -0.125342
    42  C    0.141408
    43  C    0.033658
    44  O   -0.284385
    45  C    0.079240
    46  C    0.126851
    47  O   -0.401524
    48  O   -0.481024
    49  H    0.163259
    50  H   -0.005383
    51  H    0.003389
    52  H    0.012895
    53  N   -0.167081
    54  C    0.239484
    55  C    0.022741
    56  O   -0.284104
    57  H    0.145818
    58  H    0.026640
    59  H    0.023667
    60  N   -0.183334
    61  C    0.138854
    62  C    0.026667
    63  O   -0.292949
    64  C    0.082711
    65  C    0.099179
    66  N   -0.027618
    67  O   -0.358163
    68  H    0.146900
    69  H    0.030846
    70  H    0.081491
    71  H   -0.017075
    72  H    0.124834
    73  H    0.116772
    74  N   -0.175110
    75  C    0.246558
    76  C    0.027835
    77  O   -0.300433
    78  H    0.152054
    79  H    0.050026
    80  H    0.018003
    81  N   -0.122198
    82  C    0.112501
    83  C    0.146017
    84  O   -0.355754
    85  C    0.177007
    86  C    0.017423
    87  C   -0.015743
    88  C    0.000331
    89  C    0.000846
    90  C   -0.050551
    91  C    0.171447
    92  O   -0.194721
    93  H    0.139128
    94  H   -0.015780
    95  H   -0.021050
    96  H   -0.035355
    97  H   -0.059456
    98  H   -0.046036
    99  H   -0.023088
   100  H   -0.051491
   101  H    0.172814
   102  N   -0.119020
   103  C    0.127789
   104  C    0.073090
   105  O   -0.272060
   106  C   -0.053711
   107  C   -0.032648
   108  C    0.018953
   109  C    0.040026
   110  H    0.139868
   111  H    0.000232
   112  H   -0.028540
   113  H    0.015928
   114  H    0.019883
   115  H    0.013978
   116  H    0.010542
   117  H    0.045253
   118  H    0.016852
   119  H    0.013709
   120  H   -0.006843
   121  N   -0.136375
   122  C    0.122335
   123  C    0.092568
   124  O   -0.274202
   125  C    0.210698
   126  O   -0.299224
   127  H    0.145588
   128  H    0.038794
   129  H    0.014011
   130  H   -0.032077
   131  H    0.185415
   132  N   -0.133577
   133  C    0.077949
   134  C    0.055560
   135  O   -0.250242
   136  C    0.051299
   137  H    0.114912
   138  H    0.018734
   139  H    0.033057
   140  H    0.018762
   141  H    0.047876
   142  N   -0.151362
   143  C    0.083396
   144  C    0.090144
   145  O   -0.272753
   146  C    0.042500
   147  H    0.097538
   148  H    0.024779
   149  H    0.035347
   150  H    0.007992
   151  H    0.004698
   152  N   -0.146950
   153  C    0.155293
   154  C    0.060860
   155  O   -0.300262
   156  C   -0.005963
   157  C    0.138798
   158  C    0.121509
   159  O   -0.401606
   160  O   -0.477289
   161  H    0.128994
   162  H    0.001304
   163  H    0.046691
   164  H   -0.026936
   165  H   -0.026724
   166  H   -0.024664
   167  N   -0.147947
   168  C    0.127557
   169  H    0.024590
   170  H    0.034961
   171  H    0.007905
   172  H    0.118981
   173  Ca   1.302496
   174  O   -0.266668
   175  H    0.148854
   176  H    0.182183
 Sum of Mulliken charges =   0.00000
 Mulliken charges with hydrogens summed into heavy atoms:
               1
     1  C    0.111504
     2  C    0.017415
     3  O   -0.284847
     7  N    0.014068
     8  C    0.140446
     9  C    0.048682
    10  O   -0.312634
    11  C    0.034052
    12  C    0.173246
    13  O   -0.454714
    14  O   -0.378880
    19  N    0.027058
    20  C    0.121699
    21  C    0.042337
    22  O   -0.328803
    23  C    0.012069
    24  C    0.071850
    25  C    0.067959
    26  C    0.124519
    27  N    0.685037
    41  N    0.037917
    42  C    0.136025
    43  C    0.033658
    44  O   -0.284385
    45  C    0.095524
    46  C    0.126851
    47  O   -0.401524
    48  O   -0.481024
    53  N   -0.021263
    54  C    0.289791
    55  C    0.022741
    56  O   -0.284104
    60  N   -0.036434
    61  C    0.169700
    62  C    0.026667
    63  O   -0.292949
    64  C    0.147127
    65  C    0.099179
    66  N    0.213988
    67  O   -0.358163
    74  N   -0.023055
    75  C    0.314587
    76  C    0.027835
    77  O   -0.300433
    81  N    0.016930
    82  C    0.096721
    83  C    0.146017
    84  O   -0.355754
    85  C    0.120602
    86  C    0.017423
    87  C   -0.075198
    88  C   -0.045705
    89  C   -0.022242
    90  C   -0.102042
    91  C    0.171447
    92  O   -0.021907
   102  N    0.020848
   103  C    0.128021
   104  C    0.073090
   105  O   -0.272060
   106  C   -0.082250
   107  C    0.003163
   108  C    0.088726
   109  C    0.063744
   121  N    0.009213
   122  C    0.161129
   123  C    0.092568
   124  O   -0.274202
   125  C    0.192632
   126  O   -0.113809
   132  N   -0.018664
   133  C    0.096683
   134  C    0.055560
   135  O   -0.250242
   136  C    0.150994
   142  N   -0.053824
   143  C    0.108174
   144  C    0.090144
   145  O   -0.272753
   146  C    0.090537
   152  N   -0.017956
   153  C    0.156597
   154  C    0.060860
   155  O   -0.300262
   156  C    0.013791
   157  C    0.087410
   158  C    0.121509
   159  O   -0.401606
   160  O   -0.477289
   167  N   -0.028966
   168  C    0.195013
   173  Ca   1.302496
   174  O    0.064369
 DipInt: DoE/N= T F RetVal/Mat= T F Init=T NMatP=  1 IDeriv=0 Min/MaxMlt=  0  4
 Entering OneElI...
 OneElI was handed  4286741430 working-precision words.
 Multipole integrals L=0 to 4 MinM= 0 MaxM= 0.
 Requested accuracy = 0.1000D-12
 ShPair: Thresh= 1.00D-13 NBox=     0 BxSize= 0.00D+00 RnKept= 2.55D+01
         NSMCal=               327645 NSMKep=              158391
 PrsmSu:  NPrtUS=   1 ThrOK=F IAlg=1 NPAlg=1 LenDen=           0.
 Prism:   IPart=     0 DynPar=F LinDyn=F Incr=         512.
 PRISM was handed  4276746200 working-precision words and158391 shell-pairs
 IPart=  0 NShTot=      158391 NBatch=         447 AvBLen=       354.3
 PrSmSu:  NxtVal=            513.
 Electronic moments (au):
       -716.00000000         11.06592013          4.16846306         -3.30415136
     -54027.96781408     -32190.86287300     -11626.39492517         54.14944530
        -26.81507901         42.56394104    -109944.01808766     -36724.60858403
     -13909.93288309      37147.16167618     119793.83312862      44454.65989073
      -8324.56224802     -10764.80536281       1701.71247101     -21168.95064457
   -8209150.65521466   -3879527.82599615    -547945.87744511     376332.18241717
     395448.80853014    -917472.59037033      39344.30226108     -83537.41854024
     -71429.67540734   -2174807.19697083    -653038.12056221    -303621.70578579
    -133295.88149941      16023.43536732      48286.85930113
 Electronic spatial extent (au):  <R**2>=          97845.2256
 DipInt: DoE/N= F T RetVal/Mat= T F Init=T NMatP=  1 IDeriv=0 Min/MaxMlt=  0  4
 Nuclear    moments (au):
        716.00000000          0.00000000          0.00000000          0.00000000
      53493.36118638      31992.02792096      11238.47728617          0.00000000
          0.00000000          0.00000000     110939.91597157      40105.14415197
      13701.33717521     -35365.08906198    -120330.25524444     -44967.25810597
       8495.80083275      10679.24383236      -1727.88249631      21134.21925183
    7990047.18605594    3845770.28793367     511083.57249326    -379897.08355869
    -398799.65074950     945953.05061574     -36838.25185823      83430.31690566
      73810.55403730    2134383.60713850     616255.17957034     278641.93056783
     135982.86329576     -18482.89968230     -49223.56477602
 Total      moments (au):
          0.00000000         11.06592013          4.16846306         -3.30415136
       -534.60662770       -198.83495205       -387.91763900         54.14944530
        -26.81507901         42.56394104        995.89788391       3380.53556793
       -208.59570788       1782.07261420       -536.42211582       -512.59821524
        171.23858474        -85.56153045        -26.17002530        -34.73139274
    -219103.46915872     -33757.53806248     -36862.30495184      -3564.90114152
      -3350.84221936      28480.46024541       2506.05040285       -107.10163457
       2380.87862996     -40423.58983233     -36782.94099186     -24979.77521796
       2686.98179635      -2459.46431499       -936.70547489
 Traceless Quadrup. (au):
       -160.82022145        174.95145420        -14.13123275         54.14944530
        -26.81507901         42.56394104
 Charge=              0.0000 electrons
 Dipole moment (field-independent basis, Debye):
    X=             28.1268    Y=             10.5952    Z=             -8.3983  Tot=             31.2074
 Quadrupole moment (field-independent basis, Debye-Ang):
   XX=           -719.0642   YY=           -267.4398   ZZ=           -521.7625
   XY=             72.8329   XZ=            -36.0672   YZ=             57.2500
 Traceless Quadrupole moment (field-independent basis, Debye-Ang):
   XX=           -216.3087   YY=            235.3157   ZZ=            -19.0070
   XY=             72.8329   XZ=            -36.0672   YZ=             57.2500
 Octapole moment (field-independent basis, Debye-Ang**2):
  XXX=            708.8417  YYY=           2406.1348  ZZZ=           -148.4704  XYY=           1268.4106
  XXY=           -381.8046  XXZ=           -364.8476  XZZ=            121.8810  YZZ=            -60.8994
  YYZ=            -18.6268  XYZ=            -24.7205
 Hexadecapole moment (field-independent basis, Debye-Ang**3):
 XXXX=         -82524.8674 YYYY=         -12714.7067 ZZZZ=         -13884.1107 XXXY=          -1342.7126
 XXXZ=          -1262.0878 YYYX=          10727.1063 YYYZ=            943.8987 ZZZX=            -40.3396
 ZZZY=            896.7530 XXYY=         -15225.4613 XXZZ=         -13854.2185 YYZZ=          -9408.5805
 XXYZ=           1012.0461 YYXZ=           -926.3521 ZZXY=           -352.8082
 N-N= 2.154181790016D+04 E-N=-5.556836696473D+04  KE= 5.290356594281D+03
 Leave Link  601 at Mon Sep 16 21:23:10 2019, MaxMem=  4294967296 cpu:        21.8
 FitSet:  NAtFit=   176 NAtPot=   176 NAtFrz=     0 MDM=   180 TotChg=   0.00000
 Merz-Kollman atomic radii used.
 Read replacement radii for each type of atom:
 Rad(20) =   1.700000000000D+00
 Atom Element Radius
    1     6    1.50
    2     6    1.50
    3     8    1.40
    4     1    1.20
    5     1    1.20
    6     1    1.20
    7     7    1.50
    8     6    1.50
    9     6    1.50
   10     8    1.40
   11     6    1.50
   12     6    1.50
   13     8    1.40
   14     8    1.40
   15     1    1.20
   16     1    1.20
   17     1    1.20
   18     1    1.20
   19     7    1.50
   20     6    1.50
   21     6    1.50
   22     8    1.40
   23     6    1.50
   24     6    1.50
   25     6    1.50
   26     6    1.50
   27     7    1.50
   28     1    1.20
   29     1    1.20
   30     1    1.20
   31     1    1.20
   32     1    1.20
   33     1    1.20
   34     1    1.20
   35     1    1.20
   36     1    1.20
   37     1    1.20
   38     1    1.20
   39     1    1.20
   40     1    1.20
   41     7    1.50
   42     6    1.50
   43     6    1.50
   44     8    1.40
   45     6    1.50
   46     6    1.50
   47     8    1.40
   48     8    1.40
   49     1    1.20
   50     1    1.20
   51     1    1.20
   52     1    1.20
   53     7    1.50
   54     6    1.50
   55     6    1.50
   56     8    1.40
   57     1    1.20
   58     1    1.20
   59     1    1.20
   60     7    1.50
   61     6    1.50
   62     6    1.50
   63     8    1.40
   64     6    1.50
   65     6    1.50
   66     7    1.50
   67     8    1.40
   68     1    1.20
   69     1    1.20
   70     1    1.20
   71     1    1.20
   72     1    1.20
   73     1    1.20
   74     7    1.50
   75     6    1.50
   76     6    1.50
   77     8    1.40
   78     1    1.20
   79     1    1.20
   80     1    1.20
   81     7    1.50
   82     6    1.50
   83     6    1.50
   84     8    1.40
   85     6    1.50
   86     6    1.50
   87     6    1.50
   88     6    1.50
   89     6    1.50
   90     6    1.50
   91     6    1.50
   92     8    1.40
   93     1    1.20
   94     1    1.20
   95     1    1.20
   96     1    1.20
   97     1    1.20
   98     1    1.20
   99     1    1.20
  100     1    1.20
  101     1    1.20
  102     7    1.50
  103     6    1.50
  104     6    1.50
  105     8    1.40
  106     6    1.50
  107     6    1.50
  108     6    1.50
  109     6    1.50
  110     1    1.20
  111     1    1.20
  112     1    1.20
  113     1    1.20
  114     1    1.20
  115     1    1.20
  116     1    1.20
  117     1    1.20
  118     1    1.20
  119     1    1.20
  120     1    1.20
  121     7    1.50
  122     6    1.50
  123     6    1.50
  124     8    1.40
  125     6    1.50
  126     8    1.40
  127     1    1.20
  128     1    1.20
  129     1    1.20
  130     1    1.20
  131     1    1.20
  132     7    1.50
  133     6    1.50
  134     6    1.50
  135     8    1.40
  136     6    1.50
  137     1    1.20
  138     1    1.20
  139     1    1.20
  140     1    1.20
  141     1    1.20
  142     7    1.50
  143     6    1.50
  144     6    1.50
  145     8    1.40
  146     6    1.50
  147     1    1.20
  148     1    1.20
  149     1    1.20
  150     1    1.20
  151     1    1.20
  152     7    1.50
  153     6    1.50
  154     6    1.50
  155     8    1.40
  156     6    1.50
  157     6    1.50
  158     6    1.50
  159     8    1.40
  160     8    1.40
  161     1    1.20
  162     1    1.20
  163     1    1.20
  164     1    1.20
  165     1    1.20
  166     1    1.20
  167     7    1.50
  168     6    1.50
  169     1    1.20
  170     1    1.20
  171     1    1.20
  172     1    1.20
  173    20    1.70
  174     8    1.40
  175     1    1.20
  176     1    1.20
 Generate VDW surfaces: Layer= 4 Dens= 6 Start= 1.400 Inc= 0.200

 **********************************************************************

            Electrostatic Properties Using The SCF Density

 **********************************************************************

       Atomic Center    1 is at   0.883058  4.180745  5.350823
       Atomic Center    2 is at   0.785808  3.373612  4.058276
       Atomic Center    3 is at   1.785238  3.211143  3.371369
[...]
 **** Fit       0.003780
 **** Fit       0.008424
 **** Fit       0.013259
 **** Fit       0.007049
 **** Fit       0.010507
 **** Fit       0.013724
 **** Fit       0.015769
 **** Fit       0.016003
 **** Fit       0.009125
 **** Fit       0.011354
 **** Fit       0.012586
 **** Fit       0.012056
 **** Fit       0.009666
 **** Fit       0.005904
 **** Fit       0.009756
 **** Fit       0.009929
 **** Fit       0.008108
 **** Fit      -0.036614
 **** Fit      -0.040407
 **** Fit      -0.040177
 **** Fit      -0.043575
 **** Fit      -0.005749
 **** Fit      -0.005653
 **** Fit      -0.006663
 **** Fit      -0.006944
 **** Fit      -0.005868
 **** Fit      -0.004774
 **** Fit      -0.004813
 **** Fit      -0.005635
 **** Fit      -0.006595
 **** Fit      -0.008476
 **** Fit      -0.007573
 **** Fit      -0.003687
 **** Fit      -0.004094
 **** Fit      -0.004768
 **** Fit      -0.005737
 **** Fit      -0.006623
 **** Fit      -0.009666
 **** Fit      -0.007989
 **** Fit      -0.003066
 **** Fit      -0.003565
 **** Fit      -0.004169
 **** Fit      -0.004900
 **** Fit      -0.005986
 **** Fit      -0.006880
 **** Fit      -0.011781
 **** Fit      -0.009647
 **** Fit      -0.003110
 **** Fit      -0.003674
 **** Fit      -0.004336
 **** Fit      -0.005118
 **** Fit      -0.006391
 **** Fit      -0.007293
 **** Fit      -0.015339
 **** Fit      -0.013020
 **** Fit      -0.010045
 **** Fit      -0.002402
 **** Fit      -0.002891
 **** Fit      -0.003395
 **** Fit      -0.003980
 **** Fit      -0.004684
 **** Fit      -0.005502
 **** Fit      -0.006954
 **** Fit      -0.007958
 **** Fit      -0.008928
 **** Fit      -0.018071
 **** Fit      -0.014591
 **** Fit      -0.002161
 **** Fit      -0.002628
 **** Fit      -0.003085
 **** Fit      -0.003603
 **** Fit      -0.004244
 **** Fit      -0.005036
 **** Fit      -0.005958
 **** Fit      -0.007678
 **** Fit      -0.008803
 **** Fit      -0.009895
 **** Fit      -0.024956
 **** Fit      -0.020843
 **** Fit      -0.002069
 **** Fit      -0.002494
 **** Fit      -0.002893
 **** Fit      -0.009874
 **** Fit      -0.011124
 **** Fit      -0.026990
 **** Fit      -0.002034
 **** Fit      -0.002422
 **** Fit      -0.002777
 **** Fit      -0.012580
 **** Fit      -0.013986
 **** Fit      -0.002189
 **** Fit      -0.002517
 **** Fit      -0.014394
 **** Fit      -0.015945
 **** Fit      -0.002553
 **** Fit      -0.002778
 **** Fit      -0.018442
 **** Fit      -0.020435
 **** Fit      -0.003474
 **** Fit      -0.003430
 **** Fit      -0.003503
 **** Fit      -0.021352
 **** Fit      -0.023489
 **** Fit      -0.026392
 **** Fit      -0.005393
 **** Fit      -0.004887
 **** Fit      -0.004712
 **** Fit      -0.024765
 **** Fit      -0.026870
 **** Fit      -0.029908
 **** Fit      -0.034425
 **** Fit      -0.006751
 **** Fit      -0.028984
 **** Fit      -0.031053
 **** Fit      -0.034366
 **** Fit      -0.033126
 **** Fit      -0.033816
 **** Fit      -0.035729
 **** Fit      -0.006400
 **** Fit      -0.003331
 **** Fit      -0.003887
 **** Fit      -0.004597
 **** Fit      -0.005445
 **** Fit      -0.007173
 **** Fit      -0.008272
 **** Fit      -0.002823
 **** Fit      -0.003200
 **** Fit      -0.003726
 **** Fit      -0.004407
 **** Fit      -0.005223
 **** Fit      -0.006151
 **** Fit      -0.008219
 **** Fit      -0.009351
 **** Fit      -0.010561
 **** Fit      -0.002877
 **** Fit      -0.003238
 **** Fit      -0.003769
 **** Fit      -0.004458
 **** Fit      -0.005272
 **** Fit      -0.006180
 **** Fit      -0.007164
 **** Fit      -0.009664
 **** Fit      -0.010851
 **** Fit      -0.012141
 **** Fit      -0.013559
 **** Fit      -0.003013
 **** Fit      -0.003313
 **** Fit      -0.003845
 **** Fit      -0.004585
 **** Fit      -0.005473
 **** Fit      -0.006452
 **** Fit      -0.007481
 **** Fit      -0.008549
 **** Fit      -0.011672
 **** Fit      -0.012849
 **** Fit      -0.014137
 **** Fit      -0.015594
 **** Fit      -0.003492
 **** Fit      -0.003673
 **** Fit      -0.004192
 **** Fit      -0.005012
 **** Fit      -0.006037
 **** Fit      -0.007162
 **** Fit      -0.008309
 **** Fit      -0.009439
 **** Fit      -0.010550
 **** Fit      -0.014468
 **** Fit      -0.015580
 **** Fit      -0.016808
 **** Fit      -0.018240
 **** Fit      -0.004477
 **** Fit      -0.004804
 **** Fit      -0.005651
 **** Fit      -0.006872
 **** Fit      -0.008276
 **** Fit      -0.009700
 **** Fit      -0.011041
 **** Fit      -0.012264
 **** Fit      -0.013388
 **** Fit      -0.018377
 **** Fit      -0.019345
 **** Fit      -0.020448
 **** Fit      -0.021818
 **** Fit      -0.006210
 **** Fit      -0.006467
 **** Fit      -0.007645
 **** Fit      -0.009426
 **** Fit      -0.011423
 **** Fit      -0.013330
 **** Fit      -0.014974
 **** Fit      -0.016315
 **** Fit      -0.017412
 **** Fit      -0.023881
 **** Fit      -0.024469
 **** Fit      -0.025244
 **** Fit      -0.026391
 **** Fit      -0.009228
 **** Fit      -0.010579
 **** Fit      -0.013162
 **** Fit      -0.016144
 **** Fit      -0.018857
 **** Fit      -0.020949
 **** Fit      -0.022366
 **** Fit      -0.023263
 **** Fit      -0.031443
 **** Fit      -0.032005
 **** Fit      -0.008488
 **** Fit      -0.008075
 **** Fit      -0.009421
 **** Fit      -0.010118
 **** Fit      -0.009156
 **** Fit      -0.007928
 **** Fit      -0.009167
 **** Fit      -0.010549
 **** Fit      -0.011777
 **** Fit      -0.012300
 **** Fit      -0.011679
 **** Fit      -0.010070
 **** Fit      -0.008061
 **** Fit      -0.009196
 **** Fit      -0.010502
 **** Fit      -0.011977
 **** Fit      -0.013484
 **** Fit      -0.014714
 **** Fit      -0.015260
 **** Fit      -0.014807
 **** Fit      -0.013347
 **** Fit      -0.008485
 **** Fit      -0.009607
 **** Fit      -0.010882
 **** Fit      -0.012384
 **** Fit      -0.014115
 **** Fit      -0.015972
 **** Fit      -0.017706
 **** Fit      -0.018948
 **** Fit      -0.019308
 **** Fit      -0.018543
 **** Fit      -0.016687
 **** Fit      -0.009216
 **** Fit      -0.010379
 **** Fit      -0.011686
 **** Fit      -0.013242
 **** Fit      -0.015117
 **** Fit      -0.017310
 **** Fit      -0.019706
 **** Fit      -0.022044
 **** Fit      -0.023920
 **** Fit      -0.024870
 **** Fit      -0.024524
 **** Fit      -0.022772
 **** Fit      -0.019838
 **** Fit      -0.011484
 **** Fit      -0.012823
 **** Fit      -0.014417
 **** Fit      -0.016373
 **** Fit      -0.018759
 **** Fit      -0.021571
 **** Fit      -0.024691
 **** Fit      -0.027842
 **** Fit      -0.030570
 **** Fit      -0.032312
 **** Fit      -0.032559
 **** Fit      -0.031051
 **** Fit      -0.027902
 **** Fit      -0.013034
 **** Fit      -0.014516
 **** Fit      -0.016302
 **** Fit      -0.018543
 **** Fit      -0.021364
 **** Fit      -0.024838
 **** Fit      -0.028934
 **** Fit      -0.016614
 **** Fit      -0.018593
 **** Fit      -0.021120
 **** Fit      -0.024378
 **** Fit      -0.028532
 **** Fit      -0.019263
 **** Fit      -0.021527
 **** Fit      -0.024486
 **** Fit      -0.028406
 **** Fit      -0.025449
 **** Fit      -0.029263
 **** Fit      -0.030349
 **** Fit      -0.003852
 **** Fit      -0.004036
 **** Fit      -0.004913
 **** Fit      -0.003563
 **** Fit      -0.002753
 **** Fit      -0.003066
 **** Fit      -0.006333
 **** Fit      -0.004817
 **** Fit      -0.003100
 **** Fit      -0.002041
 **** Fit      -0.001757
 **** Fit      -0.001975
 **** Fit      -0.002503
 **** Fit      -0.003242
 **** Fit      -0.006514
 **** Fit      -0.004282
 **** Fit      -0.002310
 **** Fit      -0.001177
 **** Fit      -0.000823
 **** Fit      -0.000895
 **** Fit      -0.001178
 **** Fit      -0.001597
 **** Fit      -0.002124
 **** Fit      -0.002736
 **** Fit      -0.007790
 **** Fit       0.000255
 **** Fit      -0.000085
 **** Fit      -0.000459
 **** Fit      -0.000861
 **** Fit      -0.001310
 **** Fit      -0.001814
 **** Fit      -0.002361
 **** Fit       0.000860
 **** Fit       0.000263
 **** Fit      -0.000210
 **** Fit      -0.000643
 **** Fit      -0.001087
 **** Fit      -0.001569
 **** Fit      -0.002081
 **** Fit       0.000936
 **** Fit       0.000286
 **** Fit      -0.000199
 **** Fit      -0.000617
 **** Fit      -0.001033
 **** Fit      -0.001481
 **** Fit      -0.001958
 **** Fit       0.000429
 **** Fit      -0.000156
 **** Fit      -0.000597
 **** Fit      -0.000985
 **** Fit      -0.001390
 **** Fit      -0.001841
 **** Fit      -0.000338
 **** Fit      -0.000857
 **** Fit      -0.001227
 **** Fit      -0.001563
 **** Fit      -0.001945
 **** Fit      -0.001297
 **** Fit      -0.001816
 **** Fit      -0.002112
 **** Fit      -0.002368
 **** Fit      -0.003256
 **** Fit      -0.003537
 **** Fit       0.024396
 **** Fit       0.031353
 **** Fit       0.029841
 **** Fit       0.036335
 **** Fit       0.036389
 **** Fit       0.035226
 **** Fit       0.038559
 **** Fit       0.039494
 **** Fit       0.040511
 **** Fit       0.041085
 **** Fit       0.040646
 **** Fit       0.038431
 **** Fit       0.043027
 **** Fit       0.044120
 **** Fit       0.045343
 **** Fit      -0.019645
 **** Fit      -0.025972
 **** Fit      -0.004909
 **** Fit      -0.007596
 **** Fit      -0.010576
 **** Fit      -0.014418
 **** Fit      -0.019540
 **** Fit       0.017774
 **** Fit       0.010541
 **** Fit       0.005091
 **** Fit       0.000988
 **** Fit      -0.002395
 **** Fit      -0.005649
 **** Fit      -0.009254
 **** Fit      -0.013566
 **** Fit      -0.018778
 **** Fit       0.015664
 **** Fit       0.010371
 **** Fit       0.006157
 **** Fit       0.002675
 **** Fit      -0.000474
 **** Fit      -0.003647
 **** Fit       0.019243
 **** Fit       0.014318
 **** Fit       0.010321
 **** Fit       0.007030
 **** Fit       0.025558
 **** Fit       0.022008
 **** Fit       0.017572
 **** Fit       0.013994
 **** Fit       0.006398
 **** Fit       0.014795
 **** Fit       0.021800
 **** Fit       0.024389
 **** Fit       0.019459
 **** Fit       0.025410
 **** Fit       0.030173
 **** Fit       0.027468
 **** Fit       0.045779
 **** Fit       0.044997
 **** Fit       0.044489
 **** Fit       0.043968
 **** Fit       0.044338
 **** Fit       0.043495
 **** Fit       0.043432
 **** Fit       0.043956
 **** Fit       0.044896
 **** Fit       0.046069
 **** Fit       0.041777
 **** Fit       0.041923
 **** Fit       0.042758
 **** Fit       0.044105
 **** Fit       0.045839
 **** Fit       0.047858
 **** Fit       0.050071
 **** Fit       0.039977
 **** Fit       0.040201
 **** Fit       0.041018
 **** Fit       0.042325
 **** Fit       0.044007
 **** Fit       0.045968
 **** Fit       0.048124
 **** Fit       0.050374
 **** Fit       0.035330
 **** Fit       0.026321
 **** Fit       0.037453
 **** Fit       0.038413
 **** Fit       0.039588
 **** Fit       0.041064
 **** Fit       0.042794
 **** Fit       0.044695
 **** Fit       0.046659
 **** Fit       0.048533
 **** Fit       0.050009
 **** Fit       0.050400
 **** Fit       0.035466
 **** Fit       0.028684
 **** Fit       0.033762
 **** Fit       0.035841
 **** Fit       0.037517
 **** Fit       0.039179
 **** Fit       0.040926
 **** Fit       0.042725
 **** Fit       0.044473
 **** Fit       0.045999
 **** Fit       0.047008
 **** Fit       0.047000
 **** Fit       0.045278
 **** Fit       0.041341
 **** Fit       0.035202
 **** Fit       0.030148
 **** Fit       0.025156
 **** Fit       0.029523
 **** Fit       0.032754
 **** Fit       0.035116
 **** Fit       0.037093
 **** Fit       0.038923
 **** Fit       0.040657
 **** Fit       0.042233
 **** Fit       0.043504
 **** Fit       0.044227
 **** Fit       0.044051
 **** Fit       0.042574
 **** Fit       0.039557
 **** Fit       0.034929
 **** Fit       0.030997
 **** Fit       0.030632
 **** Fit       0.033452
 **** Fit       0.035747
 **** Fit       0.037721
 **** Fit       0.039431
 **** Fit       0.040798
 **** Fit       0.041638
 **** Fit       0.041679
 **** Fit       0.040627
 **** Fit       0.038320
 **** Fit       0.034734
 **** Fit       0.031828
 **** Fit       0.029355
 **** Fit       0.032141
 **** Fit       0.034528
 **** Fit       0.036528
 **** Fit       0.038125
 **** Fit       0.039203
 **** Fit       0.039555
 **** Fit       0.038954
 **** Fit       0.037288
 **** Fit       0.034606
 **** Fit       0.032592
 **** Fit       0.030641
 **** Fit       0.032901
 **** Fit       0.034957
 **** Fit       0.036549
 **** Fit       0.037465
 **** Fit       0.037473
 **** Fit       0.036452
 **** Fit       0.034494
 **** Fit       0.033342
 **** Fit       0.031506
 **** Fit       0.033116
 **** Fit       0.034841
 **** Fit       0.035835
 **** Fit       0.035667
 **** Fit       0.034309
 **** Fit       0.033508
 **** Fit       0.034570
 **** Fit      -0.014807
 **** Fit      -0.020167
 **** Fit      -0.003812
 **** Fit      -0.007950
 **** Fit      -0.012603
 **** Fit      -0.017650
 **** Fit       0.007996
 **** Fit       0.004440
 **** Fit       0.000768
 **** Fit      -0.003241
 **** Fit      -0.007670
 **** Fit      -0.012580
 **** Fit      -0.018239
 **** Fit       0.019331
 **** Fit       0.015116
 **** Fit       0.011402
 **** Fit       0.007873
 **** Fit       0.004256
 **** Fit       0.000364
 **** Fit      -0.003923
 **** Fit      -0.008756
 **** Fit      -0.014401
 **** Fit      -0.011821
 **** Fit      -0.001469
 **** Fit       0.007914
 **** Fit       0.025250
 **** Fit       0.020759
 **** Fit       0.016735
 **** Fit       0.013016
 **** Fit       0.009360
 **** Fit       0.005546
 **** Fit       0.001417
 **** Fit      -0.003149
 **** Fit      -0.008235
 **** Fit      -0.013708
 **** Fit      -0.018823
 **** Fit      -0.017722
 **** Fit      -0.010749
 **** Fit      -0.002471
 **** Fit       0.005886
 **** Fit       0.013681
 **** Fit       0.020756
 **** Fit       0.025205
 **** Fit       0.021202
 **** Fit       0.017384
 **** Fit       0.013683
 **** Fit       0.009933
 **** Fit       0.005996
 **** Fit       0.001815
 **** Fit      -0.002503
 **** Fit      -0.006512
 **** Fit      -0.009260
 **** Fit      -0.009579
 **** Fit      -0.006895
 **** Fit      -0.001703
 **** Fit       0.004857
 **** Fit       0.011726
 **** Fit       0.018265
 **** Fit       0.024192
 **** Fit       0.029293
 **** Fit       0.032732
 **** Fit       0.029220
 **** Fit       0.024371
 **** Fit       0.020657
 **** Fit       0.016864
 **** Fit       0.013030
 **** Fit       0.009126
 **** Fit       0.005261
 **** Fit       0.001871
 **** Fit      -0.000170
 **** Fit       0.000137
 **** Fit       0.003140
 **** Fit       0.008164
 **** Fit       0.014060
 **** Fit       0.019855
 **** Fit       0.024892
 **** Fit       0.028590
 **** Fit       0.030361
 **** Fit       0.029940
 **** Fit       0.027689
 **** Fit       0.022843
 **** Fit       0.019081
 **** Fit       0.014981
 **** Fit       0.011007
 **** Fit       0.007913
 **** Fit       0.006983
 **** Fit       0.009168
 **** Fit       0.013860
 **** Fit       0.019306
 **** Fit       0.023794
 **** Fit       0.026040
 **** Fit       0.025523
 **** Fit       0.020634
 **** Fit       0.016512
 **** Fit       0.013110
 **** Fit       0.013934
 **** Fit       0.018609
 **** Fit       0.021922
 **** Fit       0.017699
 -----------------------------------------------------------------
 Leave Link  602 at Mon Sep 16 21:23:22 2019, MaxMem=  4294967296 cpu:       152.6

 Test job not archived.
 1\1\GINC-N001\SP\RB3LYP\SVP\C54H83Ca1N15O23\PCIEPLAK\16-Sep-2019\0\\#m
 axdisk=50GB #B3LYP/SVP Density=Current scf=(tight) #IOP(5/87=12)Pop=(M
 K,readradii) iop(6/33=2) iop(6/42=6)\\SOL molecule\\0,1\C,0,46.81,40.1
 3,24.57\C,0,47.27,39.25,25.73\O,0,47.12,39.64,26.88\H,0,45.93,40.697,2
 4.872\H,0,47.609,40.819,24.297\H,0,46.561,39.503,23.714\N,0,47.8,38.07
 ,25.4\C,0,48.64,37.3,26.29\C,0,50.07,37.79,26.48\O,0,50.86,37.86,25.54
 \C,0,48.67,35.92,25.63\C,0,49.52,34.89,26.36\O,0,50.17,35.18,27.39\O,0
 ,49.42,33.72,25.94\H,0,47.85,37.84,24.42\H,0,48.26,37.28,27.31\H,0,49.
 07,36.13,24.63\H,0,47.64,35.65,25.44\N,0,50.37,38.4,27.63\C,0,51.47,39
 .31,27.82\C,0,52.83,38.66,27.63\O,0,53.77,39.44,27.49\C,0,51.32,39.98,
 29.18\C,0,50.33,41.13,29.36\C,0,50.53,42.37,28.48\C,0,51.85,43.1,28.71
 \N,0,52.03,44.35,27.96\H,0,49.73,38.31,28.41\H,0,51.49,40.05,27.01\H,0
 ,52.29,40.33,29.54\H,0,51.15,39.25,29.96\H,0,50.28,41.34,30.43\H,0,49.
 34,40.73,29.15\H,0,49.63,42.97,28.58\H,0,50.51,41.89,27.51\H,0,52.67,4
 2.42,28.48\H,0,51.95,43.37,29.76\H,0,52.72,44.95,28.4\H,0,52.45,44.08,
 27.08\H,0,51.14,44.82,27.95\N,0,52.98,37.33,27.57\C,0,54.11,36.48,27.2
 6\C,0,53.98,35.68,25.96\O,0,54.89,35.01,25.48\C,0,54.55,35.65,28.46\C,
 0,53.44,35.05,29.31\O,0,53.78,33.94,29.77\O,0,52.36,35.62,29.61\H,0,52
 .17,36.82,27.9\H,0,54.92,37.15,27.\H,0,55.23,36.16,29.14\H,0,55.13,34.
 82,28.04\N,0,52.77,35.57,25.42\C,0,52.38,34.72,24.31\C,0,52.42,33.22,2
 4.54\O,0,52.69,32.48,23.6\H,0,52.01,36.08,25.86\H,0,53.1,34.91,23.51\H
 ,0,51.33,34.93,24.11\N,0,52.35,32.77,25.8\C,0,52.63,31.42,26.22\C,0,51
 .44,30.49,25.98\O,0,51.56,29.27,26.05\C,0,53.1,31.51,27.66\C,0,52.04,3
 1.62,28.75\N,0,52.17,30.88,29.85\O,0,51.12,32.44,28.75\H,0,52.04,33.4,
 26.53\H,0,53.38,31.01,25.54\H,0,53.86,32.3,27.72\H,0,53.63,30.6,27.93\
 H,0,52.98,30.28,29.91\H,0,51.49,30.9,30.59\N,0,50.31,31.07,25.58\C,0,4
 9.08,30.43,25.16\C,0,47.85,30.71,26.01\O,0,46.79,30.23,25.62\H,0,50.29
 ,32.08,25.62\H,0,49.12,29.37,24.9\H,0,48.92,30.98,24.24\N,0,47.99,31.4
 4,27.12\C,0,46.95,31.57,28.13\C,0,46.81,32.95,28.75\O,0,47.85,33.54,29
 .01\C,0,47.01,30.51,29.23\C,0,47.47,29.14,28.81\C,0,48.82,28.77,28.72\
 C,0,46.57,28.09,28.59\C,0,49.24,27.49,28.34\C,0,46.96,26.77,28.33\C,0,
 48.32,26.43,28.18\O,0,48.79,25.22,27.75\H,0,48.86,31.93,27.22\H,0,46.,
 31.34,27.65\H,0,46.,30.39,29.6\H,0,47.62,30.93,30.03\H,0,49.6,29.43,29
 .07\H,0,45.51,28.26,28.63\H,0,50.3,27.32,28.31\H,0,46.19,26.01,28.28\H
 ,0,48.09,24.56,27.77\N,0,45.58,33.36,29.06\C,0,45.23,34.58,29.76\C,0,4
 4.74,34.22,31.16\O,0,44.01,33.26,31.37\C,0,44.46,35.56,28.88\C,0,45.11
 ,35.86,27.53\C,0,44.03,36.89,29.5\C,0,44.31,36.62,26.47\H,0,44.8,32.72
 ,29.01\H,0,46.14,35.13,30.\H,0,43.55,35.03,28.57\H,0,45.43,34.95,27.02
 \H,0,45.96,36.45,27.85\H,0,43.23,37.31,28.88\H,0,43.52,36.65,30.43\H,0
 ,44.83,37.62,29.59\H,0,44.26,37.66,26.82\H,0,44.72,36.57,25.47\H,0,43.
 27,36.33,26.49\N,0,45.13,35.05,32.13\C,0,44.75,34.9,33.52\C,0,43.9,36.
 02,34.11\O,0,43.61,36.96,33.37\C,0,46.06,34.81,34.3\O,0,46.84,35.98,34
 .19\H,0,45.68,35.85,31.86\H,0,44.16,33.99,33.56\H,0,46.62,33.94,33.97\
 H,0,45.84,34.67,35.36\H,0,47.74,35.7,34.39\N,0,43.52,36.03,35.39\C,0,4
 2.85,37.15,36.02\C,0,43.57,38.47,35.78\O,0,43.03,39.49,35.34\C,0,42.53
 ,36.86,37.48\H,0,43.75,35.26,36.\H,0,41.92,37.2,35.45\H,0,42.01,35.9,3
 7.52\H,0,43.41,36.9,38.13\H,0,41.86,37.68,37.74\N,0,44.88,38.46,36.05\
 C,0,45.72,39.63,35.99\C,0,45.99,40.16,34.58\O,0,46.4,41.31,34.47\C,0,4
 7.02,39.23,36.68\H,0,45.31,37.59,36.3\H,0,45.17,40.42,36.51\H,0,47.63,
 40.12,36.86\H,0,46.85,38.77,37.65\H,0,47.58,38.52,36.07\N,0,45.88,39.2
 6,33.6\C,0,46.08,39.67,32.23\C,0,44.78,40.11,31.56\O,0,44.8,41.09,30.8
 \C,0,46.78,38.55,31.47\C,0,48.24,38.31,31.84\C,0,48.87,37.15,31.1\O,0,
 49.19,37.2,29.89\O,0,48.86,36.01,31.62\H,0,45.74,38.29,33.83\H,0,46.68
 ,40.58,32.19\H,0,46.91,38.85,30.43\H,0,46.23,37.61,31.52\H,0,48.4,38.1
 4,32.91\H,0,48.89,39.16,31.62\N,0,43.61,39.53,31.83\C,0,42.31,39.89,31
 .31\H,0,41.622,40.057,32.138\H,0,42.394,40.802,30.719\H,0,41.933,39.08
 3,30.682\H,0,43.59,38.71,32.4\Ca,0,50.08,34.62,29.9\O,0,51.54,34.34,32
 .11\H,0,51.08,33.98,32.86\H,0,52.45,34.4,32.39\\Version=ES64L-G09RevD.
 01\State=1-A\HF=-5333.5835299\RMSD=2.088e-09\Dipole=-1.2263375,9.56679
 31,7.5974111\Quadrupole=-75.599358,97.5282187,-21.9288607,118.6942531,
 29.5389178,-104.802215\PG=C01 [X(C54H83Ca1N15O23)]\\@


 Everything starts as somebody's daydream.
                           -- Larry Niven
 Job cpu time:       0 days 14 hours 54 minutes  0.8 seconds.
 File lengths (MBytes):  RWF=   1513 Int=      0 D2E=      0 Chk=    103 Scr=      1
 Normal termination of Gaussian 09 at Mon Sep 16 21:23:23 2019.
